<event>
13    1  0.1942437E-008  0.4363763E+02  0.7546771E-02  0.1514806E+00
          2   -1    0    0  503    0  0.00000000000E+00  0.00000000000E+00  0.50069993365E+04  0.50069993365E+04  0.00000000000E+00 0. -1.
          2   -1    0    0  502    0 -0.00000000000E+00 -0.00000000000E+00 -0.38681242154E+04  0.38681242154E+04  0.00000000000E+00 0. -1.
         24    2    1    2    0    0 -0.53657544353E+02 -0.19754911666E+02 -0.47815218518E+03  0.48705900537E+03  0.72990231635E+02 0.  0.
         24    2    1    2    0    0  0.38282246952E+02  0.90750011897E+01  0.27200443406E+03  0.28651470766E+03  0.80971473219E+02 0.  0.
         25    2    1    2    0    0  0.39129744457E+02 -0.24123885928E+02  0.79507030448E+03  0.80614575875E+03  0.12498438507E+03 0.  0.
        -13    1    3    3    0    0 -0.33436936428E+01 -0.29129730930E+02 -0.72711166196E+02  0.78400479596E+02  0.00000000000E+00 0.  1.
         14    1    3    3    0    0 -0.50313850711E+02  0.93748192642E+01 -0.40544101899E+03  0.40865852577E+03  0.00000000000E+00 0. -1.
        -13    1    4    4    0    0 -0.21881365762E+02 -0.10546453025E+02  0.48774708740E+02  0.54488476320E+02  0.00000000000E+00 0.  1.
         14    1    4    4    0    0  0.60163612714E+02  0.19621454215E+02  0.22322972533E+03  0.23202623134E+03  0.00000000000E+00 0. -1.
          5    1    5    5  501    0  0.25488859202E+02  0.48878375978E+02  0.25205995208E+03  0.25806023914E+03  0.47000000000E+01 0.  1.
         -5    1    5    5    0  501  0.13640885255E+02 -0.73002261906E+02  0.54301035240E+03  0.54808551961E+03  0.47000000000E+01 0.  1.
          1    1    1    2  502    0 -0.34241759141E+02 -0.75588309017E+01 -0.33725132223E+04  0.33726955197E+04  0.00000000000E+00 0. -1.
          1    1    1    2  503    0  0.10487312086E+02  0.42362627306E+02  0.39224657901E+04  0.39227085604E+04  0.00000000000E+00 0. -1.
<mgrwt>
<rscale>  0 0.39117813E+02</rscale>
<asrwt>0</asrwt>
<pdfrwt beam="1">  1        2 0.73632343E+00 0.43637635E+02</pdfrwt>
<pdfrwt beam="2">  1        2 0.56884179E+00 0.35066137E+02</pdfrwt>
<totfact> 0.25527053E-02</totfact>
</mgrwt>
</event>
<event>
13    1  0.1942437E-008  0.7339622E+02  0.7546771E-02  0.1391934E+00
          2   -1    0    0  502    0  0.00000000000E+00  0.00000000000E+00  0.16220118980E+04  0.16220118980E+04  0.00000000000E+00 0. -1.
          2   -1    0    0  503    0 -0.00000000000E+00 -0.00000000000E+00 -0.14057182845E+04  0.14057182845E+04  0.00000000000E+00 0. -1.
         24    2    1    2    0    0 -0.18888964480E+03 -0.17225132320E+03 -0.33549768717E+03  0.42953284415E+03  0.81178506080E+02 0.  0.
         24    2    1    2    0    0  0.42484327646E+02  0.22516426023E+03 -0.13446464748E+03  0.27783292617E+03  0.81280571227E+02 0.  0.
         25    2    1    2    0    0  0.19774246326E+03  0.60302099599E+02  0.64039818721E+03  0.68444963307E+03  0.12499214788E+03 0.  0.
        -11    1    4    4    0    0 -0.10970007113E+02  0.14278102580E+03 -0.95791233699E+02  0.17228674597E+03  0.00000000000E+00 0.  1.
         12    1    4    4    0    0  0.53454334759E+02  0.82383234435E+02 -0.38673413786E+02  0.10554618020E+03  0.00000000000E+00 0. -1.
        -13    1    3    3    0    0 -0.10866964469E+03 -0.11900390874E+03 -0.26516886874E+03  0.31029913136E+03  0.00000000000E+00 0.  1.
         14    1    3    3    0    0 -0.80220000107E+02 -0.53247414464E+02 -0.70328818429E+02  0.11923371279E+03  0.00000000000E+00 0. -1.
          5    1    5    5  501    0  0.64744691287E+02  0.28731430279E+02  0.41323862942E+03  0.41929181363E+03  0.47000000000E+01 0. -1.
         -5    1    5    5    0  501  0.13299777198E+03  0.31570669320E+02  0.22715955780E+03  0.26515781944E+03  0.47000000000E+01 0. -1.
          1    1    1    2  502    0 -0.25540994707E+02 -0.44618495015E+02  0.83840827896E+03  0.83998309193E+03  0.00000000000E+00 0. -1.
          1    1    1    2  503    0 -0.25796151406E+02 -0.68596541612E+02 -0.79255051804E+03  0.79593168714E+03  0.00000000000E+00 0. -1.
<mgrwt>
<rscale>  0 0.61428144E+02</rscale>
<asrwt>0</asrwt>
<pdfrwt beam="1">  1        2 0.23853116E+00 0.51411599E+02</pdfrwt>
<pdfrwt beam="2">  1        2 0.20672328E+00 0.73396218E+02</pdfrwt>
<totfact> 0.42020267E+01</totfact>
</mgrwt>
</event>
<event>
13    1  0.1942437E-008  0.5453640E+02  0.7546771E-02  0.1571089E+00
          2   -1    0    0  503    0  0.00000000000E+00  0.00000000000E+00  0.42882621710E+04  0.42882621710E+04  0.00000000000E+00 0. -1.
         -1   -1    0    0    0  501 -0.00000000000E+00 -0.00000000000E+00 -0.12352635238E+03  0.12352635238E+03  0.00000000000E+00 0.  1.
         24    2    1    2    0    0 -0.42456078382E+02 -0.19030573882E+02  0.92933136705E+03  0.93344222324E+03  0.74114188925E+02 0.  0.
         24    2    1    2    0    0  0.59343211838E+02  0.15423842038E+02  0.46674119353E+03  0.47627865796E+03  0.72349890114E+02 0.  0.
         25    2    1    2    0    0 -0.71810063795E+02 -0.43288615584E+02  0.19719910422E+04  0.19777261555E+04  0.12498594306E+03 0.  0.
        -11    1    4    4    0    0  0.63614016450E+02  0.36423786751E+02  0.37018097372E+03  0.37736903508E+03  0.00000000000E+00 0.  1.
         12    1    4    4    0    0 -0.42708046123E+01 -0.20999944713E+02  0.96560219804E+02  0.98909622881E+02  0.00000000000E+00 0. -1.
        -13    1    3    3    0    0 -0.28798108176E+02  0.23542646793E+02  0.59100287633E+03  0.59217226133E+03  0.00000000000E+00 0.  1.
         14    1    3    3    0    0 -0.13657970207E+02 -0.42573220675E+02  0.33832849072E+03  0.34126996191E+03  0.00000000000E+00 0. -1.
          5    1    5    5  502    0 -0.15094616168E+02  0.17092879130E+01  0.26655916659E+02  0.31038637138E+02  0.47000000000E+01 0.  1.
         -5    1    5    5    0  502 -0.56715447627E+02 -0.44997903497E+02  0.19453351256E+04  0.19466875183E+04  0.47000000000E+01 0.  1.
          1    1    1    2  503    0  0.92625295977E+01  0.17133873172E+02  0.90387194197E+03  0.90408177260E+03  0.00000000000E+00 0. -1.
         -2    1    1    2    0  501  0.45660400742E+02  0.29761474256E+02 -0.10719972616E+03  0.12025971410E+03  0.00000000000E+00 0.  1.
<mgrwt>
<rscale>  0 0.32591720E+02</rscale>
<asrwt>0</asrwt>
<pdfrwt beam="1">  1        2 0.63062669E+00 0.19477270E+02</pdfrwt>
<pdfrwt beam="2">  1       -1 0.18165643E-01 0.54536400E+02</pdfrwt>
<totfact> 0.17773381E+01</totfact>
</mgrwt>
</event>
<event>
13    1  0.1942437E-008  0.3684505E+02  0.7546771E-02  0.1540666E+00
          2   -1    0    0  502    0  0.00000000000E+00  0.00000000000E+00  0.96451414231E+03  0.96451414231E+03  0.00000000000E+00 0. -1.
          2   -1    0    0  503    0 -0.00000000000E+00 -0.00000000000E+00 -0.15887217718E+04  0.15887217718E+04  0.00000000000E+00 0. -1.
         24    2    1    2    0    0  0.14180007617E+03  0.85754544268E+02 -0.53068793548E+02  0.20137937643E+03  0.10137185477E+03 0.  0.
         24    2    1    2    0    0 -0.66799192322E+02 -0.17758965080E+03  0.87695401106E+02  0.22658290604E+03  0.87459212043E+02 0.  0.
         25    2    1    2    0    0 -0.11757193024E+03  0.50514628384E+02  0.73118896141E+02  0.19325541984E+03  0.12500559132E+03 0.  0.
        -11    1    3    3    0    0  0.11917961675E+03  0.10887384806E+03 -0.49480843995E+02  0.16883616248E+03  0.00000000000E+00 0.  1.
         12    1    3    3    0    0  0.22620459420E+02 -0.23119303791E+02 -0.35879495536E+01  0.32543213950E+02  0.00000000000E+00 0. -1.
        -11    1    4    4    0    0  0.14391139534E+02 -0.62583261417E+02  0.77325081957E+01  0.64680454463E+02  0.00000000000E+00 0.  1.
         12    1    4    4    0    0 -0.81190331856E+02 -0.11500638938E+03  0.79962892910E+02  0.16190245158E+03  0.00000000000E+00 0. -1.
          5    1    5    5  501    0 -0.10317801349E+03  0.86176382273E+02  0.35199740881E+02  0.13904381715E+03  0.47000000000E+01 0. -1.
         -5    1    5    5    0  501 -0.14393916745E+02 -0.35661753890E+02  0.37919155260E+02  0.54211602682E+02  0.47000000000E+01 0. -1.
          1    1    1    2  502    0  0.34585519487E+02  0.53603129965E+01  0.59926720468E+03  0.60028832549E+03  0.00000000000E+00 0. -1.
          1    1    1    2  503    0  0.79855269046E+01  0.35960165147E+02 -0.13312203379E+04  0.13317298863E+04  0.00000000000E+00 0. -1.
<mgrwt>
<rscale>  0 0.35909880E+02</rscale>
<asrwt>0</asrwt>
<pdfrwt beam="1">  1        2 0.14184032E+00 0.34998444E+02</pdfrwt>
<pdfrwt beam="2">  1        2 0.23363555E+00 0.36845052E+02</pdfrwt>
<totfact> 0.79548634E+01</totfact>
</mgrwt>
</event>
<event>
13    1  0.1942437E-008  0.6043484E+02  0.7546771E-02  0.1437251E+00
          2   -1    0    0  503    0  0.00000000000E+00  0.00000000000E+00  0.30652057690E+04  0.30652057690E+04  0.00000000000E+00 0. -1.
          2   -1    0    0  502    0 -0.00000000000E+00 -0.00000000000E+00 -0.28009449910E+04  0.28009449910E+04  0.00000000000E+00 0. -1.
         24    2    1    2    0    0 -0.21142148037E+02 -0.11008871451E+02 -0.32110447561E+03  0.33198026153E+03  0.80837021902E+02 0.  0.
         24    2    1    2    0    0  0.47110035250E+02  0.94041921675E+02 -0.56063941716E+02  0.14424759202E+03  0.81246315539E+02 0.  0.
         25    2    1    2    0    0 -0.20489492725E+02 -0.61329636775E+02  0.10315719188E+04  0.10411279914E+04  0.12500290930E+03 0.  0.
        -11    1    3    3    0    0 -0.30172243338E+02 -0.13293506049E+02 -0.32097579348E+03  0.32266475105E+03  0.00000000000E+00 0.  1.
         12    1    3    3    0    0  0.90300953007E+01  0.22846345983E+01 -0.12868213742E+00  0.93155104788E+01  0.00000000000E+00 0. -1.
        -11    1    4    4    0    0 -0.10976760322E+02  0.32243007314E+01 -0.31731222857E+02  0.33730637207E+02  0.00000000000E+00 0.  1.
         12    1    4    4    0    0  0.58086795572E+02  0.90817620943E+02 -0.24332718859E+02  0.11051695481E+03  0.00000000000E+00 0. -1.
          5    1    5    5  501    0 -0.65597320600E+02 -0.25815712387E+02  0.34594868576E+03  0.35308928425E+03  0.47000000000E+01 0. -1.
         -5    1    5    5    0  501  0.45107827875E+02 -0.35513924389E+02  0.68562323300E+03  0.68803870719E+03  0.47000000000E+01 0. -1.
          1    1    1    2  502    0  0.21218880654E+02 -0.56603294603E+02 -0.23688393201E+04  0.23696104951E+04  0.00000000000E+00 0. -1.
          1    1    1    2  503    0 -0.26697275142E+02  0.34899881154E+02  0.19786965967E+04  0.19791844199E+04  0.00000000000E+00 0. -1.
<mgrwt>
<rscale>  0 0.51531760E+02</rscale>
<asrwt>0</asrwt>
<pdfrwt beam="1">  1        2 0.45076555E+00 0.43940257E+02</pdfrwt>
<pdfrwt beam="2">  1        2 0.41190367E+00 0.60434837E+02</pdfrwt>
<totfact> 0.18918610E+00</totfact>
</mgrwt>
</event>
<event>
13    1  0.1942437E-008  0.1530868E+03  0.7546771E-02  0.1300184E+00
          2   -1    0    0  503    0  0.00000000000E+00  0.00000000000E+00  0.20814421866E+04  0.20814421866E+04  0.00000000000E+00 0. -1.
          2   -1    0    0  502    0 -0.00000000000E+00 -0.00000000000E+00 -0.45475426875E+03  0.45475426875E+03  0.00000000000E+00 0. -1.
         24    2    1    2    0    0  0.17985910854E+03 -0.19570470506E+03 -0.20387899127E+03  0.34473000580E+03  0.81378764497E+02 0.  0.
         24    2    1    2    0    0 -0.72174576205E+02  0.56656556365E+02  0.16323351807E+03  0.20411366621E+03  0.81228520135E+02 0.  0.
         25    2    1    2    0    0 -0.10519770033E+01  0.15488732104E+03  0.35160785504E+03  0.40404679676E+03  0.12503815965E+03 0.  0.
        -11    1    3    3    0    0  0.25439322864E+02 -0.65395623598E+02 -0.23861779608E+02  0.74115661365E+02  0.00000000000E+00 0.  1.
         12    1    3    3    0    0  0.15441978568E+03 -0.13030908146E+03 -0.18001721167E+03  0.27061434444E+03  0.00000000000E+00 0. -1.
        -13    1    4    4    0    0 -0.67850240077E+02  0.19166166126E+02  0.54790741108E+02  0.89291781893E+02  0.00000000000E+00 0.  1.
         14    1    4    4    0    0 -0.43243361279E+01  0.37490390239E+02  0.10844277696E+03  0.11482188432E+03  0.00000000000E+00 0. -1.
          5    1    5    5  501    0 -0.12865369166E+02  0.16350793092E+03  0.35233615059E+03  0.38866851456E+03  0.47000000000E+01 0.  1.
         -5    1    5    5    0  501  0.11813392163E+02 -0.86206098803E+01 -0.72829554294E+00  0.15378282202E+02  0.47000000000E+01 0.  1.
          1    1    1    2  502    0 -0.14926637505E+03  0.17668255828E+02 -0.90885833646E+02  0.17564980143E+03  0.00000000000E+00 0. -1.
          1    1    1    2  503    0  0.42633819718E+02 -0.33507428177E+02  0.14066113696E+04  0.14076561851E+04  0.00000000000E+00 0. -1.
<mgrwt>
<rscale>  0 0.91110867E+02</rscale>
<asrwt>0</asrwt>
<pdfrwt beam="1">  1        2 0.30609444E+00 0.54225366E+02</pdfrwt>
<pdfrwt beam="2">  1        2 0.66875629E-01 0.15308684E+03</pdfrwt>
<totfact> 0.10197484E+02</totfact>
</mgrwt>
</event>
<event>
13    1  0.1942437E-008  0.2419329E+03  0.7546771E-02  0.1192410E+00
          2   -1    0    0  503    0  0.00000000000E+00  0.00000000000E+00  0.20329992561E+03  0.20329992561E+03  0.00000000000E+00 0. -1.
          2   -1    0    0  502    0 -0.00000000000E+00 -0.00000000000E+00 -0.35477429713E+04  0.35477429713E+04  0.00000000000E+00 0. -1.
         24    2    1    2    0    0 -0.53368359974E+01 -0.30263751477E+02 -0.28382093749E+03  0.29684421136E+03  0.81349768221E+02 0.  0.
         24    2    1    2    0    0 -0.95964894552E+02  0.12047534856E+03 -0.27055210474E+03  0.33013403526E+03  0.10984748180E+03 0.  0.
         25    2    1    2    0    0 -0.49806804752E+02  0.13104820949E+03 -0.18036404355E+03  0.26040319144E+03  0.12499713155E+03 0.  0.
        -11    1    3    3    0    0 -0.35047150700E+02 -0.40879038941E+02 -0.20473422115E+03  0.21169671680E+03  0.00000000000E+00 0.  1.
         12    1    3    3    0    0  0.29710314702E+02  0.10615287463E+02 -0.79086716342E+02  0.85147494557E+02  0.00000000000E+00 0. -1.
        -11    1    4    4    0    0 -0.40174860568E+01  0.39523294768E+02 -0.81647409116E+01  0.40557293027E+02  0.00000000000E+00 0.  1.
         12    1    4    4    0    0 -0.91947408495E+02  0.80952053795E+02 -0.26238736383E+03  0.28957674223E+03  0.00000000000E+00 0. -1.
          5    1    5    5  501    0 -0.89197528060E+02  0.10042232554E+03 -0.10818342920E+03  0.17252995924E+03  0.47000000000E+01 0. -1.
         -5    1    5    5    0  501  0.39390723308E+02  0.30625883949E+02 -0.72180614351E+02  0.87873232207E+02  0.47000000000E+01 0. -1.
          1    1    1    2  502    0 -0.41644286860E+02 -0.84965410303E+02 -0.26253663549E+04  0.26270709669E+04  0.00000000000E+00 0. -1.
          1    1    1    2  503    0  0.19275282216E+03 -0.13629439628E+03  0.15660395021E+02  0.23659049195E+03  0.00000000000E+00 0. -1.
<mgrwt>
<rscale>  0 0.15675519E+03</rscale>
<asrwt>0</asrwt>
<pdfrwt beam="1">  1        2 0.29897047E-01 0.24193285E+03</pdfrwt>
<pdfrwt beam="2">  1        2 0.52172692E+00 0.10156615E+03</pdfrwt>
<totfact> 0.38563248E+01</totfact>
</mgrwt>
</event>
<event>
13    1  0.1942437E-008  0.1561002E+03  0.7546771E-02  0.1351748E+00
          2   -1    0    0  502    0  0.00000000000E+00  0.00000000000E+00  0.36642905124E+04  0.36642905124E+04  0.00000000000E+00 0. -1.
          2   -1    0    0  503    0 -0.00000000000E+00 -0.00000000000E+00 -0.23975351222E+03  0.23975351222E+03  0.00000000000E+00 0. -1.
         24    2    1    2    0    0 -0.27935671073E+03  0.17194386346E+03  0.26416813949E+03  0.42892137035E+03  0.81141062403E+02 0.  0.
         24    2    1    2    0    0  0.96025247669E+02  0.29272405177E+02  0.44407567918E+03  0.46235446617E+03  0.80565015102E+02 0.  0.
         25    2    1    2    0    0  0.53790290974E+02 -0.68565948225E+02  0.22877203065E+04  0.22927910323E+04  0.12502732674E+03 0.  0.
        -11    1    3    3    0    0 -0.97519711362E+01  0.26258262566E+02  0.70219693408E+01  0.28877419335E+02  0.00000000000E+00 0.  1.
         12    1    3    3    0    0 -0.26960473960E+03  0.14568560089E+03  0.25714617015E+03  0.40004395102E+03  0.00000000000E+00 0. -1.
        -13    1    4    4    0    0  0.79534726655E+02  0.31209318277E+01  0.40385674546E+03  0.41162578128E+03  0.00000000000E+00 0.  1.
         14    1    4    4    0    0  0.16490521013E+02  0.26151473350E+02  0.40218933712E+02  0.50728684889E+02  0.00000000000E+00 0. -1.
          5    1    5    5  501    0  0.88720532977E+02 -0.74816306729E+02  0.18205548283E+04  0.18242562280E+04  0.47000000000E+01 0. -1.
         -5    1    5    5    0  501 -0.34930242003E+02  0.62503585036E+01  0.46716547826E+03  0.46853480433E+03  0.47000000000E+01 0. -1.
          1    1    1    2  502    0  0.31143033967E+02 -0.12837123997E+02  0.53234737270E+03  0.53341204105E+03  0.00000000000E+00 0. -1.
          1    1    1    2  503    0  0.98398138122E+02 -0.11981319641E+03 -0.10377449776E+03  0.18656511465E+03  0.00000000000E+00 0. -1.
<mgrwt>
<rscale>  0 0.72513704E+02</rscale>
<asrwt>0</asrwt>
<pdfrwt beam="1">  1        2 0.53886622E+00 0.33685016E+02</pdfrwt>
<pdfrwt beam="2">  1        2 0.35257872E-01 0.15610018E+03</pdfrwt>
<totfact> 0.34097789E+01</totfact>
</mgrwt>
</event>
<event>
13    1  0.1942437E-008  0.9228451E+02  0.7546771E-02  0.1360394E+00
         -1   -1    0    0    0  501 -0.00000000000E+00  0.00000000000E+00  0.49864108867E+03  0.49864108867E+03  0.00000000000E+00 0.  1.
          2   -1    0    0  503    0  0.00000000000E+00 -0.00000000000E+00 -0.46377206669E+03  0.46377206669E+03  0.00000000000E+00 0. -1.
         24    2    1    2    0    0 -0.10167808271E+03  0.37618837601E+02  0.20218728555E+03  0.24319689673E+03  0.80693386928E+02 0.  0.
         24    2    1    2    0    0  0.53213792358E+02 -0.33479226663E+02  0.41084201937E+02  0.11192354512E+03  0.82984347849E+02 0.  0.
         25    2    1    2    0    0  0.54295608893E+02 -0.14477382215E+03 -0.17488556237E+03  0.26479674471E+03  0.12499953345E+03 0.  0.
        -13    1    3    3    0    0  0.13974016760E+02  0.49120530655E+01  0.18794036989E+02  0.23929421975E+02  0.00000000000E+00 0.  1.
         14    1    3    3    0    0 -0.11565209947E+03  0.32706784536E+02  0.18339324856E+03  0.21926747476E+03  0.00000000000E+00 0. -1.
        -13    1    4    4    0    0  0.15643482287E+02 -0.49243552475E+02 -0.31750205282E+01  0.51766077250E+02  0.00000000000E+00 0.  1.
         14    1    4    4    0    0  0.37570310071E+02  0.15764325812E+02  0.44259222465E+02  0.60157467869E+02  0.00000000000E+00 0. -1.
          5    1    5    5  502    0  0.92261977094E+02 -0.11788173371E+03 -0.11505625890E+03  0.18886081719E+03  0.47000000000E+01 0. -1.
         -5    1    5    5    0  502 -0.37966368201E+02 -0.26892088445E+02 -0.59829303464E+02  0.75935927520E+02  0.47000000000E+01 0. -1.
          1    1    1    2  503    0 -0.17680622142E+02  0.89014096534E+02 -0.17186619017E+03  0.19435560477E+03  0.00000000000E+00 0. -1.
         -2    1    1    2    0  501  0.11849303603E+02  0.51620114679E+02  0.13834928702E+03  0.14814036403E+03  0.00000000000E+00 0.  1.
<mgrwt>
<rscale>  0 0.69911601E+02</rscale>
<asrwt>0</asrwt>
<pdfrwt beam="2">  1        2 0.68201774E-01 0.92284507E+02</pdfrwt>
<pdfrwt beam="1">  1       -1 0.73329572E-01 0.52962649E+02</pdfrwt>
<totfact> 0.16851941E+02</totfact>
</mgrwt>
</event>
<event>
13    1  0.1942437E-008  0.5090723E+02  0.7546771E-02  0.1588938E+00
          2   -1    0    0  502    0  0.00000000000E+00  0.00000000000E+00  0.64038249119E+03  0.64038249119E+03  0.00000000000E+00 0. -1.
          2   -1    0    0  503    0 -0.00000000000E+00 -0.00000000000E+00 -0.55894286480E+03  0.55894286480E+03  0.00000000000E+00 0. -1.
         24    2    1    2    0    0  0.87957946624E+02  0.52481895138E+02 -0.25338937019E+03  0.28495823466E+03  0.80647832478E+02 0.  0.
         24    2    1    2    0    0 -0.95581082813E+02 -0.33494638466E+02 -0.77596879824E+02  0.14951445764E+03  0.77946539924E+02 0.  0.
         25    2    1    2    0    0 -0.12937236296E+02 -0.73251372125E+02  0.41122670253E+03  0.43619525718E+03  0.12500306360E+03 0.  0.
        -11    1    3    3    0    0 -0.82504990468E+01 -0.11975007134E+02 -0.26802332272E+02  0.30493221306E+02  0.00000000000E+00 0.  1.
         12    1    3    3    0    0  0.96208445671E+02  0.64456902272E+02 -0.22658703792E+03  0.25446501336E+03  0.00000000000E+00 0. -1.
        -13    1    4    4    0    0 -0.69608695060E+02 -0.15837288786E+02 -0.63703828164E+01  0.71671276822E+02  0.00000000000E+00 0.  1.
         14    1    4    4    0    0 -0.25972387753E+02 -0.17657349681E+02 -0.71226497008E+02  0.77843180814E+02  0.00000000000E+00 0. -1.
          5    1    5    5  501    0 -0.27385005630E+02 -0.23330645070E+02  0.19852677783E+02  0.41357905506E+02  0.47000000000E+01 0.  1.
         -5    1    5    5    0  501  0.14447769334E+02 -0.49920727056E+02  0.39137402474E+03  0.39483735167E+03  0.47000000000E+01 0.  1.
          1    1    1    2  502    0  0.18369323605E+02  0.34392694086E+01  0.16042110506E+03  0.16150601094E+03  0.00000000000E+00 0. -1.
          1    1    1    2  503    0  0.21910488796E+01  0.50824846045E+02 -0.15922193118E+03  0.16715139557E+03  0.00000000000E+00 0. -1.
<mgrwt>
<rscale>  0 0.30844459E+02</rscale>
<asrwt>0</asrwt>
<pdfrwt beam="1">  1        2 0.94173896E-01 0.18688516E+02</pdfrwt>
<pdfrwt beam="2">  1        2 0.82197480E-01 0.50907233E+02</pdfrwt>
<totfact> 0.48313707E+02</totfact>
</mgrwt>
</event>
<event>
13    1  0.1942437E-008  0.7573292E+02  0.7546771E-02  0.1429081E+00
          2   -1    0    0  503    0  0.00000000000E+00  0.00000000000E+00  0.22179275087E+04  0.22179275087E+04  0.00000000000E+00 0. -1.
         -1   -1    0    0    0  501 -0.00000000000E+00 -0.00000000000E+00 -0.13703313410E+04  0.13703313410E+04  0.00000000000E+00 0.  1.
         24    2    1    2    0    0  0.22135181366E+00  0.33986905426E+01 -0.68203061476E+02  0.10560339272E+03  0.80553205180E+02 0.  0.
         24    2    1    2    0    0  0.76432535161E+02 -0.20886419931E+03  0.31309201705E+02  0.23863236636E+03  0.80616090066E+02 0.  0.
         25    2    1    2    0    0 -0.78019652792E+02  0.16252526228E+03  0.40853180310E+03  0.46370791501E+03  0.12500107677E+03 0.  0.
        -11    1    4    4    0    0  0.36666923992E+02 -0.13387111736E+03 -0.18788160818E+02  0.14006760641E+03  0.00000000000E+00 0.  1.
         12    1    4    4    0    0  0.39765611169E+02 -0.74993081952E+02  0.50097362523E+02  0.98564759951E+02  0.00000000000E+00 0. -1.
        -13    1    3    3    0    0  0.38051057537E+02  0.50007489423E+01 -0.51479935889E+02  0.64211169346E+02  0.00000000000E+00 0.  1.
         14    1    3    3    0    0 -0.37829705723E+02 -0.16020583997E+01 -0.16723125587E+02  0.41392223371E+02  0.00000000000E+00 0. -1.
          5    1    5    5  502    0 -0.15048193004E+02  0.12852327342E+03  0.16446279859E+03  0.20931980805E+03  0.47000000000E+01 0. -1.
         -5    1    5    5    0  502 -0.62971459788E+02  0.34001988852E+02  0.24406900452E+03  0.25438810695E+03  0.47000000000E+01 0. -1.
          1    1    1    2  503    0 -0.24100212589E+02 -0.28460861490E+02  0.16266758354E+04  0.16271032894E+04  0.00000000000E+00 0. -1.
         -2    1    1    2    0  501  0.25465978407E+02  0.71401107986E+02 -0.11507176110E+04  0.11532118863E+04  0.00000000000E+00 0.  1.
<mgrwt>
<rscale>  0 0.53144913E+02</rscale>
<asrwt>0</asrwt>
<pdfrwt beam="1">  1        2 0.32616581E+00 0.37293979E+02</pdfrwt>
<pdfrwt beam="2">  1       -1 0.20151931E+00 0.75732915E+02</pdfrwt>
<totfact> 0.17057970E+00</totfact>
</mgrwt>
</event>
<event>
13    1  0.1942437E-008  0.1452177E+03  0.7546771E-02  0.1254089E+00
          2   -1    0    0  503    0  0.00000000000E+00  0.00000000000E+00  0.10658180148E+04  0.10658180148E+04  0.00000000000E+00 0. -1.
          2   -1    0    0  502    0 -0.00000000000E+00 -0.00000000000E+00 -0.21248172048E+04  0.21248172048E+04  0.00000000000E+00 0. -1.
         24    2    1    2    0    0  0.45801365163E+02 -0.10630592022E+03 -0.14950045156E+03  0.20500187170E+03  0.79225429362E+02 0.  0.
         24    2    1    2    0    0  0.18309270198E+02  0.79565480133E+02 -0.24448286069E+03  0.27026925655E+03  0.81287802649E+02 0.  0.
         25    2    1    2    0    0 -0.12107782370E+03 -0.10644871015E+00  0.36950343825E+02  0.17790564671E+03  0.12500096199E+03 0.  0.
        -13    1    4    4    0    0 -0.21350688505E+02  0.25517649425E+01 -0.95874969194E+02  0.98256669605E+02  0.00000000000E+00 0.  1.
         14    1    4    4    0    0  0.39659958702E+02  0.77013715190E+02 -0.14860789150E+03  0.17201258695E+03  0.00000000000E+00 0. -1.
        -13    1    3    3    0    0  0.58831425968E+02 -0.75444088800E+02 -0.14108053619E+03  0.17046015636E+03  0.00000000000E+00 0.  1.
         14    1    3    3    0    0 -0.13030060805E+02 -0.30861831424E+02 -0.84199153725E+01  0.34541715336E+02  0.00000000000E+00 0. -1.
          5    1    5    5  501    0 -0.10759594624E+03 -0.52434195790E+02  0.25716326953E+02  0.12251388496E+03  0.47000000000E+01 0. -1.
         -5    1    5    5    0  501 -0.13481877459E+02  0.52327747080E+02  0.11234016872E+02  0.55391761746E+02  0.47000000000E+01 0. -1.
          1    1    1    2  502    0  0.13326354718E+03  0.72334145384E+02 -0.16140012105E+04  0.16211080498E+04  0.00000000000E+00 0. -1.
          1    1    1    2  503    0 -0.76296358836E+02 -0.45487256582E+02  0.91203498897E+03  0.91635039476E+03  0.00000000000E+00 0. -1.
<mgrwt>
<rscale>  0 0.11357485E+03</rscale>
<asrwt>0</asrwt>
<pdfrwt beam="1">  1        2 0.15673795E+00 0.88826938E+02</pdfrwt>
<pdfrwt beam="2">  1        2 0.31247311E+00 0.14521774E+03</pdfrwt>
<totfact> 0.32357623E+01</totfact>
</mgrwt>
</event>
<event>
13    1  0.1942437E-008  0.5942061E+02  0.7546771E-02  0.1643548E+00
          4   -1    0    0  503    0 -0.00000000000E+00  0.00000000000E+00  0.63546458385E+03  0.63546458385E+03  0.00000000000E+00 0. -1.
          2   -1    0    0  502    0  0.00000000000E+00 -0.00000000000E+00 -0.18026879700E+04  0.18026879700E+04  0.00000000000E+00 0. -1.
         24    2    1    2    0    0 -0.38930432359E+02 -0.18418809150E+02  0.36166004743E+03  0.37269650091E+03  0.79056061027E+02 0.  0.
         24    2    1    2    0    0  0.11281144430E+02  0.86745229137E+02  0.14222050138E+02  0.11981299597E+03  0.80628086275E+02 0.  0.
         25    2    1    2    0    0  0.53058214320E+02 -0.16329562451E+02 -0.11006770237E+04  0.11091420035E+04  0.12499697843E+03 0.  0.
        -13    1    3    3    0    0 -0.62426976262E+02 -0.48598303316E+01  0.23834142333E+03  0.24642925839E+03  0.00000000000E+00 0.  1.
         14    1    3    3    0    0  0.23496543903E+02 -0.13558978819E+02  0.12331862410E+03  0.12626724252E+03  0.00000000000E+00 0. -1.
        -13    1    4    4    0    0  0.35214567781E+02  0.21257907862E+02 -0.15582552386E+02  0.43986138379E+02  0.00000000000E+00 0.  1.
         14    1    4    4    0    0 -0.23933423351E+02  0.65487321275E+02  0.29804602524E+02  0.75826857594E+02  0.00000000000E+00 0. -1.
          5    1    5    5  501    0 -0.10332114797E+02 -0.12701196152E+02 -0.18707527910E+02  0.25300881020E+02  0.47000000000E+01 0.  1.
         -5    1    5    5    0  501  0.63390329117E+02 -0.36283662984E+01 -0.10819694958E+04  0.10838411224E+04  0.47000000000E+01 0.  1.
          1    1    1    2  502    0 -0.36010016891E+02 -0.47276657464E+02 -0.63791155230E+03  0.64067382670E+03  0.00000000000E+00 0. -1.
          3    1    1    2  503    0  0.10601090500E+02 -0.47202000709E+01  0.19548309226E+03  0.19582722683E+03  0.00000000000E+00 0. -1.
<mgrwt>
<rscale>  0 0.26259168E+02</rscale>
<asrwt>0</asrwt>
<pdfrwt beam="2">  1        2 0.26510117E+00 0.59420610E+02</pdfrwt>
<pdfrwt beam="1">  1        4 0.93450675E-01 0.11604456E+02</pdfrwt>
<totfact> 0.48646422E+00</totfact>
</mgrwt>
</event>
<event>
13    1  0.1942437E-008  0.1036267E+03  0.7546771E-02  0.1393263E+00
          2   -1    0    0  503    0  0.00000000000E+00  0.00000000000E+00  0.17509077199E+04  0.17509077199E+04  0.00000000000E+00 0. -1.
          2   -1    0    0  502    0 -0.00000000000E+00 -0.00000000000E+00 -0.34172956759E+03  0.34172956759E+03  0.00000000000E+00 0. -1.
         24    2    1    2    0    0  0.85160641186E+02 -0.60532030165E+02  0.61925458757E+02  0.14516844120E+03  0.79515107976E+02 0.  0.
         24    2    1    2    0    0 -0.43960704981E+02  0.22297629211E+03  0.23274861977E+03  0.33470625657E+03  0.78774283590E+02 0.  0.
         25    2    1    2    0    0 -0.13598760141E+03 -0.76580611386E+02  0.27062972206E+03  0.33648483131E+03  0.12499750982E+03 0.  0.
        -11    1    4    4    0    0 -0.38457643331E+02  0.39455418442E+02  0.72104991545E+02  0.90746075291E+02  0.00000000000E+00 0.  1.
         12    1    4    4    0    0 -0.55030616502E+01  0.18352087367E+03  0.16064362823E+03  0.24396018128E+03  0.00000000000E+00 0. -1.
        -13    1    3    3    0    0 -0.13182308359E+02 -0.14450339158E+02 -0.11192627739E+01  0.19591791766E+02  0.00000000000E+00 0.  1.
         14    1    3    3    0    0  0.98342949545E+02 -0.46081691007E+02  0.63044721531E+02  0.12557664944E+03  0.00000000000E+00 0. -1.
          5    1    5    5  501    0 -0.41063356659E+02 -0.74333538110E+02  0.20217416377E+03  0.21933571676E+03  0.47000000000E+01 0. -1.
         -5    1    5    5    0  501 -0.94924244750E+02 -0.22470732759E+01  0.68455558284E+02  0.11714911455E+03  0.47000000000E+01 0. -1.
          1    1    1    2  502    0  0.90271332654E+02 -0.50119488281E+02 -0.20354682482E+03  0.22823712778E+03  0.00000000000E+00 0. -1.
          1    1    1    2  503    0  0.45163325494E+01 -0.35744162276E+02  0.10474211765E+04  0.10480406306E+04  0.00000000000E+00 0. -1.
<mgrwt>
<rscale>  0 0.61102373E+02</rscale>
<asrwt>0</asrwt>
<pdfrwt beam="1">  1        2 0.25748643E+00 0.36028355E+02</pdfrwt>
<pdfrwt beam="2">  1        2 0.50254349E-01 0.10362671E+03</pdfrwt>
<totfact> 0.20564309E+02</totfact>
</mgrwt>
</event>
<event>
13    1  0.1942437E-008  0.6376857E+02  0.7546771E-02  0.1458438E+00
          2   -1    0    0  502    0  0.00000000000E+00  0.00000000000E+00  0.21888203198E+03  0.21888203198E+03  0.00000000000E+00 0. -1.
          2   -1    0    0  503    0 -0.00000000000E+00 -0.00000000000E+00 -0.12114525901E+04  0.12114525901E+04  0.00000000000E+00 0. -1.
         24    2    1    2    0    0 -0.82510303075E+02 -0.80571843774E+02 -0.53338659521E+03  0.55155600482E+03  0.80081173687E+02 0.  0.
         24    2    1    2    0    0  0.11354543510E+03 -0.10784365285E+02 -0.13231217589E+03  0.19214367253E+03  0.80023812920E+02 0.  0.
         25    2    1    2    0    0 -0.95343068348E+02  0.22483630276E+02 -0.49297431606E+02  0.16628893322E+03  0.12500383289E+03 0.  0.
        -13    1    4    4    0    0  0.14989721043E+02  0.22048980823E+02 -0.38546339442E+01  0.26938958687E+02  0.00000000000E+00 0.  1.
         14    1    4    4    0    0  0.98555714061E+02 -0.32833346108E+02 -0.12845754195E+03  0.16520471384E+03  0.00000000000E+00 0. -1.
        -13    1    3    3    0    0 -0.94222460558E+02 -0.60056762930E+02 -0.37101283006E+03  0.38747284669E+03  0.00000000000E+00 0.  1.
         14    1    3    3    0    0  0.11712157483E+02 -0.20515080843E+02 -0.16237376515E+03  0.16408315814E+03  0.00000000000E+00 0. -1.
          5    1    5    5  501    0 -0.95157066907E+02 -0.25975296625E+02 -0.25358756684E+01  0.98783116384E+02  0.47000000000E+01 0. -1.
         -5    1    5    5    0  501 -0.18600144085E+00  0.48458926901E+02 -0.46761555938E+02  0.67505816836E+02  0.47000000000E+01 0. -1.
          1    1    1    2  502    0  0.32564062249E+02  0.14404381829E+02  0.11621217502E+03  0.12154494637E+03  0.00000000000E+00 0. -1.
          1    1    1    2  503    0  0.31743874070E+02  0.54468196954E+02 -0.39378653044E+03  0.39880106517E+03  0.00000000000E+00 0. -1.
<mgrwt>
<rscale>  0 0.47651323E+02</rscale>
<asrwt>0</asrwt>
<pdfrwt beam="1">  1        2 0.32188534E-01 0.35607645E+02</pdfrwt>
<pdfrwt beam="2">  1        2 0.17815480E+00 0.63768571E+02</pdfrwt>
<totfact> 0.55579950E+02</totfact>
</mgrwt>
</event>
<event>
13    1  0.1942437E-008  0.4525687E+02  0.7546771E-02  0.1583588E+00
          2   -1    0    0  503    0  0.00000000000E+00  0.00000000000E+00  0.69029604693E+03  0.69029604693E+03  0.00000000000E+00 0. -1.
         -1   -1    0    0    0  501 -0.00000000000E+00 -0.00000000000E+00 -0.17824627705E+04  0.17824627705E+04  0.00000000000E+00 0.  1.
         24    2    1    2    0    0  0.11346466599E+03  0.95245974778E+02 -0.14560487569E+04  0.14658194039E+04  0.81255867941E+02 0.  0.
         24    2    1    2    0    0 -0.13147613653E+03  0.16903793729E+02  0.25230440913E+02  0.15753057395E+03  0.81287107598E+02 0.  0.
         25    2    1    2    0    0  0.45598244784E+01 -0.49856913049E+02  0.41184454566E+03  0.43329709261E+03  0.12499574751E+03 0.  0.
        -11    1    3    3    0    0  0.10693994932E+03  0.96388044854E+02 -0.10618857917E+04  0.10716007851E+04  0.00000000000E+00 0.  1.
         12    1    3    3    0    0  0.65247166732E+01 -0.11420700760E+01 -0.39416296520E+03  0.39421861877E+03  0.00000000000E+00 0. -1.
        -13    1    4    4    0    0 -0.53412088559E+01 -0.22344280877E+02 -0.35032926748E+00  0.22976469062E+02  0.00000000000E+00 0.  1.
         14    1    4    4    0    0 -0.12613492767E+03  0.39248074607E+02  0.25580770180E+02  0.13455410489E+03  0.00000000000E+00 0. -1.
          5    1    5    5  502    0  0.56623973992E+02 -0.16833422009E+02  0.10766206288E+03  0.12289364634E+03  0.47000000000E+01 0.  1.
         -5    1    5    5    0  502 -0.52064149514E+02 -0.33023491039E+02  0.30418248278E+03  0.31040344627E+03  0.47000000000E+01 0.  1.
          1    1    1    2  503    0 -0.51378437553E+01 -0.21105587634E+02  0.16867036497E+03  0.17006332728E+03  0.00000000000E+00 0. -1.
         -2    1    1    2    0  501  0.18589489815E+02 -0.41187267825E+02 -0.24186331825E+03  0.24604841978E+03  0.00000000000E+00 0.  1.
<mgrwt>
<rscale>  0 0.31353909E+02</rscale>
<asrwt>0</asrwt>
<pdfrwt beam="1">  1        2 0.10151412E+00 0.21721954E+02</pdfrwt>
<pdfrwt beam="2">  1       -1 0.26212688E+00 0.45256869E+02</pdfrwt>
<totfact> 0.45224698E+00</totfact>
</mgrwt>
</event>
<event>
13    1  0.1942437E-008  0.3449200E+03  0.7546771E-02  0.1184952E+00
          2   -1    0    0  503    0  0.00000000000E+00  0.00000000000E+00  0.20369536221E+04  0.20369536221E+04  0.00000000000E+00 0. -1.
          2   -1    0    0  502    0 -0.00000000000E+00 -0.00000000000E+00 -0.18557338711E+04  0.18557338711E+04  0.00000000000E+00 0. -1.
         24    2    1    2    0    0  0.16351418117E+02  0.31494646868E+03 -0.27651265090E+03  0.42760062047E+03  0.83212964792E+02 0.  0.
         24    2    1    2    0    0  0.11432969563E+02 -0.12260951665E+03  0.79473179277E+02  0.16906534178E+03  0.84281060734E+02 0.  0.
         25    2    1    2    0    0 -0.23314013981E+03  0.19948724469E+03  0.12566656094E+04  0.12996085686E+04  0.12499796843E+03 0.  0.
        -11    1    3    3    0    0  0.35250610883E+01  0.11983625584E+03 -0.16018929378E+03  0.20008439247E+03  0.00000000000E+00 0.  1.
         12    1    3    3    0    0  0.12826357029E+02  0.19511021285E+03 -0.11632335712E+03  0.22751622800E+03  0.00000000000E+00 0. -1.
        -13    1    4    4    0    0 -0.28573255995E+02 -0.87215221820E+02  0.30820311456E+02  0.96813312480E+02  0.00000000000E+00 0.  1.
         14    1    4    4    0    0  0.40006225558E+02 -0.35394294835E+02  0.48652867821E+02  0.72252029297E+02  0.00000000000E+00 0. -1.
          5    1    5    5  501    0 -0.23193827390E+03  0.15757128299E+03  0.11710277839E+04  0.12041396234E+04  0.47000000000E+01 0.  1.
         -5    1    5    5    0  501 -0.12018659130E+01  0.41915961700E+02  0.85637825478E+02  0.95468945106E+02  0.47000000000E+01 0.  1.
          1    1    1    2  502    0  0.18260363274E+03 -0.31787302225E+03 -0.14111966211E+04  0.14580340354E+04  0.00000000000E+00 0. -1.
          1    1    1    2  503    0  0.22752119387E+02 -0.73951174470E+02  0.53279023444E+03  0.53837892702E+03  0.00000000000E+00 0. -1.
<mgrwt>
<rscale>  0 0.16336209E+03</rscale>
<asrwt>0</asrwt>
<pdfrwt beam="1">  1        2 0.29955200E+00 0.77372057E+02</pdfrwt>
<pdfrwt beam="2">  1        2 0.27290204E+00 0.34492002E+03</pdfrwt>
<totfact> 0.13531929E+01</totfact>
</mgrwt>
</event>
<event>
13    1  0.1942437E-008  0.6340089E+02  0.7546771E-02  0.1428548E+00
          2   -1    0    0  502    0  0.00000000000E+00  0.00000000000E+00  0.11695650092E+04  0.11695650092E+04  0.00000000000E+00 0. -1.
          2   -1    0    0  503    0 -0.00000000000E+00 -0.00000000000E+00 -0.19777660535E+03  0.19777660535E+03  0.00000000000E+00 0. -1.
         24    2    1    2    0    0 -0.51290718732E+02 -0.54561093929E+02  0.31338799821E+02  0.11344358005E+03  0.79244398428E+02 0.  0.
         24    2    1    2    0    0  0.63629264486E+01  0.20651893621E+02  0.10329087853E+03  0.13232921981E+03  0.79843780511E+02 0.  0.
         25    2    1    2    0    0  0.59669299014E+02  0.14260500397E+02  0.45143587120E+03  0.47242206937E+03  0.12499791481E+03 0.  0.
        -11    1    3    3    0    0  0.29669645069E+01 -0.46310758554E+02 -0.63914199428E+01  0.46843777443E+02  0.00000000000E+00 0.  1.
         12    1    3    3    0    0 -0.54257683239E+02 -0.82503353755E+01  0.37730219764E+02  0.66599802610E+02  0.00000000000E+00 0. -1.
        -13    1    4    4    0    0 -0.35294724957E+02  0.18476867679E+02  0.39435020138E+02  0.56055624716E+02  0.00000000000E+00 0.  1.
         14    1    4    4    0    0  0.41657651405E+02  0.21750259422E+01  0.63855858388E+02  0.76273595096E+02  0.00000000000E+00 0. -1.
          5    1    5    5  501    0  0.14235860345E+01  0.46909226050E+02  0.65443668718E+02  0.80668865501E+02  0.47000000000E+01 0. -1.
         -5    1    5    5    0  501  0.58245712980E+02 -0.32648725654E+02  0.38599220248E+03  0.39175320387E+03  0.47000000000E+01 0. -1.
          1    1    1    2  502    0 -0.58903785978E+02  0.26743282942E+02  0.51154065693E+03  0.51561487845E+03  0.00000000000E+00 0. -1.
          1    1    1    2  503    0  0.44162279247E+02 -0.70945830310E+01 -0.12581780262E+03  0.13353186688E+03  0.00000000000E+00 0. -1.
<mgrwt>
<rscale>  0 0.53252490E+02</rscale>
<asrwt>0</asrwt>
<pdfrwt beam="1">  1        2 0.17199485E+00 0.63400890E+02</pdfrwt>
<pdfrwt beam="2">  1        2 0.29084795E-01 0.44728515E+02</pdfrwt>
<totfact> 0.65395559E+02</totfact>
</mgrwt>
</event>
<event>
13    1  0.1942437E-008  0.1077750E+03  0.7546771E-02  0.1330311E+00
         -3   -1    0    0    0  501 -0.00000000000E+00  0.00000000000E+00  0.14323496279E+04  0.14323496279E+04  0.00000000000E+00 0.  1.
          2   -1    0    0  503    0  0.00000000000E+00 -0.00000000000E+00 -0.21065340630E+04  0.21065340630E+04  0.00000000000E+00 0. -1.
         24    2    1    2    0    0  0.55547593847E+02 -0.38096122479E+02  0.11079656861E+03  0.15299337884E+03  0.81204954411E+02 0.  0.
         24    2    1    2    0    0 -0.58030285506E+03 -0.45923178004E+03  0.96245873985E+03  0.12168641537E+04  0.82379071032E+02 0.  0.
         25    2    1    2    0    0  0.53534849683E+03  0.43759476698E+03 -0.15224204453E+04  0.16767455224E+04  0.12499736617E+03 0.  0.
        -11    1    4    4    0    0 -0.46172910568E+03 -0.39579581868E+03  0.82071038433E+03  0.10214762024E+04  0.00000000000E+00 0.  1.
         12    1    4    4    0    0 -0.11857374938E+03 -0.63435961359E+02  0.14174835552E+03  0.19538795134E+03  0.00000000000E+00 0. -1.
        -11    1    3    3    0    0 -0.40649012015E+01  0.16176765056E+02  0.90798293877E+00  0.16704358188E+02  0.00000000000E+00 0.  1.
         12    1    3    3    0    0  0.59612495049E+02 -0.54272887535E+02  0.10988858568E+03  0.13628902065E+03  0.00000000000E+00 0. -1.
          5    1    5    5  502    0  0.22888325866E+03  0.20912672121E+03 -0.82633633803E+03  0.88259581076E+03  0.47000000000E+01 0.  1.
         -5    1    5    5    0  502  0.30646523816E+03  0.22846804577E+03 -0.69608410727E+03  0.79414971166E+03  0.47000000000E+01 0.  1.
          1    1    1    2  503    0 -0.25055928139E+02 -0.53115022698E+02 -0.33137517924E+03  0.33653902387E+03  0.00000000000E+00 0. -1.
         -4    1    1    2    0  501  0.14462692522E+02  0.11284815824E+03  0.10635588099E+03  0.15574161202E+03  0.00000000000E+00 0.  1.
<mgrwt>
<rscale>  0 0.79557764E+02</rscale>
<asrwt>0</asrwt>
<pdfrwt beam="2">  1        2 0.30978442E+00 0.58728231E+02</pdfrwt>
<pdfrwt beam="1">  1       -3 0.21063965E+00 0.10777505E+03</pdfrwt>
<totfact> 0.75761685E-01</totfact>
</mgrwt>
</event>
<event>
13    1  0.1942437E-008  0.5683780E+02  0.7546771E-02  0.1597241E+00
         -1   -1    0    0    0  501 -0.00000000000E+00  0.00000000000E+00  0.25338195650E+04  0.25338195650E+04  0.00000000000E+00 0.  1.
          2   -1    0    0  503    0  0.00000000000E+00 -0.00000000000E+00 -0.86240322689E+03  0.86240322689E+03  0.00000000000E+00 0. -1.
         24    2    1    2    0    0  0.67574987111E+02  0.40120200844E+02  0.33784059894E+03  0.35618761713E+03  0.80977397485E+02 0.  0.
         24    2    1    2    0    0  0.30568912174E+03 -0.19703173907E+03  0.31594898768E+03  0.48811446353E+03  0.78515102602E+02 0.  0.
         25    2    1    2    0    0 -0.40453713565E+03  0.18400307228E+03 -0.62087797675E+03  0.77370666171E+03  0.12500044653E+03 0.  0.
        -11    1    4    4    0    0  0.16286361927E+03 -0.14368084597E+03  0.15792931362E+03  0.26853381925E+03  0.00000000000E+00 0.  1.
         12    1    4    4    0    0  0.14282550248E+03 -0.53350893093E+02  0.15801967406E+03  0.21958064428E+03  0.00000000000E+00 0. -1.
        -11    1    3    3    0    0  0.56676702125E+02 -0.11472529005E+02  0.21201273011E+03  0.21975728706E+03  0.00000000000E+00 0.  1.
         12    1    3    3    0    0  0.10898284986E+02  0.51592729849E+02  0.12582786883E+03  0.13643033007E+03  0.00000000000E+00 0. -1.
          5    1    5    5  502    0 -0.38328983129E+03  0.19892208771E+03 -0.55860931655E+03  0.70607899720E+03  0.47000000000E+01 0.  1.
         -5    1    5    5    0  502 -0.21247304358E+02 -0.14919015430E+02 -0.62268660203E+02  0.67627664512E+02  0.47000000000E+01 0.  1.
          1    1    1    2  503    0 -0.14430408853E+02  0.67136331759E+01 -0.68468757175E+02  0.70294240726E+02  0.00000000000E+00 0. -1.
         -2    1    1    2    0  501  0.45703435646E+02 -0.33805167231E+02  0.17069734854E+04  0.17079198088E+04  0.00000000000E+00 0.  1.
<mgrwt>
<rscale>  0 0.30076793E+02</rscale>
<asrwt>0</asrwt>
<pdfrwt beam="2">  1        2 0.12682400E+00 0.15915702E+02</pdfrwt>
<pdfrwt beam="1">  1       -1 0.37262052E+00 0.56837801E+02</pdfrwt>
<totfact> 0.74564239E-01</totfact>
</mgrwt>
</event>
<event>
13    1  0.1942437E-008  0.7418469E+02  0.7546771E-02  0.1347614E+00
          2   -1    0    0  503    0  0.00000000000E+00  0.00000000000E+00  0.27394476055E+04  0.27394476055E+04  0.00000000000E+00 0. -1.
          2   -1    0    0  502    0 -0.00000000000E+00 -0.00000000000E+00 -0.20933347355E+04  0.20933347355E+04  0.00000000000E+00 0. -1.
         24    2    1    2    0    0 -0.66262440595E+01 -0.59863049573E+01 -0.52669737448E+02  0.97793205647E+02  0.81912556245E+02 0.  0.
         24    2    1    2    0    0  0.18450196601E+03  0.54375424520E+02  0.43544506533E+03  0.48235380871E+03  0.77814713284E+02 0.  0.
         25    2    1    2    0    0 -0.92869969196E+02 -0.12364711533E+03  0.11303148669E+04  0.11476719840E+04  0.12500337691E+03 0.  0.
        -13    1    4    4    0    0  0.19151443225E+03  0.49762100850E+02  0.42603220928E+03  0.46974193743E+03  0.00000000000E+00 0.  1.
         14    1    4    4    0    0 -0.70124662409E+01  0.46133236702E+01  0.94128560577E+01  0.12611871282E+02  0.00000000000E+00 0. -1.
        -13    1    3    3    0    0 -0.41355646930E+02 -0.18032515419E+02 -0.34458479234E+02  0.56770132433E+02  0.00000000000E+00 0.  1.
         14    1    3    3    0    0  0.34729402870E+02  0.12046210462E+02 -0.18211258213E+02  0.41023073214E+02  0.00000000000E+00 0. -1.
          5    1    5    5  501    0  0.29850038055E+02 -0.35220807705E+02  0.31992077743E+03  0.32326911992E+03  0.47000000000E+01 0. -1.
         -5    1    5    5    0  501 -0.12272000725E+03 -0.88426307630E+02  0.81039408951E+03  0.82440286412E+03  0.47000000000E+01 0. -1.
          1    1    1    2  502    0 -0.11027312258E+02  0.72593181311E+02 -0.19840661939E+04  0.19854243963E+04  0.00000000000E+00 0. -1.
          1    1    1    2  503    0 -0.73978440492E+02  0.26648144603E+01  0.11170888691E+04  0.11195389463E+04  0.00000000000E+00 0. -1.
<mgrwt>
<rscale>  0 0.73804349E+02</rscale>
<asrwt>0</asrwt>
<pdfrwt beam="1">  1        2 0.40285994E+00 0.74184689E+02</pdfrwt>
<pdfrwt beam="2">  1        2 0.30784334E+00 0.73425960E+02</pdfrwt>
<totfact> 0.55003742E+00</totfact>
</mgrwt>
</event>
<event>
13    1  0.1942437E-008  0.3058986E+02  0.7546771E-02  0.1681564E+00
          2   -1    0    0  502    0  0.00000000000E+00  0.00000000000E+00  0.34338124766E+04  0.34338124766E+04  0.00000000000E+00 0. -1.
          2   -1    0    0  503    0 -0.00000000000E+00 -0.00000000000E+00 -0.56297093052E+03  0.56297093052E+03  0.00000000000E+00 0. -1.
         24    2    1    2    0    0 -0.27336193468E+03 -0.49371228911E+03  0.10870681435E+03  0.57787416514E+03  0.60355674980E+02 0.  0.
         24    2    1    2    0    0  0.35536159668E+03  0.45623699853E+03  0.44298987927E+03  0.73160957562E+03  0.67664427747E+02 0.  0.
         25    2    1    2    0    0 -0.58236309714E+02  0.70527316363E+02  0.15338325110E+04  0.15416332635E+04  0.12500150811E+03 0.  0.
        -11    1    3    3    0    0 -0.44017435195E+02 -0.13140766136E+03  0.20310985485E+02  0.14006442873E+03  0.00000000000E+00 0.  1.
         12    1    3    3    0    0 -0.22934449948E+03 -0.36230462775E+03  0.88395828862E+02  0.43780973640E+03  0.00000000000E+00 0. -1.
        -11    1    4    4    0    0  0.12478380929E+03  0.13089952021E+03  0.10671059150E+03  0.20998293690E+03  0.00000000000E+00 0.  1.
         12    1    4    4    0    0  0.23057778739E+03  0.32533747832E+03  0.33627928777E+03  0.52162663872E+03  0.00000000000E+00 0. -1.
          5    1    5    5  501    0 -0.22709398815E+02  0.95815855468E+02  0.12993143930E+04  0.13030488774E+04  0.47000000000E+01 0.  1.
         -5    1    5    5    0  501 -0.35526910899E+02 -0.25288539104E+02  0.23451811800E+03  0.23858438607E+03  0.47000000000E+01 0.  1.
          1    1    1    2  502    0  0.28740288933E+01 -0.18019226046E+02  0.96410434270E+03  0.96427700178E+03  0.00000000000E+00 0. -1.
          1    1    1    2  503    0 -0.26637381179E+02 -0.15032799739E+02 -0.17879200123E+03  0.18138940114E+03  0.00000000000E+00 0. -1.
<mgrwt>
<rscale>  0 0.23625681E+02</rscale>
<asrwt>0</asrwt>
<pdfrwt beam="1">  1        2 0.50497241E+00 0.18246987E+02</pdfrwt>
<pdfrwt beam="2">  1        2 0.82789844E-01 0.30589861E+02</pdfrwt>
<totfact> 0.21582946E+01</totfact>
</mgrwt>
</event>
<event>
13    1  0.1942437E-008  0.1751055E+03  0.7546771E-02  0.1335889E+00
          2   -1    0    0  503    0  0.00000000000E+00  0.00000000000E+00  0.34495425257E+04  0.34495425257E+04  0.00000000000E+00 0. -1.
         -1   -1    0    0    0  501 -0.00000000000E+00 -0.00000000000E+00 -0.15751985285E+03  0.15751985285E+03  0.00000000000E+00 0.  1.
         24    2    1    2    0    0 -0.97059204069E+02 -0.60882888905E+02  0.40925803201E+03  0.43246454275E+03  0.80038920046E+02 0.  0.
         24    2    1    2    0    0  0.59410539767E+02 -0.10392919772E+03  0.24051042071E+03  0.28015946583E+03  0.79455480937E+02 0.  0.
         25    2    1    2    0    0 -0.13846183466E+03  0.51591419526E+02  0.15713553764E+04  0.15832308247E+04  0.12501508290E+03 0.  0.
        -11    1    4    4    0    0  0.63296460453E+02 -0.50964020010E+02  0.93653745925E+02  0.12399515058E+03  0.00000000000E+00 0.  1.
         12    1    4    4    0    0 -0.38859206863E+01 -0.52965177710E+02  0.14685667478E+03  0.15616431525E+03  0.00000000000E+00 0. -1.
        -13    1    3    3    0    0 -0.73966494808E+02 -0.24627237170E+02  0.35385837905E+03  0.36234416732E+03  0.00000000000E+00 0.  1.
         14    1    3    3    0    0 -0.23092709261E+02 -0.36255651735E+02  0.55399652953E+02  0.70120375434E+02  0.00000000000E+00 0. -1.
          5    1    5    5  502    0  0.13832343970E+02  0.19115155697E+02  0.74456975994E+02  0.78247390955E+02  0.47000000000E+01 0. -1.
         -5    1    5    5    0  502 -0.15229417863E+03  0.32476263829E+02  0.14968984004E+04  0.15049834337E+04  0.47000000000E+01 0. -1.
          1    1    1    2  503    0  0.19155382938E+02  0.28601955957E+02  0.11244894857E+04  0.11250162683E+04  0.00000000000E+00 0. -1.
         -2    1    1    2    0  501  0.15695511603E+03  0.84618711142E+02 -0.53590641945E+02  0.18619127699E+03  0.00000000000E+00 0.  1.
<mgrwt>
<rscale>  0 0.77638922E+02</rscale>
<asrwt>0</asrwt>
<pdfrwt beam="1">  1        2 0.50728562E+00 0.34423837E+02</pdfrwt>
<pdfrwt beam="2">  1       -1 0.23164687E-01 0.17510547E+03</pdfrwt>
<totfact> 0.35725125E+01</totfact>
</mgrwt>
</event>
<event>
13    1  0.1942437E-008  0.4898025E+02  0.7546771E-02  0.1570749E+00
          2   -1    0    0  502    0  0.00000000000E+00  0.00000000000E+00  0.42876269094E+03  0.42876269094E+03  0.00000000000E+00 0. -1.
          2   -1    0    0  503    0 -0.00000000000E+00 -0.00000000000E+00 -0.23601508252E+04  0.23601508252E+04  0.00000000000E+00 0. -1.
         24    2    1    2    0    0 -0.54713694950E+02 -0.23884990399E+02 -0.21742842565E+03  0.23908930590E+03  0.79526691954E+02 0.  0.
         24    2    1    2    0    0  0.53086136656E+02 -0.59324901145E+02  0.10807177743E+03  0.15734729277E+03  0.82104078239E+02 0.  0.
         25    2    1    2    0    0 -0.86209844604E+01  0.18723634047E+02  0.10289308823E+03  0.16320538851E+03  0.12499646150E+03 0.  0.
        -11    1    4    4    0    0 -0.50375341161E+01 -0.55906597686E+02  0.52328796107E+02  0.76741301245E+02  0.00000000000E+00 0.  1.
         12    1    4    4    0    0  0.58123670772E+02 -0.34183034587E+01  0.55742981320E+02  0.80605991520E+02  0.00000000000E+00 0. -1.
        -13    1    3    3    0    0 -0.15670471808E+02 -0.44838633508E+02 -0.15783842654E+03  0.16483032377E+03  0.00000000000E+00 0.  1.
         14    1    3    3    0    0 -0.39043223142E+02  0.20953643109E+02 -0.59589999110E+02  0.74258982129E+02  0.00000000000E+00 0. -1.
          5    1    5    5  501    0  0.10061352591E+02 -0.41972935069E+02  0.87517234072E+02  0.97695006801E+02  0.47000000000E+01 0.  1.
         -5    1    5    5    0  501 -0.18682337051E+02  0.60696569115E+02  0.15375854159E+02  0.65510381706E+02  0.47000000000E+01 0.  1.
          1    1    1    2  502    0  0.14975639397E+02  0.15749559112E+02  0.15110736356E+03  0.15266222097E+03  0.00000000000E+00 0. -1.
          1    1    1    2  503    0 -0.47270966421E+01  0.48736698386E+02 -0.20760319379E+04  0.20766093080E+04  0.00000000000E+00 0. -1.
<mgrwt>
<rscale>  0 0.32626404E+02</rscale>
<asrwt>0</asrwt>
<pdfrwt beam="1">  1        2 0.63053337E-01 0.21732887E+02</pdfrwt>
<pdfrwt beam="2">  1        2 0.34708100E+00 0.48980248E+02</pdfrwt>
<totfact> 0.81767829E+01</totfact>
</mgrwt>
</event>
<event>
13    1  0.1942437E-008  0.9215378E+02  0.7546771E-02  0.1402125E+00
          2   -1    0    0  503    0  0.00000000000E+00  0.00000000000E+00  0.13183725153E+04  0.13183725153E+04  0.00000000000E+00 0. -1.
          2   -1    0    0  502    0 -0.00000000000E+00 -0.00000000000E+00 -0.85582751184E+03  0.85582751184E+03  0.00000000000E+00 0. -1.
         24    2    1    2    0    0 -0.79439504679E+01 -0.52854865407E+02  0.65521675753E+02  0.10652323372E+03  0.64787083446E+02 0.  0.
         24    2    1    2    0    0 -0.32034923562E+02 -0.28610458513E+02 -0.22489086371E+02  0.93402636128E+02  0.79834195467E+02 0.  0.
         25    2    1    2    0    0  0.10262959438E+02 -0.94204634261E+01  0.41785412014E+02  0.13253180962E+03  0.12499834573E+03 0.  0.
        -13    1    4    4    0    0  0.14037687584E+02 -0.79162595059E+01 -0.37413561803E+02  0.40736942007E+02  0.00000000000E+00 0.  1.
         14    1    4    4    0    0 -0.46072611146E+02 -0.20694199007E+02  0.14924475433E+02  0.52665694121E+02  0.00000000000E+00 0. -1.
        -13    1    3    3    0    0  0.96314510862E+01  0.87652177066E+01 -0.22938671540E+01  0.13223302083E+02  0.00000000000E+00 0.  1.
         14    1    3    3    0    0 -0.17575401554E+02 -0.61620083113E+02  0.67815542907E+02  0.93299931632E+02  0.00000000000E+00 0. -1.
          5    1    5    5  501    0 -0.27876177315E+02  0.33914843007E+02  0.57521663203E+02  0.72512961431E+02  0.47000000000E+01 0. -1.
         -5    1    5    5    0  501  0.38139136753E+02 -0.43335306433E+02 -0.15736251189E+02  0.60018848185E+02  0.47000000000E+01 0. -1.
          1    1    1    2  502    0 -0.79739643632E+01  0.93178906484E+02 -0.72869733726E+03  0.73467387462E+03  0.00000000000E+00 0. -1.
          1    1    1    2  503    0  0.37689878955E+02 -0.22931191386E+01  0.11064243394E+04  0.11070684731E+04  0.00000000000E+00 0. -1.
<mgrwt>
<rscale>  0 0.58988877E+02</rscale>
<asrwt>0</asrwt>
<pdfrwt beam="1">  1        2 0.19387831E+00 0.37759573E+02</pdfrwt>
<pdfrwt beam="2">  1        2 0.12585699E+00 0.92153784E+02</pdfrwt>
<totfact> 0.11848891E+02</totfact>
</mgrwt>
</event>
<event>
13    1  0.1942437E-008  0.1078212E+03  0.7546771E-02  0.1336970E+00
          2   -1    0    0  503    0  0.00000000000E+00  0.00000000000E+00  0.72817389365E+03  0.72817389365E+03  0.00000000000E+00 0. -1.
          2   -1    0    0  502    0 -0.00000000000E+00 -0.00000000000E+00 -0.19833526637E+04  0.19833526637E+04  0.00000000000E+00 0. -1.
         24    2    1    2    0    0  0.18868901016E+02 -0.27318871784E+03 -0.98159482008E+03  0.10221943928E+04  0.79780165953E+02 0.  0.
         24    2    1    2    0    0  0.23834741095E+03  0.50363788643E+02 -0.54107579703E+03  0.59887070672E+03  0.80852369946E+02 0.  0.
         25    2    1    2    0    0 -0.11228620008E+03  0.15650101561E+03  0.49797822953E+03  0.54836851382E+03  0.12499980501E+03 0.  0.
        -11    1    3    3    0    0 -0.20592530181E+02 -0.21055916336E+02 -0.83368115336E+02  0.88417456232E+02  0.00000000000E+00 0.  1.
         12    1    3    3    0    0  0.39461431196E+02 -0.25213280150E+03 -0.89822670475E+03  0.93377693657E+03  0.00000000000E+00 0. -1.
        -11    1    4    4    0    0  0.21307103261E+02  0.27459333990E+02 -0.11521461303E+03  0.12034290477E+03  0.00000000000E+00 0.  1.
         12    1    4    4    0    0  0.21704030769E+03  0.22904454654E+02 -0.42586118399E+03  0.47852780195E+03  0.00000000000E+00 0. -1.
          5    1    5    5  501    0 -0.59287998773E+02  0.14920521808E+03  0.44427999300E+03  0.47242360873E+03  0.47000000000E+01 0. -1.
         -5    1    5    5    0  501 -0.52998201312E+02  0.72957975300E+01  0.53698236524E+02  0.75944905094E+02  0.47000000000E+01 0. -1.
          1    1    1    2  502    0 -0.90198698964E+02  0.57862860821E+02 -0.37358512367E+03  0.38865120685E+03  0.00000000000E+00 0. -1.
          1    1    1    2  503    0 -0.54731412917E+02  0.84610527683E+01  0.14309874119E+03  0.15344173717E+03  0.00000000000E+00 0. -1.
<mgrwt>
<rscale>  0 0.77274224E+02</rscale>
<asrwt>0</asrwt>
<pdfrwt beam="1">  1        2 0.10708440E+00 0.55381558E+02</pdfrwt>
<pdfrwt beam="2">  1        2 0.29166951E+00 0.10782119E+03</pdfrwt>
<totfact> 0.63880257E+01</totfact>
</mgrwt>
</event>
<event>
13    1  0.1942437E-008  0.8085710E+02  0.7546771E-02  0.1389710E+00
          2   -1    0    0  503    0  0.00000000000E+00  0.00000000000E+00  0.17496095703E+04  0.17496095703E+04  0.00000000000E+00 0. -1.
          2   -1    0    0  502    0 -0.00000000000E+00 -0.00000000000E+00 -0.19732862381E+04  0.19732862381E+04  0.00000000000E+00 0. -1.
         24    2    1    2    0    0  0.52000473772E+02  0.21063980551E+03 -0.80807015412E+03  0.83931388659E+03  0.66311758461E+02 0.  0.
         24    2    1    2    0    0 -0.17107233261E+03 -0.65158713827E+02 -0.48427107370E+03  0.52521015229E+03  0.88407184534E+02 0.  0.
         25    2    1    2    0    0  0.10839824666E+02 -0.12653628067E+03  0.11845503720E+04  0.11978778224E+04  0.12499104544E+03 0.  0.
        -11    1    4    4    0    0 -0.56509341262E+02  0.19320029160E+02 -0.11798916727E+03  0.13224225032E+03  0.00000000000E+00 0.  1.
         12    1    4    4    0    0 -0.11456299135E+03 -0.84478742988E+02 -0.36628190643E+03  0.39296790197E+03  0.00000000000E+00 0. -1.
        -11    1    3    3    0    0 -0.14001484884E+01  0.10316126440E+03 -0.29938891143E+03  0.31666690256E+03  0.00000000000E+00 0.  1.
         12    1    3    3    0    0  0.53400622260E+02  0.10747854112E+03 -0.50868124269E+03  0.52264698403E+03  0.00000000000E+00 0. -1.
          5    1    5    5  501    0 -0.42082754872E+02 -0.16543794211E+01  0.26520226412E+03  0.26856661394E+03  0.47000000000E+01 0. -1.
         -5    1    5    5    0  501  0.52922579538E+02 -0.12488190125E+03  0.91934810791E+03  0.92931120848E+03  0.47000000000E+01 0. -1.
          1    1    1    2  502    0  0.29517518158E+02 -0.37225809863E+02 -0.63417038002E+03  0.63594741583E+03  0.00000000000E+00 0. -1.
          1    1    1    2  503    0  0.78714516015E+02  0.18280998850E+02  0.51828456809E+03  0.52454653128E+03  0.00000000000E+00 0. -1.
<mgrwt>
<rscale>  0 0.61978936E+02</rscale>
<asrwt>0</asrwt>
<pdfrwt beam="1">  1        2 0.25729552E+00 0.80857097E+02</pdfrwt>
<pdfrwt beam="2">  1        2 0.29018915E+00 0.47508366E+02</pdfrwt>
<totfact> 0.19634318E+01</totfact>
</mgrwt>
</event>
<event>
13    1  0.1942437E-008  0.6312432E+02  0.7546771E-02  0.1507142E+00
          2   -1    0    0  503    0  0.00000000000E+00  0.00000000000E+00  0.28591357159E+03  0.28591357159E+03  0.00000000000E+00 0. -1.
          2   -1    0    0  502    0 -0.00000000000E+00 -0.00000000000E+00 -0.14816119143E+04  0.14816119143E+04  0.00000000000E+00 0. -1.
         24    2    1    2    0    0  0.37848162044E+02 -0.43831307779E+00 -0.28159288171E+03  0.29542616448E+03  0.80928314860E+02 0.  0.
         24    2    1    2    0    0 -0.22303920761E+02  0.14671441040E+03 -0.50535330955E+03  0.53295159640E+03  0.81442332561E+02 0.  0.
         25    2    1    2    0    0 -0.83285279188E+02 -0.11775115864E+03  0.12659676094E+03  0.22902685881E+03  0.12499915634E+03 0.  0.
        -11    1    3    3    0    0 -0.19336034209E+02 -0.56453358010E+01 -0.23174652598E+02  0.30705318078E+02  0.00000000000E+00 0.  1.
         12    1    3    3    0    0  0.57184196253E+02  0.52070227232E+01 -0.25841822911E+03  0.26472084641E+03  0.00000000000E+00 0. -1.
        -11    1    4    4    0    0 -0.15290276388E+02  0.12828219115E+03 -0.49307875250E+03  0.50972224719E+03  0.00000000000E+00 0.  1.
         12    1    4    4    0    0 -0.70136443734E+01  0.18432219251E+02 -0.12274557056E+02  0.23229349212E+02  0.00000000000E+00 0. -1.
          5    1    5    5  501    0 -0.35021904494E+02 -0.78126746906E+02 -0.22419392689E+01  0.85775513221E+02  0.47000000000E+01 0.  1.
         -5    1    5    5    0  501 -0.48263374694E+02 -0.39624411732E+02  0.12883870021E+03  0.14325134559E+03  0.47000000000E+01 0.  1.
          1    1    1    2  502    0  0.46471259827E+02 -0.42648312237E+02 -0.61923307759E+03  0.62243719435E+03  0.00000000000E+00 0. -1.
          1    1    1    2  503    0  0.21269778079E+02  0.14123373549E+02  0.83884165187E+02  0.87683671850E+02  0.00000000000E+00 0. -1.
<mgrwt>
<rscale>  0 0.40145709E+02</rscale>
<asrwt>0</asrwt>
<pdfrwt beam="1">  1        2 0.42046114E-01 0.25531806E+02</pdfrwt>
<pdfrwt beam="2">  1        2 0.21788410E+00 0.63124320E+02</pdfrwt>
<totfact> 0.30864918E+02</totfact>
</mgrwt>
</event>
<event>
13    1  0.1942437E-008  0.7672103E+02  0.7546771E-02  0.1347960E+00
          2   -1    0    0  502    0  0.00000000000E+00  0.00000000000E+00  0.18521275386E+04  0.18521275386E+04  0.00000000000E+00 0. -1.
          2   -1    0    0  503    0 -0.00000000000E+00 -0.00000000000E+00 -0.12533409791E+04  0.12533409791E+04  0.00000000000E+00 0. -1.
         24    2    1    2    0    0  0.62422220264E+01 -0.10249211235E+03 -0.25943672655E+03  0.29038115797E+03  0.80437574510E+02 0.  0.
         24    2    1    2    0    0 -0.10045404036E+03  0.20382553933E+02  0.30951225907E+03  0.33605140618E+03  0.81401758895E+02 0.  0.
         25    2    1    2    0    0  0.71141676088E+01  0.11950778678E+03  0.84797897868E+03  0.86546221529E+03  0.12499510122E+03 0.  0.
        -11    1    4    4    0    0 -0.62157520877E+02  0.52131172189E+02  0.19483727285E+03  0.21105160365E+03  0.00000000000E+00 0.  1.
         12    1    4    4    0    0 -0.38296519487E+02 -0.31748618256E+02  0.11467498622E+03  0.12499980253E+03  0.00000000000E+00 0. -1.
        -11    1    3    3    0    0 -0.22495411907E+02 -0.58606784735E+02 -0.70968610957E+02  0.94748839123E+02  0.00000000000E+00 0.  1.
         12    1    3    3    0    0  0.28737633934E+02 -0.43885327617E+02 -0.18846811559E+03  0.19563231885E+03  0.00000000000E+00 0. -1.
          5    1    5    5  501    0  0.34524178315E+02  0.38825513248E+02  0.61734878183E+03  0.61954898740E+03  0.47000000000E+01 0.  1.
         -5    1    5    5    0  501 -0.27410010706E+02  0.80682273535E+02  0.23063019685E+03  0.24591322789E+03  0.47000000000E+01 0.  1.
          1    1    1    2  502    0  0.70134738938E+02  0.31327898823E+02  0.65359082319E+03  0.65808911479E+03  0.00000000000E+00 0. -1.
          1    1    1    2  503    0  0.16962911791E+02 -0.68726127187E+02 -0.95285877490E+03  0.95548462355E+03  0.00000000000E+00 0. -1.
<mgrwt>
<rscale>  0 0.73695128E+02</rscale>
<asrwt>0</asrwt>
<pdfrwt beam="1">  1        2 0.27237170E+00 0.76721034E+02</pdfrwt>
<pdfrwt beam="2">  1        2 0.18431485E+00 0.70788565E+02</pdfrwt>
<totfact> 0.37671178E+01</totfact>
</mgrwt>
</event>
<event>
13    1  0.1942437E-008  0.6635647E+02  0.7546771E-02  0.1486041E+00
          4   -1    0    0  503    0 -0.00000000000E+00  0.00000000000E+00  0.11034229725E+04  0.11034229725E+04  0.00000000000E+00 0. -1.
          2   -1    0    0  502    0  0.00000000000E+00 -0.00000000000E+00 -0.41881802040E+03  0.41881802040E+03  0.00000000000E+00 0. -1.
         24    2    1    2    0    0  0.80608350896E+01  0.45811251149E+01  0.28683284393E+03  0.29714416206E+03  0.77042903108E+02 0.  0.
         24    2    1    2    0    0 -0.15999978099E+02 -0.29019833139E+02  0.47200163740E+02  0.98055334648E+02  0.79302226837E+02 0.  0.
         25    2    1    2    0    0 -0.55253643710E+02  0.68663533827E+02 -0.76183127197E+02  0.17086376494E+03  0.12499164484E+03 0.  0.
        -11    1    3    3    0    0  0.12674974024E+02 -0.92942846881E+01  0.28093935659E+03  0.28137867861E+03  0.00000000000E+00 0.  1.
         12    1    3    3    0    0 -0.46141389345E+01  0.13875409803E+02  0.58934873349E+01  0.15765483446E+02  0.00000000000E+00 0. -1.
        -11    1    4    4    0    0  0.32082336835E+02 -0.87059552189E+01  0.13236114710E+02  0.35780787103E+02  0.00000000000E+00 0.  1.
         12    1    4    4    0    0 -0.48082314934E+02 -0.20313877920E+02  0.33964049030E+02  0.62274547546E+02  0.00000000000E+00 0. -1.
          5    1    5    5  501    0 -0.68664987020E+01 -0.35035842395E+02 -0.31779290585E+02  0.48027829088E+02  0.47000000000E+01 0. -1.
         -5    1    5    5    0  501 -0.48387145008E+02  0.10369937622E+03 -0.44403836612E+02  0.12283593585E+03  0.47000000000E+01 0. -1.
          1    1    1    2  502    0 -0.11071091017E+01 -0.28075169805E+02 -0.26237041027E+03  0.26387056114E+03  0.00000000000E+00 0. -1.
          3    1    1    2  503    0  0.64299895821E+02 -0.16149655999E+02  0.68912548193E+03  0.69230717014E+03  0.00000000000E+00 0. -1.
<mgrwt>
<rscale>  0 0.43178896E+02</rscale>
<asrwt>0</asrwt>
<pdfrwt beam="2">  1        2 0.61590886E-01 0.28096990E+02</pdfrwt>
<pdfrwt beam="1">  1        4 0.16226808E+00 0.66356469E+02</pdfrwt>
<totfact> 0.10831610E+01</totfact>
</mgrwt>
</event>
<event>
13    1  0.1942437E-008  0.3315916E+02  0.7546771E-02  0.1712352E+00
          2   -1    0    0  503    0  0.00000000000E+00  0.00000000000E+00  0.16685638196E+04  0.16685638196E+04  0.00000000000E+00 0. -1.
          2   -1    0    0  502    0 -0.00000000000E+00 -0.00000000000E+00 -0.14015688754E+04  0.14015688754E+04  0.00000000000E+00 0. -1.
         24    2    1    2    0    0  0.15417444308E+03  0.41603479151E+02 -0.61097939759E+03  0.63698140716E+03  0.83359944883E+02 0.  0.
         24    2    1    2    0    0 -0.19433429721E+02 -0.25291831479E+03 -0.55939778572E+02  0.27506883622E+03  0.90489080469E+02 0.  0.
         25    2    1    2    0    0 -0.90227222671E+02  0.20946123814E+03  0.20702402990E+03  0.33241214151E+03  0.12499568341E+03 0.  0.
        -11    1    4    4    0    0 -0.15656069024E+02 -0.16722560348E+03  0.79014459310E+01  0.16814264124E+03  0.00000000000E+00 0.  1.
         12    1    4    4    0    0 -0.37773606970E+01 -0.85692711312E+02 -0.63841224503E+02  0.10692619498E+03  0.00000000000E+00 0. -1.
        -11    1    3    3    0    0  0.94311756933E+02  0.32467452357E+02 -0.22281159245E+03  0.24411851361E+03  0.00000000000E+00 0.  1.
         12    1    3    3    0    0  0.59862686145E+02  0.91360267942E+01 -0.38816780515E+03  0.39286289355E+03  0.00000000000E+00 0. -1.
          5    1    5    5  501    0 -0.82777830960E+02  0.11719747661E+03  0.19006605260E+03  0.23819028564E+03  0.47000000000E+01 0. -1.
         -5    1    5    5    0  501 -0.74493917110E+01  0.92263761537E+02  0.16957977299E+02  0.94221855871E+02  0.47000000000E+01 0. -1.
          1    1    1    2  502    0 -0.12525417657E+02 -0.68700392938E+01 -0.54908184532E+03  0.54926765460E+03  0.00000000000E+00 0. -1.
          1    1    1    2  503    0 -0.31988373028E+02  0.87236367930E+01  0.12759719358E+04  0.12764026554E+04  0.00000000000E+00 0. -1.
<mgrwt>
<rscale>  0 0.21764754E+02</rscale>
<asrwt>0</asrwt>
<pdfrwt beam="1">  1        2 0.24537703E+00 0.33159162E+02</pdfrwt>
<pdfrwt beam="2">  1        2 0.20611307E+00 0.14285781E+02</pdfrwt>
<totfact> 0.47728249E+01</totfact>
</mgrwt>
</event>
<event>
13    1  0.1942437E-008  0.1609651E+03  0.7546771E-02  0.1271036E+00
          2   -1    0    0  502    0  0.00000000000E+00  0.00000000000E+00  0.19343806276E+04  0.19343806276E+04  0.00000000000E+00 0. -1.
          2   -1    0    0  503    0 -0.00000000000E+00 -0.00000000000E+00 -0.10129242842E+04  0.10129242842E+04  0.00000000000E+00 0. -1.
         24    2    1    2    0    0  0.25260428031E+03 -0.49982284474E+02 -0.37718636071E+03  0.46404910348E+03  0.82248820889E+02 0.  0.
         24    2    1    2    0    0  0.80690834521E+02 -0.15335422523E+03 -0.13798829017E+03  0.23493718673E+03  0.78269945138E+02 0.  0.
         25    2    1    2    0    0 -0.14943965730E+03  0.12479536608E+03  0.15740348361E+04  0.15909482460E+04  0.12499824670E+03 0.  0.
        -11    1    4    4    0    0  0.78744344121E+02 -0.12449856657E+03 -0.14332226502E+03  0.20552818897E+03  0.00000000000E+00 0.  1.
         12    1    4    4    0    0  0.19464904001E+01 -0.28855658660E+02  0.53339748519E+01  0.29408997761E+02  0.00000000000E+00 0. -1.
        -11    1    3    3    0    0  0.12077581020E+03 -0.23799647972E+02 -0.11054463238E+03  0.16544889035E+03  0.00000000000E+00 0.  1.
         12    1    3    3    0    0  0.13182847011E+03 -0.26182636502E+02 -0.26664172834E+03  0.29860021312E+03  0.00000000000E+00 0. -1.
          5    1    5    5  501    0 -0.14674906430E+03  0.13472908631E+03  0.15610851205E+04  0.15737522226E+04  0.47000000000E+01 0. -1.
         -5    1    5    5    0  501 -0.26905929961E+01 -0.99337202292E+01  0.12949715565E+02  0.17196023420E+02  0.47000000000E+01 0.  1.
          1    1    1    2  502    0 -0.12103091392E+03  0.10427204581E+03  0.23205379045E+03  0.28172700141E+03  0.00000000000E+00 0. -1.
          1    1    1    2  503    0 -0.62824543610E+02 -0.25730902189E+02 -0.36945763221E+03  0.37564337423E+03  0.00000000000E+00 0. -1.
<mgrwt>
<rscale>  0 0.10453642E+03</rscale>
<asrwt>0</asrwt>
<pdfrwt beam="1">  1        2 0.28446774E+00 0.16096512E+03</pdfrwt>
<pdfrwt beam="2">  1        2 0.14895945E+00 0.67889635E+02</pdfrwt>
<totfact> 0.43099176E+01</totfact>
</mgrwt>
</event>
<event>
13    1  0.1942437E-008  0.6082303E+02  0.7546771E-02  0.1430618E+00
          2   -1    0    0  503    0  0.00000000000E+00  0.00000000000E+00  0.94030646622E+03  0.94030646622E+03  0.00000000000E+00 0. -1.
          2   -1    0    0  502    0 -0.00000000000E+00 -0.00000000000E+00 -0.16363433480E+04  0.16363433480E+04  0.00000000000E+00 0. -1.
         24    2    1    2    0    0 -0.67078140219E+02  0.36282955636E+02 -0.18299872044E+03  0.21546552373E+03  0.84385605827E+02 0.  0.
         24    2    1    2    0    0  0.28068523585E+02 -0.17345481948E+03  0.29165332092E+01  0.19324758236E+03  0.80384734283E+02 0.  0.
         25    2    1    2    0    0  0.14350637770E+03  0.12669225851E+03  0.46291718674E+03  0.51629625544E+03  0.12499797118E+03 0.  0.
        -11    1    3    3    0    0 -0.75934757543E+02  0.54230919691E+02 -0.15727473913E+03  0.18287269786E+03  0.00000000000E+00 0.  1.
         12    1    3    3    0    0  0.88566173245E+01 -0.17947964055E+02 -0.25723981309E+02  0.32592825875E+02  0.00000000000E+00 0. -1.
        -13    1    4    4    0    0  0.42093160024E+02 -0.17406033930E+03  0.10067559266E+01  0.17908056677E+03  0.00000000000E+00 0.  1.
         14    1    4    4    0    0 -0.14024636439E+02  0.60551981806E+00  0.19097772826E+01  0.14167015592E+02  0.00000000000E+00 0. -1.
          5    1    5    5  501    0  0.43089596697E+02 -0.12600337252E+02  0.41920874159E+02  0.61603015613E+02  0.47000000000E+01 0.  1.
         -5    1    5    5    0  501  0.10041678101E+03  0.13929259576E+03  0.42099631258E+03  0.45469323983E+03  0.47000000000E+01 0.  1.
          1    1    1    2  502    0 -0.44083494388E+02  0.12778632879E+02 -0.13121352445E+04  0.13129377547E+04  0.00000000000E+00 0. -1.
          1    1    1    2  503    0 -0.60413266682E+02 -0.22990275408E+01  0.33326336323E+03  0.33870269794E+03  0.00000000000E+00 0. -1.
<mgrwt>
<rscale>  0 0.52836252E+02</rscale>
<asrwt>0</asrwt>
<pdfrwt beam="1">  1        2 0.13828037E+00 0.60823027E+02</pdfrwt>
<pdfrwt beam="2">  1        2 0.24063872E+00 0.45898235E+02</pdfrwt>
<totfact> 0.74517420E+01</totfact>
</mgrwt>
</event>
<event>
13    1  0.1942437E-008  0.1465692E+03  0.7546771E-02  0.1277744E+00
          2   -1    0    0  502    0  0.00000000000E+00  0.00000000000E+00  0.17814123433E+04  0.17814123433E+04  0.00000000000E+00 0. -1.
          4   -1    0    0  503    0 -0.00000000000E+00 -0.00000000000E+00 -0.21052855165E+04  0.21052855165E+04  0.00000000000E+00 0. -1.
         24    2    1    2    0    0 -0.69506251422E+02 -0.60612123876E+02 -0.33400962043E+03  0.35548903094E+03  0.79404508869E+02 0.  0.
         24    2    1    2    0    0 -0.21958374189E+02  0.10596347559E+02 -0.87206916989E+02  0.12042317604E+03  0.79386662467E+02 0.  0.
         25    2    1    2    0    0 -0.71229411965E+02 -0.23081725116E+03  0.38346276542E+03  0.47012541524E+03  0.12499592404E+03 0.  0.
        -11    1    4    4    0    0 -0.45032660894E+02 -0.12821999828E+02 -0.33947745615E+02  0.57834191091E+02  0.00000000000E+00 0.  1.
         12    1    4    4    0    0  0.23074286705E+02  0.23418347388E+02 -0.53259171374E+02  0.62588984948E+02  0.00000000000E+00 0. -1.
        -13    1    3    3    0    0  0.12080234289E+02  0.51388441489E+00 -0.96007827143E+01  0.15439273506E+02  0.00000000000E+00 0.  1.
         14    1    3    3    0    0 -0.81586485711E+02 -0.61126008291E+02 -0.32440883772E+03  0.34004975743E+03  0.00000000000E+00 0. -1.
          5    1    5    5  501    0  0.32729475222E+02 -0.90160630458E+02  0.11719512729E+03  0.15151549654E+03  0.47000000000E+01 0.  1.
         -5    1    5    5    0  501 -0.10395888719E+03 -0.14065662070E+03  0.26626763814E+03  0.31860991870E+03  0.47000000000E+01 0.  1.
          1    1    1    2  502    0  0.52916712938E+02  0.45680958650E+02  0.13159009071E+04  0.13177564744E+04  0.00000000000E+00 0. -1.
          3    1    1    2  503    0  0.10977732464E+03  0.23515206882E+03 -0.16020203083E+04  0.16229037632E+04  0.00000000000E+00 0. -1.
<mgrwt>
<rscale>  0 0.10122326E+03</rscale>
<asrwt>0</asrwt>
<pdfrwt beam="1">  1        2 0.26197240E+00 0.69906570E+02</pdfrwt>
<pdfrwt beam="2">  1        4 0.30960081E+00 0.14656918E+03</pdfrwt>
<totfact> 0.21111756E-01</totfact>
</mgrwt>
</event>
<event>
13    1  0.1942437E-008  0.1301504E+03  0.7546771E-02  0.1238584E+00
          2   -1    0    0  503    0  0.00000000000E+00  0.00000000000E+00  0.18517246274E+04  0.18517246274E+04  0.00000000000E+00 0. -1.
          2   -1    0    0  502    0 -0.00000000000E+00 -0.00000000000E+00 -0.32590783227E+04  0.32590783227E+04  0.00000000000E+00 0. -1.
         24    2    1    2    0    0 -0.98351624491E+01  0.57810395787E+02 -0.19192085860E+03  0.21429477796E+03  0.75165574659E+02 0.  0.
         24    2    1    2    0    0  0.12922830438E+03 -0.17319863595E+03 -0.30468621032E+03  0.38173808069E+03  0.78692778175E+02 0.  0.
         25    2    1    2    0    0 -0.14156047335E+03 -0.12294614162E+03  0.35614680858E+03  0.42145018144E+03  0.12499833925E+03 0.  0.
        -11    1    3    3    0    0 -0.36815098198E+02  0.40519526337E+02 -0.73706820388E+02  0.91814371650E+02  0.00000000000E+00 0.  1.
         12    1    3    3    0    0  0.26979935749E+02  0.17290869451E+02 -0.11821403821E+03  0.12248040631E+03  0.00000000000E+00 0. -1.
        -13    1    4    4    0    0  0.55144833490E+02 -0.46106916121E+02 -0.49799675968E+02  0.87446029648E+02  0.00000000000E+00 0.  1.
         14    1    4    4    0    0  0.74083470891E+02 -0.12709171983E+03 -0.25488653436E+03  0.29429205104E+03  0.00000000000E+00 0. -1.
          5    1    5    5  501    0 -0.96853911421E+02 -0.10376663937E+03  0.13846849574E+03  0.19835274114E+03  0.47000000000E+01 0.  1.
         -5    1    5    5    0  501 -0.44706561930E+02 -0.19179502246E+02  0.21767831284E+03  0.22309744030E+03  0.47000000000E+01 0.  1.
          1    1    1    2  502    0  0.27060001874E+02  0.12266115206E+03 -0.26762598901E+04  0.26792060394E+04  0.00000000000E+00 0. -1.
          1    1    1    2  503    0 -0.48926704544E+01  0.11567322972E+03  0.14093664552E+04  0.14141138707E+04  0.00000000000E+00 0. -1.
<mgrwt>
<rscale>  0 0.12277729E+03</rscale>
<asrwt>0</asrwt>
<pdfrwt beam="1">  1        2 0.27231245E+00 0.11582184E+03</pdfrwt>
<pdfrwt beam="2">  1        2 0.47927622E+00 0.13015043E+03</pdfrwt>
<totfact> 0.33183349E+00</totfact>
</mgrwt>
</event>
<event>
13    1  0.1942437E-008  0.1304792E+03  0.7546771E-02  0.1374049E+00
         -1   -1    0    0    0  501 -0.00000000000E+00  0.00000000000E+00  0.54593775219E+03  0.54593775219E+03  0.00000000000E+00 0.  1.
          2   -1    0    0  503    0  0.00000000000E+00 -0.00000000000E+00 -0.20331544436E+04  0.20331544436E+04  0.00000000000E+00 0. -1.
         24    2    1    2    0    0  0.28049280631E+02 -0.47727614228E+02  0.13795215451E+03  0.16924051253E+03  0.80912711253E+02 0.  0.
         24    2    1    2    0    0 -0.41302483530E+02  0.22865956662E+02  0.41209285131E+02  0.10111711162E+03  0.79358162537E+02 0.  0.
         25    2    1    2    0    0  0.36411919518E+02  0.13700279265E+03 -0.22729952786E+03  0.29561041590E+03  0.12499939818E+03 0.  0.
        -13    1    4    4    0    0 -0.50350162987E+01  0.42705095131E+02  0.41523394889E+02  0.59776825462E+02  0.00000000000E+00 0.  1.
         14    1    4    4    0    0 -0.36267467231E+02 -0.19839138468E+02 -0.31410975760E+00  0.41340286156E+02  0.00000000000E+00 0. -1.
        -13    1    3    3    0    0  0.54870835456E+02 -0.35586804130E+02  0.11338913023E+03  0.13089814386E+03  0.00000000000E+00 0.  1.
         14    1    3    3    0    0 -0.26821554825E+02 -0.12140810098E+02  0.24563024281E+02  0.38342368666E+02  0.00000000000E+00 0. -1.
          5    1    5    5  502    0 -0.15253517526E+02 -0.18262981493E+02 -0.19804741881E+02  0.31313321301E+02  0.47000000000E+01 0.  1.
         -5    1    5    5    0  502  0.51665437044E+02  0.15526577414E+03 -0.20749478598E+03  0.26429709459E+03  0.47000000000E+01 0.  1.
          1    1    1    2  503    0 -0.56239459899E+02 -0.11702645440E+03 -0.17226760224E+04  0.17275620817E+04  0.00000000000E+00 0. -1.
         -2    1    1    2    0  501  0.33080743281E+02  0.48853193251E+01  0.28359741925E+03  0.28556207403E+03  0.00000000000E+00 0.  1.
<mgrwt>
<rscale>  0 0.66054248E+02</rscale>
<asrwt>0</asrwt>
<pdfrwt beam="2">  1        2 0.29899330E+00 0.13047923E+03</pdfrwt>
<pdfrwt beam="1">  1       -1 0.80284963E-01 0.33439526E+02</pdfrwt>
<totfact> 0.17065358E+01</totfact>
</mgrwt>
</event>
<event>
13    1  0.1942437E-008  0.1862809E+03  0.7546771E-02  0.1268935E+00
          2   -1    0    0  503    0  0.00000000000E+00  0.00000000000E+00  0.30484814928E+04  0.30484814928E+04  0.00000000000E+00 0. -1.
         -3   -1    0    0    0  501 -0.00000000000E+00 -0.00000000000E+00 -0.97306202258E+03  0.97306202258E+03  0.00000000000E+00 0.  1.
         24    2    1    2    0    0 -0.32627840843E+01  0.38274057401E+02 -0.11774672010E+03  0.14763777877E+03  0.80355923214E+02 0.  0.
         24    2    1    2    0    0 -0.78761872982E+02 -0.12584436957E+02  0.15375402079E+03  0.19099789941E+03  0.80486632303E+02 0.  0.
         25    2    1    2    0    0  0.14153483594E+03 -0.23665473106E+03  0.14862564108E+04  0.15167795199E+04  0.12499768691E+03 0.  0.
        -11    1    4    4    0    0 -0.36903576527E+02 -0.27761323745E+02  0.13500847631E+03  0.14268795931E+03  0.00000000000E+00 0.  1.
         12    1    4    4    0    0 -0.41858296454E+02  0.15176886788E+02  0.18745544488E+02  0.48309940103E+02  0.00000000000E+00 0. -1.
        -13    1    3    3    0    0 -0.20320314506E+02  0.33005728774E+02 -0.12305330431E+03  0.12901321256E+03  0.00000000000E+00 0.  1.
         14    1    3    3    0    0  0.17057530421E+02  0.52683286269E+01  0.53065842076E+01  0.18624566211E+02  0.00000000000E+00 0. -1.
          5    1    5    5  502    0  0.14895643712E+03 -0.17865374025E+03  0.98503855569E+03  0.10121404178E+04  0.47000000000E+01 0.  1.
         -5    1    5    5    0  502 -0.74216011745E+01 -0.58000990813E+02  0.50121785511E+03  0.50463910211E+03  0.47000000000E+01 0.  1.
          1    1    1    2  503    0 -0.50604896182E+02  0.15176414714E+03  0.13538147572E+04  0.13632342458E+04  0.00000000000E+00 0. -1.
         -4    1    1    2    0  501 -0.89052826946E+01  0.59200963476E+02 -0.80065899855E+03  0.80289407153E+03  0.00000000000E+00 0.  1.
<mgrwt>
<rscale>  0 0.10560340E+03</rscale>
<asrwt>0</asrwt>
<pdfrwt beam="1">  1        2 0.44830610E+00 0.18628088E+03</pdfrwt>
<pdfrwt beam="2">  1       -3 0.14309736E+00 0.59867004E+02</pdfrwt>
<totfact> 0.59509859E-01</totfact>
</mgrwt>
</event>
<event>
13    1  0.1942437E-008  0.1439336E+03  0.7546771E-02  0.1227147E+00
          2   -1    0    0  502    0  0.00000000000E+00  0.00000000000E+00  0.13869009979E+04  0.13869009979E+04  0.00000000000E+00 0. -1.
          2   -1    0    0  503    0 -0.00000000000E+00 -0.00000000000E+00 -0.99621577054E+03  0.99621577054E+03  0.00000000000E+00 0. -1.
         24    2    1    2    0    0  0.68070373170E+00 -0.12878910371E+03 -0.15070805607E+03  0.21386453897E+03  0.80237312224E+02 0.  0.
         24    2    1    2    0    0 -0.34669192248E+02  0.15550805581E+02 -0.69186712938E+02  0.11237881323E+03  0.79990099209E+02 0.  0.
         25    2    1    2    0    0 -0.12236447882E+02  0.11945940972E+03  0.88805404720E+03  0.90481327245E+03  0.12500714392E+03 0.  0.
        -11    1    4    4    0    0 -0.44077014098E+02 -0.21896915415E+02 -0.45842031950E+02  0.67258828192E+02  0.00000000000E+00 0.  1.
         12    1    4    4    0    0  0.94078218494E+01  0.37447720997E+02 -0.23344680988E+02  0.45119985043E+02  0.00000000000E+00 0. -1.
        -11    1    3    3    0    0 -0.32769961789E+02 -0.62768294379E+02 -0.41916062438E+02  0.82284175060E+02  0.00000000000E+00 0.  1.
         12    1    3    3    0    0  0.33450665521E+02 -0.66020809327E+02 -0.10879199363E+03  0.13158036391E+03  0.00000000000E+00 0. -1.
          5    1    5    5  501    0 -0.22160213572E+02  0.37642758430E+02  0.70271143085E+02  0.82874458539E+02  0.47000000000E+01 0. -1.
         -5    1    5    5    0  501  0.99237656899E+01  0.81816651291E+02  0.81778290411E+03  0.82193881391E+03  0.47000000000E+01 0. -1.
          1    1    1    2  502    0 -0.11551938623E+03 -0.85441461790E+02  0.41362931913E+03  0.43787462318E+03  0.00000000000E+00 0. -1.
          1    1    1    2  503    0  0.16174432263E+03  0.79220350194E+02 -0.69110336999E+03  0.71418552057E+03  0.00000000000E+00 0. -1.
<mgrwt>
<rscale>  0 0.13020796E+03</rscale>
<asrwt>0</asrwt>
<pdfrwt beam="1">  1        2 0.20395603E+00 0.14393365E+03</pdfrwt>
<pdfrwt beam="2">  1        2 0.14650232E+00 0.11779116E+03</pdfrwt>
<totfact> 0.81120050E+01</totfact>
</mgrwt>
</event>
<event>
13    1  0.1942437E-008  0.1111826E+03  0.7546771E-02  0.1287597E+00
         -1   -1    0    0    0  501 -0.00000000000E+00  0.00000000000E+00  0.12767636770E+03  0.12767636770E+03  0.00000000000E+00 0.  1.
          2   -1    0    0  503    0  0.00000000000E+00 -0.00000000000E+00 -0.90849548809E+03  0.90849548809E+03  0.00000000000E+00 0. -1.
         24    2    1    2    0    0 -0.25935533249E+02 -0.21444030680E+00 -0.84037120682E+02  0.11954550100E+03  0.80970311140E+02 0.  0.
         24    2    1    2    0    0 -0.43106397151E+02 -0.76546284116E+02 -0.85931040870E+02  0.14707645205E+03  0.80807449389E+02 0.  0.
         25    2    1    2    0    0  0.47805064306E+02 -0.10562982895E+03 -0.30149345340E+03  0.34636474796E+03  0.12500900467E+03 0.  0.
        -11    1    4    4    0    0 -0.80431044160E+01 -0.82869502358E+02 -0.54036266835E+02  0.99257060621E+02  0.00000000000E+00 0.  1.
         12    1    4    4    0    0 -0.35063292735E+02  0.63232182421E+01 -0.31894774035E+02  0.47819391434E+02  0.00000000000E+00 0. -1.
        -13    1    3    3    0    0 -0.21201075631E+02  0.35377933628E+02 -0.19341955909E+02  0.45554308842E+02  0.00000000000E+00 0.  1.
         14    1    3    3    0    0 -0.47344576181E+01 -0.35592373934E+02 -0.64695164773E+02  0.73991192153E+02  0.00000000000E+00 0. -1.
          5    1    5    5  502    0 -0.16536651153E+02 -0.74562623392E+02 -0.24025339543E+03  0.25214446188E+03  0.47000000000E+01 0.  1.
         -5    1    5    5    0  502  0.64341715459E+02 -0.31067205563E+02 -0.61240057961E+02  0.94220286079E+02  0.47000000000E+01 0.  1.
          1    1    1    2  503    0 -0.24728785511E+02  0.10704840252E+03 -0.31612143475E+03  0.33466944113E+03  0.00000000000E+00 0. -1.
         -2    1    1    2    0  501  0.45965651605E+02  0.75342150855E+02  0.67639293086E+01  0.88515713648E+02  0.00000000000E+00 0.  1.
<mgrwt>
<rscale>  0 0.96606945E+02</rscale>
<asrwt>0</asrwt>
<pdfrwt beam="2">  1        2 0.13360227E+00 0.11118255E+03</pdfrwt>
<pdfrwt beam="1">  1       -1 0.18775937E-01 0.83942143E+02</pdfrwt>
<totfact> 0.81182068E+02</totfact>
</mgrwt>
</event>
<event>
13    1  0.1942437E-008  0.5208735E+02  0.7546771E-02  0.1649745E+00
          2   -1    0    0  503    0  0.00000000000E+00  0.00000000000E+00  0.20129379212E+04  0.20129379212E+04  0.00000000000E+00 0. -1.
          2   -1    0    0  502    0 -0.00000000000E+00 -0.00000000000E+00 -0.10186983078E+04  0.10186983078E+04  0.00000000000E+00 0. -1.
         24    2    1    2    0    0  0.72620745675E+02  0.11299621202E+03 -0.36952897795E+03  0.40201096844E+03  0.83780884244E+02 0.  0.
         24    2    1    2    0    0  0.57001967358E+02 -0.83456403805E+02 -0.23593616767E+02  0.13059740604E+03  0.79276907698E+02 0.  0.
         25    2    1    2    0    0 -0.69180287360E+02 -0.90816319650E+01  0.12139666032E+04  0.12223790244E+04  0.12500870887E+03 0.  0.
        -11    1    3    3    0    0  0.39860905901E+02  0.79023309262E+02 -0.32602092264E+03  0.33782128000E+03  0.00000000000E+00 0.  1.
         12    1    3    3    0    0  0.32759839775E+02  0.33972902761E+02 -0.43508055313E+02  0.64189688434E+02  0.00000000000E+00 0. -1.
        -11    1    4    4    0    0  0.52323642749E+02 -0.95913123555E+02 -0.33195388061E+02  0.11418854868E+03  0.00000000000E+00 0.  1.
         12    1    4    4    0    0  0.46783246092E+01  0.12456719749E+02  0.96017712936E+01  0.16408857365E+02  0.00000000000E+00 0. -1.
          5    1    5    5  501    0 -0.38318851803E+02  0.55815185247E+02  0.45972546985E+03  0.46470772205E+03  0.47000000000E+01 0. -1.
         -5    1    5    5    0  501 -0.30861435557E+02 -0.64896817212E+02  0.75424113339E+03  0.75767130234E+03  0.47000000000E+01 0. -1.
          1    1    1    2  502    0 -0.50602683445E+02 -0.12301202619E+02 -0.55034099296E+03  0.55279938467E+03  0.00000000000E+00 0. -1.
          1    1    1    2  503    0 -0.98397422277E+01 -0.81569736337E+01  0.72373659780E+03  0.72384944549E+03  0.00000000000E+00 0. -1.
<mgrwt>
<rscale>  0 0.25801824E+02</rscale>
<asrwt>0</asrwt>
<pdfrwt beam="1">  1        2 0.29602028E+00 0.12781109E+02</pdfrwt>
<pdfrwt beam="2">  1        2 0.14980857E+00 0.52087351E+02</pdfrwt>
<totfact> 0.53236698E+01</totfact>
</mgrwt>
</event>
<event>
13    1  0.1942437E-008  0.1502953E+03  0.7546771E-02  0.1206874E+00
          2   -1    0    0  503    0  0.00000000000E+00  0.00000000000E+00  0.40012734493E+04  0.40012734493E+04  0.00000000000E+00 0. -1.
          2   -1    0    0  502    0 -0.00000000000E+00 -0.00000000000E+00 -0.30889228510E+04  0.30889228510E+04  0.00000000000E+00 0. -1.
         24    2    1    2    0    0 -0.88280157133E+02 -0.12336350079E+03 -0.83455763719E+02  0.18968577081E+03  0.77484757723E+02 0.  0.
         24    2    1    2    0    0  0.19345558997E+03  0.34274181118E+03  0.21704047151E+03  0.45576507526E+03  0.75618933660E+02 0.  0.
         25    2    1    2    0    0  0.15223698640E+03 -0.12328794706E+03  0.31079051362E+03  0.38806180186E+03  0.12500080315E+03 0.  0.
        -13    1    4    4    0    0  0.72027702469E+02  0.94003643486E+02  0.10094066167E+03  0.15560749368E+03  0.00000000000E+00 0.  1.
         14    1    4    4    0    0  0.12142788750E+03  0.24873816770E+03  0.11609980984E+03  0.30015758158E+03  0.00000000000E+00 0. -1.
        -13    1    3    3    0    0 -0.31207581365E+02 -0.10172803937E+03 -0.35864628120E+02  0.11228881814E+03  0.00000000000E+00 0.  1.
         14    1    3    3    0    0 -0.57072575768E+02 -0.21635461425E+02 -0.47591135599E+02  0.77396952676E+02  0.00000000000E+00 0. -1.
          5    1    5    5  501    0  0.48621765527E+02 -0.11122724140E+03  0.21186369331E+03  0.24422098570E+03  0.47000000000E+01 0.  1.
         -5    1    5    5    0  501  0.10361522088E+03 -0.12060705663E+02  0.98926820313E+02  0.14384081617E+03  0.47000000000E+01 0.  1.
          1    1    1    2  502    0 -0.14983068119E+03 -0.69505199217E+01 -0.27908435236E+04  0.27948712163E+04  0.00000000000E+00 0. -1.
          1    1    1    2  503    0 -0.10758173805E+03 -0.89139843409E+02  0.32588189004E+04  0.32618124360E+04  0.00000000000E+00 0. -1.
<mgrwt>
<rscale>  0 0.14490761E+03</rscale>
<asrwt>0</asrwt>
<pdfrwt beam="1">  1        2 0.58842256E+00 0.13971307E+03</pdfrwt>
<pdfrwt beam="2">  1        2 0.45425336E+00 0.15029529E+03</pdfrwt>
<totfact> 0.26118740E-01</totfact>
</mgrwt>
</event>
<event>
13    1  0.1942437E-008  0.1455760E+03  0.7546771E-02  0.1366111E+00
          2   -1    0    0  503    0  0.00000000000E+00  0.00000000000E+00  0.84512482828E+03  0.84512482828E+03  0.00000000000E+00 0. -1.
          2   -1    0    0  502    0 -0.00000000000E+00 -0.00000000000E+00 -0.15887508766E+04  0.15887508766E+04  0.00000000000E+00 0. -1.
         24    2    1    2    0    0 -0.11776450313E+03  0.82691351346E+02 -0.52758622150E+03  0.55282491697E+03  0.81005122793E+02 0.  0.
         24    2    1    2    0    0  0.14717841602E+03 -0.10525415265E+03 -0.44413546369E+02  0.20440367865E+03  0.84073645997E+02 0.  0.
         25    2    1    2    0    0  0.12428328494E+03  0.53327990502E+02  0.43165244030E+03  0.46929597891E+03  0.12499870843E+03 0.  0.
        -11    1    3    3    0    0  0.12400261132E+02  0.87455923354E+01 -0.40326595893E+02  0.43086960879E+02  0.00000000000E+00 0.  1.
         12    1    3    3    0    0 -0.13016476426E+03  0.73945759010E+02 -0.48725962560E+03  0.50973795609E+03  0.00000000000E+00 0. -1.
        -13    1    4    4    0    0  0.86190583550E+02 -0.10152005617E+03 -0.83099546132E+01  0.13343235681E+03  0.00000000000E+00 0.  1.
         14    1    4    4    0    0  0.60987832467E+02 -0.37340964782E+01 -0.36103591756E+02  0.70971321836E+02  0.00000000000E+00 0. -1.
          5    1    5    5  501    0  0.13469621214E+03  0.19174206968E+02  0.39546910955E+03  0.41824469678E+03  0.47000000000E+01 0.  1.
         -5    1    5    5    0  501 -0.10412927191E+02  0.34153783534E+02  0.36183330755E+02  0.51051282128E+02  0.47000000000E+01 0.  1.
          1    1    1    2  502    0 -0.14548843157E+03  0.17139217162E+00 -0.89859944949E+03  0.91030098524E+03  0.00000000000E+00 0. -1.
          1    1    1    2  503    0 -0.82087662588E+01 -0.30936581369E+02  0.29532072873E+03  0.29705014514E+03  0.00000000000E+00 0. -1.
<mgrwt>
<rscale>  0 0.68260305E+02</rscale>
<asrwt>0</asrwt>
<pdfrwt beam="1">  1        2 0.12428306E+00 0.32007123E+02</pdfrwt>
<pdfrwt beam="2">  1        2 0.23363983E+00 0.14557601E+03</pdfrwt>
<totfact> 0.83228066E+01</totfact>
</mgrwt>
</event>
<event>
13    1  0.1942437E-008  0.1028124E+03  0.7546771E-02  0.1375467E+00
          2   -1    0    0  503    0  0.00000000000E+00  0.00000000000E+00  0.40259302277E+04  0.40259302277E+04  0.00000000000E+00 0. -1.
          2   -1    0    0  502    0 -0.00000000000E+00 -0.00000000000E+00 -0.18209570179E+04  0.18209570179E+04  0.00000000000E+00 0. -1.
         24    2    1    2    0    0 -0.45965214280E+02  0.75960780942E+02 -0.76182273010E+02  0.14172692369E+03  0.79999631331E+02 0.  0.
         24    2    1    2    0    0 -0.10114458350E+03 -0.54519588396E+02 -0.17332788839E+03  0.22343902820E+03  0.81730227821E+02 0.  0.
         25    2    1    2    0    0  0.18947732082E+03  0.13095844045E+03  0.22542633700E+04  0.22694444212E+04  0.12499148487E+03 0.  0.
        -11    1    4    4    0    0 -0.13115028570E+02 -0.51229877457E+02 -0.67338057693E+02  0.85620782130E+02  0.00000000000E+00 0.  1.
         12    1    4    4    0    0 -0.88029554929E+02 -0.32897109399E+01 -0.10598983070E+03  0.13781824607E+03  0.00000000000E+00 0. -1.
        -11    1    3    3    0    0 -0.12865767423E+02 -0.16328154231E+02 -0.19356548733E+02  0.28404446321E+02  0.00000000000E+00 0.  1.
         12    1    3    3    0    0 -0.33099446857E+02  0.92288935174E+02 -0.56825724277E+02  0.11332247737E+03  0.00000000000E+00 0. -1.
          5    1    5    5  501    0  0.64064283870E+02 -0.11014788942E+02  0.37191839946E+03  0.37758567757E+03  0.47000000000E+01 0. -1.
         -5    1    5    5    0  501  0.12541303695E+03  0.14197322939E+03  0.18823449706E+04  0.18918587437E+04  0.47000000000E+01 0. -1.
          1    1    1    2  502    0 -0.12082053390E+01 -0.14431149492E+03 -0.15023121991E+04  0.15092280182E+04  0.00000000000E+00 0. -1.
          1    1    1    2  503    0 -0.41159317698E+02 -0.80881380823E+01  0.17025322002E+04  0.17030488543E+04  0.00000000000E+00 0. -1.
<mgrwt>
<rscale>  0 0.65670542E+02</rscale>
<asrwt>0</asrwt>
<pdfrwt beam="1">  1        2 0.59204856E+00 0.41946483E+02</pdfrwt>
<pdfrwt beam="2">  1        2 0.26778780E+00 0.10281244E+03</pdfrwt>
<totfact> 0.14926342E+00</totfact>
</mgrwt>
</event>
<event>
13    1  0.2244297E-008  0.1561794E+03  0.7546771E-02  0.1304861E+00
          2   -1    0    0  503    0  0.00000000000E+00  0.00000000000E+00  0.28048830547E+04  0.28048830547E+04  0.00000000000E+00 0. -1.
          2   -1    0    0  502    0 -0.00000000000E+00 -0.00000000000E+00 -0.32323808588E+04  0.32323808588E+04  0.00000000000E+00 0. -1.
         24    2    1    2    0    0  0.84436743113E+03 -0.32142925437E+02 -0.10718942864E+04  0.13672777346E+04  0.80631977461E+02 0.  0.
         24    2    1    2    0    0 -0.84061829037E+02  0.59249850905E+03 -0.30205384306E+03  0.67750015673E+03  0.98229648941E+02 0.  0.
         25    2    1    2    0    0 -0.67735340528E+03 -0.43776641171E+03 -0.37111112120E+02  0.81697655313E+03  0.12500554728E+03 0.  0.
        -11    1    4    4    0    0 -0.21626428718E+01  0.18044018979E+03 -0.13510478590E+03  0.22542546948E+03  0.00000000000E+00 0.  1.
         12    1    4    4    0    0 -0.81899186165E+02  0.41205831926E+03 -0.16694905716E+03  0.45207468725E+03  0.00000000000E+00 0. -1.
        -11    1    3    3    0    0  0.40827666932E+03 -0.10134242911E+02 -0.45387454940E+03  0.61056911827E+03  0.00000000000E+00 0.  1.
         12    1    3    3    0    0  0.43609076180E+03 -0.22008682527E+02 -0.61801973700E+03  0.75670861628E+03  0.00000000000E+00 0. -1.
          5    1    5    5  501    0 -0.19421192989E+03 -0.90615055626E+02  0.36654301981E+02  0.21747411311E+03  0.47000000000E+01 0. -1.
         -5    1    5    5    0  501 -0.48314147539E+03 -0.34715135608E+03 -0.73765414101E+02  0.59950244002E+03  0.47000000000E+01 0. -1.
          1    1    1    2  502    0 -0.42363747355E+02  0.28246984024E+02 -0.10924469813E+04  0.10936329303E+04  0.00000000000E+00 0. -1.
          1    1    1    2  503    0 -0.40588449456E+02 -0.15083615593E+03  0.20760084187E+04  0.20818765388E+04  0.00000000000E+00 0. -1.
<mgrwt>
<rscale>  0 0.89175360E+02</rscale>
<asrwt>0</asrwt>
<pdfrwt beam="1">  1        2 0.41248281E+00 0.15617939E+03</pdfrwt>
<pdfrwt beam="2">  1        2 0.47535012E+00 0.50917376E+02</pdfrwt>
<totfact> 0.13028395E+00</totfact>
</mgrwt>
</event>
<event>
13    1  0.1942437E-008  0.1545299E+03  0.7546771E-02  0.1238901E+00
          2   -1    0    0  502    0  0.00000000000E+00  0.00000000000E+00  0.15872642749E+04  0.15872642749E+04  0.00000000000E+00 0. -1.
          2   -1    0    0  503    0 -0.00000000000E+00 -0.00000000000E+00 -0.77437851482E+03  0.77437851482E+03  0.00000000000E+00 0. -1.
         24    2    1    2    0    0 -0.85156027323E+02  0.11963577271E+02 -0.53427317619E+02  0.12745839298E+03  0.77436990531E+02 0.  0.
         24    2    1    2    0    0  0.11031343530E+03  0.17757221973E+03 -0.10020511148E+03  0.24541701740E+03  0.80545023663E+02 0.  0.
         25    2    1    2    0    0  0.20722074992E+03 -0.17662091251E+03  0.62596748709E+03  0.69397156337E+03  0.12500339973E+03 0.  0.
        -11    1    4    4    0    0  0.26782606962E+02  0.37253734380E+00 -0.21302324212E+02  0.34223322992E+02  0.00000000000E+00 0.  1.
         12    1    4    4    0    0  0.83530828336E+02  0.17719968238E+03 -0.78902787265E+02  0.21119369441E+03  0.00000000000E+00 0. -1.
        -13    1    3    3    0    0 -0.10007243144E+03  0.94872579028E+01 -0.44831009360E+02  0.11006506710E+03  0.00000000000E+00 0.  1.
         14    1    3    3    0    0  0.14916404115E+02  0.24763193684E+01 -0.85963082583E+01  0.17393325876E+02  0.00000000000E+00 0. -1.
          5    1    5    5  501    0  0.89699351370E+02 -0.66188839376E+02  0.12445097026E+03  0.16714386047E+03  0.47000000000E+01 0. -1.
         -5    1    5    5    0  501  0.11752139855E+03 -0.11043207314E+03  0.50151651682E+03  0.52682770290E+03  0.47000000000E+01 0. -1.
          1    1    1    2  502    0 -0.97035416607E+02 -0.62412331121E+01  0.80506717754E+03  0.81091798933E+03  0.00000000000E+00 0. -1.
          1    1    1    2  503    0 -0.13534274129E+03 -0.66736513751E+01 -0.46451647540E+03  0.48387782669E+03  0.00000000000E+00 0. -1.
<mgrwt>
<rscale>  0 0.12258000E+03</rscale>
<asrwt>0</asrwt>
<pdfrwt beam="1">  1        2 0.23342122E+00 0.97235925E+02</pdfrwt>
<pdfrwt beam="2">  1        2 0.11387919E+00 0.15452989E+03</pdfrwt>
<totfact> 0.90338988E+01</totfact>
</mgrwt>
</event>
<event>
13    1  0.1942437E-008  0.1118328E+03  0.7546771E-02  0.1281999E+00
          2   -1    0    0  503    0  0.00000000000E+00  0.00000000000E+00  0.15903314787E+04  0.15903314787E+04  0.00000000000E+00 0. -1.
          2   -1    0    0  502    0 -0.00000000000E+00 -0.00000000000E+00 -0.11518750465E+04  0.11518750465E+04  0.00000000000E+00 0. -1.
         24    2    1    2    0    0  0.34704591778E+02 -0.16797508379E+02 -0.40056040650E+03  0.40931720526E+03  0.74869020850E+02 0.  0.
         24    2    1    2    0    0 -0.58353160443E+02  0.48528422021E+02  0.30872376779E+01  0.11079303399E+03  0.80656470708E+02 0.  0.
         25    2    1    2    0    0  0.31406478267E+01  0.14224185052E+03  0.14043102689E+03  0.23576893180E+03  0.12499403258E+03 0.  0.
        -11    1    3    3    0    0 -0.23904260583E+02 -0.44401359375E+01 -0.11407303128E+03  0.11663526459E+03  0.00000000000E+00 0.  1.
         12    1    3    3    0    0  0.58608852361E+02 -0.12357372442E+02 -0.28648737523E+03  0.29268194067E+03  0.00000000000E+00 0. -1.
        -13    1    4    4    0    0 -0.68944129720E+02  0.52561909499E+02  0.21363139151E+02  0.89288471077E+02  0.00000000000E+00 0.  1.
         14    1    4    4    0    0  0.10590969277E+02 -0.40334874776E+01 -0.18275901473E+02  0.21504562914E+02  0.00000000000E+00 0. -1.
          5    1    5    5  501    0  0.62131340387E+02  0.68824069996E+02  0.87781547573E+02  0.12776833005E+03  0.47000000000E+01 0.  1.
         -5    1    5    5    0  501 -0.58990692561E+02  0.73417780519E+02  0.52649479318E+02  0.10800060175E+03  0.47000000000E+01 0.  1.
          1    1    1    2  502    0 -0.34683316268E+02 -0.77335358464E+02 -0.64030793602E+03  0.64589313591E+03  0.00000000000E+00 0. -1.
          1    1    1    2  503    0  0.55191237106E+02 -0.96637405693E+02  0.13358065101E+04  0.13404342182E+04  0.00000000000E+00 0. -1.
<mgrwt>
<rscale>  0 0.99194276E+02</rscale>
<asrwt>0</asrwt>
<pdfrwt beam="1">  1        2 0.23387228E+00 0.11183279E+03</pdfrwt>
<pdfrwt beam="2">  1        2 0.16939339E+00 0.87984072E+02</pdfrwt>
<totfact> 0.54333848E+01</totfact>
</mgrwt>
</event>
<event>
13    1  0.1942437E-008  0.7695240E+02  0.7546771E-02  0.1339934E+00
          2   -1    0    0  503    0  0.00000000000E+00  0.00000000000E+00  0.73834205703E+03  0.73834205703E+03  0.00000000000E+00 0. -1.
          2   -1    0    0  502    0 -0.00000000000E+00 -0.00000000000E+00 -0.20240852351E+04  0.20240852351E+04  0.00000000000E+00 0. -1.
         24    2    1    2    0    0  0.41604677640E+02  0.19954679307E+01 -0.11005145461E+04  0.11042322293E+04  0.80384196742E+02 0.  0.
         24    2    1    2    0    0 -0.20941441593E+02  0.88255417479E+01 -0.65061574152E+02  0.12356860793E+03  0.10256587284E+03 0.  0.
         25    2    1    2    0    0  0.12353198360E+02  0.13006477192E+03  0.47939814226E+02  0.18706323309E+03  0.12499992393E+03 0.  0.
        -11    1    4    4    0    0  0.36402104183E+02  0.19268813487E+02 -0.79151070180E+01  0.41941021462E+02  0.00000000000E+00 0.  1.
         12    1    4    4    0    0 -0.57343545776E+02 -0.10443271739E+02 -0.57146467134E+02  0.81627586468E+02  0.00000000000E+00 0. -1.
        -11    1    3    3    0    0 -0.14065644481E+02  0.26114229939E+02 -0.32749068325E+03  0.32883117701E+03  0.00000000000E+00 0.  1.
         12    1    3    3    0    0  0.55670322121E+02 -0.24118762008E+02 -0.77302386283E+03  0.77540105233E+03  0.00000000000E+00 0. -1.
          5    1    5    5  501    0  0.15846796678E+02  0.12670114565E+03 -0.10526989324E+02  0.12820767831E+03  0.47000000000E+01 0.  1.
         -5    1    5    5    0  501 -0.34935983181E+01  0.33636262675E+01  0.58466803550E+02  0.58855554778E+02  0.47000000000E+01 0.  1.
          1    1    1    2  502    0  0.57383721169E+01 -0.75945332969E+02 -0.75348291105E+03  0.75732233544E+03  0.00000000000E+00 0. -1.
          1    1    1    2  503    0 -0.38754806524E+02 -0.64940448626E+02  0.58537603897E+03  0.59024088633E+03  0.00000000000E+00 0. -1.
<mgrwt>
<rscale>  0 0.76285999E+02</rscale>
<asrwt>0</asrwt>
<pdfrwt beam="1">  1        2 0.10857971E+00 0.75625372E+02</pdfrwt>
<pdfrwt beam="2">  1        2 0.29765959E+00 0.76952397E+02</pdfrwt>
<totfact> 0.61695403E+01</totfact>
</mgrwt>
</event>
<event>
13    1  0.1942437E-008  0.1011408E+03  0.7546771E-02  0.1425377E+00
         -3   -1    0    0    0  501 -0.00000000000E+00  0.00000000000E+00  0.40120427602E+03  0.40120427602E+03  0.00000000000E+00 0.  1.
          2   -1    0    0  503    0  0.00000000000E+00 -0.00000000000E+00 -0.15268629770E+04  0.15268629770E+04  0.00000000000E+00 0. -1.
         24    2    1    2    0    0 -0.41588992430E+02 -0.12303962418E+02  0.11619194852E+02  0.92216990312E+02  0.80547723932E+02 0.  0.
         24    2    1    2    0    0  0.10144431940E+01 -0.63920795687E+02 -0.80246459051E+02  0.13059090535E+03  0.80793521726E+02 0.  0.
         25    2    1    2    0    0 -0.38913401173E+01  0.16349803294E+03 -0.44342198207E+03  0.48887123569E+03  0.12500112639E+03 0.  0.
        -11    1    3    3    0    0 -0.32606018783E+02 -0.43195980025E+02  0.21986553540E+02  0.58416210830E+02  0.00000000000E+00 0.  1.
         12    1    3    3    0    0 -0.89829736466E+01  0.30892017607E+02 -0.10367358687E+02  0.33800779481E+02  0.00000000000E+00 0. -1.
        -13    1    4    4    0    0  0.32918223457E+02 -0.13795181642E+02 -0.56020556344E+02  0.66424537674E+02  0.00000000000E+00 0.  1.
         14    1    4    4    0    0 -0.31903780263E+02 -0.50125614044E+02 -0.24225902707E+02  0.64166367673E+02  0.00000000000E+00 0. -1.
          5    1    5    5  502    0  0.37814434537E+02  0.12270814088E+01 -0.88498597252E+02  0.96361449261E+02  0.47000000000E+01 0.  1.
         -5    1    5    5    0  502 -0.41705774655E+02  0.16227095154E+03 -0.35492338482E+03  0.39250978643E+03  0.47000000000E+01 0.  1.
          1    1    1    2  503    0  0.27364766743E+02  0.87302469579E+01 -0.90687770648E+03  0.90733247610E+03  0.00000000000E+00 0. -1.
         -4    1    1    2    0  501  0.17101122609E+02 -0.96003521797E+02  0.29326825175E+03  0.30905564560E+03  0.00000000000E+00 0.  1.
<mgrwt>
<rscale>  0 0.53899286E+02</rscale>
<asrwt>0</asrwt>
<pdfrwt beam="2">  1        2 0.22453868E+00 0.28723643E+02</pdfrwt>
<pdfrwt beam="1">  1       -3 0.59000628E-01 0.10114083E+03</pdfrwt>
<totfact> 0.29612550E+01</totfact>
</mgrwt>
</event>
<event>
13    1  0.1942437E-008  0.8052338E+02  0.7546771E-02  0.1339737E+00
          2   -1    0    0  502    0  0.00000000000E+00  0.00000000000E+00  0.69917367903E+03  0.69917367903E+03  0.00000000000E+00 0. -1.
          2   -1    0    0  503    0 -0.00000000000E+00 -0.00000000000E+00 -0.14006538438E+04  0.14006538438E+04  0.00000000000E+00 0. -1.
         24    2    1    2    0    0 -0.29262751557E+02  0.12820472075E+02 -0.17015853243E+03  0.19044119227E+03  0.79329996989E+02 0.  0.
         24    2    1    2    0    0  0.97943929629E+02  0.42051537912E+02 -0.18631774869E+03  0.22870734982E+03  0.78939237351E+02 0.  0.
         25    2    1    2    0    0 -0.11743549481E+03 -0.14840631009E+03 -0.87375670861E+02  0.24305701437E+03  0.12500670406E+03 0.  0.
        -11    1    4    4    0    0  0.58143516727E+02 -0.13305981882E+02 -0.11783862200E+03  0.13207444312E+03  0.00000000000E+00 0.  1.
         12    1    4    4    0    0  0.39800412903E+02  0.55357519794E+02 -0.68479126690E+02  0.96632906699E+02  0.00000000000E+00 0. -1.
        -11    1    3    3    0    0  0.18950516845E+02  0.28669225587E+02 -0.59785617719E+02  0.68959166689E+02  0.00000000000E+00 0.  1.
         12    1    3    3    0    0 -0.48213268402E+02 -0.15848753512E+02 -0.11037291471E+03  0.12148202558E+03  0.00000000000E+00 0. -1.
          5    1    5    5  501    0  0.18818931811E+02 -0.62575450831E+02 -0.20750569732E+02  0.68720560136E+02  0.47000000000E+01 0. -1.
         -5    1    5    5    0  501 -0.13625442662E+03 -0.85830859255E+02 -0.66625101129E+02  0.17433645423E+03  0.47000000000E+01 0. -1.
          1    1    1    2  502    0 -0.27342173961E+02  0.67033576301E+02  0.58584871791E+03  0.59030484930E+03  0.00000000000E+00 0. -1.
          1    1    1    2  503    0  0.76096490696E+02  0.26500723798E+02 -0.84347693070E+03  0.84731711707E+03  0.00000000000E+00 0. -1.
<mgrwt>
<rscale>  0 0.76351311E+02</rscale>
<asrwt>0</asrwt>
<pdfrwt beam="1">  1        2 0.10281966E+00 0.72395406E+02</pdfrwt>
<pdfrwt beam="2">  1        2 0.20597851E+00 0.80523379E+02</pdfrwt>
<totfact> 0.13074546E+02</totfact>
</mgrwt>
</event>
<event>
13    1  0.1942437E-008  0.1217492E+03  0.7546771E-02  0.1476097E+00
          2   -1    0    0  502    0  0.00000000000E+00  0.00000000000E+00  0.20168382416E+04  0.20168382416E+04  0.00000000000E+00 0. -1.
          2   -1    0    0  503    0 -0.00000000000E+00 -0.00000000000E+00 -0.44372711099E+03  0.44372711099E+03  0.00000000000E+00 0. -1.
         24    2    1    2    0    0  0.18470713695E+02  0.22335496605E+02 -0.11733665073E+03  0.14162021262E+03  0.73812961910E+02 0.  0.
         24    2    1    2    0    0 -0.31543083087E+02  0.82460907317E+02  0.21401678303E+03  0.24513889603E+03  0.80592354492E+02 0.  0.
         25    2    1    2    0    0 -0.86637614067E+01  0.53606871085E+01  0.44495406009E+03  0.46228897710E+03  0.12499273991E+03 0.  0.
        -11    1    3    3    0    0 -0.28069340326E+02  0.11570409182E+02 -0.34155865130E+02  0.45698855103E+02  0.00000000000E+00 0.  1.
         12    1    3    3    0    0  0.46540054021E+02  0.10765087423E+02 -0.83180785599E+02  0.95921357519E+02  0.00000000000E+00 0. -1.
        -13    1    4    4    0    0 -0.16783476853E+02  0.25621221822E+02  0.16734958491E+03  0.17012940861E+03  0.00000000000E+00 0.  1.
         14    1    4    4    0    0 -0.14759606234E+02  0.56839685495E+02  0.46667198118E+02  0.75009487424E+02  0.00000000000E+00 0. -1.
          5    1    5    5  501    0  0.36319656992E+02 -0.38919699811E+01  0.38432066814E+03  0.38608124906E+03  0.47000000000E+01 0. -1.
         -5    1    5    5    0  501 -0.44983418398E+02  0.92526570895E+01  0.60633391945E+02  0.76207728038E+02  0.47000000000E+01 0. -1.
          1    1    1    2  502    0  0.34924273732E+02 -0.11994973924E+03  0.13183089502E+04  0.13242152896E+04  0.00000000000E+00 0. -1.
          1    1    1    2  503    0 -0.13188142933E+02  0.97926482122E+01 -0.28683201198E+03  0.28730197731E+03  0.00000000000E+00 0. -1.
<mgrwt>
<rscale>  0 0.44720099E+02</rscale>
<asrwt>0</asrwt>
<pdfrwt beam="1">  1        2 0.29659385E+00 0.12174916E+03</pdfrwt>
<pdfrwt beam="2">  1        2 0.65253988E-01 0.16426292E+02</pdfrwt>
<totfact> 0.10363142E+02</totfact>
</mgrwt>
</event>
<event>
13    1  0.1942437E-008  0.1593113E+03  0.7546771E-02  0.1248530E+00
         -1   -1    0    0    0  501 -0.00000000000E+00  0.00000000000E+00  0.10786024323E+04  0.10786024323E+04  0.00000000000E+00 0.  1.
          2   -1    0    0  503    0  0.00000000000E+00 -0.00000000000E+00 -0.12192205257E+04  0.12192205257E+04  0.00000000000E+00 0. -1.
         24    2    1    2    0    0  0.69253422676E+02 -0.64603257526E+02  0.11286719255E+03  0.16987671632E+03  0.84554586858E+02 0.  0.
         24    2    1    2    0    0 -0.23895042686E+01  0.32200034416E+03 -0.10867589163E+03  0.34927684021E+03  0.80584926081E+02 0.  0.
         25    2    1    2    0    0  0.21360854386E+02 -0.53535346573E+02 -0.17570842189E+03  0.22319341454E+03  0.12497812343E+03 0.  0.
        -11    1    4    4    0    0 -0.12913925765E+02  0.91684421166E+01 -0.16742240272E+02  0.23046310308E+02  0.00000000000E+00 0.  1.
         12    1    4    4    0    0  0.10524421496E+02  0.31283190205E+03 -0.91933651355E+02  0.32623052990E+03  0.00000000000E+00 0. -1.
        -13    1    3    3    0    0  0.28956892522E+02  0.16932795573E+02  0.16551958220E+02  0.37405728322E+02  0.00000000000E+00 0.  1.
         14    1    3    3    0    0  0.40296530154E+02 -0.81536053099E+02  0.96315234327E+02  0.13247098800E+03  0.00000000000E+00 0. -1.
          5    1    5    5  502    0 -0.30490407732E+02  0.11466462616E+02 -0.50492790246E+01  0.33297596719E+02  0.47000000000E+01 0.  1.
         -5    1    5    5    0  502  0.51851262118E+02 -0.65001809190E+02 -0.17065914287E+03  0.18989581782E+03  0.47000000000E+01 0.  1.
          1    1    1    2  503    0  0.30398744260E+01 -0.85528562305E+02 -0.75280365987E+03  0.75765277411E+03  0.00000000000E+00 0. -1.
         -2    1    1    2    0  501 -0.91264647219E+02 -0.11833317776E+03  0.78370268742E+03  0.79782321291E+03  0.00000000000E+00 0.  1.
<mgrwt>
<rscale>  0 0.11676587E+03</rscale>
<asrwt>0</asrwt>
<pdfrwt beam="2">  1        2 0.17929713E+00 0.85582567E+02</pdfrwt>
<pdfrwt beam="1">  1       -1 0.15861801E+00 0.15931129E+03</pdfrwt>
<totfact> 0.87699700E+00</totfact>
</mgrwt>
</event>
<event>
13    1  0.1942437E-008  0.2902130E+02  0.7546771E-02  0.1763606E+00
          2   -1    0    0  503    0  0.00000000000E+00  0.00000000000E+00  0.10638018008E+04  0.10638018008E+04  0.00000000000E+00 0. -1.
         -1   -1    0    0    0  501 -0.00000000000E+00 -0.00000000000E+00 -0.86245723475E+03  0.86245723475E+03  0.00000000000E+00 0.  1.
         24    2    1    2    0    0  0.31892855794E+02  0.27893014784E+03 -0.93588453612E+02  0.30727243038E+03  0.82694414560E+02 0.  0.
         24    2    1    2    0    0 -0.94203123298E+02 -0.15475781495E+03  0.24405358212E+03  0.31349912841E+03  0.76781135968E+02 0.  0.
         25    2    1    2    0    0  0.86751056422E+02 -0.12486707800E+03  0.57899888089E+03  0.61154170498E+03  0.12500407952E+03 0.  0.
        -11    1    4    4    0    0 -0.37586039151E+02 -0.74078776941E+01  0.57927011925E+02  0.69448727141E+02  0.00000000000E+00 0.  1.
         12    1    4    4    0    0 -0.56617084147E+02 -0.14734993725E+03  0.18612657020E+03  0.24405040127E+03  0.00000000000E+00 0. -1.
        -13    1    3    3    0    0 -0.27118374438E+02  0.98570541980E+02 -0.42761149119E+02  0.11081549464E+03  0.00000000000E+00 0.  1.
         14    1    3    3    0    0  0.59011230232E+02  0.18035960586E+03 -0.50827304493E+02  0.19645693574E+03  0.00000000000E+00 0. -1.
          5    1    5    5  502    0 -0.15988355832E+01 -0.94838943924E+02  0.38020445389E+03  0.39188582306E+03  0.47000000000E+01 0. -1.
         -5    1    5    5    0  502  0.88349892006E+02 -0.30028134079E+02  0.19879442700E+03  0.21965588191E+03  0.47000000000E+01 0. -1.
          1    1    1    2  503    0  0.14071401712E+01 -0.12506095493E+02  0.82088690007E+02  0.83047790428E+02  0.00000000000E+00 0. -1.
         -2    1    1    2    0  501 -0.25847929089E+02  0.13200840604E+02 -0.61020813334E+03  0.61089798136E+03  0.00000000000E+00 0.  1.
<mgrwt>
<rscale>  0 0.19111080E+02</rscale>
<asrwt>0</asrwt>
<pdfrwt beam="1">  1        2 0.15644144E+00 0.12585010E+02</pdfrwt>
<pdfrwt beam="2">  1       -1 0.12683195E+00 0.29021303E+02</pdfrwt>
<totfact> 0.22936560E+01</totfact>
</mgrwt>
</event>
<event>
13    1  0.1942437E-008  0.8888520E+02  0.7546771E-02  0.1330551E+00
         -3   -1    0    0    0  501 -0.00000000000E+00  0.00000000000E+00  0.77246009637E+03  0.77246009637E+03  0.00000000000E+00 0.  1.
          2   -1    0    0  503    0  0.00000000000E+00 -0.00000000000E+00 -0.20500374776E+04  0.20500374776E+04  0.00000000000E+00 0. -1.
         24    2    1    2    0    0 -0.27586569514E+02 -0.73908853363E+01  0.66713442526E+02  0.94948945358E+02  0.61228872335E+02 0.  0.
         24    2    1    2    0    0 -0.59454698103E+02 -0.25397015010E+03 -0.44381562277E+03  0.52129042344E+03  0.82071312215E+02 0.  0.
         25    2    1    2    0    0  0.56186615434E+02  0.12452499234E+03 -0.49925545115E+03  0.53249516301E+03  0.12502673176E+03 0.  0.
        -11    1    4    4    0    0 -0.67400663891E+02 -0.13194427730E+03 -0.28098828444E+03  0.31765792576E+03  0.00000000000E+00 0.  1.
         12    1    4    4    0    0  0.79459657878E+01 -0.12202587280E+03 -0.16282733833E+03  0.20363249768E+03  0.00000000000E+00 0. -1.
        -11    1    3    3    0    0 -0.20565823491E+02  0.18357587731E+00  0.77400900552E+02  0.80086741738E+02  0.00000000000E+00 0.  1.
         12    1    3    3    0    0 -0.70207460232E+01 -0.75744612136E+01 -0.10687458026E+02  0.14862203621E+02  0.00000000000E+00 0. -1.
          5    1    5    5  502    0  0.68116867265E+02  0.13161238087E+03 -0.32043623582E+03  0.35307675884E+03  0.47000000000E+01 0.  1.
         -5    1    5    5    0  502 -0.11930251831E+02 -0.70873885262E+01 -0.17881921533E+03  0.17941840418E+03  0.47000000000E+01 0.  1.
          1    1    1    2  503    0  0.64867804864E+02  0.29131615669E+02 -0.10312449080E+04  0.10336936410E+04  0.00000000000E+00 0. -1.
         -4    1    1    2    0  501 -0.34013152681E+02  0.10770442743E+03  0.63002515822E+03  0.64006940111E+03  0.00000000000E+00 0.  1.
<mgrwt>
<rscale>  0 0.79473880E+02</rscale>
<asrwt>0</asrwt>
<pdfrwt beam="2">  1        2 0.30147610E+00 0.71059044E+02</pdfrwt>
<pdfrwt beam="1">  1       -3 0.11359707E+00 0.88885204E+02</pdfrwt>
<totfact> 0.37235294E+00</totfact>
</mgrwt>
</event>
<event>
13    1  0.1942437E-008  0.1604971E+03  0.7546771E-02  0.1231031E+00
          2   -1    0    0  503    0  0.00000000000E+00  0.00000000000E+00  0.39799466596E+04  0.39799466596E+04  0.00000000000E+00 0. -1.
         -1   -1    0    0    0  501 -0.00000000000E+00 -0.00000000000E+00 -0.96714684940E+03  0.96714684940E+03  0.00000000000E+00 0.  1.
         24    2    1    2    0    0 -0.43555257836E+02 -0.11663869675E+03 -0.32688863962E+02  0.15269055197E+03  0.82123058684E+02 0.  0.
         24    2    1    2    0    0  0.42559979580E+02  0.18635256342E+03 -0.14434798926E+02  0.20826255996E+03  0.81402092770E+02 0.  0.
         25    2    1    2    0    0 -0.26452207919E+02 -0.39462336681E+02  0.65543036661E+03  0.66893212610E+03  0.12499691406E+03 0.  0.
        -13    1    4    4    0    0  0.12623155772E+02  0.17420728003E+03 -0.18755985087E+02  0.17566817428E+03  0.00000000000E+00 0.  1.
         14    1    4    4    0    0  0.29936823807E+02  0.12145283386E+02  0.43211861608E+01  0.32594385682E+02  0.00000000000E+00 0. -1.
        -13    1    3    3    0    0  0.11329077812E+02 -0.21446874732E+02 -0.35239627247E+02  0.42780226371E+02  0.00000000000E+00 0.  1.
         14    1    3    3    0    0 -0.54884335649E+02 -0.95191822021E+02  0.25507632855E+01  0.10991032560E+03  0.00000000000E+00 0. -1.
          5    1    5    5  502    0 -0.29132386861E+02 -0.70343004999E+02  0.60327948532E+03  0.60808310429E+03  0.47000000000E+01 0. -1.
         -5    1    5    5    0  502  0.26801789418E+01  0.30880668318E+02  0.52150881292E+02  0.60849021804E+02  0.47000000000E+01 0. -1.
          1    1    1    2  503    0 -0.78632572666E+02 -0.13943564889E+03  0.31511385555E+04  0.31552019868E+04  0.00000000000E+00 0. -1.
         -2    1    1    2    0  501  0.10608005884E+03  0.10918411890E+03 -0.74664544898E+03  0.76200628421E+03  0.00000000000E+00 0.  1.
<mgrwt>
<rscale>  0 0.12761985E+03</rscale>
<asrwt>0</asrwt>
<pdfrwt beam="1">  1        2 0.58528627E+00 0.16049705E+03</pdfrwt>
<pdfrwt beam="2">  1       -1 0.14222748E+00 0.10147742E+03</pdfrwt>
<totfact> 0.36941107E-01</totfact>
</mgrwt>
</event>
<event>
13    1  0.1942437E-008  0.1203982E+03  0.7546771E-02  0.1307692E+00
          2   -1    0    0  503    0  0.00000000000E+00  0.00000000000E+00  0.57763739257E+04  0.57763739257E+04  0.00000000000E+00 0. -1.
          2   -1    0    0  502    0 -0.00000000000E+00 -0.00000000000E+00 -0.17879072027E+04  0.17879072027E+04  0.00000000000E+00 0. -1.
         24    2    1    2    0    0  0.24971909650E+03  0.20249219356E+03 -0.46615722533E+03  0.57235094880E+03  0.83188546413E+02 0.  0.
         24    2    1    2    0    0 -0.23912165218E+03  0.21688874442E+03  0.48575852105E+03  0.58850596708E+03  0.78473183475E+02 0.  0.
         25    2    1    2    0    0 -0.64520595685E+02 -0.33265591494E+03  0.25887532819E+04  0.26138267714E+04  0.12499588515E+03 0.  0.
        -11    1    4    4    0    0 -0.70159412632E+02  0.66390024297E+02  0.86864974168E+02  0.12990574369E+03  0.00000000000E+00 0.  1.
         12    1    4    4    0    0 -0.16896223954E+03  0.15049872012E+03  0.39889354688E+03  0.45860022339E+03  0.00000000000E+00 0. -1.
        -13    1    3    3    0    0  0.22880297888E+03  0.19759479275E+03 -0.45918028784E+03  0.54976453324E+03  0.00000000000E+00 0.  1.
         14    1    3    3    0    0  0.20916117627E+02  0.48974008127E+01 -0.69769374896E+01  0.22586415564E+02  0.00000000000E+00 0. -1.
          5    1    5    5  501    0 -0.47306051406E+02 -0.15771141400E+03  0.16916323106E+04  0.16996331125E+04  0.47000000000E+01 0.  1.
         -5    1    5    5    0  501 -0.17214544279E+02 -0.17494450095E+03  0.89712097131E+03  0.91419365898E+03  0.47000000000E+01 0.  1.
          1    1    1    2  502    0  0.10840626634E+03 -0.52455297601E+02 -0.12013308328E+04  0.12073521635E+04  0.00000000000E+00 0. -1.
          1    1    1    2  503    0 -0.54483114977E+02 -0.34269725444E+02  0.25814429782E+04  0.25822452776E+04  0.00000000000E+00 0. -1.
<mgrwt>
<rscale>  0 0.88030706E+02</rscale>
<asrwt>0</asrwt>
<pdfrwt beam="1">  1        2 0.84946675E+00 0.64364772E+02</pdfrwt>
<pdfrwt beam="2">  1        2 0.26292753E+00 0.12039824E+03</pdfrwt>
<totfact> 0.25398182E-02</totfact>
</mgrwt>
</event>
<event>
13    1  0.1942437E-008  0.7581761E+02  0.7546771E-02  0.1343477E+00
          2   -1    0    0  502    0  0.00000000000E+00  0.00000000000E+00  0.15439946079E+04  0.15439946079E+04  0.00000000000E+00 0. -1.
          2   -1    0    0  503    0 -0.00000000000E+00 -0.00000000000E+00 -0.10052336837E+04  0.10052336837E+04  0.00000000000E+00 0. -1.
         24    2    1    2    0    0  0.19024566821E+03 -0.34776394167E+02 -0.36745493518E+03  0.42293070539E+03  0.80277271430E+02 0.  0.
         24    2    1    2    0    0  0.37774536272E+02  0.58619440438E+02 -0.34665809888E+02  0.11555869394E+03  0.85375283204E+02 0.  0.
         25    2    1    2    0    0 -0.23541753978E+03 -0.26302087018E+02  0.39743099739E+03  0.47925800707E+03  0.12499448723E+03 0.  0.
        -11    1    3    3    0    0  0.96632052854E+02 -0.56333263270E+02 -0.17245460744E+03  0.20555238217E+03  0.00000000000E+00 0.  1.
         12    1    3    3    0    0  0.93613615357E+02  0.21556869103E+02 -0.19500032774E+03  0.21737832322E+03  0.00000000000E+00 0. -1.
        -13    1    4    4    0    0 -0.98247356284E+01  0.61088840738E+02 -0.25997210190E+02  0.67113536865E+02  0.00000000000E+00 0.  1.
         14    1    4    4    0    0  0.47599271901E+02 -0.24694003003E+01 -0.86685996979E+01  0.48445157075E+02  0.00000000000E+00 0. -1.
          5    1    5    5  501    0 -0.10269310775E+03 -0.73674300713E+02  0.20033618457E+03  0.23691866498E+03  0.47000000000E+01 0.  1.
         -5    1    5    5    0  501 -0.13272443203E+03  0.47372213695E+02  0.19709481281E+03  0.24233934209E+03  0.47000000000E+01 0.  1.
          1    1    1    2  502    0 -0.35930367306E+02  0.65198432484E+02  0.10331765740E+04  0.10358550381E+04  0.00000000000E+00 0. -1.
          1    1    1    2  503    0  0.43327702600E+02 -0.62739391736E+02 -0.48972590213E+03  0.49562584709E+03  0.00000000000E+00 0. -1.
<mgrwt>
<rscale>  0 0.75127385E+02</rscale>
<asrwt>0</asrwt>
<pdfrwt beam="1">  1        2 0.22705803E+00 0.74443448E+02</pdfrwt>
<pdfrwt beam="2">  1        2 0.14782848E+00 0.75817605E+02</pdfrwt>
<totfact> 0.71818868E+01</totfact>
</mgrwt>
</event>
<event>
13    1  0.1942437E-008  0.7611483E+02  0.7546771E-02  0.1588162E+00
          2   -1    0    0  503    0  0.00000000000E+00  0.00000000000E+00  0.14488893943E+04  0.14488893943E+04  0.00000000000E+00 0. -1.
          2   -1    0    0  502    0 -0.00000000000E+00 -0.00000000000E+00 -0.46061073896E+04  0.46061073896E+04  0.00000000000E+00 0. -1.
         24    2    1    2    0    0 -0.11876842872E+03 -0.76777820576E+03 -0.18455221936E+04  0.20035108127E+04  0.67187025722E+02 0.  0.
         24    2    1    2    0    0 -0.20322184021E+03  0.29174350487E+03 -0.33758510995E+03  0.49771149537E+03  0.85671682576E+02 0.  0.
         25    2    1    2    0    0  0.29842859672E+03  0.39461472492E+03  0.52476894721E+03  0.73197583360E+03  0.12500305816E+03 0.  0.
        -13    1    4    4    0    0 -0.18038758099E+03  0.24205409311E+03 -0.23923035426E+03  0.38517661633E+03  0.00000000000E+00 0.  1.
         14    1    4    4    0    0 -0.22834259222E+02  0.49689411758E+02 -0.98354755688E+02  0.11253487904E+03  0.00000000000E+00 0. -1.
        -13    1    3    3    0    0 -0.78459352124E+02 -0.51985967587E+03 -0.11658349554E+04  0.12788983915E+04  0.00000000000E+00 0.  1.
         14    1    3    3    0    0 -0.40309076601E+02 -0.24791852989E+03 -0.67968723822E+03  0.72461242117E+03  0.00000000000E+00 0. -1.
          5    1    5    5  501    0  0.81635101089E+02  0.16212871351E+03  0.12158970622E+03  0.21853181949E+03  0.47000000000E+01 0.  1.
         -5    1    5    5    0  501  0.21679349563E+03  0.23248601141E+03  0.40317924100E+03  0.51344401410E+03  0.47000000000E+01 0.  1.
          1    1    1    2  502    0  0.12748767894E+02  0.75032566485E+02 -0.21596091384E+04  0.21609498022E+04  0.00000000000E+00 0. -1.
          1    1    1    2  503    0  0.10812904324E+02  0.63874094891E+01  0.66072949944E+03  0.66084884000E+03  0.00000000000E+00 0. -1.
<mgrwt>
<rscale>  0 0.30917536E+02</rscale>
<asrwt>0</asrwt>
<pdfrwt beam="1">  1        2 0.21307197E+00 0.12558579E+02</pdfrwt>
<pdfrwt beam="2">  1        2 0.67736873E+00 0.76114828E+02</pdfrwt>
<totfact> 0.88185931E-01</totfact>
</mgrwt>
</event>
<event>
13    1  0.1942437E-008  0.4829892E+02  0.7546771E-02  0.1482049E+00
          2   -1    0    0  502    0  0.00000000000E+00  0.00000000000E+00  0.18564370002E+03  0.18564370002E+03  0.00000000000E+00 0. -1.
          2   -1    0    0  503    0 -0.00000000000E+00 -0.00000000000E+00 -0.39363828750E+04  0.39363828750E+04  0.00000000000E+00 0. -1.
         24    2    1    2    0    0  0.36246133618E+02 -0.81352927343E+02 -0.35332197174E+03  0.37352754976E+03  0.82184753579E+02 0.  0.
         24    2    1    2    0    0 -0.11360178948E+02  0.10958284547E+03 -0.43075027879E+03  0.45092521880E+03  0.75168454721E+02 0.  0.
         25    2    1    2    0    0 -0.34164797734E+02 -0.27631160257E+02 -0.10879872478E+03  0.17144098029E+03  0.12499653111E+03 0.  0.
        -11    1    3    3    0    0 -0.20657319908E+02 -0.11831448859E+02 -0.14077227926E+03  0.14277094472E+03  0.00000000000E+00 0.  1.
         12    1    3    3    0    0  0.56903453526E+02 -0.69521478483E+02 -0.21254969249E+03  0.23075660504E+03  0.00000000000E+00 0. -1.
        -11    1    4    4    0    0 -0.29844895367E+02  0.10968635746E+03 -0.38893375876E+03  0.40520523627E+03  0.00000000000E+00 0.  1.
         12    1    4    4    0    0  0.18484716418E+02 -0.10351198543E+00 -0.41816520027E+02  0.45719982535E+02  0.00000000000E+00 0. -1.
          5    1    5    5  501    0  0.12311590779E+02  0.12609046714E+02  0.20956759896E+02  0.27781992583E+02  0.47000000000E+01 0.  1.
         -5    1    5    5    0  501 -0.46476388513E+02 -0.40240206971E+02 -0.12975548468E+03  0.14365898771E+03  0.47000000000E+01 0.  1.
          1    1    1    2  502    0  0.47125514949E+02  0.11388002219E+02  0.12961518257E+03  0.13838567955E+03  0.00000000000E+00 0. -1.
          1    1    1    2  503    0 -0.37846671885E+02 -0.11986760094E+02 -0.29874833822E+04  0.29877471466E+04  0.00000000000E+00 0. -1.
<mgrwt>
<rscale>  0 0.43788634E+02</rscale>
<asrwt>0</asrwt>
<pdfrwt beam="1">  1        2 0.27300542E-01 0.48298916E+02</pdfrwt>
<pdfrwt beam="2">  1        2 0.57887988E+00 0.39699534E+02</pdfrwt>
<totfact> 0.28688015E+01</totfact>
</mgrwt>
</event>
<event>
13    1  0.1942437E-008  0.8171399E+02  0.7546771E-02  0.1364055E+00
         -1   -1    0    0    0  501 -0.00000000000E+00  0.00000000000E+00  0.24415836917E+04  0.24415836917E+04  0.00000000000E+00 0.  1.
          2   -1    0    0  503    0  0.00000000000E+00 -0.00000000000E+00 -0.19848345558E+04  0.19848345558E+04  0.00000000000E+00 0. -1.
         24    2    1    2    0    0  0.17820302742E+03  0.40220616564E+02  0.25392592123E+03  0.32276544287E+03  0.79530752920E+02 0.  0.
         24    2    1    2    0    0  0.35712672116E+02  0.62494984239E+02  0.10839245740E+03  0.15309615574E+03  0.80675213516E+02 0.  0.
         25    2    1    2    0    0 -0.83039038517E+02 -0.11455561380E+03 -0.32398892859E+03  0.37498333487E+03  0.12500082003E+03 0.  0.
        -11    1    3    3    0    0  0.44321443357E+02  0.46004197101E+02  0.10019596147E+03  0.11882763646E+03  0.00000000000E+00 0.  1.
         12    1    3    3    0    0  0.13388158406E+03 -0.57835805369E+01  0.15372995976E+03  0.20393780641E+03  0.00000000000E+00 0. -1.
        -11    1    4    4    0    0  0.43513538534E+02 -0.15446167627E+01  0.41104213189E+02  0.59877961042E+02  0.00000000000E+00 0.  1.
         12    1    4    4    0    0 -0.78008664175E+01  0.64039601002E+02  0.67288244216E+02  0.93218194699E+02  0.00000000000E+00 0. -1.
          5    1    5    5  502    0 -0.78855873057E+02 -0.85440840832E+02 -0.32497513863E+03  0.34518012214E+03  0.47000000000E+01 0.  1.
         -5    1    5    5    0  502 -0.41831654598E+01 -0.29114772973E+02  0.98621003667E+00  0.29803212726E+02  0.47000000000E+01 0.  1.
          1    1    1    2  503    0 -0.55034735845E+02 -0.18331560154E+02 -0.15772093710E+04  0.15782757263E+04  0.00000000000E+00 0. -1.
         -2    1    1    2    0  501 -0.75841925173E+02  0.30171573155E+02  0.19956290568E+04  0.19972975877E+04  0.00000000000E+00 0.  1.
<mgrwt>
<rscale>  0 0.68847825E+02</rscale>
<asrwt>0</asrwt>
<pdfrwt beam="2">  1        2 0.29188743E+00 0.58007484E+02</pdfrwt>
<pdfrwt beam="1">  1       -1 0.35905643E+00 0.81713990E+02</pdfrwt>
<totfact> 0.22138607E-01</totfact>
</mgrwt>
</event>
<event>
13    1  0.1942437E-008  0.7594212E+02  0.7546771E-02  0.1371160E+00
          2   -1    0    0  502    0  0.00000000000E+00  0.00000000000E+00  0.83661240072E+03  0.83661240072E+03  0.00000000000E+00 0. -1.
          2   -1    0    0  503    0 -0.00000000000E+00 -0.00000000000E+00 -0.26811978576E+04  0.26811978576E+04  0.00000000000E+00 0. -1.
         24    2    1    2    0    0  0.76114917074E+01  0.18010522858E+02 -0.61329771300E+03  0.61875147995E+03  0.79605247435E+02 0.  0.
         24    2    1    2    0    0 -0.32800026068E+02  0.19013674661E+02 -0.12343056187E+03  0.15273369363E+03  0.81578894530E+02 0.  0.
         25    2    1    2    0    0  0.14971467847E+03  0.10453087136E+02  0.53499409128E+03  0.56953039848E+03  0.12498978002E+03 0.  0.
        -11    1    3    3    0    0  0.29917945310E+02  0.40450440871E+02 -0.38289020531E+03  0.38618160358E+03  0.00000000000E+00 0.  1.
         12    1    3    3    0    0 -0.22306453603E+02 -0.22439918013E+02 -0.23040750769E+03  0.23256987637E+03  0.00000000000E+00 0. -1.
        -13    1    4    4    0    0 -0.24803572560E+02  0.33614446524E+02 -0.17151644289E+02  0.45158909738E+02  0.00000000000E+00 0.  1.
         14    1    4    4    0    0 -0.79964535071E+01 -0.14600771862E+02 -0.10627891758E+03  0.10757478390E+03  0.00000000000E+00 0. -1.
          5    1    5    5  501    0  0.10371638400E+03 -0.28579196329E+02  0.46360495614E+03  0.47594695516E+03  0.47000000000E+01 0. -1.
         -5    1    5    5    0  501  0.45998294470E+02  0.39032283466E+02  0.71389135140E+02  0.93583443315E+02  0.47000000000E+01 0. -1.
          1    1    1    2  502    0 -0.67077206713E+02 -0.34763056559E+02  0.26116316191E+03  0.27187132784E+03  0.00000000000E+00 0. -1.
          1    1    1    2  503    0 -0.57448937394E+02 -0.12714228097E+02 -0.19040144352E+04  0.19049233584E+04  0.00000000000E+00 0. -1.
<mgrwt>
<rscale>  0 0.66845799E+02</rscale>
<asrwt>0</asrwt>
<pdfrwt beam="1">  1        2 0.12303124E+00 0.75942116E+02</pdfrwt>
<pdfrwt beam="2">  1        2 0.39429380E+00 0.58839035E+02</pdfrwt>
<totfact> 0.26520974E+01</totfact>
</mgrwt>
</event>
<event>
13    1  0.1942437E-008  0.8449321E+02  0.7546771E-02  0.1452518E+00
          2   -1    0    0  503    0  0.00000000000E+00  0.00000000000E+00  0.24104520966E+04  0.24104520966E+04  0.00000000000E+00 0. -1.
          2   -1    0    0  502    0 -0.00000000000E+00 -0.00000000000E+00 -0.16504361605E+04  0.16504361605E+04  0.00000000000E+00 0. -1.
         24    2    1    2    0    0 -0.23057829052E+02 -0.17473621433E+03 -0.93059183876E+03  0.95050734778E+03  0.79991497852E+02 0.  0.
         24    2    1    2    0    0  0.66462989018E+02 -0.74841069415E+01 -0.28061721152E+01  0.10461211557E+03  0.80389547556E+02 0.  0.
         25    2    1    2    0    0  0.21739152283E+02  0.10611493978E+03  0.14457023890E+03  0.21968035916E+03  0.12500374009E+03 0.  0.
        -11    1    4    4    0    0  0.12004236987E+02 -0.37810017234E+02  0.10147690679E+02  0.40947218892E+02  0.00000000000E+00 0.  1.
         12    1    4    4    0    0  0.54458752030E+02  0.30325910292E+02 -0.12953862794E+02  0.63664896678E+02  0.00000000000E+00 0. -1.
        -13    1    3    3    0    0  0.37681599026E+00 -0.46960548336E+02 -0.45749859300E+03  0.45990259587E+03  0.00000000000E+00 0.  1.
         14    1    3    3    0    0 -0.23434645042E+02 -0.12777566600E+03 -0.47309324576E+03  0.49060475190E+03  0.00000000000E+00 0. -1.
          5    1    5    5  501    0  0.66707457479E+02  0.97418202190E+02  0.11546496526E+03  0.16521028782E+03  0.47000000000E+01 0. -1.
         -5    1    5    5    0  501 -0.44968305196E+02  0.86967375904E+01  0.29105273644E+02  0.54470071331E+02  0.47000000000E+01 0. -1.
          1    1    1    2  502    0 -0.69126788258E+02  0.48327228443E+02 -0.61565603950E+03  0.62140678531E+03  0.00000000000E+00 0. -1.
          1    1    1    2  503    0  0.39824760083E+01  0.27778153050E+02  0.21644997476E+04  0.21646816494E+04  0.00000000000E+00 0. -1.
<mgrwt>
<rscale>  0 0.48693568E+02</rscale>
<asrwt>0</asrwt>
<pdfrwt beam="1">  1        2 0.35447825E+00 0.28062179E+02</pdfrwt>
<pdfrwt beam="2">  1        2 0.24271120E+00 0.84493209E+02</pdfrwt>
<totfact> 0.14687601E+01</totfact>
</mgrwt>
</event>
<event>
13    1  0.1942437E-008  0.9469629E+02  0.7546771E-02  0.1452918E+00
          2   -1    0    0  503    0  0.00000000000E+00  0.00000000000E+00  0.19642792804E+04  0.19642792804E+04  0.00000000000E+00 0. -1.
          2   -1    0    0  502    0 -0.00000000000E+00 -0.00000000000E+00 -0.29222772326E+04  0.29222772326E+04  0.00000000000E+00 0. -1.
         24    2    1    2    0    0 -0.69547882692E+02 -0.93035438885E+01 -0.13923902983E+04  0.13964241703E+04  0.79537768568E+02 0.  0.
         24    2    1    2    0    0  0.54396109131E+02  0.14430490075E+02 -0.31376989810E+03  0.32882225888E+03  0.80655770072E+02 0.  0.
         25    2    1    2    0    0  0.74161989061E+02  0.98622690739E+02  0.34100308384E+03  0.38357565057E+03  0.12498296193E+03 0.  0.
        -11    1    4    4    0    0  0.61855174656E+02  0.13273122859E+02 -0.12685321124E+03  0.14175322086E+03  0.00000000000E+00 0.  1.
         12    1    4    4    0    0 -0.74590655250E+01  0.11573672156E+01 -0.18691668686E+03  0.18706903802E+03  0.00000000000E+00 0. -1.
        -13    1    3    3    0    0 -0.97139372602E+01  0.26253221770E+02 -0.19339478844E+03  0.19541017483E+03  0.00000000000E+00 0.  1.
         14    1    3    3    0    0 -0.59833945432E+02 -0.35556765659E+02 -0.11989955099E+04  0.12010139955E+04  0.00000000000E+00 0. -1.
          5    1    5    5  501    0  0.26843461220E+02  0.60348464505E+02  0.42017157395E+02  0.78422191336E+02  0.47000000000E+01 0.  1.
         -5    1    5    5    0  501  0.47318527841E+02  0.38274226234E+02  0.29898592644E+03  0.30515345923E+03  0.47000000000E+01 0.  1.
          1    1    1    2  502    0 -0.15139431026E+02 -0.19851074015E+02 -0.11837486969E+04  0.11840119277E+04  0.00000000000E+00 0. -1.
          1    1    1    2  503    0 -0.43870784474E+02 -0.83898562910E+02  0.15909078572E+04  0.15937225056E+04  0.00000000000E+00 0. -1.
<mgrwt>
<rscale>  0 0.48622255E+02</rscale>
<asrwt>0</asrwt>
<pdfrwt beam="1">  1        2 0.28886460E+00 0.94696288E+02</pdfrwt>
<pdfrwt beam="2">  1        2 0.42974665E+00 0.24965326E+02</pdfrwt>
<totfact> 0.59785363E+00</totfact>
</mgrwt>
</event>
<event>
13    1  0.1942437E-008  0.1811537E+03  0.7546771E-02  0.1388540E+00
          2   -1    0    0  502    0  0.00000000000E+00  0.00000000000E+00  0.40349277845E+04  0.40349277845E+04  0.00000000000E+00 0. -1.
          2   -1    0    0  503    0 -0.00000000000E+00 -0.00000000000E+00 -0.98777868563E+03  0.98777868563E+03  0.00000000000E+00 0. -1.
         24    2    1    2    0    0  0.19366216542E+02 -0.78339083019E+02  0.18050018001E+02  0.11588071214E+03  0.81181734546E+02 0.  0.
         24    2    1    2    0    0 -0.36794469225E+02  0.79571177367E+02  0.99230749822E+02  0.15486271615E+03  0.80313846312E+02 0.  0.
         25    2    1    2    0    0 -0.25188577453E+03 -0.17235374690E+03  0.17099263993E+04  0.17414429015E+04  0.12499132221E+03 0.  0.
        -11    1    4    4    0    0  0.15123818347E+02  0.52715291600E+02  0.71650287323E+02  0.90229682052E+02  0.00000000000E+00 0.  1.
         12    1    4    4    0    0 -0.51918287572E+02  0.26855885767E+02  0.27580462500E+02  0.64633034096E+02  0.00000000000E+00 0. -1.
        -13    1    3    3    0    0  0.50333614709E+02 -0.56230372852E+02  0.18988128676E+02  0.77819513179E+02  0.00000000000E+00 0.  1.
         14    1    3    3    0    0 -0.30967398167E+02 -0.22108710167E+02 -0.93811067448E+00  0.38061198958E+02  0.00000000000E+00 0. -1.
          5    1    5    5  501    0 -0.10934361650E+03 -0.42265214306E+02  0.38352889341E+03  0.40107215920E+03  0.47000000000E+01 0.  1.
         -5    1    5    5    0  501 -0.14254215803E+03 -0.13008853260E+03  0.13263975059E+04  0.13403707423E+04  0.47000000000E+01 0.  1.
          1    1    1    2  502    0  0.20837293504E+02 -0.48996881001E+01  0.20892823737E+04  0.20893920257E+04  0.00000000000E+00 0. -1.
          1    1    1    2  503    0  0.24847673371E+03  0.17602134065E+03 -0.86934044200E+03  0.92112811468E+03  0.00000000000E+00 0. -1.
<mgrwt>
<rscale>  0 0.62271214E+02</rscale>
<asrwt>0</asrwt>
<pdfrwt beam="1">  1        2 0.59337173E+00 0.21405601E+02</pdfrwt>
<pdfrwt beam="2">  1        2 0.14526157E+00 0.18115372E+03</pdfrwt>
<totfact> 0.45422884E+00</totfact>
</mgrwt>
</event>
<event>
13    1  0.1942437E-008  0.3909003E+02  0.7546771E-02  0.1534969E+00
          2   -1    0    0  502    0  0.00000000000E+00  0.00000000000E+00  0.22810544195E+04  0.22810544195E+04  0.00000000000E+00 0. -1.
          2   -1    0    0  503    0 -0.00000000000E+00 -0.00000000000E+00 -0.21258475114E+04  0.21258475114E+04  0.00000000000E+00 0. -1.
         24    2    1    2    0    0  0.14997212052E+03  0.13987350630E+03 -0.13008030319E+04  0.13193307614E+04  0.80553681113E+02 0.  0.
         24    2    1    2    0    0  0.19349849354E+02  0.74373669221E+02 -0.26887105013E+03  0.29110566538E+03  0.80901220497E+02 0.  0.
         25    2    1    2    0    0 -0.23605637192E+03 -0.23494524820E+03  0.27946175399E+03  0.45237713847E+03  0.12499729234E+03 0.  0.
        -11    1    4    4    0    0 -0.31185292598E+02  0.19112167140E+02 -0.81905386506E+02  0.89701113404E+02  0.00000000000E+00 0.  1.
         12    1    4    4    0    0  0.50535141952E+02  0.55261502082E+02 -0.18696566362E+03  0.20140455198E+03  0.00000000000E+00 0. -1.
        -11    1    3    3    0    0  0.65604864385E+01  0.37318105250E+02 -0.37340462246E+03  0.37532211903E+03  0.00000000000E+00 0.  1.
         12    1    3    3    0    0  0.14341163408E+03  0.10255540105E+03 -0.92739840944E+03  0.94400864239E+03  0.00000000000E+00 0. -1.
          5    1    5    5  501    0 -0.38906396080E+02 -0.11856628654E+03  0.12121771190E+03  0.17403303031E+03  0.47000000000E+01 0. -1.
         -5    1    5    5    0  501 -0.19714997584E+03 -0.11637896165E+03  0.15824404208E+03  0.27834410816E+03  0.47000000000E+01 0. -1.
          1    1    1    2  502    0  0.32510567105E+02  0.21698643888E+02  0.18938996332E+04  0.18943029295E+04  0.00000000000E+00 0. -1.
          1    1    1    2  503    0  0.34223834942E+02 -0.10005712170E+01 -0.44848039707E+03  0.44978543615E+03  0.00000000000E+00 0. -1.
<mgrwt>
<rscale>  0 0.36583909E+02</rscale>
<asrwt>0</asrwt>
<pdfrwt beam="1">  1        2 0.33544918E+00 0.39090031E+02</pdfrwt>
<pdfrwt beam="2">  1        2 0.31262463E+00 0.34238458E+02</pdfrwt>
<totfact> 0.10613186E+01</totfact>
</mgrwt>
</event>
<event>
13    1  0.1942437E-008  0.1219252E+03  0.7546771E-02  0.1386465E+00
         -1   -1    0    0    0  501 -0.00000000000E+00  0.00000000000E+00  0.32793455793E+03  0.32793455793E+03  0.00000000000E+00 0.  1.
          2   -1    0    0  503    0  0.00000000000E+00 -0.00000000000E+00 -0.34573581467E+04  0.34573581467E+04  0.00000000000E+00 0. -1.
         24    2    1    2    0    0 -0.15331906392E+00  0.94289754896E+02  0.16242116052E+02  0.12427765882E+03  0.79312979786E+02 0.  0.
         24    2    1    2    0    0 -0.14855831869E+03  0.15745624763E+03 -0.27223747462E+03  0.35689610983E+03  0.79997166537E+02 0.  0.
         25    2    1    2    0    0  0.57687516515E+02 -0.27025061503E+03 -0.19178210706E+04  0.19416553667E+04  0.12499863894E+03 0.  0.
        -11    1    3    3    0    0  0.38075517025E+01  0.83969347950E+02  0.43657804125E+02  0.94717224971E+02  0.00000000000E+00 0.  1.
         12    1    3    3    0    0 -0.39608707664E+01  0.10320406945E+02 -0.27415688073E+02  0.29560433848E+02  0.00000000000E+00 0. -1.
        -13    1    4    4    0    0 -0.92513729766E+02  0.10949978709E+03 -0.11703533874E+03  0.18505746157E+03  0.00000000000E+00 0.  1.
         14    1    4    4    0    0 -0.56044588924E+02  0.47956460547E+02 -0.15520213588E+03  0.17183864826E+03  0.00000000000E+00 0. -1.
          5    1    5    5  502    0  0.70791170994E+02 -0.27159445615E+03 -0.18875614090E+04  0.19083199683E+04  0.47000000000E+01 0. -1.
         -5    1    5    5    0  502 -0.13103654479E+02  0.13438411170E+01 -0.30259661594E+02  0.33335398444E+02  0.47000000000E+01 0. -1.
          1    1    1    2  503    0 -0.24562401370E+02 -0.21038265060E+02 -0.11404449617E+04  0.11409034275E+04  0.00000000000E+00 0. -1.
         -2    1    1    2    0  501  0.11558652261E+03  0.39542877565E+02  0.18483780207E+03  0.22156014183E+03  0.00000000000E+00 0.  1.
<mgrwt>
<rscale>  0 0.62794471E+02</rscale>
<asrwt>0</asrwt>
<pdfrwt beam="2">  1        2 0.50843505E+00 0.32340689E+02</pdfrwt>
<pdfrwt beam="1">  1       -1 0.48225668E-01 0.12192522E+03</pdfrwt>
<totfact> 0.10170410E+01</totfact>
</mgrwt>
</event>
<event>
13    1  0.1942437E-008  0.1149969E+03  0.7546771E-02  0.1329505E+00
          2   -1    0    0  503    0  0.00000000000E+00  0.00000000000E+00  0.21139636406E+04  0.21139636406E+04  0.00000000000E+00 0. -1.
          2   -1    0    0  502    0 -0.00000000000E+00 -0.00000000000E+00 -0.44436254629E+03  0.44436254629E+03  0.00000000000E+00 0. -1.
         24    2    1    2    0    0  0.27608376062E+02  0.23838812401E+02  0.71263819892E+02  0.11362780181E+03  0.80636430436E+02 0.  0.
         24    2    1    2    0    0 -0.23743430472E+02 -0.39556637128E+02 -0.14743300228E+02  0.90608696055E+02  0.76577365245E+02 0.  0.
         25    2    1    2    0    0  0.10427944096E+03 -0.13834706753E+03  0.76808183946E+03  0.79723805081E+03  0.12499873861E+03 0.  0.
        -13    1    3    3    0    0 -0.17134033766E+02 -0.19061567158E+02  0.28451827648E+02  0.38293928398E+02  0.00000000000E+00 0.  1.
         14    1    3    3    0    0  0.44742409828E+02  0.42900379560E+02  0.42811992244E+02  0.75333873413E+02  0.00000000000E+00 0. -1.
        -13    1    4    4    0    0 -0.15382469024E+02 -0.52491443017E+02 -0.35167150685E+02  0.65028458621E+02  0.00000000000E+00 0.  1.
         14    1    4    4    0    0 -0.83609614479E+01  0.12934805889E+02  0.20423850457E+02  0.25580237435E+02  0.00000000000E+00 0. -1.
          5    1    5    5  501    0  0.10218970868E+03 -0.14883017903E+03  0.76370478208E+03  0.78476763626E+03  0.47000000000E+01 0.  1.
         -5    1    5    5    0  501  0.20897322818E+01  0.10483111501E+02  0.43770573780E+01  0.12470414550E+02  0.47000000000E+01 0.  1.
          1    1    1    2  502    0 -0.53226959662E+02  0.16159930007E+03 -0.33490606388E+03  0.37564546402E+03  0.00000000000E+00 0. -1.
          1    1    1    2  503    0 -0.54917426892E+02 -0.75344078081E+01  0.11799047990E+04  0.11812061741E+04  0.00000000000E+00 0. -1.
<mgrwt>
<rscale>  0 0.79840415E+02</rscale>
<asrwt>0</asrwt>
<pdfrwt beam="1">  1        2 0.31087700E+00 0.55431860E+02</pdfrwt>
<pdfrwt beam="2">  1        2 0.65347435E-01 0.11499690E+03</pdfrwt>
<totfact> 0.10092541E+02</totfact>
</mgrwt>
</event>
<event>
13    1  0.1942437E-008  0.7744696E+02  0.7546771E-02  0.1386791E+00
         -3   -1    0    0    0  501 -0.00000000000E+00  0.00000000000E+00  0.15736665047E+04  0.15736665047E+04  0.00000000000E+00 0.  1.
          2   -1    0    0  503    0  0.00000000000E+00 -0.00000000000E+00 -0.20243907153E+04  0.20243907153E+04  0.00000000000E+00 0. -1.
         24    2    1    2    0    0  0.98277354574E+02 -0.34018777413E+02  0.33400439669E+03  0.36251738209E+03  0.95100997234E+02 0.  0.
         24    2    1    2    0    0 -0.12160237178E+03 -0.11510967982E+03 -0.14001641625E+03  0.23343261165E+03  0.82757550414E+02 0.  0.
         25    2    1    2    0    0  0.55850867139E+02  0.47115111698E+02 -0.73917453981E+03  0.75322146615E+03  0.12499769460E+03 0.  0.
        -11    1    4    4    0    0 -0.10450262759E+03 -0.47551796724E+02 -0.10434769847E+03  0.15514642993E+03  0.00000000000E+00 0.  1.
         12    1    4    4    0    0 -0.17099744192E+02 -0.67557883093E+02 -0.35668717781E+02  0.78286181716E+02  0.00000000000E+00 0. -1.
        -13    1    3    3    0    0  0.28651062038E+02 -0.37559633256E+02  0.45069522111E+02  0.65290667247E+02  0.00000000000E+00 0.  1.
         14    1    3    3    0    0  0.69626292536E+02  0.35408558424E+01  0.28893487458E+03  0.29722671485E+03  0.00000000000E+00 0. -1.
          5    1    5    5  502    0  0.40780704313E+02  0.88692539742E+02 -0.56896242790E+03  0.57729521635E+03  0.47000000000E+01 0. -1.
         -5    1    5    5    0  502  0.15070162827E+02 -0.41577428044E+02 -0.17021211190E+03  0.17592624980E+03  0.47000000000E+01 0.  1.
          1    1    1    2  503    0 -0.43948822993E+02  0.25438933650E+02 -0.10753329215E+04  0.10765312492E+04  0.00000000000E+00 0. -1.
         -4    1    1    2    0  501  0.11422973062E+02  0.76574411883E+02  0.11697952703E+04  0.11723545109E+04  0.00000000000E+00 0.  1.
<mgrwt>
<rscale>  0 0.62711876E+02</rscale>
<asrwt>0</asrwt>
<pdfrwt beam="2">  1        2 0.29770452E+00 0.50780295E+02</pdfrwt>
<pdfrwt beam="1">  1       -3 0.23142155E+00 0.77446957E+02</pdfrwt>
<totfact> 0.65311606E-01</totfact>
</mgrwt>
</event>
<event>
13    1  0.1942437E-008  0.1058569E+03  0.7546771E-02  0.1276784E+00
          2   -1    0    0  503    0  0.00000000000E+00  0.00000000000E+00  0.88555495967E+03  0.88555495967E+03  0.00000000000E+00 0. -1.
          2   -1    0    0  502    0 -0.00000000000E+00 -0.00000000000E+00 -0.84873896650E+03  0.84873896650E+03  0.00000000000E+00 0. -1.
         24    2    1    2    0    0 -0.20857067558E+02  0.15392423288E+03 -0.28855577290E+03  0.33745911391E+03  0.80539013859E+02 0.  0.
         24    2    1    2    0    0  0.11130938362E+03 -0.15252749699E+03 -0.28849625641E+03  0.35404979913E+03  0.80416130743E+02 0.  0.
         25    2    1    2    0    0  0.48233992319E+02 -0.43748004986E+02  0.21190100637E+03  0.25447966770E+03  0.12496983162E+03 0.  0.
        -11    1    3    3    0    0  0.17077176494E+02  0.12653454268E+03 -0.22207777996E+03  0.25616627569E+03  0.00000000000E+00 0.  1.
         12    1    3    3    0    0 -0.37934244052E+02  0.27389690202E+02 -0.66477992942E+02  0.81292838225E+02  0.00000000000E+00 0. -1.
        -13    1    4    4    0    0  0.81680463726E+02 -0.68594279785E+02 -0.10286869441E+03  0.14818516006E+03  0.00000000000E+00 0.  1.
         14    1    4    4    0    0  0.29628919891E+02 -0.83933217204E+02 -0.18562756200E+03  0.20586463907E+03  0.00000000000E+00 0. -1.
          5    1    5    5  501    0  0.72019248911E+02 -0.10488351699E+02  0.52528678903E+02  0.89878417000E+02  0.47000000000E+01 0.  1.
         -5    1    5    5    0  501 -0.23785256592E+02 -0.33259653287E+02  0.15937232747E+03  0.16460125070E+03  0.47000000000E+01 0.  1.
          1    1    1    2  502    0 -0.95493478425E+02 -0.45265607943E+02 -0.17429082486E+03  0.20382657166E+03  0.00000000000E+00 0. -1.
          1    1    1    2  503    0 -0.43192829952E+02  0.87616877037E+02  0.57625784097E+03  0.58447877376E+03  0.00000000000E+00 0. -1.
<mgrwt>
<rscale>  0 0.10168881E+03</rscale>
<asrwt>0</asrwt>
<pdfrwt beam="1">  1        2 0.13022867E+00 0.97684890E+02</pdfrwt>
<pdfrwt beam="2">  1        2 0.12481455E+00 0.10585685E+03</pdfrwt>
<totfact> 0.19345300E+02</totfact>
</mgrwt>
</event>
<event>
13    1  0.1942437E-008  0.9542266E+02  0.7546771E-02  0.1380269E+00
          2   -1    0    0  502    0  0.00000000000E+00  0.00000000000E+00  0.19752585024E+04  0.19752585024E+04  0.00000000000E+00 0. -1.
          2   -1    0    0  503    0 -0.00000000000E+00 -0.00000000000E+00 -0.46834104102E+04  0.46834104102E+04  0.00000000000E+00 0. -1.
         24    2    1    2    0    0 -0.68727074405E+02 -0.10191053723E+03 -0.12809974829E+04  0.12894622836E+04  0.81543003553E+02 0.  0.
         24    2    1    2    0    0  0.13412138273E+03 -0.20260779457E+02 -0.19757887817E+03  0.25314138895E+03  0.81511380868E+02 0.  0.
         25    2    1    2    0    0 -0.47434840277E+02  0.61310140446E+02  0.79113896381E+02  0.16700350056E+03  0.12498865231E+03 0.  0.
        -11    1    4    4    0    0  0.37377423923E+02 -0.23769826857E+02 -0.15503753452E+02  0.46930191338E+02  0.00000000000E+00 0.  1.
         12    1    4    4    0    0  0.96743958806E+02  0.35090473998E+01 -0.18207512472E+03  0.20621119761E+03  0.00000000000E+00 0. -1.
        -13    1    3    3    0    0 -0.65393808582E+02 -0.24307796737E+02 -0.58667913421E+03  0.59081268241E+03  0.00000000000E+00 0.  1.
         14    1    3    3    0    0 -0.33332658226E+01 -0.77602740495E+02 -0.69431834865E+03  0.69864960121E+03  0.00000000000E+00 0. -1.
          5    1    5    5  501    0 -0.22020523534E+02  0.21770583374E+02  0.10744828948E+03  0.11192000121E+03  0.47000000000E+01 0.  1.
         -5    1    5    5    0  501 -0.25414316744E+02  0.39539557072E+02 -0.28334393102E+02  0.55083499357E+02  0.47000000000E+01 0.  1.
          1    1    1    2  502    0  0.88758091290E+01  0.95038471327E+02  0.18187837180E+04  0.18212867166E+04  0.00000000000E+00 0. -1.
          1    1    1    2  503    0 -0.26835277176E+02 -0.34177295084E+02 -0.31274731612E+04  0.31277750228E+04  0.00000000000E+00 0. -1.
<mgrwt>
<rscale>  0 0.64393032E+02</rscale>
<asrwt>0</asrwt>
<pdfrwt beam="1">  1        2 0.29047919E+00 0.95422656E+02</pdfrwt>
<pdfrwt beam="2">  1        2 0.68873682E+00 0.43453649E+02</pdfrwt>
<totfact> 0.41505541E-01</totfact>
</mgrwt>
</event>
<event>
13    1  0.1942437E-008  0.9390139E+02  0.7546771E-02  0.1344992E+00
          2   -1    0    0  502    0  0.00000000000E+00  0.00000000000E+00  0.39668607009E+04  0.39668607009E+04  0.00000000000E+00 0. -1.
          2   -1    0    0  503    0 -0.00000000000E+00 -0.00000000000E+00 -0.52612635323E+03  0.52612635323E+03  0.00000000000E+00 0. -1.
         24    2    1    2    0    0 -0.45696134877E+02 -0.43694776372E+02 -0.16414860112E+03  0.19428394782E+03  0.82487083270E+02 0.  0.
         24    2    1    2    0    0 -0.88810169408E+01  0.48833087421E+02 -0.75347942419E+01  0.92781085757E+02  0.78025725636E+02 0.  0.
         25    2    1    2    0    0  0.47415543232E+02 -0.49011798243E+02  0.50517180328E+03  0.52485769299E+03  0.12500662764E+03 0.  0.
        -11    1    3    3    0    0 -0.12412685687E+02  0.65555012330E+01 -0.11679040415E+03  0.11763098174E+03  0.00000000000E+00 0.  1.
         12    1    3    3    0    0 -0.33283449191E+02 -0.50250277605E+02 -0.47358196965E+02  0.76652966082E+02  0.00000000000E+00 0. -1.
        -13    1    4    4    0    0  0.15900936327E+02  0.52344305208E+02  0.17443869011E+02  0.57419984586E+02  0.00000000000E+00 0.  1.
         14    1    4    4    0    0 -0.24781953268E+02 -0.35112177866E+01 -0.24978663253E+02  0.35361101171E+02  0.00000000000E+00 0. -1.
          5    1    5    5  501    0  0.89423333677E+02 -0.33891376570E+02  0.38008281585E+03  0.39195687890E+03  0.47000000000E+01 0.  1.
         -5    1    5    5    0  501 -0.42007790446E+02 -0.15120421673E+02  0.12508898743E+03  0.13290081409E+03  0.47000000000E+01 0.  1.
          1    1    1    2  502    0  0.58562159936E+02  0.73501288278E+02  0.33904300216E+04  0.33917322562E+04  0.00000000000E+00 0. -1.
          1    1    1    2  503    0 -0.51400551350E+02 -0.29627801083E+02 -0.28318408191E+03  0.28933207137E+03  0.00000000000E+00 0. -1.
<mgrwt>
<rscale>  0 0.74639069E+02</rscale>
<asrwt>0</asrwt>
<pdfrwt beam="1">  1        2 0.58336185E+00 0.93901386E+02</pdfrwt>
<pdfrwt beam="2">  1        2 0.77371525E-01 0.59328099E+02</pdfrwt>
<totfact> 0.77389433E+00</totfact>
</mgrwt>
</event>
<event>
13    1  0.1942437E-008  0.2730784E+03  0.7546771E-02  0.1292324E+00
          2   -1    0    0  502    0  0.00000000000E+00  0.00000000000E+00  0.73703712549E+03  0.73703712549E+03  0.00000000000E+00 0. -1.
          2   -1    0    0  503    0 -0.00000000000E+00 -0.00000000000E+00 -0.19339931705E+04  0.19339931705E+04  0.00000000000E+00 0. -1.
         24    2    1    2    0    0  0.23408799295E+02  0.15688881032E+02 -0.26131614407E+03  0.27532510331E+03  0.81998002968E+02 0.  0.
         24    2    1    2    0    0 -0.17953674124E+02 -0.21436427695E+02 -0.13056638126E+02  0.75852065779E+02  0.69290729805E+02 0.  0.
         25    2    1    2    0    0 -0.19324975093E+03  0.23903577304E+03 -0.18601411389E+03  0.38040700142E+03  0.12499867654E+03 0.  0.
        -11    1    4    4    0    0  0.14499779882E+02 -0.34768499503E+02 -0.15381159134E+02  0.40689952453E+02  0.00000000000E+00 0.  1.
         12    1    4    4    0    0 -0.32453454006E+02  0.13332071808E+02  0.23245210081E+01  0.35162113326E+02  0.00000000000E+00 0. -1.
        -11    1    3    3    0    0  0.46321510317E+01 -0.24929272618E+02 -0.18598591055E+03  0.18770637810E+03  0.00000000000E+00 0.  1.
         12    1    3    3    0    0  0.18776648263E+02  0.40618153650E+02 -0.75330233522E+02  0.87618725216E+02  0.00000000000E+00 0. -1.
          5    1    5    5  501    0 -0.84362411142E+02  0.58361715319E+02 -0.12292794327E+03  0.16017638860E+03  0.47000000000E+01 0.  1.
         -5    1    5    5    0  501 -0.10888733979E+03  0.18067405772E+03 -0.63086170623E+02  0.22023061282E+03  0.47000000000E+01 0.  1.
          1    1    1    2  502    0  0.15923305733E+03 -0.21737226654E+03  0.57104377710E+03  0.63142447227E+03  0.00000000000E+00 0. -1.
          1    1    1    2  503    0  0.28561568429E+02 -0.15915959835E+02 -0.13076129261E+04  0.13080216533E+04  0.00000000000E+00 0. -1.
<mgrwt>
<rscale>  0 0.94492273E+02</rscale>
<asrwt>0</asrwt>
<pdfrwt beam="1">  1        2 0.10838781E+00 0.27307837E+03</pdfrwt>
<pdfrwt beam="2">  1        2 0.28441075E+00 0.32696804E+02</pdfrwt>
<totfact> 0.72044541E+01</totfact>
</mgrwt>
</event>
<event>
13    1  0.1942437E-008  0.9520711E+02  0.7546771E-02  0.1364361E+00
          2   -1    0    0  502    0  0.00000000000E+00  0.00000000000E+00  0.21061552098E+04  0.21061552098E+04  0.00000000000E+00 0. -1.
          2   -1    0    0  503    0 -0.00000000000E+00 -0.00000000000E+00 -0.11356357539E+04  0.11356357539E+04  0.00000000000E+00 0. -1.
         24    2    1    2    0    0  0.10702627494E+03 -0.10653413877E+02 -0.80638815479E+02  0.15658460973E+03  0.80299456339E+02 0.  0.
         24    2    1    2    0    0  0.93296509008E+02 -0.13565823896E+03  0.65004884270E+02  0.19469161983E+03  0.81066611272E+02 0.  0.
         25    2    1    2    0    0 -0.12766104695E+03  0.21355711472E+03  0.75336752954E+03  0.80317433525E+03  0.12498957593E+03 0.  0.
        -11    1    3    3    0    0  0.12031749793E+02 -0.32599385069E+02 -0.99084737749E+01  0.36133928135E+02  0.00000000000E+00 0.  1.
         12    1    3    3    0    0  0.94994525145E+02  0.21945971192E+02 -0.70730341704E+02  0.12045068159E+03  0.00000000000E+00 0. -1.
        -13    1    4    4    0    0  0.65595180558E+02 -0.27031760203E+02  0.32011229000E+02  0.77834199130E+02  0.00000000000E+00 0.  1.
         14    1    4    4    0    0  0.27701328450E+02 -0.10862647876E+03  0.32993655270E+02  0.11685742070E+03  0.00000000000E+00 0. -1.
          5    1    5    5  501    0 -0.60012986190E+02  0.33695811682E+02  0.95570899320E+02  0.11786794744E+03  0.47000000000E+01 0.  1.
         -5    1    5    5    0  501 -0.67648060759E+02  0.17986130303E+03  0.65779663022E+03  0.68530638781E+03  0.47000000000E+01 0.  1.
          1    1    1    2  502    0 -0.43752029179E+02  0.23490841417E+02  0.11570841300E+04  0.11581492751E+04  0.00000000000E+00 0. -1.
          1    1    1    2  503    0 -0.28909707817E+02 -0.90736303295E+02 -0.92429827244E+03  0.92919112371E+03  0.00000000000E+00 0. -1.
<mgrwt>
<rscale>  0 0.68759956E+02</rscale>
<asrwt>0</asrwt>
<pdfrwt beam="1">  1        2 0.30972871E+00 0.49659437E+02</pdfrwt>
<pdfrwt beam="2">  1        2 0.16700526E+00 0.95207112E+02</pdfrwt>
<totfact> 0.33982980E+01</totfact>
</mgrwt>
</event>
<event>
13    1  0.4215747E-008  0.5522157E+02  0.7546771E-02  0.1601155E+00
          2   -1    0    0  503    0  0.00000000000E+00  0.00000000000E+00  0.28352455736E+04  0.28352455736E+04  0.00000000000E+00 0. -1.
          2   -1    0    0  502    0 -0.00000000000E+00 -0.00000000000E+00 -0.34831145310E+04  0.34831145310E+04  0.00000000000E+00 0. -1.
         24    2    1    2    0    0 -0.13766904306E+04 -0.67396759309E+03 -0.17960825388E+04  0.23625959702E+04  0.80239479328E+02 0.  0.
         24    2    1    2    0    0  0.11453942762E+04  0.13760931056E+02 -0.43612884224E+03  0.12279038592E+04  0.73634973245E+02 0.  0.
         25    2    1    2    0    0  0.23158177206E+03  0.71840566136E+03  0.10962841663E+04  0.13368627947E+04  0.12500538891E+03 0.  0.
        -11    1    3    3    0    0 -0.96928248036E+03 -0.50643752308E+03 -0.12456869608E+04  0.16576258613E+04  0.00000000000E+00 0.  1.
         12    1    3    3    0    0 -0.40740795022E+03 -0.16753007001E+03 -0.55039557796E+03  0.70497010894E+03  0.00000000000E+00 0. -1.
        -11    1    4    4    0    0  0.79245521359E+03  0.25076309283E+02 -0.26911810371E+03  0.83728050293E+03  0.00000000000E+00 0.  1.
         12    1    4    4    0    0  0.35293906259E+03 -0.11315378227E+02 -0.16701073853E+03  0.39062335628E+03  0.00000000000E+00 0. -1.
          5    1    5    5  501    0  0.17731603691E+03  0.66184261144E+03  0.95769450333E+03  0.11775727031E+04  0.47000000000E+01 0. -1.
         -5    1    5    5    0  501  0.54265735158E+02  0.56563049920E+02  0.13858966297E+03  0.15929009169E+03  0.47000000000E+01 0. -1.
          1    1    1    2  502    0  0.15139629808E+02 -0.51757802155E+01 -0.45051605773E+03  0.45080008359E+03  0.00000000000E+00 0. -1.
          1    1    1    2  503    0 -0.15425247487E+02 -0.53023219117E+02  0.93857431507E+03  0.94019739680E+03  0.00000000000E+00 0. -1.
<mgrwt>
<rscale>  0 0.29724403E+02</rscale>
<asrwt>0</asrwt>
<pdfrwt beam="1">  1        2 0.41694788E+00 0.55221571E+02</pdfrwt>
<pdfrwt beam="2">  1        2 0.51222272E+00 0.15999909E+02</pdfrwt>
<totfact> 0.13652718E+00</totfact>
</mgrwt>
</event>
<event>
13    1  0.1942437E-008  0.1117034E+03  0.7546771E-02  0.1418232E+00
          2   -1    0    0  502    0  0.00000000000E+00  0.00000000000E+00  0.45059911796E+03  0.45059911796E+03  0.00000000000E+00 0. -1.
          4   -1    0    0  503    0 -0.00000000000E+00 -0.00000000000E+00 -0.89764001926E+03  0.89764001926E+03  0.00000000000E+00 0. -1.
         24    2    1    2    0    0 -0.24356900324E+02  0.16622045582E+03 -0.36915103513E+03  0.41360851240E+03  0.81098805590E+02 0.  0.
         24    2    1    2    0    0  0.85518725867E+02  0.20553261741E+02 -0.67105311576E+02  0.13649186000E+03  0.79943830049E+02 0.  0.
         25    2    1    2    0    0 -0.10951124995E+03 -0.10169264788E+03  0.20426282616E+03  0.28228003070E+03  0.12499842031E+03 0.  0.
        -11    1    3    3    0    0 -0.15940886640E+02  0.11066906942E+03 -0.14832747832E+03  0.18574928161E+03  0.00000000000E+00 0.  1.
         12    1    3    3    0    0 -0.84160136837E+01  0.55551386406E+02 -0.22082355681E+03  0.22785923080E+03  0.00000000000E+00 0. -1.
        -13    1    4    4    0    0  0.10077303665E+03  0.12326824441E+02 -0.57089277254E+02  0.11647463713E+03  0.00000000000E+00 0.  1.
         14    1    4    4    0    0 -0.15254310782E+02  0.82264373000E+01 -0.10016034322E+02  0.20017222875E+02  0.00000000000E+00 0. -1.
          5    1    5    5  501    0 -0.65834906164E+02 -0.12184491855E+03  0.18282907868E+03  0.22941007183E+03  0.47000000000E+01 0. -1.
         -5    1    5    5    0  501 -0.43676343788E+02  0.20152270665E+02  0.21433747476E+02  0.52869958866E+02  0.47000000000E+01 0. -1.
          1    1    1    2  502    0 -0.27374067737E+02 -0.23272165388E+01  0.14043594085E+03  0.14309790006E+03  0.00000000000E+00 0. -1.
          3    1    1    2  503    0  0.75723492146E+02 -0.82753853139E+02 -0.35548332160E+03  0.37276083406E+03  0.00000000000E+00 0. -1.
<mgrwt>
<rscale>  0 0.55396809E+02</rscale>
<asrwt>0</asrwt>
<pdfrwt beam="1">  1        2 0.66264577E-01 0.27472814E+02</pdfrwt>
<pdfrwt beam="2">  1        4 0.13200588E+00 0.11170339E+03</pdfrwt>
<totfact> 0.17016258E+01</totfact>
</mgrwt>
</event>
<event>
13    1  0.1942437E-008  0.1355440E+03  0.7546771E-02  0.1228013E+00
         -1   -1    0    0    0  501 -0.00000000000E+00  0.00000000000E+00  0.16408535364E+04  0.16408535364E+04  0.00000000000E+00 0.  1.
          2   -1    0    0  503    0  0.00000000000E+00 -0.00000000000E+00 -0.72077830613E+03  0.72077830613E+03  0.00000000000E+00 0. -1.
         24    2    1    2    0    0 -0.34829552006E+02 -0.60417901655E+02  0.36610313898E+02  0.11191237117E+03  0.79502472947E+02 0.  0.
         24    2    1    2    0    0  0.99370202172E+02 -0.12367879885E+03  0.12165181864E+03  0.21651445483E+03  0.83117157104E+02 0.  0.
         25    2    1    2    0    0 -0.14404406991E+03  0.27040063353E+03 -0.32384258085E+03  0.46299438588E+03  0.12499834997E+03 0.  0.
        -11    1    4    4    0    0  0.10485657656E+03 -0.12983640884E+03  0.12402876007E+03  0.20793154650E+03  0.00000000000E+00 0.  1.
         12    1    4    4    0    0 -0.54863743845E+01  0.61576099922E+01 -0.23769414258E+01  0.85829083209E+01  0.00000000000E+00 0. -1.
        -11    1    3    3    0    0  0.16821078479E+02 -0.24455231445E+02  0.38903268610E+02  0.48933335619E+02  0.00000000000E+00 0.  1.
         12    1    3    3    0    0 -0.51650630485E+02 -0.35962670210E+02 -0.22929547124E+01  0.62979035555E+02  0.00000000000E+00 0. -1.
          5    1    5    5  502    0 -0.93373508227E+02  0.23479186188E+03 -0.19242873220E+03  0.31764246791E+03  0.47000000000E+01 0. -1.
         -5    1    5    5    0  502 -0.50670561681E+02  0.35608771648E+02 -0.13141384866E+03  0.14535191797E+03  0.47000000000E+01 0. -1.
          1    1    1    2  503    0 -0.51260035370E+02 -0.12294728192E+03 -0.22017708742E+03  0.25733553035E+03  0.00000000000E+00 0. -1.
         -2    1    1    2    0  501  0.13076345511E+03  0.36643348894E+02  0.13058327660E+04  0.13128751003E+04  0.00000000000E+00 0.  1.
<mgrwt>
<rscale>  0 0.12962532E+03</rscale>
<asrwt>0</asrwt>
<pdfrwt beam="2">  1        2 0.10599681E+00 0.12396510E+03</pdfrwt>
<pdfrwt beam="1">  1       -1 0.24130199E+00 0.13554398E+03</pdfrwt>
<totfact> 0.48784552E+00</totfact>
</mgrwt>
</event>
<event>
13    1  0.1942437E-008  0.1533897E+03  0.7546771E-02  0.1324245E+00
          2   -1    0    0  502    0  0.00000000000E+00  0.00000000000E+00  0.14373427184E+04  0.14373427184E+04  0.00000000000E+00 0. -1.
          2   -1    0    0  503    0 -0.00000000000E+00 -0.00000000000E+00 -0.12228163298E+04  0.12228163298E+04  0.00000000000E+00 0. -1.
         24    2    1    2    0    0  0.32944927884E+02 -0.12971791512E+03 -0.35503122687E+03  0.38783824000E+03  0.80369288775E+02 0.  0.
         24    2    1    2    0    0 -0.22558364696E+03  0.13766523291E+03 -0.10166021383E+03  0.29623384318E+03  0.87063153183E+02 0.  0.
         25    2    1    2    0    0  0.96585061503E+02 -0.64004663341E+02  0.45606765951E+03  0.48687564258E+03  0.12499964100E+03 0.  0.
        -13    1    4    4    0    0 -0.10905512725E+03  0.11252802818E+03 -0.38656987688E+02  0.16139993991E+03  0.00000000000E+00 0.  1.
         14    1    4    4    0    0 -0.11652851971E+03  0.25137204731E+02 -0.63003226140E+02  0.13483390327E+03  0.00000000000E+00 0. -1.
        -13    1    3    3    0    0  0.62006767091E+01  0.11133198772E+02 -0.28444669955E+02  0.31168826661E+02  0.00000000000E+00 0.  1.
         14    1    3    3    0    0  0.26744251175E+02 -0.14085111389E+03 -0.32658655692E+03  0.35666941334E+03  0.00000000000E+00 0. -1.
          5    1    5    5  501    0 -0.22975322986E+02 -0.10598578292E+02  0.17359235053E+03  0.17548957088E+03  0.47000000000E+01 0. -1.
         -5    1    5    5    0  501  0.11956038449E+03 -0.53406085049E+02  0.28247530898E+03  0.31138607169E+03  0.47000000000E+01 0. -1.
          1    1    1    2  502    0 -0.32214955808E+02 -0.29283608296E+02  0.84229528220E+03  0.84341963192E+03  0.00000000000E+00 0. -1.
          1    1    1    2  503    0  0.12826861338E+03  0.85340953839E+02 -0.62714511239E+03  0.64579169055E+03  0.00000000000E+00 0. -1.
<mgrwt>
<rscale>  0 0.81718318E+02</rscale>
<asrwt>0</asrwt>
<pdfrwt beam="1">  1        2 0.21137393E+00 0.43535423E+02</pdfrwt>
<pdfrwt beam="2">  1        2 0.17982593E+00 0.15338965E+03</pdfrwt>
<totfact> 0.61689018E+01</totfact>
</mgrwt>
</event>
<event>
13    1  0.1942437E-008  0.7907102E+02  0.7546771E-02  0.1471441E+00
         -3   -1    0    0    0  501 -0.00000000000E+00  0.00000000000E+00  0.37896617980E+03  0.37896617980E+03  0.00000000000E+00 0.  1.
          2   -1    0    0  503    0  0.00000000000E+00 -0.00000000000E+00 -0.22696010220E+04  0.22696010220E+04  0.00000000000E+00 0. -1.
         24    2    1    2    0    0 -0.47431257709E+02  0.44539999775E+01  0.30330805473E+02  0.99158964145E+02  0.81504478933E+02 0.  0.
         24    2    1    2    0    0  0.98161038896E+02 -0.12308169718E+03 -0.27968148938E+02  0.17927294765E+03  0.81067124454E+02 0.  0.
         25    2    1    2    0    0 -0.11229013165E+03  0.33565104623E+02 -0.11649559523E+04  0.11774806243E+04  0.12491020754E+03 0.  0.
        -13    1    4    4    0    0  0.97105752600E+02 -0.10767092252E+03 -0.49115750486E+02  0.15308465531E+03  0.00000000000E+00 0.  1.
         14    1    4    4    0    0  0.10552862961E+01 -0.15410774656E+02  0.21147601548E+02  0.26188292344E+02  0.00000000000E+00 0. -1.
        -13    1    3    3    0    0  0.20129089698E+02  0.73100476594E+01 -0.62090296567E+01  0.22297289031E+02  0.00000000000E+00 0.  1.
         14    1    3    3    0    0 -0.67560347407E+02 -0.28560476819E+01  0.36539835129E+02  0.76861675114E+02  0.00000000000E+00 0. -1.
          5    1    5    5  502    0 -0.13743846568E+03  0.20512540388E+02 -0.10407901819E+04  0.10500363750E+04  0.47000000000E+01 0. -1.
         -5    1    5    5    0  502  0.25148334032E+02  0.13052564236E+02 -0.12416577047E+03  0.12744424935E+03  0.47000000000E+01 0. -1.
          1    1    1    2  503    0  0.13839213035E+02  0.22182238874E+02 -0.95345788331E+03  0.95381628776E+03  0.00000000000E+00 0. -1.
         -4    1    1    2    0  501  0.47721137425E+02  0.62880353705E+02  0.22541633687E+03  0.23883837792E+03  0.00000000000E+00 0.  1.
<mgrwt>
<rscale>  0 0.45467942E+02</rscale>
<asrwt>0</asrwt>
<pdfrwt beam="2">  1        2 0.33376485E+00 0.26145278E+02</pdfrwt>
<pdfrwt beam="1">  1       -3 0.55730322E-01 0.79071018E+02</pdfrwt>
<totfact> 0.15355951E+01</totfact>
</mgrwt>
</event>
<event>
13    1  0.1942437E-008  0.3519678E+02  0.7546771E-02  0.1575752E+00
          2   -1    0    0  502    0  0.00000000000E+00  0.00000000000E+00  0.10473587779E+04  0.10473587779E+04  0.00000000000E+00 0. -1.
          2   -1    0    0  503    0 -0.00000000000E+00 -0.00000000000E+00 -0.16036314118E+04  0.16036314118E+04  0.00000000000E+00 0. -1.
         24    2    1    2    0    0  0.43817606490E+02 -0.21091784262E+02 -0.95831225343E+02  0.13879864247E+03  0.87844142657E+02 0.  0.
         24    2    1    2    0    0 -0.93614961147E+02  0.13573836678E+03 -0.10733849457E+03  0.21314782984E+03  0.81986460983E+02 0.  0.
         25    2    1    2    0    0  0.12991289049E+02 -0.10400147545E+03  0.31406155990E+03  0.35390194328E+03  0.12500736602E+03 0.  0.
        -13    1    3    3    0    0  0.12330113002E+02 -0.50649387255E+02 -0.73697251496E+02  0.90270022676E+02  0.00000000000E+00 0.  1.
         14    1    3    3    0    0  0.31487493488E+02  0.29557602993E+02 -0.22133973847E+02  0.48528619794E+02  0.00000000000E+00 0. -1.
        -13    1    4    4    0    0  0.31207170929E+01  0.41233767503E+02 -0.53429789960E+02  0.67562599956E+02  0.00000000000E+00 0.  1.
         14    1    4    4    0    0 -0.96735678240E+02  0.94504599274E+02 -0.53908704607E+02  0.14558522989E+03  0.00000000000E+00 0. -1.
          5    1    5    5  501    0  0.12974316378E+02 -0.62557259872E+02  0.30442638959E+03  0.31109365202E+03  0.47000000000E+01 0. -1.
         -5    1    5    5    0  501  0.16972671390E-01 -0.41444215582E+02  0.96351703084E+01  0.42808291255E+02  0.47000000000E+01 0. -1.
          1    1    1    2  502    0  0.65167949190E+01 -0.28582190943E+02  0.63841504460E+03  0.63908777130E+03  0.00000000000E+00 0. -1.
          1    1    1    2  503    0  0.30289270689E+02  0.17937083883E+02 -0.13055795185E+04  0.13060540028E+04  0.00000000000E+00 0. -1.
<mgrwt>
<rscale>  0 0.32121926E+02</rscale>
<asrwt>0</asrwt>
<pdfrwt beam="1">  1        2 0.15402335E+00 0.29315700E+02</pdfrwt>
<pdfrwt beam="2">  1        2 0.23582814E+00 0.35196776E+02</pdfrwt>
<totfact> 0.71575577E+01</totfact>
</mgrwt>
</event>
<event>
13    1  0.1942437E-008  0.3143324E+02  0.7546771E-02  0.1665692E+00
          2   -1    0    0  503    0  0.00000000000E+00  0.00000000000E+00  0.15407170013E+04  0.15407170013E+04  0.00000000000E+00 0. -1.
          2   -1    0    0  502    0 -0.00000000000E+00 -0.00000000000E+00 -0.14907459811E+04  0.14907459811E+04  0.00000000000E+00 0. -1.
         24    2    1    2    0    0  0.12451404280E+02 -0.48019778699E+02 -0.77268071790E+02  0.11994332635E+03  0.77169359222E+02 0.  0.
         24    2    1    2    0    0  0.34829505989E+03  0.66341854435E+02 -0.97563156238E+03  0.10411663897E+04  0.80372975064E+02 0.  0.
         25    2    1    2    0    0 -0.36537269862E+03 -0.21518971891E+01  0.61952115246E+03  0.73001755724E+03  0.12496934014E+03 0.  0.
        -11    1    3    3    0    0  0.17387790753E+02 -0.61917071228E+02 -0.31023239312E+02  0.71403783892E+02  0.00000000000E+00 0.  1.
         12    1    3    3    0    0 -0.49363864724E+01  0.13897292529E+02 -0.46244832478E+02  0.48539542458E+02  0.00000000000E+00 0. -1.
        -11    1    4    4    0    0  0.21037245583E+03  0.78600272138E+02 -0.57641883507E+03  0.61862205455E+03  0.00000000000E+00 0.  1.
         12    1    4    4    0    0  0.13792260406E+03 -0.12258417703E+02 -0.39921272731E+03  0.42254433514E+03  0.00000000000E+00 0. -1.
          5    1    5    5  501    0 -0.75616282963E+02 -0.11104768457E+02  0.24314778868E+03  0.25491974281E+03  0.47000000000E+01 0.  1.
         -5    1    5    5    0  501 -0.28975641565E+03  0.89528712679E+01  0.37637336378E+03  0.47509781443E+03  0.47000000000E+01 0.  1.
          1    1    1    2  502    0  0.23376041523E+02 -0.21041030910E+02 -0.32762436228E+03  0.32913050157E+03  0.00000000000E+00 0. -1.
          1    1    1    2  503    0 -0.18749807072E+02  0.48708523635E+01  0.81097386419E+03  0.81120520761E+03  0.00000000000E+00 0. -1.
<mgrwt>
<rscale>  0 0.24676499E+02</rscale>
<asrwt>0</asrwt>
<pdfrwt beam="1">  1        2 0.22657603E+00 0.19372157E+02</pdfrwt>
<pdfrwt beam="2">  1        2 0.21922735E+00 0.31433237E+02</pdfrwt>
<totfact> 0.48827711E+01</totfact>
</mgrwt>
</event>
<event>
13    1  0.1942437E-008  0.1553506E+03  0.7546771E-02  0.1465441E+00
          2   -1    0    0  502    0  0.00000000000E+00  0.00000000000E+00  0.91773720266E+03  0.91773720266E+03  0.00000000000E+00 0. -1.
          2   -1    0    0  503    0 -0.00000000000E+00 -0.00000000000E+00 -0.90448031278E+03  0.90448031278E+03  0.00000000000E+00 0. -1.
         24    2    1    2    0    0  0.36131729266E+02 -0.81278584189E+02 -0.16537728239E+03  0.20456026578E+03  0.81139057768E+02 0.  0.
         24    2    1    2    0    0  0.72364772303E+02  0.98144121464E+01 -0.33903044100E+02  0.11328510498E+03  0.79693887182E+02 0.  0.
         25    2    1    2    0    0  0.13034305229E+03  0.36827202135E+02  0.25358838760E+03  0.31349463291E+03  0.12500504166E+03 0.  0.
        -11    1    3    3    0    0 -0.15853555589E+02 -0.40269354039E+02 -0.11011945998E+03  0.11831843290E+03  0.00000000000E+00 0.  1.
         12    1    3    3    0    0  0.51985284855E+02 -0.41009230150E+02 -0.55257822417E+02  0.86241832872E+02  0.00000000000E+00 0. -1.
        -11    1    4    4    0    0 -0.14537642629E+02  0.14192193311E+02 -0.11855767423E+02  0.23522768233E+02  0.00000000000E+00 0.  1.
         12    1    4    4    0    0  0.86902414931E+02 -0.43777811646E+01 -0.22047276677E+02  0.89762336744E+02  0.00000000000E+00 0. -1.
          5    1    5    5  501    0  0.88518834335E+02 -0.21492289140E+02  0.21109732843E+03  0.22996015871E+03  0.47000000000E+01 0.  1.
         -5    1    5    5    0  501  0.41824217952E+02  0.58319491274E+02  0.42491059166E+02  0.83534474194E+02  0.47000000000E+01 0.  1.
          1    1    1    2  502    0 -0.55849688701E+01  0.12721255006E+02  0.55254542883E+03  0.55272006760E+03  0.00000000000E+00 0. -1.
          1    1    1    2  503    0 -0.23325458498E+03  0.21915714903E+02 -0.59359660005E+03  0.63815744419E+03  0.00000000000E+00 0. -1.
<mgrwt>
<rscale>  0 0.46457756E+02</rscale>
<asrwt>0</asrwt>
<pdfrwt beam="1">  1        2 0.13496135E+00 0.13893243E+02</pdfrwt>
<pdfrwt beam="2">  1        2 0.13301181E+00 0.15535056E+03</pdfrwt>
<totfact> 0.18323469E+02</totfact>
</mgrwt>
</event>
<event>
13    1  0.1942437E-008  0.6026312E+02  0.7546771E-02  0.1441179E+00
          2   -1    0    0  503    0  0.00000000000E+00  0.00000000000E+00  0.29192681967E+03  0.29192681967E+03  0.00000000000E+00 0. -1.
         -3   -1    0    0    0  501 -0.00000000000E+00 -0.00000000000E+00 -0.30782967020E+04  0.30782967020E+04  0.00000000000E+00 0.  1.
         24    2    1    2    0    0  0.78883078819E+02 -0.42547523977E+02 -0.13311859731E+04  0.13367172748E+04  0.82000887847E+02 0.  0.
         24    2    1    2    0    0 -0.85820433656E+02  0.49113419833E+02 -0.92680929655E+03  0.93546666927E+03  0.79656401499E+02 0.  0.
         25    2    1    2    0    0  0.41390021633E+02 -0.72674002643E+02  0.15299041716E+03  0.21449722154E+03  0.12493336525E+03 0.  0.
        -11    1    3    3    0    0  0.50153705528E+02 -0.66609284934E+02 -0.85318576604E+03  0.85725033823E+03  0.00000000000E+00 0.  1.
         12    1    3    3    0    0  0.28729373290E+02  0.24061760957E+02 -0.47800020710E+03  0.47946693653E+03  0.00000000000E+00 0. -1.
        -13    1    4    4    0    0 -0.74170202410E+01  0.21801906106E+02 -0.50720430911E+03  0.50772684238E+03  0.00000000000E+00 0.  1.
         14    1    4    4    0    0 -0.78403413415E+02  0.27311513727E+02 -0.41960498745E+03  0.42773982689E+03  0.00000000000E+00 0. -1.
          5    1    5    5  502    0  0.64445931039E+01 -0.49686755960E+02 -0.53977641015E+01  0.50611583214E+02  0.47000000000E+01 0.  1.
         -5    1    5    5    0  502  0.34945428529E+02 -0.22987246683E+02  0.15838818126E+03  0.16388563832E+03  0.47000000000E+01 0. -1.
          1    1    1    2  503    0 -0.42313071619E+02  0.63652407949E+01  0.95340832283E+02  0.10450256753E+03  0.00000000000E+00 0. -1.
         -4    1    1    2    0  501  0.78604048235E+01  0.59742865992E+02 -0.77670586204E+03  0.77903978854E+03  0.00000000000E+00 0.  1.
<mgrwt>
<rscale>  0 0.50779998E+02</rscale>
<asrwt>0</asrwt>
<pdfrwt beam="1">  1        2 0.42930412E-01 0.42789161E+02</pdfrwt>
<pdfrwt beam="2">  1       -3 0.45269072E+00 0.60263116E+02</pdfrwt>
<totfact> 0.59193705E-01</totfact>
</mgrwt>
</event>
<event>
13    1  0.1942437E-008  0.8797069E+02  0.7546771E-02  0.1468878E+00
          2   -1    0    0  502    0  0.00000000000E+00  0.00000000000E+00  0.65016112547E+03  0.65016112547E+03  0.00000000000E+00 0. -1.
          2   -1    0    0  503    0 -0.00000000000E+00 -0.00000000000E+00 -0.11009633372E+04  0.11009633372E+04  0.00000000000E+00 0. -1.
         24    2    1    2    0    0  0.49159278108E+02  0.11652759405E+03 -0.63856659051E+03  0.65585718971E+03  0.79912752248E+02 0.  0.
         24    2    1    2    0    0 -0.85539597703E+01  0.13575679692E+02 -0.12893982921E+03  0.16474666933E+03  0.10128433340E+03 0.  0.
         25    2    1    2    0    0 -0.30587808342E+02 -0.55769048184E+02  0.11302812228E+03  0.18012167326E+03  0.12499063964E+03 0.  0.
        -11    1    4    4    0    0  0.38658790144E+02  0.12075997126E+02 -0.10339710779E+03  0.11104635816E+03  0.00000000000E+00 0.  1.
         12    1    4    4    0    0 -0.47212749915E+02  0.14996825665E+01 -0.25542721418E+02  0.53700311170E+02  0.00000000000E+00 0. -1.
        -11    1    3    3    0    0 -0.80677548418E+00 -0.54943829679E+01 -0.21990029136E+01  0.59728338914E+01  0.00000000000E+00 0.  1.
         12    1    3    3    0    0  0.49966053592E+02  0.12202197702E+03 -0.63636758760E+03  0.64988435581E+03  0.00000000000E+00 0. -1.
          5    1    5    5  501    0  0.26980529760E+02 -0.23713953371E+02 -0.12458836734E+02  0.38309439873E+02  0.47000000000E+01 0. -1.
         -5    1    5    5    0  501 -0.57568338102E+02 -0.32055094813E+02  0.12548695902E+03  0.14181223339E+03  0.47000000000E+01 0. -1.
          1    1    1    2  502    0 -0.32787321003E+02 -0.81713033215E+02  0.47243852170E+03  0.48057276764E+03  0.00000000000E+00 0. -1.
          1    1    1    2  503    0  0.22769811008E+02  0.73788076585E+01 -0.26876243596E+03  0.26982616270E+03  0.00000000000E+00 0. -1.
<mgrwt>
<rscale>  0 0.45887122E+02</rscale>
<asrwt>0</asrwt>
<pdfrwt beam="1">  1        2 0.95611931E-01 0.87970693E+02</pdfrwt>
<pdfrwt beam="2">  1        2 0.16190637E+00 0.23935561E+02</pdfrwt>
<totfact> 0.21651877E+02</totfact>
</mgrwt>
</event>
<event>
13    1  0.1942437E-008  0.8733438E+02  0.7546771E-02  0.1360956E+00
          2   -1    0    0  503    0  0.00000000000E+00  0.00000000000E+00  0.67944758722E+03  0.67944758722E+03  0.00000000000E+00 0. -1.
          2   -1    0    0  502    0 -0.00000000000E+00 -0.00000000000E+00 -0.15611484344E+04  0.15611484344E+04  0.00000000000E+00 0. -1.
         24    2    1    2    0    0 -0.26749348392E+02 -0.17844655505E+02 -0.33084949312E+03  0.34219627502E+03  0.81258502134E+02 0.  0.
         24    2    1    2    0    0 -0.89398504608E+02  0.88714840755E+01 -0.34849265131E+03  0.36923322055E+03  0.82554511002E+02 0.  0.
         25    2    1    2    0    0  0.92893943679E+02 -0.37919464619E+02  0.54595942712E+03  0.56900186533E+03  0.12499702442E+03 0.  0.
        -11    1    4    4    0    0 -0.51794066418E+02  0.43560217770E+02 -0.23865393230E+03  0.24806413947E+03  0.00000000000E+00 0.  1.
         12    1    4    4    0    0 -0.37604438190E+02 -0.34688733695E+02 -0.10983871901E+03  0.12116908109E+03  0.00000000000E+00 0. -1.
        -13    1    3    3    0    0 -0.32079491423E+02 -0.20713177667E+02 -0.58997120105E+02  0.70276522963E+02  0.00000000000E+00 0.  1.
         14    1    3    3    0    0  0.53301430306E+01  0.28685221624E+01 -0.27185237302E+03  0.27191975206E+03  0.00000000000E+00 0. -1.
          5    1    5    5  501    0  0.23132463495E+02 -0.73244571149E+02  0.34116416472E+03  0.34973555061E+03  0.47000000000E+01 0. -1.
         -5    1    5    5    0  501  0.69761480184E+02  0.35325106530E+02  0.20479526240E+03  0.21926631472E+03  0.47000000000E+01 0. -1.
          1    1    1    2  502    0  0.30691497920E+01  0.98807912990E+02 -0.84382813219E+03  0.84959892892E+03  0.00000000000E+00 0. -1.
          1    1    1    2  503    0  0.20184759529E+02 -0.51915276942E+02  0.95510002342E+02  0.11056573178E+03  0.00000000000E+00 0. -1.
<mgrwt>
<rscale>  0 0.69746881E+02</rscale>
<asrwt>0</asrwt>
<pdfrwt beam="1">  1        2 0.99918764E-01 0.55701171E+02</pdfrwt>
<pdfrwt beam="2">  1        2 0.22958065E+00 0.87334383E+02</pdfrwt>
<totfact> 0.11263590E+02</totfact>
</mgrwt>
</event>
<event>
13    1  0.1942437E-008  0.2102013E+03  0.7546771E-02  0.1193320E+00
         -1   -1    0    0    0  501 -0.00000000000E+00  0.00000000000E+00  0.90221507935E+03  0.90221507935E+03  0.00000000000E+00 0.  1.
          2   -1    0    0  503    0  0.00000000000E+00 -0.00000000000E+00 -0.27488663228E+04  0.27488663228E+04  0.00000000000E+00 0. -1.
         24    2    1    2    0    0  0.52897814738E+01 -0.48867774861E+02  0.71664542295E+02  0.11872290857E+03  0.80890550679E+02 0.  0.
         24    2    1    2    0    0 -0.33066752630E+02  0.13083589841E+03  0.15376673084E+03  0.21933627469E+03  0.79074341220E+02 0.  0.
         25    2    1    2    0    0  0.24688093081E+03 -0.30999749395E+02 -0.70586962953E+03  0.75881120185E+03  0.12502530823E+03 0.  0.
        -11    1    3    3    0    0 -0.18521133770E+02  0.16454175632E+02  0.23466667148E+02  0.34124137482E+02  0.00000000000E+00 0.  1.
         12    1    3    3    0    0  0.23810915244E+02 -0.65321950492E+02  0.48197875147E+02  0.84598771088E+02  0.00000000000E+00 0. -1.
        -13    1    4    4    0    0 -0.79790364529E+01  0.11530738506E+03  0.15033684396E+03  0.18963286826E+03  0.00000000000E+00 0.  1.
         14    1    4    4    0    0 -0.25087716177E+02  0.15528513354E+02  0.34298868860E+01  0.29703406438E+02  0.00000000000E+00 0. -1.
          5    1    5    5  502    0  0.46552228146E+02  0.22173992538E+02 -0.28482399387E+03  0.28949195735E+03  0.47000000000E+01 0. -1.
         -5    1    5    5    0  502  0.20032870266E+03 -0.53173741933E+02 -0.42104563566E+03  0.46931924449E+03  0.47000000000E+01 0. -1.
          1    1    1    2  503    0 -0.10904360243E+03 -0.18011143944E+03 -0.19422879181E+04  0.19536665516E+04  0.00000000000E+00 0. -1.
         -2    1    1    2    0  501 -0.11006035722E+03  0.12914306528E+03  0.57607503109E+03  0.60054446545E+03  0.00000000000E+00 0.  1.
<mgrwt>
<rscale>  0 0.15597285E+03</rscale>
<asrwt>0</asrwt>
<pdfrwt beam="2">  1        2 0.40424505E+00 0.21020129E+03</pdfrwt>
<pdfrwt beam="1">  1       -1 0.13267869E+00 0.11573444E+03</pdfrwt>
<totfact> 0.22225555E+00</totfact>
</mgrwt>
</event>
<event>
13    1  0.1942437E-008  0.4406074E+02  0.7546771E-02  0.1593612E+00
          2   -1    0    0  502    0  0.00000000000E+00  0.00000000000E+00  0.15687684137E+03  0.15687684137E+03  0.00000000000E+00 0. -1.
          2   -1    0    0  503    0 -0.00000000000E+00 -0.00000000000E+00 -0.38655277451E+04  0.38655277451E+04  0.00000000000E+00 0. -1.
         24    2    1    2    0    0 -0.32644019523E+01  0.49060561072E+02 -0.12531123431E+04  0.12558227784E+04  0.66202049983E+02 0.  0.
         24    2    1    2    0    0  0.35689723509E+02  0.11234422092E+03 -0.19795560477E+03  0.24347153201E+03  0.78720931801E+02 0.  0.
         25    2    1    2    0    0  0.32724336027E+01 -0.17762009026E+03 -0.90079535795E+02  0.23515653301E+03  0.12499866784E+03 0.  0.
        -11    1    4    4    0    0  0.43496307644E+02  0.62533697964E+02 -0.61184380612E+02  0.97703227124E+02  0.00000000000E+00 0.  1.
         12    1    4    4    0    0 -0.78065841352E+01  0.49810522957E+02 -0.13677122415E+03  0.14576830489E+03  0.00000000000E+00 0. -1.
        -13    1    3    3    0    0  0.72953609255E+01 -0.14271876395E+02 -0.15271419643E+03  0.15355303494E+03  0.00000000000E+00 0.  1.
         14    1    3    3    0    0 -0.10559762878E+02  0.63332437467E+02 -0.11003981467E+04  0.11022697435E+04  0.00000000000E+00 0. -1.
          5    1    5    5  501    0 -0.45768493962E+02 -0.23135964015E+02 -0.42022866652E+01  0.51669885656E+02  0.47000000000E+01 0.  1.
         -5    1    5    5    0  501  0.49040927565E+02 -0.15448412625E+03 -0.85877249130E+02  0.18348664735E+03  0.47000000000E+01 0.  1.
          1    1    1    2  502    0  0.82775442880E+01  0.19285639318E+02  0.58171893770E+02  0.61841918212E+02  0.00000000000E+00 0. -1.
          1    1    1    2  503    0 -0.43975299447E+02 -0.30703310482E+01 -0.22256753138E+04  0.22261118248E+04  0.00000000000E+00 0. -1.
<mgrwt>
<rscale>  0 0.30408917E+02</rscale>
<asrwt>0</asrwt>
<pdfrwt beam="1">  1        2 0.23070125E-01 0.20986987E+02</pdfrwt>
<pdfrwt beam="2">  1        2 0.56845994E+00 0.44060743E+02</pdfrwt>
<totfact> 0.35680949E+01</totfact>
</mgrwt>
</event>
<event>
13    1  0.1942437E-008  0.2161233E+03  0.7546771E-02  0.1362869E+00
          2   -1    0    0  502    0  0.00000000000E+00  0.00000000000E+00  0.34130290932E+04  0.34130290932E+04  0.00000000000E+00 0. -1.
          2   -1    0    0  503    0 -0.00000000000E+00 -0.00000000000E+00 -0.25740173069E+04  0.25740173069E+04  0.00000000000E+00 0. -1.
         24    2    1    2    0    0 -0.28342938494E+03 -0.70759172619E+02 -0.70535030459E+03  0.76770704158E+03  0.80721575438E+02 0.  0.
         24    2    1    2    0    0  0.20363822240E+03 -0.55407387851E+02 -0.57219036577E+03  0.61504556616E+03  0.79628697869E+02 0.  0.
         25    2    1    2    0    0 -0.12575241654E+03  0.74070818941E+02  0.18795226385E+04  0.18893199896E+04  0.12499807107E+03 0.  0.
        -13    1    3    3    0    0 -0.26237524951E+03 -0.62893874789E+02 -0.57156066933E+03  0.63204272780E+03  0.00000000000E+00 0.  1.
         14    1    3    3    0    0 -0.21054135431E+02 -0.78652978303E+01 -0.13378963526E+03  0.13566431378E+03  0.00000000000E+00 0. -1.
        -13    1    4    4    0    0  0.63739602985E+02 -0.48554131326E+02 -0.14756723763E+03  0.16791762945E+03  0.00000000000E+00 0.  1.
         14    1    4    4    0    0  0.13989861941E+03 -0.68532565255E+01 -0.42462312813E+03  0.44712793671E+03  0.00000000000E+00 0. -1.
          5    1    5    5  501    0 -0.14800795296E+00 -0.27966653669E+02  0.38852430862E+03  0.38955793409E+03  0.47000000000E+01 0. -1.
         -5    1    5    5    0  501 -0.12560440859E+03  0.10203747261E+03  0.14909983299E+04  0.14997620555E+04  0.47000000000E+01 0. -1.
          1    1    1    2  502    0  0.11159629004E+02  0.19134104607E+02  0.14680742162E+04  0.14682413138E+04  0.00000000000E+00 0. -1.
          1    1    1    2  503    0  0.19438395008E+03  0.32961636923E+02 -0.12310443979E+04  0.12467324891E+04  0.00000000000E+00 0. -1.
<mgrwt>
<rscale>  0 0.69190110E+02</rscale>
<asrwt>0</asrwt>
<pdfrwt beam="1">  1        2 0.50191605E+00 0.22150650E+02</pdfrwt>
<pdfrwt beam="2">  1        2 0.37853195E+00 0.21612329E+03</pdfrwt>
<totfact> 0.15563115E+00</totfact>
</mgrwt>
</event>
<event>
13    1  0.1942437E-008  0.1141485E+03  0.7546771E-02  0.1298468E+00
          2   -1    0    0  502    0  0.00000000000E+00  0.00000000000E+00  0.98920156341E+03  0.98920156341E+03  0.00000000000E+00 0. -1.
          2   -1    0    0  503    0 -0.00000000000E+00 -0.00000000000E+00 -0.37598255495E+03  0.37598255495E+03  0.00000000000E+00 0. -1.
         24    2    1    2    0    0  0.72408694735E+01  0.51598519007E+02 -0.51032501616E+02  0.10867362779E+03  0.80565524889E+02 0.  0.
         24    2    1    2    0    0 -0.10041810574E+03 -0.48886604365E+02  0.59857314718E+00  0.13729982978E+03  0.79857303488E+02 0.  0.
         25    2    1    2    0    0 -0.10167387227E+01  0.36485583396E+02  0.72553317412E+02  0.14906733663E+03  0.12499942172E+03 0.  0.
        -13    1    4    4    0    0 -0.75138257112E+02 -0.38796586035E+02  0.36619265689E+02  0.92151524076E+02  0.00000000000E+00 0.  1.
         14    1    4    4    0    0 -0.25279848625E+02 -0.10090018330E+02 -0.36020692542E+02  0.45148305700E+02  0.00000000000E+00 0. -1.
        -13    1    3    3    0    0 -0.34142456157E+02  0.23838959883E+02 -0.39777590638E+02  0.57586978022E+02  0.00000000000E+00 0.  1.
         14    1    3    3    0    0  0.41383325631E+02  0.27759559124E+02 -0.11254910977E+02  0.51086649764E+02  0.00000000000E+00 0. -1.
          5    1    5    5  501    0 -0.21522681950E+02 -0.31921011095E+02 -0.97574882005E+01  0.39993441508E+02  0.47000000000E+01 0. -1.
         -5    1    5    5    0  501  0.20505943227E+02  0.68406594490E+02  0.82310805612E+02  0.10907389513E+03  0.47000000000E+01 0. -1.
          1    1    1    2  502    0  0.54236631847E+02 -0.10134378509E+03  0.76898313557E+03  0.77752635827E+03  0.00000000000E+00 0. -1.
          1    1    1    2  503    0  0.39957343139E+02  0.62146287051E+02 -0.17788351606E+03  0.19261696590E+03  0.00000000000E+00 0. -1.
<mgrwt>
<rscale>  0 0.91835036E+02</rscale>
<asrwt>0</asrwt>
<pdfrwt beam="1">  1        2 0.14547082E+00 0.11414850E+03</pdfrwt>
<pdfrwt beam="2">  1        2 0.55291553E-01 0.73883356E+02</pdfrwt>
<totfact> 0.41322396E+02</totfact>
</mgrwt>
</event>
<event>
13    1  0.1942437E-008  0.1183701E+03  0.7546771E-02  0.1432709E+00
          2   -1    0    0  502    0  0.00000000000E+00  0.00000000000E+00  0.38929219655E+04  0.38929219655E+04  0.00000000000E+00 0. -1.
          2   -1    0    0  503    0 -0.00000000000E+00 -0.00000000000E+00 -0.17059122790E+04  0.17059122790E+04  0.00000000000E+00 0. -1.
         24    2    1    2    0    0 -0.34732664240E+01  0.11028767713E+02 -0.64548982453E+02  0.10461451064E+03  0.81510290175E+02 0.  0.
         24    2    1    2    0    0 -0.30055341493E+03  0.18923974656E+03 -0.56231957697E+02  0.36857254155E+03  0.80868092675E+02 0.  0.
         25    2    1    2    0    0  0.12113330959E+03 -0.13494330024E+03  0.92728390753E+03  0.95307576658E+03  0.12495998843E+03 0.  0.
        -13    1    4    4    0    0 -0.10833085323E+03  0.10309869047E+03  0.36204416867E+01  0.14959285189E+03  0.00000000000E+00 0.  1.
         14    1    4    4    0    0 -0.19222256171E+03  0.86141056089E+02 -0.59852399384E+02  0.21897968966E+03  0.00000000000E+00 0. -1.
        -13    1    3    3    0    0 -0.36586695677E+02  0.31209105981E+01 -0.64588775405E+01  0.37283286907E+02  0.00000000000E+00 0.  1.
         14    1    3    3    0    0  0.33113429253E+02  0.79078571149E+01 -0.58090104913E+02  0.67331223736E+02  0.00000000000E+00 0. -1.
          5    1    5    5  501    0  0.43034966820E+02  0.14853704384E+02  0.12326330705E+03  0.13148602119E+03  0.47000000000E+01 0.  1.
         -5    1    5    5    0  501  0.78098342766E+02 -0.14979700463E+03  0.80402060048E+03  0.82158974540E+03  0.47000000000E+01 0.  1.
          1    1    1    2  502    0  0.14121746502E+02 -0.18424832903E+02  0.27709954923E+04  0.27710927297E+04  0.00000000000E+00 0. -1.
          1    1    1    2  503    0  0.16877162527E+03 -0.46900381129E+02 -0.13904887731E+04  0.14014786960E+04  0.00000000000E+00 0. -1.
<mgrwt>
<rscale>  0 0.52420089E+02</rscale>
<asrwt>0</asrwt>
<pdfrwt beam="1">  1        2 0.57248853E+00 0.23214181E+02</pdfrwt>
<pdfrwt beam="2">  1        2 0.25086945E+00 0.11837013E+03</pdfrwt>
<totfact> 0.23495224E+00</totfact>
</mgrwt>
</event>
<event>
13    1  0.1942437E-008  0.2322959E+03  0.7546771E-02  0.1250921E+00
          2   -1    0    0  502    0  0.00000000000E+00  0.00000000000E+00  0.36164455580E+04  0.36164455580E+04  0.00000000000E+00 0. -1.
          2   -1    0    0  503    0 -0.00000000000E+00 -0.00000000000E+00 -0.23430476256E+04  0.23430476256E+04  0.00000000000E+00 0. -1.
         24    2    1    2    0    0  0.90103695051E+02 -0.10326883987E+03  0.63682488084E+02  0.17118119131E+03  0.80401566025E+02 0.  0.
         24    2    1    2    0    0 -0.13147255535E+02 -0.65057856916E+02  0.16446281633E+03  0.19501086275E+03  0.81091575148E+02 0.  0.
         25    2    1    2    0    0  0.57487500911E+02  0.27767267954E+02  0.20753435213E+04  0.20800845062E+04  0.12499995048E+03 0.  0.
        -11    1    3    3    0    0 -0.36712423269E+01 -0.33400153930E+02  0.39332950613E+02  0.51731318432E+02  0.00000000000E+00 0.  1.
         12    1    3    3    0    0  0.93774937378E+02 -0.69868685939E+02  0.24349537471E+02  0.11944987288E+03  0.00000000000E+00 0. -1.
        -13    1    4    4    0    0 -0.28011788696E+02 -0.68594982234E+02  0.16372863271E+03  0.17971365296E+03  0.00000000000E+00 0.  1.
         14    1    4    4    0    0  0.14864533161E+02  0.35371253180E+01  0.73418362364E+00  0.15297209785E+02  0.00000000000E+00 0. -1.
          5    1    5    5  501    0 -0.39198410912E+02  0.56683759811E+01  0.48000332232E+03  0.48165747720E+03  0.47000000000E+01 0.  1.
         -5    1    5    5    0  501  0.96685911823E+02  0.22098891973E+02  0.15953401990E+04  0.15984270290E+04  0.47000000000E+01 0.  1.
          1    1    1    2  502    0 -0.31577939352E+01 -0.57220672303E+02  0.12346946686E+04  0.12360239082E+04  0.00000000000E+00 0. -1.
          1    1    1    2  503    0 -0.13128614649E+03  0.19778010113E+03 -0.22647855619E+04  0.22771927152E+04  0.00000000000E+00 0. -1.
<mgrwt>
<rscale>  0 0.11537916E+03</rscale>
<asrwt>0</asrwt>
<pdfrwt beam="1">  1        2 0.53183024E+00 0.57307739E+02</pdfrwt>
<pdfrwt beam="2">  1        2 0.34456582E+00 0.23229586E+03</pdfrwt>
<totfact> 0.12731542E+00</totfact>
</mgrwt>
</event>
<event>
13    1  0.1942437E-008  0.1909706E+03  0.7546771E-02  0.1209238E+00
          2   -1    0    0  502    0  0.00000000000E+00  0.00000000000E+00  0.26899073127E+04  0.26899073127E+04  0.00000000000E+00 0. -1.
          2   -1    0    0  503    0 -0.00000000000E+00 -0.00000000000E+00 -0.15766679450E+04  0.15766679450E+04  0.00000000000E+00 0. -1.
         24    2    1    2    0    0  0.12674522962E+03  0.16895322065E+02 -0.46728317343E+02  0.15769934346E+03  0.79597375244E+02 0.  0.
         24    2    1    2    0    0 -0.11366670403E+03  0.43308628834E+02 -0.17553153914E+01  0.14623387517E+03  0.81151144049E+02 0.  0.
         25    2    1    2    0    0 -0.11300251258E+03  0.21173632177E+03  0.74149780429E+03  0.78933312103E+03  0.12500377746E+03 0.  0.
        -13    1    4    4    0    0 -0.15814402768E+02  0.44142333190E+02  0.91438832637E+01  0.47772916129E+02  0.00000000000E+00 0.  1.
         14    1    4    4    0    0 -0.97852301259E+02 -0.83370435633E+00 -0.10899198655E+02  0.98460959045E+02  0.00000000000E+00 0. -1.
        -13    1    3    3    0    0 -0.55336326997E+01  0.91320884236E+01  0.89865267428E+01  0.13956138174E+02  0.00000000000E+00 0.  1.
         14    1    3    3    0    0  0.13227886232E+03  0.77632336409E+01 -0.55714844086E+02  0.14374320528E+03  0.00000000000E+00 0. -1.
          5    1    5    5  501    0 -0.10694029586E+03  0.81584583185E+02  0.45654052126E+03  0.47596597425E+03  0.47000000000E+01 0.  1.
         -5    1    5    5    0  501 -0.60622167218E+01  0.13015173858E+03  0.28495728303E+03  0.31336714678E+03  0.47000000000E+01 0.  1.
          1    1    1    2  502    0  0.97775790904E+02 -0.43965291122E+02  0.17857086189E+04  0.17889237892E+04  0.00000000000E+00 0. -1.
          1    1    1    2  503    0  0.21481960807E+01 -0.22797498155E+03 -0.13654834227E+04  0.13843851288E+04  0.00000000000E+00 0. -1.
<mgrwt>
<rscale>  0 0.14308432E+03</rscale>
<asrwt>0</asrwt>
<pdfrwt beam="1">  1        2 0.39557460E+00 0.10720565E+03</pdfrwt>
<pdfrwt beam="2">  1        2 0.23186293E+00 0.19097056E+03</pdfrwt>
<totfact> 0.90282854E+00</totfact>
</mgrwt>
</event>
<event>
13    1  0.1942437E-008  0.8835693E+02  0.7546771E-02  0.1335768E+00
          2   -1    0    0  503    0  0.00000000000E+00  0.00000000000E+00  0.15737191621E+04  0.15737191621E+04  0.00000000000E+00 0. -1.
          2   -1    0    0  502    0 -0.00000000000E+00 -0.00000000000E+00 -0.19463073272E+04  0.19463073272E+04  0.00000000000E+00 0. -1.
         24    2    1    2    0    0 -0.34305582739E+01 -0.87427631819E+02 -0.99933023055E+03  0.10065026264E+04  0.82044302878E+02 0.  0.
         24    2    1    2    0    0 -0.88847935427E+02  0.75867213307E+02 -0.30914464401E+03  0.34029529891E+03  0.81121451234E+02 0.  0.
         25    2    1    2    0    0  0.70242521851E+02 -0.30455865116E+02  0.98643339481E+03  0.99726518877E+03  0.12500177101E+03 0.  0.
        -11    1    3    3    0    0 -0.28181454151E+02 -0.52980513669E+02 -0.30321131675E+03  0.30909259420E+03  0.00000000000E+00 0.  1.
         12    1    3    3    0    0  0.24750895877E+02 -0.34447118150E+02 -0.69611891380E+03  0.69741003215E+03  0.00000000000E+00 0. -1.
        -11    1    4    4    0    0  0.13776187442E+02  0.68404656847E+01 -0.62679810063E+02  0.64539398051E+02  0.00000000000E+00 0.  1.
         12    1    4    4    0    0 -0.10262412287E+03  0.69026747622E+02 -0.24646483395E+03  0.27575590085E+03  0.00000000000E+00 0. -1.
          5    1    5    5  501    0  0.45592941695E+02 -0.61003601870E+02  0.29519532336E+03  0.30489756428E+03  0.47000000000E+01 0.  1.
         -5    1    5    5    0  501  0.24649580157E+02  0.30547736754E+02  0.69123807145E+03  0.69236762449E+03  0.47000000000E+01 0.  1.
          1    1    1    2  502    0  0.55371302129E+02 -0.39974228162E+02 -0.60785062683E+03  0.61167499912E+03  0.00000000000E+00 0. -1.
          1    1    1    2  503    0 -0.33335330279E+02  0.81990511791E+02  0.55730394145E+03  0.56428837612E+03  0.00000000000E+00 0. -1.
<mgrwt>
<rscale>  0 0.77679797E+02</rscale>
<asrwt>0</asrwt>
<pdfrwt beam="1">  1        2 0.23142929E+00 0.88356929E+02</pdfrwt>
<pdfrwt beam="2">  1        2 0.28622166E+00 0.68292899E+02</pdfrwt>
<totfact> 0.23441459E+01</totfact>
</mgrwt>
</event>
<event>
13    1  0.1942437E-008  0.1404250E+03  0.7546771E-02  0.1319722E+00
          2   -1    0    0  502    0  0.00000000000E+00  0.00000000000E+00  0.73545326632E+03  0.73545326632E+03  0.00000000000E+00 0. -1.
          2   -1    0    0  503    0 -0.00000000000E+00 -0.00000000000E+00 -0.12480242187E+04  0.12480242187E+04  0.00000000000E+00 0. -1.
         24    2    1    2    0    0 -0.81071455198E+02  0.84495029895E+02  0.64087408689E+02  0.15610436761E+03  0.80928281276E+02 0.  0.
         24    2    1    2    0    0  0.62939030159E+01 -0.40394390998E+02  0.71076282261E+02  0.11417332053E+03  0.79450545515E+02 0.  0.
         25    2    1    2    0    0  0.89449744312E+01  0.73531882215E+02  0.16477377890E+03  0.21971260824E+03  0.12504511881E+03 0.  0.
        -11    1    3    3    0    0  0.15026025847E+02  0.24911908417E+02  0.16327252463E+02  0.33361112192E+02  0.00000000000E+00 0.  1.
         12    1    3    3    0    0 -0.96097481045E+02  0.59583121478E+02  0.47760156226E+02  0.12274325542E+03  0.00000000000E+00 0. -1.
        -13    1    4    4    0    0 -0.24308092888E+02 -0.50621308333E+02  0.37021451461E+02  0.67260598462E+02  0.00000000000E+00 0.  1.
         14    1    4    4    0    0  0.30601995904E+02  0.10226917335E+02  0.34054830800E+02  0.46912722073E+02  0.00000000000E+00 0. -1.
          5    1    5    5  501    0 -0.34300091974E+02  0.23734980119E+02 -0.20613556845E+00  0.41975922653E+02  0.47000000000E+01 0.  1.
         -5    1    5    5    0  501  0.43245066405E+02  0.49796902095E+02  0.16497991447E+03  0.17773668559E+03  0.47000000000E+01 0.  1.
          1    1    1    2  502    0 -0.41999695357E+02 -0.26215011375E+02  0.33432625975E+03  0.33797226098E+03  0.00000000000E+00 0. -1.
          1    1    1    2  503    0  0.10783227311E+03 -0.91417509736E+02 -0.11468346820E+04  0.11555149277E+04  0.00000000000E+00 0. -1.
<mgrwt>
<rscale>  0 0.83380963E+02</rscale>
<asrwt>0</asrwt>
<pdfrwt beam="1">  1        2 0.10815489E+00 0.49509607E+02</pdfrwt>
<pdfrwt beam="2">  1        2 0.18353297E+00 0.14042497E+03</pdfrwt>
<totfact> 0.14404122E+02</totfact>
</mgrwt>
</event>
<event>
13    1  0.1942437E-008  0.1016765E+03  0.7546771E-02  0.1369520E+00
          2   -1    0    0  503    0  0.00000000000E+00  0.00000000000E+00  0.19338336495E+04  0.19338336495E+04  0.00000000000E+00 0. -1.
          2   -1    0    0  502    0 -0.00000000000E+00 -0.00000000000E+00 -0.99349500473E+03  0.99349500473E+03  0.00000000000E+00 0. -1.
         24    2    1    2    0    0  0.95612732408E+01 -0.89472849277E+02 -0.14168716960E+03  0.18998087351E+03  0.88998143621E+02 0.  0.
         24    2    1    2    0    0  0.15518355191E+03 -0.16248249544E+02 -0.62724255685E+02  0.18687135714E+03  0.81490069764E+02 0.  0.
         25    2    1    2    0    0 -0.11373398327E+03  0.32183415893E+02  0.84187773354E+03  0.85927526324E+03  0.12499867429E+03 0.  0.
        -11    1    3    3    0    0 -0.39423270997E+02 -0.31372770688E+02 -0.61530074235E+02  0.79526065363E+02  0.00000000000E+00 0.  1.
         12    1    3    3    0    0  0.48984544238E+02 -0.58100078589E+02 -0.80157095361E+02  0.11045480815E+03  0.00000000000E+00 0. -1.
        -11    1    4    4    0    0  0.63603378883E+01  0.16514368758E+02  0.73281356620E+01  0.19154107805E+02  0.00000000000E+00 0.  1.
         12    1    4    4    0    0  0.14882321402E+03 -0.32762618302E+02 -0.70052391348E+02  0.16771724933E+03  0.00000000000E+00 0. -1.
          5    1    5    5  501    0 -0.94552293349E+02  0.61197745118E+01  0.26495341021E+03  0.28142492320E+03  0.47000000000E+01 0.  1.
         -5    1    5    5    0  501 -0.19181689924E+02  0.26063641381E+02  0.57692432333E+03  0.57785034004E+03  0.47000000000E+01 0.  1.
          1    1    1    2  502    0 -0.15594514523E+02  0.10055877101E+03 -0.68993287297E+03  0.69739703506E+03  0.00000000000E+00 0. -1.
          1    1    1    2  503    0 -0.35416327357E+02 -0.27021088085E+02  0.99280520947E+03  0.99380412526E+03  0.00000000000E+00 0. -1.
<mgrwt>
<rscale>  0 0.67300855E+02</rscale>
<asrwt>0</asrwt>
<pdfrwt beam="1">  1        2 0.28438730E+00 0.44547227E+02</pdfrwt>
<pdfrwt beam="2">  1        2 0.14610221E+00 0.10167648E+03</pdfrwt>
<totfact> 0.49486415E+01</totfact>
</mgrwt>
</event>
<event>
13    1  0.1942437E-008  0.3789324E+02  0.7546771E-02  0.1540068E+00
          2   -1    0    0  502    0  0.00000000000E+00  0.00000000000E+00  0.14602171855E+04  0.14602171855E+04  0.00000000000E+00 0. -1.
          4   -1    0    0  503    0 -0.00000000000E+00 -0.00000000000E+00 -0.29188880468E+03  0.29188880468E+03  0.00000000000E+00 0. -1.
         24    2    1    2    0    0  0.14241957687E+03  0.19511791855E+02 -0.13227069326E+03  0.21093972130E+03  0.79598893399E+02 0.  0.
         24    2    1    2    0    0 -0.46978231261E+02 -0.81274002702E+02  0.36963293135E+02  0.12775338113E+03  0.78372339661E+02 0.  0.
         25    2    1    2    0    0 -0.10068815930E+03  0.56580542091E+02  0.10415284120E+04  0.10553409620E+04  0.12499459993E+03 0.  0.
        -11    1    3    3    0    0  0.33525847768E+02  0.33143200601E+02 -0.13086130290E+02  0.48925463928E+02  0.00000000000E+00 0.  1.
         12    1    3    3    0    0  0.10889372910E+03 -0.13631408746E+02 -0.11918456297E+03  0.16201425738E+03  0.00000000000E+00 0. -1.
        -13    1    4    4    0    0 -0.44771669433E+02 -0.63726743942E+02 -0.90998987575E+01  0.78411787600E+02  0.00000000000E+00 0.  1.
         14    1    4    4    0    0 -0.22065618276E+01 -0.17547258760E+02  0.46063191892E+02  0.49341593533E+02  0.00000000000E+00 0. -1.
          5    1    5    5  501    0 -0.34271966230E+02  0.78658376498E+02  0.35559292732E+03  0.36582800306E+03  0.47000000000E+01 0.  1.
         -5    1    5    5    0  501 -0.66416193073E+02 -0.22077834407E+02  0.68593548463E+03  0.68951295894E+03  0.47000000000E+01 0.  1.
          1    1    1    2  502    0  0.10541292342E+02 -0.32496095957E+02  0.28365962562E+03  0.28570946485E+03  0.00000000000E+00 0. -1.
          3    1    1    2  503    0 -0.52944786508E+01  0.37677764713E+02 -0.61552256601E+02  0.72362460922E+02  0.00000000000E+00 0. -1.
<mgrwt>
<rscale>  0 0.35979844E+02</rscale>
<asrwt>0</asrwt>
<pdfrwt beam="1">  1        2 0.21473782E+00 0.34163066E+02</pdfrwt>
<pdfrwt beam="2">  1        4 0.42924825E-01 0.37893238E+02</pdfrwt>
<totfact> 0.43491846E+01</totfact>
</mgrwt>
</event>
<event>
13    1  0.1942437E-008  0.3046960E+02  0.7546771E-02  0.1602952E+00
         -1   -1    0    0    0  501 -0.00000000000E+00  0.00000000000E+00  0.82091811148E+03  0.82091811148E+03  0.00000000000E+00 0.  1.
          2   -1    0    0  503    0  0.00000000000E+00 -0.00000000000E+00 -0.14468134457E+04  0.14468134457E+04  0.00000000000E+00 0. -1.
         24    2    1    2    0    0  0.20645345052E+02 -0.83981874796E+02  0.51613296060E+03  0.52938107130E+03  0.79824182184E+02 0.  0.
         24    2    1    2    0    0 -0.51957235026E+02  0.40858758846E+02  0.76212240306E+02  0.12988414985E+03  0.81808278091E+02 0.  0.
         25    2    1    2    0    0  0.37330281682E+02  0.67668057488E+02 -0.73501292849E+03  0.74955489497E+03  0.12496407324E+03 0.  0.
        -11    1    4    4    0    0 -0.59188720054E+02  0.20773789799E+02  0.14220857032E+02  0.64320196664E+02  0.00000000000E+00 0.  1.
         12    1    4    4    0    0  0.72314850274E+01  0.20084969048E+02  0.61991383274E+02  0.65563953188E+02  0.00000000000E+00 0. -1.
        -11    1    3    3    0    0  0.21094948789E+01 -0.92147445746E+02  0.47067210578E+03  0.47961216924E+03  0.00000000000E+00 0.  1.
         12    1    3    3    0    0  0.18535850173E+02  0.81655709496E+01  0.45460854822E+02  0.49768902054E+02  0.00000000000E+00 0. -1.
          5    1    5    5  502    0 -0.22452480911E+02  0.18319892813E+02 -0.36984186275E+02  0.47219195315E+02  0.47000000000E+01 0.  1.
         -5    1    5    5    0  502  0.59782762593E+02  0.49348164675E+02 -0.69802874221E+03  0.70233569966E+03  0.47000000000E+01 0.  1.
          1    1    1    2  503    0 -0.29422581217E+02 -0.79572170306E+01 -0.66962562634E+03  0.67031894277E+03  0.00000000000E+00 0. -1.
         -2    1    1    2    0  501  0.23404189509E+02 -0.16587724508E+02  0.18639801966E+03  0.18859249832E+03  0.00000000000E+00 0.  1.
<mgrwt>
<rscale>  0 0.29564552E+02</rscale>
<asrwt>0</asrwt>
<pdfrwt beam="2">  1        2 0.21276668E+00 0.30469601E+02</pdfrwt>
<pdfrwt beam="1">  1       -1 0.12072325E+00 0.28686385E+02</pdfrwt>
<totfact> 0.15839998E+01</totfact>
</mgrwt>
</event>
<event>
13    1  0.1942437E-008  0.2077238E+03  0.7546771E-02  0.1288197E+00
          2   -1    0    0  503    0  0.00000000000E+00  0.00000000000E+00  0.23025690268E+04  0.23025690268E+04  0.00000000000E+00 0. -1.
          2   -1    0    0  502    0 -0.00000000000E+00 -0.00000000000E+00 -0.58626237991E+03  0.58626237991E+03  0.00000000000E+00 0. -1.
         24    2    1    2    0    0 -0.13741004246E+02  0.11357590204E+03 -0.37473443913E+02  0.14408838879E+03  0.79176411027E+02 0.  0.
         24    2    1    2    0    0  0.34501294754E+02  0.15155241451E+02  0.13667484362E+03  0.16293449705E+03  0.80297053295E+02 0.  0.
         25    2    1    2    0    0  0.16583058474E+03 -0.26292389260E+02  0.55364850689E+03  0.59189615050E+03  0.12499324475E+03 0.  0.
        -11    1    3    3    0    0  0.22661581185E+02  0.71818609880E+01  0.42475969850E+01  0.24148881324E+02  0.00000000000E+00 0.  1.
         12    1    3    3    0    0 -0.36402585430E+02  0.10639404105E+03 -0.41721040898E+02  0.11993950746E+03  0.00000000000E+00 0. -1.
        -13    1    4    4    0    0  0.53650503151E+02  0.31789729391E+02  0.10746418561E+03  0.12424779504E+03  0.00000000000E+00 0.  1.
         14    1    4    4    0    0 -0.19149208397E+02 -0.16634487940E+02  0.29210658008E+02  0.38686702011E+02  0.00000000000E+00 0. -1.
          5    1    5    5  501    0  0.26795588426E+02 -0.45808099268E+02  0.27188638284E+03  0.27705717947E+03  0.47000000000E+01 0.  1.
         -5    1    5    5    0  501  0.13903499632E+03  0.19515710008E+02  0.28176212404E+03  0.31483897104E+03  0.47000000000E+01 0.  1.
          1    1    1    2  502    0  0.15096414917E+02  0.42048965640E+02 -0.45203956520E+03  0.45424199031E+03  0.00000000000E+00 0. -1.
          1    1    1    2  503    0 -0.20168729017E+03 -0.14448771987E+03  0.15154963055E+04  0.15356703800E+04  0.00000000000E+00 0. -1.
<mgrwt>
<rscale>  0 0.96335032E+02</rscale>
<asrwt>0</asrwt>
<pdfrwt beam="1">  1        2 0.33861309E+00 0.20772384E+03</pdfrwt>
<pdfrwt beam="2">  1        2 0.86215057E-01 0.44676809E+02</pdfrwt>
<totfact> 0.52917522E+01</totfact>
</mgrwt>
</event>
<event>
13    1  0.1942437E-008  0.7473539E+02  0.7546771E-02  0.1371318E+00
          2   -1    0    0  502    0  0.00000000000E+00  0.00000000000E+00  0.14672743874E+04  0.14672743874E+04  0.00000000000E+00 0. -1.
          2   -1    0    0  503    0 -0.00000000000E+00 -0.00000000000E+00 -0.64817449664E+03  0.64817449664E+03  0.00000000000E+00 0. -1.
         24    2    1    2    0    0 -0.16408686624E+01 -0.16452696779E+02 -0.16807782728E+03  0.18794351418E+03  0.82457412152E+02 0.  0.
         24    2    1    2    0    0  0.11239963508E+02  0.50407624891E+02 -0.13826276973E+03  0.16627477255E+03  0.76573109285E+02 0.  0.
         25    2    1    2    0    0 -0.81257340472E+02 -0.12496768828E+03  0.96630619859E+02  0.21721254941E+03  0.12499654567E+03 0.  0.
        -11    1    3    3    0    0  0.20668166384E+02 -0.40006013083E+02 -0.13178022542E+03  0.13926120061E+03  0.00000000000E+00 0.  1.
         12    1    3    3    0    0 -0.22309035047E+02  0.23553316304E+02 -0.36297601860E+02  0.48682313569E+02  0.00000000000E+00 0. -1.
        -11    1    4    4    0    0 -0.19076568865E+02 -0.55773611583E+01 -0.70701299696E+02  0.73441787940E+02  0.00000000000E+00 0.  1.
         12    1    4    4    0    0  0.30316532372E+02  0.55984986049E+02 -0.67561470036E+02  0.92832984609E+02  0.00000000000E+00 0. -1.
          5    1    5    5  501    0  0.37171039047E+01 -0.95152508932E+02  0.82211005765E+02  0.12589104927E+03  0.47000000000E+01 0.  1.
         -5    1    5    5    0  501 -0.84974444377E+02 -0.29815179353E+02  0.14419614094E+02  0.91321500139E+02  0.47000000000E+01 0.  1.
          1    1    1    2  502    0  0.67716504363E+02  0.31431833267E+02  0.12818530521E+04  0.12840252071E+04  0.00000000000E+00 0. -1.
          1    1    1    2  503    0  0.39417412641E+01  0.59580926907E+02 -0.25304318426E+03  0.25999284081E+03  0.00000000000E+00 0. -1.
<mgrwt>
<rscale>  0 0.66802231E+02</rscale>
<asrwt>0</asrwt>
<pdfrwt beam="1">  1        2 0.21577564E+00 0.74735395E+02</pdfrwt>
<pdfrwt beam="2">  1        2 0.95319779E-01 0.59711173E+02</pdfrwt>
<totfact> 0.13333840E+02</totfact>
</mgrwt>
</event>
<event>
13    1  0.1942437E-008  0.1166289E+03  0.7546771E-02  0.1295518E+00
          2   -1    0    0  502    0  0.00000000000E+00  0.00000000000E+00  0.91018811740E+03  0.91018811740E+03  0.00000000000E+00 0. -1.
          2   -1    0    0  503    0 -0.00000000000E+00 -0.00000000000E+00 -0.39394835563E+04  0.39394835563E+04  0.00000000000E+00 0. -1.
         24    2    1    2    0    0 -0.44557450232E+01 -0.81429530383E+02 -0.84196271667E+03  0.84967918073E+03  0.80017946941E+02 0.  0.
         24    2    1    2    0    0  0.35398046631E+02  0.17185090294E+03 -0.38732064788E+03  0.43251308368E+03  0.79148775959E+02 0.  0.
         25    2    1    2    0    0 -0.25250941687E+02  0.39417399313E+02  0.11314532673E+03  0.17498109006E+03  0.12500070197E+03 0.  0.
        -13    1    4    4    0    0  0.36243531434E+02  0.17091609404E+03 -0.39119526425E+03  0.42843860650E+03  0.00000000000E+00 0.  1.
         14    1    4    4    0    0 -0.84548480299E+00  0.93480889978E+00  0.38746163713E+01  0.40744771758E+01  0.00000000000E+00 0. -1.
        -13    1    3    3    0    0 -0.17617174817E+02  0.16123313092E+01 -0.45940953335E+02  0.49229418584E+02  0.00000000000E+00 0.  1.
         14    1    3    3    0    0  0.13161429793E+02 -0.83041861692E+02 -0.79602176333E+03  0.80044976215E+03  0.00000000000E+00 0. -1.
          5    1    5    5  501    0 -0.25997088679E+02  0.43055748365E+02 -0.10163360051E+02  0.51526982976E+02  0.47000000000E+01 0.  1.
         -5    1    5    5    0  501  0.74614699193E+00 -0.36383490520E+01  0.12330868678E+03  0.12345410708E+03  0.47000000000E+01 0.  1.
          1    1    1    2  502    0 -0.70293970329E+02 -0.93107379116E+02  0.73454575839E+03  0.74375244368E+03  0.00000000000E+00 0. -1.
          1    1    1    2  503    0  0.64602610409E+02 -0.36731392756E+02 -0.26477031595E+04  0.26487458755E+04  0.00000000000E+00 0. -1.
<mgrwt>
<rscale>  0 0.93098101E+02</rscale>
<asrwt>0</asrwt>
<pdfrwt beam="1">  1        2 0.13385119E+00 0.11662891E+03</pdfrwt>
<pdfrwt beam="2">  1        2 0.57933581E+00 0.74314820E+02</pdfrwt>
<totfact> 0.44230339E+00</totfact>
</mgrwt>
</event>
<event>
13    1  0.1942437E-008  0.8577129E+02  0.7546771E-02  0.1417913E+00
          2   -1    0    0  503    0  0.00000000000E+00  0.00000000000E+00  0.26800159079E+04  0.26800159079E+04  0.00000000000E+00 0. -1.
          2   -1    0    0  502    0 -0.00000000000E+00 -0.00000000000E+00 -0.25856055017E+04  0.25856055017E+04  0.00000000000E+00 0. -1.
         24    2    1    2    0    0 -0.48839788396E+02 -0.45365789257E+02 -0.40562902723E+03  0.41991498576E+03  0.85733935945E+02 0.  0.
         24    2    1    2    0    0  0.97968975395E+02  0.23263861419E+02 -0.42091470254E+03  0.44013739228E+03  0.80078772969E+02 0.  0.
         25    2    1    2    0    0 -0.12978514671E+03 -0.68648920746E+02  0.59987623383E+03  0.63010590706E+03  0.12500039831E+03 0.  0.
        -11    1    4    4    0    0  0.25537809318E+02 -0.24061468269E+02 -0.65093100228E+02  0.73947587231E+02  0.00000000000E+00 0.  1.
         12    1    4    4    0    0  0.72431166076E+02  0.47325329689E+02 -0.35582160231E+03  0.36618980505E+03  0.00000000000E+00 0. -1.
        -13    1    3    3    0    0 -0.15022234642E+02 -0.55547740400E+01 -0.63429234826E+01  0.17226599391E+02  0.00000000000E+00 0.  1.
         14    1    3    3    0    0 -0.33817553754E+02 -0.39811015217E+02 -0.39928610374E+03  0.40268838637E+03  0.00000000000E+00 0. -1.
          5    1    5    5  501    0 -0.13895292185E+02 -0.22591375697E+02  0.12636988544E+02  0.29752863396E+02  0.47000000000E+01 0. -1.
         -5    1    5    5    0  501 -0.11588985453E+03 -0.46057545049E+02  0.58723924529E+03  0.60035304367E+03  0.47000000000E+01 0. -1.
          1    1    1    2  502    0  0.10164971287E+03  0.61669743612E+02 -0.17249891825E+04  0.17290816930E+04  0.00000000000E+00 0. -1.
          1    1    1    2  503    0 -0.20993753160E+02  0.29081104972E+02  0.20460670847E+04  0.20463814315E+04  0.00000000000E+00 0. -1.
<mgrwt>
<rscale>  0 0.55465005E+02</rscale>
<asrwt>0</asrwt>
<pdfrwt beam="1">  1        2 0.39411999E+00 0.35867093E+02</pdfrwt>
<pdfrwt beam="2">  1        2 0.38023610E+00 0.85771291E+02</pdfrwt>
<totfact> 0.37206425E+00</totfact>
</mgrwt>
</event>
<event>
13    1  0.1942437E-008  0.1612184E+03  0.7546771E-02  0.1258628E+00
          2   -1    0    0  503    0  0.00000000000E+00  0.00000000000E+00  0.34818555320E+04  0.34818555320E+04  0.00000000000E+00 0. -1.
          2   -1    0    0  502    0 -0.00000000000E+00 -0.00000000000E+00 -0.11496056735E+04  0.11496056735E+04  0.00000000000E+00 0. -1.
         24    2    1    2    0    0 -0.13850418414E+03  0.17546058537E+02 -0.26935118654E+03  0.31484223981E+03  0.84168290266E+02 0.  0.
         24    2    1    2    0    0  0.13556311446E+03 -0.44213694603E+02  0.10066074320E+03  0.19188571715E+03  0.79720351444E+02 0.  0.
         25    2    1    2    0    0 -0.13794392347E+03  0.72345703862E+02  0.35827785947E+03  0.41017942416E+03  0.12498683342E+03 0.  0.
        -11    1    3    3    0    0 -0.12531185941E+03 -0.60723094375E+01 -0.25506205240E+03  0.28424740214E+03  0.00000000000E+00 0.  1.
         12    1    3    3    0    0 -0.13192324728E+02  0.23618367975E+02 -0.14289134137E+02  0.30594837668E+02  0.00000000000E+00 0. -1.
        -13    1    4    4    0    0  0.22189453274E+02 -0.10882681294E+02 -0.12999512632E+02  0.27924754563E+02  0.00000000000E+00 0.  1.
         14    1    4    4    0    0  0.11337366118E+03 -0.33331013309E+02  0.11366025583E+03  0.16396096259E+03  0.00000000000E+00 0. -1.
          5    1    5    5  501    0 -0.12840332869E+03  0.37636609168E+02  0.34736177733E+03  0.37227170657E+03  0.47000000000E+01 0. -1.
         -5    1    5    5    0  501 -0.95405947873E+01  0.34709094694E+02  0.10916082146E+02  0.37907717589E+02  0.47000000000E+01 0. -1.
          1    1    1    2  502    0 -0.21090479631E+02 -0.73535746991E+02 -0.78177130461E+03  0.78550537053E+03  0.00000000000E+00 0. -1.
          1    1    1    2  503    0  0.16197547279E+03  0.27857679195E+02  0.29244337470E+04  0.29290484538E+04  0.00000000000E+00 0. -1.
<mgrwt>
<rscale>  0 0.11105528E+03</rscale>
<asrwt>0</asrwt>
<pdfrwt beam="1">  1        2 0.51203758E+00 0.16121840E+03</pdfrwt>
<pdfrwt beam="2">  1        2 0.16905966E+00 0.76500421E+02</pdfrwt>
<totfact> 0.54986358E+00</totfact>
</mgrwt>
</event>
<event>
13    1  0.1942437E-008  0.1808113E+03  0.7546771E-02  0.1264016E+00
          2   -1    0    0  502    0  0.00000000000E+00  0.00000000000E+00  0.44711748436E+03  0.44711748436E+03  0.00000000000E+00 0. -1.
          2   -1    0    0  503    0 -0.00000000000E+00 -0.00000000000E+00 -0.22754561540E+04  0.22754561540E+04  0.00000000000E+00 0. -1.
         24    2    1    2    0    0 -0.15283395936E+02  0.34638980323E+02 -0.81397614772E+02  0.11926233177E+03  0.78514272203E+02 0.  0.
         24    2    1    2    0    0 -0.35012672888E+02 -0.42071571007E+02 -0.82123209512E+02  0.12762462723E+03  0.80919216409E+02 0.  0.
         25    2    1    2    0    0 -0.82899875319E+02  0.20688780414E+03  0.10082266294E+02  0.25573453100E+03  0.12499418156E+03 0.  0.
        -11    1    4    4    0    0 -0.43970233293E+02 -0.61447999472E+02 -0.56943224910E+02  0.94613788203E+02  0.00000000000E+00 0.  1.
         12    1    4    4    0    0  0.89575604049E+01  0.19376428465E+02 -0.25179984602E+02  0.33010839023E+02  0.00000000000E+00 0. -1.
        -13    1    3    3    0    0 -0.12023189877E+02 -0.53026346148E+01 -0.77938906749E+02  0.79038903167E+02  0.00000000000E+00 0.  1.
         14    1    3    3    0    0 -0.32602060585E+01  0.39941614938E+02 -0.34587080235E+01  0.40223428603E+02  0.00000000000E+00 0. -1.
          5    1    5    5  501    0 -0.54927088023E+02  0.19137227615E+03  0.49045118683E+02  0.20510447763E+03  0.47000000000E+01 0.  1.
         -5    1    5    5    0  501 -0.27972787297E+02  0.15515527985E+02 -0.38962852389E+02  0.50630053368E+02  0.47000000000E+01 0.  1.
          1    1    1    2  502    0  0.16585697564E+02 -0.62538232931E+02  0.26446587268E+03  0.27226515340E+03  0.00000000000E+00 0. -1.
          1    1    1    2  503    0  0.11661024658E+03 -0.13691698052E+03 -0.19393659844E+04  0.19476869950E+04  0.00000000000E+00 0. -1.
<mgrwt>
<rscale>  0 0.10815972E+03</rscale>
<asrwt>0</asrwt>
<pdfrwt beam="1">  1        2 0.65752571E-01 0.64700200E+02</pdfrwt>
<pdfrwt beam="2">  1        2 0.33462591E+00 0.18081126E+03</pdfrwt>
<totfact> 0.73459001E+01</totfact>
</mgrwt>
</event>
<event>
13    1  0.1942437E-008  0.1043983E+03  0.7546771E-02  0.1384093E+00
          2   -1    0    0  503    0  0.00000000000E+00  0.00000000000E+00  0.16146267579E+04  0.16146267579E+04  0.00000000000E+00 0. -1.
          2   -1    0    0  502    0 -0.00000000000E+00 -0.00000000000E+00 -0.60872142702E+03  0.60872142702E+03  0.00000000000E+00 0. -1.
         24    2    1    2    0    0  0.85891981781E+01 -0.23077477887E+02 -0.10946541508E+03  0.14061591862E+03  0.84757389993E+02 0.  0.
         24    2    1    2    0    0  0.21214346378E+02  0.20911568391E+02  0.32391451887E+02  0.91922481567E+02  0.80704363434E+02 0.  0.
         25    2    1    2    0    0 -0.17971154318E+02 -0.66358524042E+02  0.99272576856E+02  0.17379957604E+03  0.12499932806E+03 0.  0.
        -11    1    4    4    0    0  0.14407054948E+02  0.39829690375E+02  0.49765832637E+02  0.65349870434E+02  0.00000000000E+00 0.  1.
         12    1    4    4    0    0  0.68072914300E+01 -0.18918121984E+02 -0.17374380749E+02  0.26572611133E+02  0.00000000000E+00 0. -1.
        -13    1    3    3    0    0  0.41887556341E+02 -0.18703087693E+02 -0.31281357811E+02  0.55523834630E+02  0.00000000000E+00 0.  1.
         14    1    3    3    0    0 -0.33298358163E+02 -0.43743901946E+01 -0.78184057269E+02  0.85092083985E+02  0.00000000000E+00 0. -1.
          5    1    5    5  501    0 -0.40308100469E+02  0.32013742844E+01  0.91539868156E+02  0.10018297871E+03  0.47000000000E+01 0. -1.
         -5    1    5    5    0  501  0.22336946151E+02 -0.69559898326E+02  0.77327086999E+01  0.73616597330E+02  0.47000000000E+01 0. -1.
          1    1    1    2  502    0 -0.69330022333E+01 -0.37872741282E+02 -0.41373136574E+03  0.41551901768E+03  0.00000000000E+00 0. -1.
          1    1    1    2  503    0 -0.48993880047E+01  0.10639717482E+03  0.13974380829E+04  0.14014911910E+04  0.00000000000E+00 0. -1.
<mgrwt>
<rscale>  0 0.63399943E+02</rscale>
<asrwt>0</asrwt>
<pdfrwt beam="1">  1        2 0.23744511E+00 0.10439830E+03</pdfrwt>
<pdfrwt beam="2">  1        2 0.89517857E-01 0.38502092E+02</pdfrwt>
<totfact> 0.11879527E+02</totfact>
</mgrwt>
</event>
<event>
13    1  0.1942437E-008  0.1276216E+03  0.7546771E-02  0.1356149E+00
          4   -1    0    0  503    0 -0.00000000000E+00  0.00000000000E+00  0.21976982729E+04  0.21976982729E+04  0.00000000000E+00 0. -1.
          2   -1    0    0  502    0  0.00000000000E+00 -0.00000000000E+00 -0.18684640186E+04  0.18684640186E+04  0.00000000000E+00 0. -1.
         24    2    1    2    0    0  0.16173115646E+02  0.10285616197E+03  0.25038930726E+02  0.13375249686E+03  0.80136275434E+02 0.  0.
         24    2    1    2    0    0 -0.15359049051E+03 -0.43401158074E+02 -0.29595062682E+03  0.34612639519E+03  0.82115824504E+02 0.  0.
         25    2    1    2    0    0  0.47273073424E+02  0.33383973523E+02 -0.96503902587E+03  0.97481996360E+03  0.12499762723E+03 0.  0.
        -11    1    4    4    0    0 -0.23739205639E+02 -0.72803074061E+01 -0.12993885192E+03  0.13229005253E+03  0.00000000000E+00 0.  1.
         12    1    4    4    0    0 -0.12985128487E+03 -0.36120850667E+02 -0.16601177490E+03  0.21383634266E+03  0.00000000000E+00 0. -1.
        -13    1    3    3    0    0 -0.31784053933E+02  0.48026176014E+02  0.19062381525E+02  0.60663943627E+02  0.00000000000E+00 0.  1.
         14    1    3    3    0    0  0.47957169579E+02  0.54829985956E+02  0.59765492008E+01  0.73088553237E+02  0.00000000000E+00 0. -1.
          5    1    5    5  501    0  0.80545277160E+02  0.14514267400E+02 -0.83964638319E+03  0.84363875233E+03  0.47000000000E+01 0.  1.
         -5    1    5    5    0  501 -0.33272203736E+02  0.18869706123E+02 -0.12539264268E+03  0.13118121127E+03  0.47000000000E+01 0.  1.
          1    1    1    2  502    0  0.33383067902E+02  0.21472247121E+02 -0.52043280991E+03  0.52194424631E+03  0.00000000000E+00 0. -1.
          3    1    1    2  503    0  0.56761233541E+02 -0.11431122454E+03  0.20856177861E+04  0.20895191895E+04  0.00000000000E+00 0. -1.
<mgrwt>
<rscale>  0 0.71173086E+02</rscale>
<asrwt>0</asrwt>
<pdfrwt beam="2">  1        2 0.27477412E+00 0.39692400E+02</pdfrwt>
<pdfrwt beam="1">  1        4 0.32319092E+00 0.12762161E+03</pdfrwt>
<totfact> 0.17163163E-01</totfact>
</mgrwt>
</event>
<event>
13    1  0.1942437E-008  0.8040298E+02  0.7546771E-02  0.1433650E+00
          2   -1    0    0  502    0  0.00000000000E+00  0.00000000000E+00  0.26721264941E+04  0.26721264941E+04  0.00000000000E+00 0. -1.
          2   -1    0    0  503    0 -0.00000000000E+00 -0.00000000000E+00 -0.12342536229E+04  0.12342536229E+04  0.00000000000E+00 0. -1.
         24    2    1    2    0    0 -0.54497902117E+02  0.47026476899E+01 -0.25058720686E+03  0.27273998005E+03  0.92741642466E+02 0.  0.
         24    2    1    2    0    0  0.15640728884E+02 -0.25538961007E+02 -0.65903927918E+02  0.10820362788E+03  0.80422798030E+02 0.  0.
         25    2    1    2    0    0 -0.14396416801E+02  0.67572225265E+02  0.91835198927E+02  0.16980854350E+03  0.12501190040E+03 0.  0.
        -11    1    4    4    0    0  0.39732729289E+02  0.10394195570E+02 -0.22104148394E+02  0.46640352212E+02  0.00000000000E+00 0.  1.
         12    1    4    4    0    0 -0.24092000405E+02 -0.35933156576E+02 -0.43799779524E+02  0.61563275672E+02  0.00000000000E+00 0. -1.
        -13    1    3    3    0    0 -0.33716282885E+02 -0.35074824250E+02 -0.61592981770E+02  0.78490295139E+02  0.00000000000E+00 0.  1.
         14    1    3    3    0    0 -0.20781619232E+02  0.39777471940E+02 -0.18899422509E+03  0.19424968491E+03  0.00000000000E+00 0. -1.
          5    1    5    5  501    0  0.16611941486E+02  0.74498615636E+02  0.10918627369E+03  0.13330316085E+03  0.47000000000E+01 0. -1.
         -5    1    5    5    0  501 -0.31008358287E+02 -0.69263903708E+01 -0.17351074759E+02  0.36505382651E+02  0.47000000000E+01 0. -1.
          1    1    1    2  502    0  0.32489235267E+02 -0.73575824627E+02  0.25080934166E+04  0.25093827008E+04  0.00000000000E+00 0. -1.
          1    1    1    2  503    0  0.20764354767E+02  0.26839912678E+02 -0.84556460951E+03  0.84624526480E+03  0.00000000000E+00 0. -1.
<mgrwt>
<rscale>  0 0.52234299E+02</rscale>
<asrwt>0</asrwt>
<pdfrwt beam="1">  1        2 0.39295978E+00 0.80402980E+02</pdfrwt>
<pdfrwt beam="2">  1        2 0.18150789E+00 0.33934339E+02</pdfrwt>
<totfact> 0.16126291E+01</totfact>
</mgrwt>
</event>
<event>
13    1  0.1942437E-008  0.6696824E+02  0.7546771E-02  0.1477376E+00
         -1   -1    0    0    0  501 -0.00000000000E+00  0.00000000000E+00  0.62429622891E+03  0.62429622891E+03  0.00000000000E+00 0.  1.
          2   -1    0    0  503    0  0.00000000000E+00 -0.00000000000E+00 -0.25404132374E+04  0.25404132374E+04  0.00000000000E+00 0. -1.
         24    2    1    2    0    0 -0.77946892018E+01 -0.96098192733E+01  0.13091051614E+03  0.15663683211E+03  0.85114206407E+02 0.  0.
         24    2    1    2    0    0 -0.22564652552E+02 -0.33223977603E+02 -0.21256336710E+03  0.23002053163E+03  0.78187362847E+02 0.  0.
         25    2    1    2    0    0  0.54066579172E+02 -0.37691788564E+02 -0.15874013840E+04  0.15936789381E+04  0.12500215128E+03 0.  0.
        -11    1    3    3    0    0 -0.10946636115E+02 -0.39702258038E+02  0.29104896348E+02  0.50430081569E+02  0.00000000000E+00 0.  1.
         12    1    3    3    0    0  0.31519469134E+01  0.30092438765E+02  0.10180561979E+03  0.10620675054E+03  0.00000000000E+00 0. -1.
        -13    1    4    4    0    0  0.96826073464E+01 -0.41515532392E+01 -0.16608060475E+03  0.16641440909E+03  0.00000000000E+00 0.  1.
         14    1    4    4    0    0 -0.32247259899E+02 -0.29072424364E+02 -0.46482762346E+02  0.63606122541E+02  0.00000000000E+00 0. -1.
          5    1    5    5  502    0  0.29761852889E+01 -0.60363715182E+02 -0.36567115858E+03  0.37066173529E+03  0.47000000000E+01 0. -1.
         -5    1    5    5    0  502  0.51090393883E+02  0.22671926618E+02 -0.12217302254E+04  0.12230172028E+04  0.47000000000E+01 0. -1.
          1    1    1    2  503    0  0.14698786854E+02  0.25684816390E+02 -0.71301830414E+03  0.71363216447E+03  0.00000000000E+00 0. -1.
         -2    1    1    2    0  501 -0.38406024272E+02  0.54840769050E+02  0.46595553058E+03  0.47074100005E+03  0.00000000000E+00 0.  1.
<mgrwt>
<rscale>  0 0.44517547E+02</rscale>
<asrwt>0</asrwt>
<pdfrwt beam="2">  1        2 0.37359017E+00 0.29593312E+02</pdfrwt>
<pdfrwt beam="1">  1       -1 0.91808271E-01 0.66968238E+02</pdfrwt>
<totfact> 0.87817673E+00</totfact>
</mgrwt>
</event>
<event>
13    1  0.1942437E-008  0.8476437E+02  0.7546771E-02  0.1564930E+00
          2   -1    0    0  503    0  0.00000000000E+00  0.00000000000E+00  0.25414179493E+04  0.25414179493E+04  0.00000000000E+00 0. -1.
          2   -1    0    0  502    0 -0.00000000000E+00 -0.00000000000E+00 -0.12826154670E+04  0.12826154670E+04  0.00000000000E+00 0. -1.
         24    2    1    2    0    0  0.54149409516E+03 -0.60521890542E+03 -0.12185229133E+03  0.82497283660E+03  0.78907678094E+02 0.  0.
         24    2    1    2    0    0 -0.75441816311E+03  0.98120990307E+03  0.44859320880E+03  0.13181830280E+04  0.66715737968E+02 0.  0.
         25    2    1    2    0    0  0.14521757033E+03 -0.35217183748E+03  0.37244240185E+03  0.54722208324E+03  0.12500207936E+03 0.  0.
        -11    1    3    3    0    0  0.42068283435E+03 -0.46081797350E+03 -0.12644102025E+03  0.63664321516E+03  0.00000000000E+00 0.  1.
         12    1    3    3    0    0  0.12081126081E+03 -0.14440093192E+03  0.45887289141E+01  0.18832962144E+03  0.00000000000E+00 0. -1.
        -11    1    4    4    0    0 -0.13484013320E+01  0.84038688880E+01 -0.54823760760E+00  0.85289954223E+01  0.00000000000E+00 0.  1.
         12    1    4    4    0    0 -0.75306976178E+03  0.97280603419E+03  0.44914144641E+03  0.13096540326E+04  0.00000000000E+00 0. -1.
          5    1    5    5  501    0  0.41672429525E+02 -0.26200814261E+02  0.93812985625E+02  0.10604734944E+03  0.47000000000E+01 0. -1.
         -5    1    5    5    0  501  0.10354514080E+03 -0.32597102322E+03  0.27862941622E+03  0.44117473381E+03  0.47000000000E+01 0. -1.
          1    1    1    2  502    0 -0.12124689608E+02  0.47584209576E+01 -0.28474589251E+03  0.28504363521E+03  0.00000000000E+00 0. -1.
          1    1    1    2  503    0  0.79831187231E+02 -0.28577581132E+02  0.84436505544E+03  0.84861183319E+03  0.00000000000E+00 0. -1.
<mgrwt>
<rscale>  0 0.33227339E+02</rscale>
<asrwt>0</asrwt>
<pdfrwt beam="1">  1        2 0.37373794E+00 0.84764371E+02</pdfrwt>
<pdfrwt beam="2">  1        2 0.18861992E+00 0.13025002E+02</pdfrwt>
<totfact> 0.18920497E+01</totfact>
</mgrwt>
</event>
<event>
13    1  0.1942437E-008  0.1173725E+03  0.7546771E-02  0.1513259E+00
          2   -1    0    0  502    0  0.00000000000E+00  0.00000000000E+00  0.10546003914E+04  0.10546003914E+04  0.00000000000E+00 0. -1.
          2   -1    0    0  503    0 -0.00000000000E+00 -0.00000000000E+00 -0.15968803209E+04  0.15968803209E+04  0.00000000000E+00 0. -1.
         24    2    1    2    0    0 -0.12923103634E+02  0.12059245722E+03 -0.77725274931E+03  0.79061374764E+03  0.78985532153E+02 0.  0.
         24    2    1    2    0    0  0.16518043926E+02 -0.10137301902E+03 -0.30809474993E+03  0.33473299462E+03  0.81083093123E+02 0.  0.
         25    2    1    2    0    0  0.78236095399E+02 -0.83851187824E+02 -0.42007273047E+02  0.17476371361E+03  0.12500334509E+03 0.  0.
        -11    1    3    3    0    0 -0.20895027084E+02  0.71708831290E+02 -0.24682382702E+03  0.25787741317E+03  0.00000000000E+00 0.  1.
         12    1    3    3    0    0  0.79719234501E+01  0.48883625930E+02 -0.53042892230E+03  0.53273633446E+03  0.00000000000E+00 0. -1.
        -13    1    4    4    0    0 -0.48514498015E+01 -0.10298581164E+03 -0.20536841161E+03  0.22979512278E+03  0.00000000000E+00 0.  1.
         14    1    4    4    0    0  0.21369493728E+02  0.16127926180E+01 -0.10272633832E+03  0.10493787184E+03  0.00000000000E+00 0. -1.
          5    1    5    5  501    0 -0.23915592341E+02 -0.17375672418E+02 -0.43480452803E+02  0.52787397407E+02  0.47000000000E+01 0.  1.
         -5    1    5    5    0  501  0.10215168774E+03 -0.66475515406E+02  0.14731797560E+01  0.12197631621E+03  0.47000000000E+01 0.  1.
          1    1    1    2  502    0 -0.91465153140E+02  0.73616870689E+02  0.96454838932E+03  0.97166810858E+03  0.00000000000E+00 0. -1.
          1    1    1    2  503    0  0.96341174478E+01 -0.89851210663E+01 -0.37947354650E+03  0.37970214789E+03  0.00000000000E+00 0. -1.
<mgrwt>
<rscale>  0 0.39322255E+02</rscale>
<asrwt>0</asrwt>
<pdfrwt beam="1">  1        2 0.15508830E+00 0.11737247E+03</pdfrwt>
<pdfrwt beam="2">  1        2 0.23483534E+00 0.13173785E+02</pdfrwt>
<totfact> 0.73102230E+01</totfact>
</mgrwt>
</event>
<event>
13    1  0.1942437E-008  0.8116120E+02  0.7546771E-02  0.1328667E+00
          2   -1    0    0  503    0  0.00000000000E+00  0.00000000000E+00  0.27586022235E+04  0.27586022235E+04  0.00000000000E+00 0. -1.
          2   -1    0    0  502    0 -0.00000000000E+00 -0.00000000000E+00 -0.23904022038E+04  0.23904022038E+04  0.00000000000E+00 0. -1.
         24    2    1    2    0    0 -0.81885582799E+01  0.38639605691E+02 -0.66684190311E+03  0.67295866269E+03  0.81456530320E+02 0.  0.
         24    2    1    2    0    0  0.13559303176E+02 -0.40944992836E+02 -0.23149949154E+03  0.24899040032E+03  0.80894114288E+02 0.  0.
         25    2    1    2    0    0 -0.15454379540E+03  0.77137428697E+02  0.36567213148E+03  0.42328964262E+03  0.12499618477E+03 0.  0.
        -11    1    3    3    0    0 -0.21324483451E+02 -0.14053573477E+02 -0.89622246394E+02  0.93190040083E+02  0.00000000000E+00 0.  1.
         12    1    3    3    0    0  0.13135925171E+02  0.52693179167E+02 -0.57721965671E+03  0.57976862260E+03  0.00000000000E+00 0. -1.
        -11    1    4    4    0    0  0.21282376622E+02 -0.82028762138E+01 -0.20473529563E+03  0.20600186409E+03  0.00000000000E+00 0.  1.
         12    1    4    4    0    0 -0.77230734456E+01 -0.32742116622E+02 -0.26764195917E+02  0.42988536232E+02  0.00000000000E+00 0. -1.
          5    1    5    5  501    0 -0.13086182386E+03  0.10308636808E+02  0.16812782433E+03  0.21335449433E+03  0.47000000000E+01 0.  1.
         -5    1    5    5    0  501 -0.23681971545E+02  0.66828791889E+02  0.19754430716E+03  0.20993514830E+03  0.47000000000E+01 0.  1.
          1    1    1    2  502    0  0.70462352222E+02 -0.66764250821E+02 -0.14491587322E+04  0.14524060863E+04  0.00000000000E+00 0. -1.
          1    1    1    2  503    0  0.78710698284E+02 -0.80677907303E+01  0.23500280151E+04  0.23513596354E+04  0.00000000000E+00 0. -1.
<mgrwt>
<rscale>  0 0.80135667E+02</rscale>
<asrwt>0</asrwt>
<pdfrwt beam="1">  1        2 0.40567680E+00 0.79123089E+02</pdfrwt>
<pdfrwt beam="2">  1        2 0.35152974E+00 0.81161204E+02</pdfrwt>
<totfact> 0.37895139E+00</totfact>
</mgrwt>
</event>
<event>
13    1  0.1942437E-008  0.1229498E+03  0.7546771E-02  0.1316711E+00
         -3   -1    0    0    0  501 -0.00000000000E+00  0.00000000000E+00  0.52287510279E+03  0.52287510279E+03  0.00000000000E+00 0.  1.
          2   -1    0    0  503    0  0.00000000000E+00 -0.00000000000E+00 -0.16027709663E+04  0.16027709663E+04  0.00000000000E+00 0. -1.
         24    2    1    2    0    0  0.60246228828E+02  0.12164106185E+03  0.70802064743E+02  0.17368625333E+03  0.82023327210E+02 0.  0.
         24    2    1    2    0    0  0.34219683051E+03  0.18508122519E+03  0.33328462964E+01  0.39750843046E+03  0.81535965637E+02 0.  0.
         25    2    1    2    0    0 -0.39450008872E+03 -0.21150464797E+03 -0.63548938567E+03  0.78729727343E+03  0.12500280533E+03 0.  0.
        -11    1    4    4    0    0  0.28322562601E+03  0.17344285178E+03 -0.20736114644E+02  0.33275992023E+03  0.00000000000E+00 0.  1.
         12    1    4    4    0    0  0.58971204504E+02  0.11638373411E+02  0.24068960940E+02  0.64748510230E+02  0.00000000000E+00 0. -1.
        -13    1    3    3    0    0  0.59482895018E+02  0.29430000300E+02  0.31014627032E+02  0.73254670890E+02  0.00000000000E+00 0.  1.
         14    1    3    3    0    0  0.76333381051E+00  0.92211061555E+02  0.39787437711E+02  0.10043158244E+03  0.00000000000E+00 0. -1.
          5    1    5    5  502    0 -0.59586036764E+02 -0.35730751501E+02 -0.19290137345E+03  0.20508586557E+03  0.47000000000E+01 0. -1.
         -5    1    5    5    0  502 -0.33491405195E+03 -0.17577389647E+03 -0.44258801222E+03  0.58221140785E+03  0.47000000000E+01 0. -1.
          1    1    1    2  503    0  0.46943166271E+02 -0.11425043760E+03 -0.62971655666E+03  0.64171626525E+03  0.00000000000E+00 0. -1.
         -4    1    1    2    0  501 -0.54886136898E+02  0.19032798525E+02  0.11117516776E+03  0.12543784664E+03  0.00000000000E+00 0.  1.
<mgrwt>
<rscale>  0 0.84513056E+02</rscale>
<asrwt>0</asrwt>
<pdfrwt beam="2">  1        2 0.23570161E+00 0.12294978E+03</pdfrwt>
<pdfrwt beam="1">  1       -3 0.76893399E-01 0.58092473E+02</pdfrwt>
<totfact> 0.13561983E+01</totfact>
</mgrwt>
</event>
<event>
13    1  0.1942437E-008  0.2521825E+02  0.7546771E-02  0.1813433E+00
         -1   -1    0    0    0  501 -0.00000000000E+00  0.00000000000E+00  0.36435428270E+03  0.36435428270E+03  0.00000000000E+00 0.  1.
          2   -1    0    0  503    0  0.00000000000E+00 -0.00000000000E+00 -0.16355240889E+04  0.16355240889E+04  0.00000000000E+00 0. -1.
         24    2    1    2    0    0 -0.22205051588E+02 -0.70100024256E+02  0.21057181477E+03  0.23699501368E+03  0.80119096452E+02 0.  0.
         24    2    1    2    0    0  0.12297304844E+02 -0.96415310546E+02  0.49393149718E+02  0.13527754367E+03  0.80082424841E+02 0.  0.
         25    2    1    2    0    0  0.33632821266E+02  0.16335859887E+03 -0.96899045521E+03  0.99115325082E+03  0.12500026338E+03 0.  0.
        -11    1    3    3    0    0 -0.73110260041E+00 -0.78827837990E+02  0.12055184122E+03  0.14403856767E+03  0.00000000000E+00 0.  1.
         12    1    3    3    0    0 -0.21473948988E+02  0.87278137348E+01  0.90019973549E+02  0.92956446013E+02  0.00000000000E+00 0. -1.
        -13    1    4    4    0    0  0.17199772775E+01 -0.10575784813E+03  0.56015121947E+02  0.11968865714E+03  0.00000000000E+00 0.  1.
         14    1    4    4    0    0  0.10577327566E+02  0.93425375812E+01 -0.66219722298E+01  0.15588886526E+02  0.00000000000E+00 0. -1.
          5    1    5    5  502    0  0.43760308757E+02  0.10252008921E+03 -0.31368401926E+03  0.33293405841E+03  0.47000000000E+01 0. -1.
         -5    1    5    5    0  502 -0.10127487491E+02  0.60838509660E+02 -0.65530643595E+03  0.65821919241E+03  0.47000000000E+01 0. -1.
          1    1    1    2  503    0 -0.20844378097E+02  0.14199621260E+02 -0.59815000067E+03  0.59868150184E+03  0.00000000000E+00 0. -1.
         -2    1    1    2    0  501 -0.28806964244E+01 -0.11042885328E+02  0.36005685179E+02  0.37771061588E+02  0.00000000000E+00 0.  1.
<mgrwt>
<rscale>  0 0.16964721E+02</rscale>
<asrwt>0</asrwt>
<pdfrwt beam="2">  1        2 0.24051825E+00 0.25218255E+02</pdfrwt>
<pdfrwt beam="1">  1       -1 0.53581513E-01 0.11412437E+02</pdfrwt>
<totfact> 0.65448919E+01</totfact>
</mgrwt>
</event>
<event>
13    1  0.1942437E-008  0.7371651E+02  0.7546771E-02  0.1348246E+00
          2   -1    0    0  503    0  0.00000000000E+00  0.00000000000E+00  0.22501080625E+04  0.22501080625E+04  0.00000000000E+00 0. -1.
          2   -1    0    0  502    0 -0.00000000000E+00 -0.00000000000E+00 -0.17913808393E+04  0.17913808393E+04  0.00000000000E+00 0. -1.
         24    2    1    2    0    0  0.37476859314E+02  0.77075514675E+02  0.41782178709E+02  0.12211135649E+03  0.76290779127E+02 0.  0.
         24    2    1    2    0    0  0.65825373010E+02  0.55052656399E+02  0.21607519607E+03  0.24557924065E+03  0.79100558598E+02 0.  0.
         25    2    1    2    0    0 -0.61084419045E+02 -0.86834337627E+02  0.55668902176E+03  0.58034365037E+03  0.12499830856E+03 0.  0.
        -11    1    4    4    0    0  0.10167451585E+02 -0.20320109119E+02  0.49369464954E+02  0.54347290422E+02  0.00000000000E+00 0.  1.
         12    1    4    4    0    0  0.55657921425E+02  0.75372765518E+02  0.16670573112E+03  0.19123195022E+03  0.00000000000E+00 0. -1.
        -13    1    3    3    0    0 -0.22680602750E+02  0.28789447120E+02  0.20921017715E+02  0.42201078053E+02  0.00000000000E+00 0.  1.
         14    1    3    3    0    0  0.60157462064E+02  0.48286067555E+02  0.20861160994E+02  0.79910278438E+02  0.00000000000E+00 0. -1.
          5    1    5    5  501    0 -0.67529962025E+02 -0.25399452748E+00  0.34348835726E+03  0.35009527540E+03  0.47000000000E+01 0. -1.
         -5    1    5    5    0  501  0.64455429800E+01 -0.86580343100E+02  0.21320066450E+03  0.23024837497E+03  0.47000000000E+01 0. -1.
          1    1    1    2  502    0  0.28416417209E+02 -0.68019345063E+02 -0.17228426074E+04  0.17244189671E+04  0.00000000000E+00 0. -1.
          1    1    1    2  503    0 -0.70634230488E+02  0.22725511616E+02  0.13670234341E+04  0.13690356872E+04  0.00000000000E+00 0. -1.
<mgrwt>
<rscale>  0 0.73604992E+02</rscale>
<asrwt>0</asrwt>
<pdfrwt beam="1">  1        2 0.33089825E+00 0.73493641E+02</pdfrwt>
<pdfrwt beam="2">  1        2 0.26343836E+00 0.73716512E+02</pdfrwt>
<totfact> 0.13314832E+01</totfact>
</mgrwt>
</event>
<event>
13    1  0.1942437E-008  0.8876948E+02  0.7546771E-02  0.1338343E+00
          2   -1    0    0  503    0  0.00000000000E+00  0.00000000000E+00  0.67506165337E+03  0.67506165337E+03  0.00000000000E+00 0. -1.
          2   -1    0    0  502    0 -0.00000000000E+00 -0.00000000000E+00 -0.17196853094E+04  0.17196853094E+04  0.00000000000E+00 0. -1.
         24    2    1    2    0    0 -0.18354528173E+03 -0.60524583262E+02 -0.75447568377E+03  0.78288288909E+03  0.79498207625E+02 0.  0.
         24    2    1    2    0    0  0.13312644371E+03 -0.79549162603E+02 -0.31976460175E+03  0.36278926953E+03  0.72910453809E+02 0.  0.
         25    2    1    2    0    0  0.83051756851E+02  0.17320825073E+03 -0.63924169499E+02  0.23792847616E+03  0.12499987153E+03 0.  0.
        -11    1    3    3    0    0 -0.70097831891E+01 -0.28044511979E+02 -0.86062977329E+02  0.90788037644E+02  0.00000000000E+00 0.  1.
         12    1    3    3    0    0 -0.17653549854E+03 -0.32480071283E+02 -0.66841270644E+03  0.69209485145E+03  0.00000000000E+00 0. -1.
        -13    1    4    4    0    0 -0.17310854325E+01 -0.16431333242E+02 -0.10579952108E+02  0.19619397429E+02  0.00000000000E+00 0.  1.
         14    1    4    4    0    0  0.13485752914E+03 -0.63117829361E+02 -0.30918464964E+03  0.34316987211E+03  0.00000000000E+00 0. -1.
          5    1    5    5  501    0  0.17177042750E+02  0.16020612002E+03 -0.53355837462E+02  0.16979395478E+03  0.47000000000E+01 0.  1.
         -5    1    5    5    0  501  0.65874714101E+02  0.13002130710E+02 -0.10568332038E+02  0.68134521375E+02  0.47000000000E+01 0.  1.
          1    1    1    2  502    0 -0.90807909981E+02 -0.98118814849E+00 -0.45227293484E+03  0.46130016999E+03  0.00000000000E+00 0. -1.
          1    1    1    2  503    0  0.58174991152E+02 -0.32153316720E+02  0.54581373385E+03  0.54984615797E+03  0.00000000000E+00 0. -1.
<mgrwt>
<rscale>  0 0.76814345E+02</rscale>
<asrwt>0</asrwt>
<pdfrwt beam="1">  1        2 0.99273774E-01 0.66469281E+02</pdfrwt>
<pdfrwt beam="2">  1        2 0.25289490E+00 0.88769482E+02</pdfrwt>
<totfact> 0.94505065E+01</totfact>
</mgrwt>
</event>
<event>
13    1  0.1942437E-008  0.9702458E+02  0.7546771E-02  0.1470178E+00
          2   -1    0    0  503    0  0.00000000000E+00  0.00000000000E+00  0.15384578183E+04  0.15384578183E+04  0.00000000000E+00 0. -1.
          2   -1    0    0  502    0 -0.00000000000E+00 -0.00000000000E+00 -0.70983745939E+03  0.70983745939E+03  0.00000000000E+00 0. -1.
         24    2    1    2    0    0  0.10375086210E+03 -0.43327675331E+02 -0.68448648656E+02  0.15355173876E+03  0.79065733025E+02 0.  0.
         24    2    1    2    0    0 -0.17736981857E+03 -0.17192408689E+03 -0.13348361882E+03  0.29255431143E+03  0.82171798379E+02 0.  0.
         25    2    1    2    0    0  0.18181088075E+03  0.18810552780E+03  0.21885133904E+03  0.36326444275E+03  0.12500504316E+03 0.  0.
        -11    1    3    3    0    0  0.13004407720E+00  0.17355350200E+02 -0.79310778345E+01  0.19082114339E+02  0.00000000000E+00 0.  1.
         12    1    3    3    0    0  0.10362081802E+03 -0.60683025531E+02 -0.60517570822E+02  0.13446962442E+03  0.00000000000E+00 0. -1.
        -11    1    4    4    0    0 -0.13155434807E+03 -0.12894642119E+03 -0.55446320680E+02  0.19237468781E+03  0.00000000000E+00 0.  1.
         12    1    4    4    0    0 -0.45815470496E+02 -0.42977665699E+02 -0.78037298145E+02  0.10017962361E+03  0.00000000000E+00 0. -1.
          5    1    5    5  501    0  0.28976108696E+02  0.10147291006E+03  0.12626275332E+03  0.16462302156E+03  0.47000000000E+01 0. -1.
         -5    1    5    5    0  501  0.15283477206E+03  0.86632617744E+02  0.92588585719E+02  0.19864142119E+03  0.47000000000E+01 0. -1.
          1    1    1    2  502    0 -0.89278172938E+02  0.37371495861E+02 -0.30603868690E+03  0.32097803468E+03  0.00000000000E+00 0. -1.
          1    1    1    2  503    0 -0.18913751340E+02 -0.10225261441E+02  0.11177399742E+04  0.11179467500E+04  0.00000000000E+00 0. -1.
<mgrwt>
<rscale>  0 0.45673949E+02</rscale>
<asrwt>0</asrwt>
<pdfrwt beam="1">  1        2 0.22624380E+00 0.21500836E+02</pdfrwt>
<pdfrwt beam="2">  1        2 0.10438786E+00 0.97024580E+02</pdfrwt>
<totfact> 0.12228024E+02</totfact>
</mgrwt>
</event>
<event>
13    1  0.1942437E-008  0.7959386E+02  0.7546771E-02  0.1416360E+00
          2   -1    0    0  502    0  0.00000000000E+00  0.00000000000E+00  0.30811610154E+04  0.30811610154E+04  0.00000000000E+00 0. -1.
          2   -1    0    0  503    0 -0.00000000000E+00 -0.00000000000E+00 -0.72874084840E+03  0.72874084840E+03  0.00000000000E+00 0. -1.
         24    2    1    2    0    0 -0.12362509198E+02  0.53032521604E+03 -0.10269460770E+03  0.54619565996E+03  0.79911514250E+02 0.  0.
         24    2    1    2    0    0  0.13626251558E+02 -0.40255836653E+03  0.12048042763E+04  0.12741662238E+04  0.98525675091E+02 0.  0.
         25    2    1    2    0    0  0.16824337951E+01 -0.47243701778E+02  0.69535451208E+03  0.70808161305E+03  0.12500750109E+03 0.  0.
        -11    1    3    3    0    0  0.19267193848E+02  0.11778837945E+03 -0.48831484752E+02  0.12895674079E+03  0.00000000000E+00 0.  1.
         12    1    3    3    0    0 -0.31629703046E+02  0.41253683659E+03 -0.53863122950E+02  0.41723891917E+03  0.00000000000E+00 0. -1.
        -13    1    4    4    0    0  0.24898790984E+02 -0.35110236154E+03  0.11229964860E+04  0.11768661460E+04  0.00000000000E+00 0.  1.
         14    1    4    4    0    0 -0.11272539426E+02 -0.51456004993E+02  0.81807790265E+02  0.97300077816E+02  0.00000000000E+00 0. -1.
          5    1    5    5  501    0 -0.50502343384E+02  0.93952514845E+01  0.19029662325E+03  0.19716402375E+03  0.47000000000E+01 0.  1.
         -5    1    5    5    0  501  0.52184777179E+02 -0.56638953262E+02  0.50505788883E+03  0.51091758931E+03  0.47000000000E+01 0.  1.
          1    1    1    2  502    0  0.35110448299E+02 -0.71476549675E+02  0.91542042065E+03  0.91887767808E+03  0.00000000000E+00 0. -1.
          1    1    1    2  503    0 -0.38056624454E+02 -0.90465980554E+01 -0.36046443426E+03  0.36258068891E+03  0.00000000000E+00 0. -1.
<mgrwt>
<rscale>  0 0.55798576E+02</rscale>
<asrwt>0</asrwt>
<pdfrwt beam="1">  1        2 0.45311191E+00 0.79593860E+02</pdfrwt>
<pdfrwt beam="2">  1        2 0.10716777E+00 0.39117101E+02</pdfrwt>
<totfact> 0.18905862E+01</totfact>
</mgrwt>
</event>
<event>
13    1  0.1942437E-008  0.5748300E+02  0.7546771E-02  0.1442640E+00
          2   -1    0    0  503    0  0.00000000000E+00  0.00000000000E+00  0.37299351950E+04  0.37299351950E+04  0.00000000000E+00 0. -1.
         -1   -1    0    0    0  501 -0.00000000000E+00 -0.00000000000E+00 -0.62635080394E+03  0.62635080394E+03  0.00000000000E+00 0.  1.
         24    2    1    2    0    0 -0.32259081296E+02 -0.14613245943E+03 -0.16275869202E+03  0.23546080408E+03  0.80969465898E+02 0.  0.
         24    2    1    2    0    0  0.15487653977E+03  0.20090113802E+03 -0.73676543229E+02  0.27627394134E+03  0.80938543428E+02 0.  0.
         25    2    1    2    0    0 -0.51565082937E+02 -0.33202730590E+02  0.14193112586E+04  0.14261231857E+04  0.12498605106E+03 0.  0.
        -13    1    3    3    0    0 -0.99492892811E+01 -0.11744504892E+03 -0.16039193392E+03  0.19904245864E+03  0.00000000000E+00 0.  1.
         14    1    3    3    0    0 -0.22309792015E+02 -0.28687410503E+02 -0.23667580985E+01  0.36418345446E+02  0.00000000000E+00 0. -1.
        -13    1    4    4    0    0  0.15072631957E+03  0.14428872899E+03 -0.48739957199E+02  0.21427375983E+03  0.00000000000E+00 0.  1.
         14    1    4    4    0    0  0.41502201945E+01  0.56612409026E+02 -0.24936586031E+02  0.62000181502E+02  0.00000000000E+00 0. -1.
          5    1    5    5  502    0 -0.31439634778E+02 -0.66196566866E+02  0.44372262612E+03  0.44975804054E+03  0.47000000000E+01 0.  1.
         -5    1    5    5    0  502 -0.20125448159E+02  0.32993836276E+02  0.97558863248E+03  0.97636514518E+03  0.47000000000E+01 0.  1.
          1    1    1    2  503    0 -0.54094212297E+02  0.19438793318E+02  0.21672061206E+04  0.21679682700E+04  0.00000000000E+00 0. -1.
         -2    1    1    2    0  501 -0.16958163235E+02 -0.41004741319E+02 -0.24649775293E+03  0.25045979779E+03  0.00000000000E+00 0.  1.
<mgrwt>
<rscale>  0 0.50504419E+02</rscale>
<asrwt>0</asrwt>
<pdfrwt beam="1">  1        2 0.54851987E+00 0.57482998E+02</pdfrwt>
<pdfrwt beam="2">  1       -1 0.92110414E-01 0.44373056E+02</pdfrwt>
<totfact> 0.18383078E+00</totfact>
</mgrwt>
</event>
<event>
13    1  0.1942437E-008  0.6259899E+02  0.7546771E-02  0.1475515E+00
          2   -1    0    0  503    0  0.00000000000E+00  0.00000000000E+00  0.35400165202E+04  0.35400165202E+04  0.00000000000E+00 0. -1.
          2   -1    0    0  502    0 -0.00000000000E+00 -0.00000000000E+00 -0.10264971536E+04  0.10264971536E+04  0.00000000000E+00 0. -1.
         24    2    1    2    0    0  0.69021398790E+02 -0.10382516262E+02 -0.12899734637E+03  0.16698893985E+03  0.79832578093E+02 0.  0.
         24    2    1    2    0    0 -0.16859120482E+03 -0.19571306127E+03  0.64681406674E+02  0.27858860362E+03  0.81861645503E+02 0.  0.
         25    2    1    2    0    0  0.17773573276E+03  0.15782102781E+03  0.21161639762E+04  0.21331371620E+04  0.12500684018E+03 0.  0.
        -13    1    4    4    0    0 -0.22960382652E+02  0.12963705166E+01  0.17965362428E+02  0.29182426136E+02  0.00000000000E+00 0.  1.
         14    1    4    4    0    0 -0.14563082217E+03 -0.19700943178E+03  0.46716044246E+02  0.24940617748E+03  0.00000000000E+00 0. -1.
        -13    1    3    3    0    0  0.17299158648E+02 -0.38205614361E+02 -0.28896243669E+02  0.50930568000E+02  0.00000000000E+00 0.  1.
         14    1    3    3    0    0  0.51722240142E+02  0.27823098099E+02 -0.10010110270E+03  0.11605837185E+03  0.00000000000E+00 0. -1.
          5    1    5    5  501    0  0.14349935679E+02  0.13240478473E+02  0.33403550795E+02  0.38975865993E+02  0.47000000000E+01 0. -1.
         -5    1    5    5    0  501  0.16338579708E+03  0.14458054934E+03  0.20827604254E+04  0.20941612960E+04  0.47000000000E+01 0. -1.
          1    1    1    2  502    0 -0.58109529233E+02  0.23237452838E+02 -0.76156996212E+03  0.76413709752E+03  0.00000000000E+00 0. -1.
          1    1    1    2  503    0 -0.20056397501E+02  0.25037096880E+02  0.12232412922E+04  0.12236618708E+04  0.00000000000E+00 0. -1.
<mgrwt>
<rscale>  0 0.44812550E+02</rscale>
<asrwt>0</asrwt>
<pdfrwt beam="1">  1        2 0.52059066E+00 0.32079827E+02</pdfrwt>
<pdfrwt beam="2">  1        2 0.15095547E+00 0.62598987E+02</pdfrwt>
<totfact> 0.81481298E+00</totfact>
</mgrwt>
</event>
<event>
13    1  0.1942437E-008  0.1590771E+03  0.7546771E-02  0.1450741E+00
          2   -1    0    0  503    0  0.00000000000E+00  0.00000000000E+00  0.19147972961E+04  0.19147972961E+04  0.00000000000E+00 0. -1.
         -3   -1    0    0    0  501 -0.00000000000E+00 -0.00000000000E+00 -0.72053445536E+03  0.72053445536E+03  0.00000000000E+00 0.  1.
         24    2    1    2    0    0  0.53811821037E+02  0.10140513226E+03  0.33311151300E+02  0.14435363988E+03  0.80929769633E+02 0.  0.
         24    2    1    2    0    0 -0.31796480753E+02  0.58138483491E+01  0.23807096708E+02  0.90709600070E+02  0.81342711231E+02 0.  0.
         25    2    1    2    0    0  0.22423052588E+03 -0.42692565354E+02  0.11004505378E+04  0.11308043134E+04  0.12500010107E+03 0.  0.
        -11    1    4    4    0    0 -0.31518278590E+02 -0.34709625944E+02  0.15142635101E+02  0.49269254269E+02  0.00000000000E+00 0.  1.
         12    1    4    4    0    0 -0.27820216331E+00  0.40523474293E+02  0.86644616067E+01  0.41440345801E+02  0.00000000000E+00 0. -1.
        -13    1    3    3    0    0  0.26469052392E+02  0.89123958130E+02 -0.79986486548E+01  0.93314891778E+02  0.00000000000E+00 0.  1.
         14    1    3    3    0    0  0.27342768644E+02  0.12281174130E+02  0.41309799955E+02  0.51038748099E+02  0.00000000000E+00 0. -1.
          5    1    5    5  502    0  0.78741928903E+02 -0.19359521076E+02  0.68840491125E+03  0.69317998691E+03  0.47000000000E+01 0. -1.
         -5    1    5    5    0  502  0.14548859698E+03 -0.23333044278E+02  0.41204562654E+03  0.43762432652E+03  0.47000000000E+01 0. -1.
          1    1    1    2  503    0  0.14052316381E+02  0.55293844603E+01  0.62351191957E+03  0.62369476151E+03  0.00000000000E+00 0. -1.
         -4    1    1    2    0  501 -0.26029818254E+03 -0.70055799714E+02 -0.58681786465E+03  0.64576943655E+03  0.00000000000E+00 0.  1.
<mgrwt>
<rscale>  0 0.49012556E+02</rscale>
<asrwt>0</asrwt>
<pdfrwt beam="1">  1        2 0.28158784E+00 0.15101049E+02</pdfrwt>
<pdfrwt beam="2">  1       -3 0.10596095E+00 0.15907707E+03</pdfrwt>
<totfact> 0.60733149E+00</totfact>
</mgrwt>
</event>
<event>
13    1  0.1942437E-008  0.8245529E+02  0.7546771E-02  0.1439647E+00
          2   -1    0    0  503    0  0.00000000000E+00  0.00000000000E+00  0.20326692095E+04  0.20326692095E+04  0.00000000000E+00 0. -1.
         -1   -1    0    0    0  501 -0.00000000000E+00 -0.00000000000E+00 -0.13544230750E+03  0.13544230750E+03  0.00000000000E+00 0.  1.
         24    2    1    2    0    0  0.55988403956E+02  0.61765273805E+02  0.79302274641E+02  0.14072809845E+03  0.81030219700E+02 0.  0.
         24    2    1    2    0    0 -0.29855659608E+02  0.21395122170E+02  0.96587252430E+02  0.13105868236E+03  0.80611222713E+02 0.  0.
         25    2    1    2    0    0  0.22678537749E+02 -0.69912276697E+01  0.46165138113E+03  0.47886244470E+03  0.12499619957E+03 0.  0.
        -11    1    4    4    0    0 -0.74717322226E+01  0.37896267972E+02  0.95738797077E+02  0.10323696612E+03  0.00000000000E+00 0.  1.
         12    1    4    4    0    0 -0.22383927386E+02 -0.16501145802E+02  0.84845535255E+00  0.27821716239E+02  0.00000000000E+00 0. -1.
        -13    1    3    3    0    0  0.39563959777E+02 -0.40611311722E+01  0.56619379636E+02  0.69192151651E+02  0.00000000000E+00 0.  1.
         14    1    3    3    0    0  0.16424444179E+02  0.65826404977E+02  0.22682895005E+02  0.71535946800E+02  0.00000000000E+00 0. -1.
          5    1    5    5  502    0  0.56469631309E+01 -0.65121556398E+02  0.21042626092E+03  0.22039511471E+03  0.47000000000E+01 0. -1.
         -5    1    5    5    0  502  0.17031574618E+02  0.58130328728E+02  0.25122512021E+03  0.25846733000E+03  0.47000000000E+01 0. -1.
          1    1    1    2  503    0 -0.17479765376E+02 -0.80524467434E+02  0.13340800101E+04  0.13366223122E+04  0.00000000000E+00 0. -1.
         -2    1    1    2    0  501 -0.31331516720E+02  0.43552991290E+01 -0.74394016374E+02  0.80839979235E+02  0.00000000000E+00 0.  1.
<mgrwt>
<rscale>  0 0.51071419E+02</rscale>
<asrwt>0</asrwt>
<pdfrwt beam="1">  1        2 0.29892192E+00 0.82455291E+02</pdfrwt>
<pdfrwt beam="2">  1       -1 0.19917988E-01 0.31632777E+02</pdfrwt>
<totfact> 0.19249413E+02</totfact>
</mgrwt>
</event>
<event>
13    1  0.1942437E-008  0.8258339E+02  0.7546771E-02  0.1384633E+00
          2   -1    0    0  502    0  0.00000000000E+00  0.00000000000E+00  0.51448682182E+03  0.51448682182E+03  0.00000000000E+00 0. -1.
          2   -1    0    0  503    0 -0.00000000000E+00 -0.00000000000E+00 -0.19778756390E+04  0.19778756390E+04  0.00000000000E+00 0. -1.
         24    2    1    2    0    0  0.18236202178E+03  0.12748673313E+02 -0.56791922615E+03  0.60188748848E+03  0.79485003007E+02 0.  0.
         24    2    1    2    0    0 -0.20224084842E+03 -0.53457688322E+02 -0.35787481610E+03  0.42214460502E+03  0.79828555904E+02 0.  0.
         25    2    1    2    0    0 -0.73228985146E+02  0.27336684120E+02 -0.28241346400E+02  0.15010800028E+03  0.12500023815E+03 0.  0.
        -11    1    4    4    0    0  0.47414795316E+01 -0.24911854718E-03 -0.32389435351E+02  0.32734647556E+02  0.00000000000E+00 0.  1.
         12    1    4    4    0    0 -0.20698232796E+03 -0.53457439203E+02 -0.32548538075E+03  0.38940995747E+03  0.00000000000E+00 0. -1.
        -11    1    3    3    0    0  0.16315786771E+03 -0.13560500254E+02 -0.42845154634E+03  0.45866665948E+03  0.00000000000E+00 0.  1.
         12    1    3    3    0    0  0.19204154074E+02  0.26309173567E+02 -0.13946767981E+03  0.14322082900E+03  0.00000000000E+00 0. -1.
          5    1    5    5  501    0  0.47221678641E+01  0.51579619234E+02  0.19357560453E+02  0.55493793674E+02  0.47000000000E+01 0.  1.
         -5    1    5    5    0  501 -0.77951153010E+02 -0.24242935114E+02 -0.47598906853E+02  0.94614206608E+02  0.47000000000E+01 0.  1.
          1    1    1    2  502    0  0.29046676752E+02 -0.38790569546E+02  0.40110590082E+03  0.40402272385E+03  0.00000000000E+00 0. -1.
          1    1    1    2  503    0  0.64061135035E+02  0.52162900434E+02 -0.91045932937E+03  0.91419964321E+03  0.00000000000E+00 0. -1.
<mgrwt>
<rscale>  0 0.63261604E+02</rscale>
<asrwt>0</asrwt>
<pdfrwt beam="1">  1        2 0.75659827E-01 0.48460476E+02</pdfrwt>
<pdfrwt beam="2">  1        2 0.29086406E+00 0.82583393E+02</pdfrwt>
<totfact> 0.96642423E+01</totfact>
</mgrwt>
</event>
<event>
13    1  0.1942437E-008  0.1105345E+03  0.7546771E-02  0.1391777E+00
          2   -1    0    0  502    0  0.00000000000E+00  0.00000000000E+00  0.13565655948E+04  0.13565655948E+04  0.00000000000E+00 0. -1.
          2   -1    0    0  503    0 -0.00000000000E+00 -0.00000000000E+00 -0.12289524099E+04  0.12289524099E+04  0.00000000000E+00 0. -1.
         24    2    1    2    0    0 -0.37421735022E+02 -0.70002034167E+01 -0.18038622968E+03  0.20031799459E+03  0.78349971282E+02 0.  0.
         24    2    1    2    0    0  0.39550665068E+01 -0.80399853187E+02 -0.20693853172E+02  0.11562140541E+03  0.80375959627E+02 0.  0.
         25    2    1    2    0    0  0.14463101836E+03  0.23681500794E+02  0.81061104301E+02  0.20898437239E+03  0.12499848127E+03 0.  0.
        -11    1    3    3    0    0  0.11726643979E+02 -0.27420975261E+02 -0.96223526520E+02  0.10073922334E+03  0.00000000000E+00 0.  1.
         12    1    3    3    0    0 -0.49148379001E+02  0.20420771844E+02 -0.84162703161E+02  0.99578771254E+02  0.00000000000E+00 0. -1.
        -11    1    4    4    0    0 -0.30360206807E+02 -0.15849102290E+02 -0.24980926762E+02  0.42390835125E+02  0.00000000000E+00 0.  1.
         12    1    4    4    0    0  0.34315273314E+02 -0.64550750898E+02  0.42870735897E+01  0.73230570283E+02  0.00000000000E+00 0. -1.
          5    1    5    5  501    0  0.12575881258E+03  0.13411841698E+01  0.11031198105E+03  0.16735561204E+03  0.47000000000E+01 0. -1.
         -5    1    5    5    0  501  0.18872205777E+02  0.22340316624E+02 -0.29250876748E+02  0.41628760350E+02  0.47000000000E+01 0. -1.
          1    1    1    2  502    0 -0.52581836599E+01  0.33774045054E+02  0.11505178392E+04  0.11510254701E+04  0.00000000000E+00 0. -1.
          1    1    1    2  503    0 -0.10590616619E+03  0.29944510756E+02 -0.90288567576E+03  0.90956876225E+03  0.00000000000E+00 0. -1.
<mgrwt>
<rscale>  0 0.61466810E+02</rscale>
<asrwt>0</asrwt>
<pdfrwt beam="1">  1        2 0.19949494E+00 0.34180910E+02</pdfrwt>
<pdfrwt beam="2">  1        2 0.18072830E+00 0.11053447E+03</pdfrwt>
<totfact> 0.69568834E+01</totfact>
</mgrwt>
</event>
<event>
13    1  0.1942437E-008  0.2312451E+02  0.7546771E-02  0.1705137E+00
          2   -1    0    0  502    0  0.00000000000E+00  0.00000000000E+00  0.34408780619E+04  0.34408780619E+04  0.00000000000E+00 0. -1.
          2   -1    0    0  503    0 -0.00000000000E+00 -0.00000000000E+00 -0.17834868786E+04  0.17834868786E+04  0.00000000000E+00 0. -1.
         24    2    1    2    0    0 -0.12705195282E+03  0.19740532116E+03 -0.38245894496E+03  0.45572647100E+03  0.79377026023E+02 0.  0.
         24    2    1    2    0    0 -0.58256936373E+03  0.21946575811E+03 -0.52955433767E+03  0.82219533442E+03  0.89582860311E+02 0.  0.
         25    2    1    2    0    0  0.74714361517E+03 -0.40166654226E+03  0.27564609502E+03  0.90064691472E+03  0.12499800975E+03 0.  0.
        -11    1    3    3    0    0 -0.52268521539E+02  0.14931525469E+03 -0.26101596424E+03  0.30521529649E+03  0.00000000000E+00 0.  1.
         12    1    3    3    0    0 -0.74783431278E+02  0.48090066471E+02 -0.12144298072E+03  0.15051117451E+03  0.00000000000E+00 0. -1.
        -11    1    4    4    0    0 -0.30313578045E+03  0.66356754804E+02 -0.26294414960E+03  0.40673596608E+03  0.00000000000E+00 0.  1.
         12    1    4    4    0    0 -0.27943358328E+03  0.15310900330E+03 -0.26661018807E+03  0.41545936834E+03  0.00000000000E+00 0. -1.
          5    1    5    5  501    0  0.64101207047E+01 -0.32651803224E+01 -0.92416513287E+01  0.12619396549E+02  0.47000000000E+01 0. -1.
         -5    1    5    5    0  501  0.74073349446E+03 -0.39840136194E+03  0.28488774635E+03  0.88802751817E+03  0.47000000000E+01 0. -1.
          1    1    1    2  502    0 -0.23119519786E+02  0.45564892377E+00  0.26694262084E+04  0.26695263629E+04  0.00000000000E+00 0. -1.
          1    1    1    2  503    0 -0.14402778831E+02 -0.15660185931E+02 -0.37566783752E+03  0.37626985743E+03  0.00000000000E+00 0. -1.
<mgrwt>
<rscale>  0 0.22181170E+02</rscale>
<asrwt>0</asrwt>
<pdfrwt beam="1">  1        2 0.50601148E+00 0.23124511E+02</pdfrwt>
<pdfrwt beam="2">  1        2 0.26227748E+00 0.21276312E+02</pdfrwt>
<totfact> 0.46609327E+00</totfact>
</mgrwt>
</event>
<event>
13    1  0.1942437E-008  0.1727595E+03  0.7546771E-02  0.1317592E+00
          2   -1    0    0  503    0  0.00000000000E+00  0.00000000000E+00  0.37292615325E+04  0.37292615325E+04  0.00000000000E+00 0. -1.
          2   -1    0    0  502    0 -0.00000000000E+00 -0.00000000000E+00 -0.42699290914E+03  0.42699290914E+03  0.00000000000E+00 0. -1.
         24    2    1    2    0    0 -0.32837176261E+02 -0.10816470345E+03  0.43641259467E+02  0.14539196491E+03  0.80351606793E+02 0.  0.
         24    2    1    2    0    0 -0.14550041710E+03  0.52141124136E+02  0.49476805206E+02  0.18161207540E+03  0.81522533532E+02 0.  0.
         25    2    1    2    0    0  0.84574313465E+02 -0.49715241035E+02  0.26502632877E+03  0.30901222644E+03  0.12500072584E+03 0.  0.
        -13    1    3    3    0    0 -0.31788059696E+02 -0.82113323107E+02  0.66797141306E+02  0.11052120456E+03  0.00000000000E+00 0.  1.
         14    1    3    3    0    0 -0.10491165645E+01 -0.26051380344E+02 -0.23155881839E+02  0.34870760347E+02  0.00000000000E+00 0. -1.
        -13    1    4    4    0    0 -0.15006296444E+03  0.53098232963E+02  0.59991977173E+02  0.17010982618E+03  0.00000000000E+00 0.  1.
         14    1    4    4    0    0  0.45625473336E+01 -0.95710882761E+00 -0.10515171966E+02  0.11502249213E+02  0.00000000000E+00 0. -1.
          5    1    5    5  501    0  0.72867101599E+02  0.20984823441E+02  0.19247711607E+03  0.20692874986E+03  0.47000000000E+01 0.  1.
         -5    1    5    5    0  501  0.11707211866E+02 -0.70700064476E+02  0.72549212703E+02  0.10208347658E+03  0.47000000000E+01 0.  1.
          1    1    1    2  502    0  0.12144088767E+03  0.13601083894E+03 -0.25905811474E+03  0.31679322013E+03  0.00000000000E+00 0. -1.
          1    1    1    2  503    0 -0.27677607772E+02 -0.30272018592E+02  0.32031823446E+04  0.32034449547E+04  0.00000000000E+00 0. -1.
<mgrwt>
<rscale>  0 0.84179478E+02</rscale>
<asrwt>0</asrwt>
<pdfrwt beam="1">  1        2 0.54842080E+00 0.41017619E+02</pdfrwt>
<pdfrwt beam="2">  1        2 0.62793077E-01 0.17275953E+03</pdfrwt>
<totfact> 0.16119893E+01</totfact>
</mgrwt>
</event>
<event>
13    1  0.1942437E-008  0.7259886E+02  0.7546771E-02  0.1409464E+00
          2   -1    0    0  503    0  0.00000000000E+00  0.00000000000E+00  0.10627389691E+04  0.10627389691E+04  0.00000000000E+00 0. -1.
          2   -1    0    0  502    0 -0.00000000000E+00 -0.00000000000E+00 -0.20607414678E+04  0.20607414678E+04  0.00000000000E+00 0. -1.
         24    2    1    2    0    0 -0.47612739664E+02 -0.41788805603E+03 -0.12970864439E+03  0.44774022237E+03  0.82155790732E+02 0.  0.
         24    2    1    2    0    0  0.90620973256E+01  0.41469508609E+03  0.36974334238E+03  0.56240771325E+03  0.86822581465E+02 0.  0.
         25    2    1    2    0    0  0.10675188660E+02 -0.98458961626E+02  0.21620144372E+03  0.26865238546E+03  0.12499165240E+03 0.  0.
        -11    1    3    3    0    0 -0.31208265859E+02 -0.12471699743E+03 -0.48142632429E+01  0.12865248710E+03  0.00000000000E+00 0.  1.
         12    1    3    3    0    0 -0.16404473806E+02 -0.29317105860E+03 -0.12489438115E+03  0.31908773527E+03  0.00000000000E+00 0. -1.
        -13    1    4    4    0    0  0.12015844591E+02  0.77207141206E+02  0.30507584495E+02  0.83881081813E+02  0.00000000000E+00 0.  1.
         14    1    4    4    0    0 -0.29537472652E+01  0.33748794488E+03  0.33923575789E+03  0.47852663144E+03  0.00000000000E+00 0. -1.
          5    1    5    5  501    0 -0.15947347433E+02 -0.10377442732E+03  0.21697622904E+03  0.24108965889E+03  0.47000000000E+01 0.  1.
         -5    1    5    5    0  501  0.26622536093E+02  0.53154656893E+01 -0.77478532349E+00  0.27562726568E+02  0.47000000000E+01 0.  1.
          1    1    1    2  502    0 -0.65413881808E+01  0.72279374547E+02 -0.16460272808E+04  0.16476264464E+04  0.00000000000E+00 0. -1.
          1    1    1    2  503    0  0.34416841859E+02  0.29372557014E+02  0.19178864032E+03  0.19705366951E+03  0.00000000000E+00 0. -1.
<mgrwt>
<rscale>  0 0.57313705E+02</rscale>
<asrwt>0</asrwt>
<pdfrwt beam="1">  1        2 0.15628514E+00 0.45246725E+02</pdfrwt>
<pdfrwt beam="2">  1        2 0.30305021E+00 0.72598862E+02</pdfrwt>
<totfact> 0.38984225E+01</totfact>
</mgrwt>
</event>
<event>
13    1  0.1942437E-008  0.1025992E+03  0.7546771E-02  0.1522462E+00
          2   -1    0    0  502    0  0.00000000000E+00  0.00000000000E+00  0.14060193982E+04  0.14060193982E+04  0.00000000000E+00 0. -1.
          2   -1    0    0  503    0 -0.00000000000E+00 -0.00000000000E+00 -0.21950476044E+03  0.21950476044E+03  0.00000000000E+00 0. -1.
         24    2    1    2    0    0  0.12300090957E+02 -0.22354113003E+02 -0.47520227838E+02  0.87767061275E+02  0.69237897032E+02 0.  0.
         24    2    1    2    0    0  0.14899576128E+00  0.13068873753E+03 -0.64839275246E+02  0.18218048270E+03  0.10911474852E+03 0.  0.
         25    2    1    2    0    0 -0.10383963587E+03 -0.10936129176E+03  0.77953951497E+03  0.80377137981E+03  0.12499605388E+03 0.  0.
        -11    1    3    3    0    0  0.20603847598E+02 -0.29347458085E+02 -0.60817190804E+02  0.70601151048E+02  0.00000000000E+00 0.  1.
         12    1    3    3    0    0 -0.83037566412E+01  0.69933450828E+01  0.13296962966E+02  0.17165910227E+02  0.00000000000E+00 0. -1.
        -13    1    4    4    0    0 -0.21312542650E+02  0.81389902558E+01  0.21015508267E+02  0.31018046752E+02  0.00000000000E+00 0.  1.
         14    1    4    4    0    0  0.21461538412E+02  0.12254974728E+03 -0.85854783513E+02  0.15116243595E+03  0.00000000000E+00 0. -1.
          5    1    5    5  501    0 -0.22680897136E+01 -0.64200485757E+02  0.47877175882E+03  0.48308522400E+03  0.47000000000E+01 0. -1.
         -5    1    5    5    0  501 -0.10157154616E+03 -0.45160806001E+02  0.30076775615E+03  0.32068615581E+03  0.47000000000E+01 0. -1.
          1    1    1    2  502    0  0.10213569712E+03  0.10262146812E+02  0.52615903359E+03  0.53607867045E+03  0.00000000000E+00 0. -1.
          1    1    1    2  503    0 -0.10745147968E+02 -0.92354795855E+01 -0.68244077016E+01  0.15726564421E+02  0.00000000000E+00 0. -1.
<mgrwt>
<rscale>  0 0.38127387E+02</rscale>
<asrwt>0</asrwt>
<pdfrwt beam="1">  1        2 0.20676755E+00 0.10259917E+03</pdfrwt>
<pdfrwt beam="2">  1        2 0.32280112E-01 0.14168708E+02</pdfrwt>
<totfact> 0.41230810E+02</totfact>
</mgrwt>
</event>
<event>
13    1  0.1942437E-008  0.4732208E+02  0.7546771E-02  0.1539063E+00
          2   -1    0    0  503    0  0.00000000000E+00  0.00000000000E+00  0.66800397998E+03  0.66800397998E+03  0.00000000000E+00 0. -1.
         -3   -1    0    0    0  501 -0.00000000000E+00 -0.00000000000E+00 -0.12595935605E+04  0.12595935605E+04  0.00000000000E+00 0.  1.
         24    2    1    2    0    0 -0.55493090572E+02 -0.17533881859E+01 -0.13004863844E+03  0.16158511155E+03  0.78195539788E+02 0.  0.
         24    2    1    2    0    0  0.23645994713E+02 -0.42683360861E+02 -0.16445142570E+03  0.18942539475E+03  0.80353633414E+02 0.  0.
         25    2    1    2    0    0  0.96673192886E+01  0.10542887295E+03 -0.19731300771E+03  0.25642150396E+03  0.12494342868E+03 0.  0.
        -11    1    3    3    0    0 -0.46199670446E+02  0.34529098314E+02 -0.68635713910E+02  0.89652269373E+02  0.00000000000E+00 0.  1.
         12    1    3    3    0    0 -0.92934201260E+01 -0.36282486500E+02 -0.61412924528E+02  0.71932842175E+02  0.00000000000E+00 0. -1.
        -11    1    4    4    0    0 -0.29409235186E+02 -0.23295861539E+02 -0.64725893493E+02  0.74813378266E+02  0.00000000000E+00 0.  1.
         12    1    4    4    0    0  0.53055229899E+02 -0.19387499322E+02 -0.99725532204E+02  0.11461201649E+03  0.00000000000E+00 0. -1.
          5    1    5    5  502    0 -0.23188355069E+02  0.12327381492E+03 -0.14245365979E+03  0.18986644897E+03  0.47000000000E+01 0. -1.
         -5    1    5    5    0  502  0.32855674358E+02 -0.17844941974E+02 -0.54859347918E+02  0.66555054996E+02  0.47000000000E+01 0. -1.
          1    1    1    2  503    0 -0.16934400312E+01 -0.47270319790E+02  0.60901011970E+03  0.61084423282E+03  0.00000000000E+00 0. -1.
         -4    1    1    2    0  501  0.23873216601E+02 -0.13721804111E+02 -0.70878662839E+03  0.70932129741E+03  0.00000000000E+00 0.  1.
<mgrwt>
<rscale>  0 0.36097779E+02</rscale>
<asrwt>0</asrwt>
<pdfrwt beam="1">  1        2 0.98235880E-01 0.47322079E+02</pdfrwt>
<pdfrwt beam="2">  1       -3 0.18523435E+00 0.27535765E+02</pdfrwt>
<totfact> 0.62158994E+00</totfact>
</mgrwt>
</event>
<event>
13    1  0.1942437E-008  0.5755040E+02  0.7546771E-02  0.1496041E+00
          2   -1    0    0  502    0  0.00000000000E+00  0.00000000000E+00  0.17015769167E+03  0.17015769167E+03  0.00000000000E+00 0. -1.
          2   -1    0    0  503    0 -0.00000000000E+00 -0.00000000000E+00 -0.34060001997E+04  0.34060001997E+04  0.00000000000E+00 0. -1.
         24    2    1    2    0    0 -0.83418243086E+02 -0.83839544891E+01 -0.12614059184E+04  0.12664688091E+04  0.75956957223E+02 0.  0.
         24    2    1    2    0    0  0.13067438221E+03  0.69354073612E+01 -0.69763393475E+03  0.71488781919E+03  0.85132796722E+02 0.  0.
         25    2    1    2    0    0  0.21310285720E+02  0.16133370184E+02 -0.14080509118E+03  0.19017298677E+03  0.12500110914E+03 0.  0.
        -11    1    4    4    0    0 -0.10757366162E+02 -0.79691713271E+01 -0.78234592767E+02  0.79371784179E+02  0.00000000000E+00 0.  1.
         12    1    4    4    0    0  0.14143174837E+03  0.14904578688E+02 -0.61939934198E+03  0.63551603501E+03  0.00000000000E+00 0. -1.
        -13    1    3    3    0    0 -0.96122964729E+01 -0.32942089571E+02 -0.46926095277E+03  0.47051399480E+03  0.00000000000E+00 0.  1.
         14    1    3    3    0    0 -0.73805946613E+02  0.24558135082E+02 -0.79214496566E+03  0.79595481427E+03  0.00000000000E+00 0. -1.
          5    1    5    5  501    0  0.15622438550E+02  0.17795667680E+02 -0.16400447004E+03  0.16577183889E+03  0.47000000000E+01 0.  1.
         -5    1    5    5    0  501  0.56878471691E+01 -0.16622974965E+01  0.23199378865E+02  0.24401147885E+02  0.47000000000E+01 0.  1.
          1    1    1    2  502    0 -0.12571091962E+02 -0.27480457904E+02  0.13195717850E+03  0.13537320590E+03  0.00000000000E+00 0. -1.
          1    1    1    2  503    0 -0.55995332882E+02  0.12795634848E+02 -0.12679547422E+04  0.12692550705E+04  0.00000000000E+00 0. -1.
<mgrwt>
<rscale>  0 0.41702932E+02</rscale>
<asrwt>0</asrwt>
<pdfrwt beam="1">  1        2 0.25023189E-01 0.30219330E+02</pdfrwt>
<pdfrwt beam="2">  1        2 0.50088239E+00 0.57550401E+02</pdfrwt>
<totfact> 0.59152772E+01</totfact>
</mgrwt>
</event>
<event>
13    1  0.1942437E-008  0.8212598E+02  0.7546771E-02  0.1341279E+00
          2   -1    0    0  502    0  0.00000000000E+00  0.00000000000E+00  0.28587499922E+04  0.28587499922E+04  0.00000000000E+00 0. -1.
          2   -1    0    0  503    0 -0.00000000000E+00 -0.00000000000E+00 -0.17963810377E+04  0.17963810377E+04  0.00000000000E+00 0. -1.
         24    2    1    2    0    0 -0.17627332863E+03  0.24432386503E+03 -0.30131358990E+03  0.43228181699E+03  0.72878339938E+02 0.  0.
         24    2    1    2    0    0  0.40190853220E+03  0.31881704743E+03 -0.55360026427E+03  0.75862184305E+03  0.76544563242E+02 0.  0.
         25    2    1    2    0    0 -0.21011178111E+03 -0.46911140653E+03  0.25866207826E+03  0.58884966435E+03  0.12500153673E+03 0.  0.
        -11    1    4    4    0    0  0.11776503693E+03  0.77858448674E+02 -0.20130028932E+03  0.24587059286E+03  0.00000000000E+00 0.  1.
         12    1    4    4    0    0  0.28414349526E+03  0.24095859876E+03 -0.35229997495E+03  0.51275125018E+03  0.00000000000E+00 0. -1.
        -11    1    3    3    0    0 -0.15451903131E+03  0.16066576674E+03 -0.22904634685E+03  0.31961202831E+03  0.00000000000E+00 0.  1.
         12    1    3    3    0    0 -0.21754297322E+02  0.83658098300E+02 -0.72267243053E+02  0.11266978868E+03  0.00000000000E+00 0. -1.
          5    1    5    5  501    0 -0.84332950576E+02 -0.33103896375E+03  0.17962305246E+03  0.38598623427E+03  0.47000000000E+01 0.  1.
         -5    1    5    5    0  501 -0.12577883053E+03 -0.13807244278E+03  0.79039025805E+02  0.20286343008E+03  0.47000000000E+01 0.  1.
          1    1    1    2  502    0 -0.64268976601E+02 -0.27844158430E+02  0.22636785875E+04  0.22647619182E+04  0.00000000000E+00 0. -1.
          1    1    1    2  503    0  0.48745554142E+02 -0.66185347506E+02 -0.60505785709E+03  0.61061578730E+03  0.00000000000E+00 0. -1.
<mgrwt>
<rscale>  0 0.75843388E+02</rscale>
<asrwt>0</asrwt>
<pdfrwt beam="1">  1        2 0.42040441E+00 0.70041406E+02</pdfrwt>
<pdfrwt beam="2">  1        2 0.26417368E+00 0.82125985E+02</pdfrwt>
<totfact> 0.66027437E+00</totfact>
</mgrwt>
</event>
<event>
13    1  0.1942437E-008  0.1729541E+03  0.7546771E-02  0.1377055E+00
          2   -1    0    0  502    0  0.00000000000E+00  0.00000000000E+00  0.14391387624E+04  0.14391387624E+04  0.00000000000E+00 0. -1.
          2   -1    0    0  503    0 -0.00000000000E+00 -0.00000000000E+00 -0.30772077546E+04  0.30772077546E+04  0.00000000000E+00 0. -1.
         24    2    1    2    0    0  0.25040916724E+02 -0.75622558676E+02 -0.13382433086E+04  0.13429663919E+04  0.79484324749E+02 0.  0.
         24    2    1    2    0    0  0.41576861025E+01  0.29689118755E+02  0.32319549893E+02  0.93519790144E+02  0.82478286337E+02 0.  0.
         25    2    1    2    0    0  0.21760371373E+03 -0.22857171541E+03  0.81426586425E+03  0.88218430211E+03  0.12499535945E+03 0.  0.
        -11    1    4    4    0    0  0.35577744884E+02 -0.10067986170E+02  0.11341019833E+02  0.38675043729E+02  0.00000000000E+00 0.  1.
         12    1    4    4    0    0 -0.31420058782E+02  0.39757104925E+02  0.20978530061E+02  0.54844746416E+02  0.00000000000E+00 0. -1.
        -13    1    3    3    0    0  0.48170902197E+02 -0.19764729959E+02 -0.62679279396E+03  0.62895173657E+03  0.00000000000E+00 0.  1.
         14    1    3    3    0    0 -0.23129985472E+02 -0.55857828716E+02 -0.71145051465E+03  0.71401465535E+03  0.00000000000E+00 0. -1.
          5    1    5    5  501    0  0.12606885241E+02 -0.22508951961E+02  0.11932623539E+02  0.28810830921E+02  0.47000000000E+01 0. -1.
         -5    1    5    5    0  501  0.20499682849E+03 -0.20606276345E+03  0.80233324071E+03  0.85337347119E+03  0.47000000000E+01 0. -1.
          1    1    1    2  502    0 -0.26410372968E+03  0.29201023788E+03  0.45179383670E+03  0.59928159486E+03  0.00000000000E+00 0. -1.
          1    1    1    2  503    0  0.17301413118E+02 -0.17505082556E+02 -0.15982049345E+04  0.15983944380E+04  0.00000000000E+00 0. -1.
<mgrwt>
<rscale>  0 0.65244176E+02</rscale>
<asrwt>0</asrwt>
<pdfrwt beam="1">  1        2 0.21163805E+00 0.17295406E+03</pdfrwt>
<pdfrwt beam="2">  1        2 0.45253055E+00 0.24612330E+02</pdfrwt>
<totfact> 0.86411233E+00</totfact>
</mgrwt>
</event>
<event>
13    1  0.1942437E-008  0.9057891E+02  0.7546771E-02  0.1459172E+00
          2   -1    0    0  502    0  0.00000000000E+00  0.00000000000E+00  0.28565581725E+04  0.28565581725E+04  0.00000000000E+00 0. -1.
          2   -1    0    0  503    0 -0.00000000000E+00 -0.00000000000E+00 -0.15462630737E+04  0.15462630737E+04  0.00000000000E+00 0. -1.
         24    2    1    2    0    0  0.31225939001E+02 -0.97243240428E+02 -0.52880364197E+03  0.54456677805E+03  0.80550461914E+02 0.  0.
         24    2    1    2    0    0 -0.23081766762E+02 -0.33217812016E+02  0.84745784819E+02  0.12454535540E+03  0.81813852826E+02 0.  0.
         25    2    1    2    0    0 -0.52603767576E+02  0.46965867489E+02  0.98292300301E+03  0.99334624932E+03  0.12500476844E+03 0.  0.
        -11    1    3    3    0    0 -0.21667394852E+02 -0.44486139781E+02 -0.13599908283E+03  0.14472126023E+03  0.00000000000E+00 0.  1.
         12    1    3    3    0    0  0.52893333853E+02 -0.52757100647E+02 -0.39280455915E+03  0.39984551782E+03  0.00000000000E+00 0. -1.
        -11    1    4    4    0    0  0.36740312196E+01  0.18691613994E+02  0.56595906685E+02  0.59715756653E+02  0.00000000000E+00 0.  1.
         12    1    4    4    0    0 -0.26755797981E+02 -0.51909426010E+02  0.28149878134E+02  0.64829598744E+02  0.00000000000E+00 0. -1.
          5    1    5    5  501    0 -0.86953863118E+02  0.73314599184E+01  0.71293569355E+03  0.71827161837E+03  0.47000000000E+01 0. -1.
         -5    1    5    5    0  501  0.34350095542E+02  0.39634407570E+02  0.26998730946E+03  0.27507463095E+03  0.47000000000E+01 0. -1.
          1    1    1    2  502    0  0.24459025747E+02 -0.48466713230E+01  0.17537241548E+04  0.17539014069E+04  0.00000000000E+00 0. -1.
          1    1    1    2  503    0  0.20000569590E+02  0.88341856278E+02 -0.98229420179E+03  0.98646145653E+03  0.00000000000E+00 0. -1.
<mgrwt>
<rscale>  0 0.47524191E+02</rscale>
<asrwt>0</asrwt>
<pdfrwt beam="1">  1        2 0.42008209E+00 0.24934598E+02</pdfrwt>
<pdfrwt beam="2">  1        2 0.22739163E+00 0.90578911E+02</pdfrwt>
<totfact> 0.10288815E+01</totfact>
</mgrwt>
</event>
<event>
13    1  0.1942437E-008  0.1010565E+03  0.7546771E-02  0.1371104E+00
          2   -1    0    0  503    0  0.00000000000E+00  0.00000000000E+00  0.80331487001E+03  0.80331487001E+03  0.00000000000E+00 0. -1.
          2   -1    0    0  502    0 -0.00000000000E+00 -0.00000000000E+00 -0.20181813110E+04  0.20181813110E+04  0.00000000000E+00 0. -1.
         24    2    1    2    0    0 -0.63579229164E+02 -0.10422302891E+02 -0.35985597954E+03  0.37419234744E+03  0.79828842485E+02 0.  0.
         24    2    1    2    0    0 -0.65732667762E+02  0.74165025207E+02  0.91685646106E+02  0.15883548705E+03  0.83673291254E+02 0.  0.
         25    2    1    2    0    0  0.28249813674E+02 -0.11888693052E+03  0.38941136340E+03  0.42684564594E+03  0.12499536507E+03 0.  0.
        -13    1    4    4    0    0 -0.30577836214E+01 -0.17992851535E+02  0.12958582315E+02  0.22383422496E+02  0.00000000000E+00 0.  1.
         14    1    4    4    0    0 -0.62674884141E+02  0.92157876742E+02  0.78727063791E+02  0.13645206455E+03  0.00000000000E+00 0. -1.
        -13    1    3    3    0    0 -0.41175067176E+02  0.32125204310E+02 -0.22617138998E+03  0.23212262396E+03  0.00000000000E+00 0.  1.
         14    1    3    3    0    0 -0.22404161988E+02 -0.42547507201E+02 -0.13368458956E+03  0.14206972348E+03  0.00000000000E+00 0. -1.
          5    1    5    5  501    0  0.76504651121E+01 -0.13542233413E+03  0.24608435956E+03  0.28102907362E+03  0.47000000000E+01 0. -1.
         -5    1    5    5    0  501  0.20599348561E+02  0.16535403609E+02  0.14332700384E+03  0.14581657233E+03  0.47000000000E+01 0. -1.
          1    1    1    2  502    0  0.10781664024E+03  0.98862280423E+02 -0.15936293718E+04  0.16003289515E+04  0.00000000000E+00 0. -1.
          1    1    1    2  503    0 -0.67545569888E+01 -0.43718072219E+02  0.25752190085E+03  0.26129374906E+03  0.00000000000E+00 0. -1.
<mgrwt>
<rscale>  0 0.66861165E+02</rscale>
<asrwt>0</asrwt>
<pdfrwt beam="1">  1        2 0.11813454E+00 0.44236793E+02</pdfrwt>
<pdfrwt beam="2">  1        2 0.29679136E+00 0.10105650E+03</pdfrwt>
<totfact> 0.55677545E+01</totfact>
</mgrwt>
</event>
<event>
13    1  0.1942437E-008  0.1742687E+03  0.7546771E-02  0.1192018E+00
         -3   -1    0    0    0  501 -0.00000000000E+00  0.00000000000E+00  0.14248335433E+04  0.14248335433E+04  0.00000000000E+00 0.  1.
          2   -1    0    0  503    0  0.00000000000E+00 -0.00000000000E+00 -0.21259447075E+04  0.21259447075E+04  0.00000000000E+00 0. -1.
         24    2    1    2    0    0 -0.22074047379E+03 -0.62789438978E+03 -0.13471119812E+03  0.68390202820E+03  0.81222877268E+02 0.  0.
         24    2    1    2    0    0  0.92949104513E+02  0.53743802039E+03 -0.49700491638E+03  0.74464486896E+03  0.10001465973E+03 0.  0.
         25    2    1    2    0    0 -0.13848983393E+03  0.96437649264E+02 -0.30844733887E+03  0.37315439153E+03  0.12499913907E+03 0.  0.
        -11    1    4    4    0    0  0.96425073352E+02  0.53697020472E+03 -0.50000696313E+03  0.74002821481E+03  0.00000000000E+00 0.  1.
         12    1    4    4    0    0 -0.34759688388E+01  0.46781567022E+00  0.30020467471E+01  0.46166541501E+01  0.00000000000E+00 0. -1.
        -11    1    3    3    0    0 -0.19335604008E+03 -0.48769277027E+03 -0.78847871160E+02  0.53051652490E+03  0.00000000000E+00 0.  1.
         12    1    3    3    0    0 -0.27384433712E+02 -0.14020161951E+03 -0.55863326958E+02  0.15338550329E+03  0.00000000000E+00 0. -1.
          5    1    5    5  502    0 -0.16130751163E+03  0.92850919149E+02 -0.27934263113E+03  0.33570195421E+03  0.47000000000E+01 0. -1.
         -5    1    5    5    0  502  0.22817677704E+02  0.35867301150E+01 -0.29104707736E+02  0.37452437319E+02  0.47000000000E+01 0. -1.
          1    1    1    2  503    0  0.11211018565E+03 -0.86514495054E+02 -0.74064373713E+03  0.75406007514E+03  0.00000000000E+00 0. -1.
         -4    1    1    2    0  501  0.15417101756E+03  0.80533215176E+02  0.97969602627E+03  0.99501688694E+03  0.00000000000E+00 0.  1.
<mgrwt>
<rscale>  0 0.15709305E+03</rscale>
<asrwt>0</asrwt>
<pdfrwt beam="2">  1        2 0.31263892E+00 0.14161021E+03</pdfrwt>
<pdfrwt beam="1">  1       -3 0.20953435E+00 0.17426869E+03</pdfrwt>
<totfact> 0.66855967E-01</totfact>
</mgrwt>
</event>
<event>
13    1  0.1942437E-008  0.5224593E+02  0.7546771E-02  0.1693147E+00
          2   -1    0    0  502    0  0.00000000000E+00  0.00000000000E+00  0.62072355256E+03  0.62072355256E+03  0.00000000000E+00 0. -1.
          2   -1    0    0  503    0 -0.00000000000E+00 -0.00000000000E+00 -0.11357928636E+04  0.11357928636E+04  0.00000000000E+00 0. -1.
         24    2    1    2    0    0 -0.17552620067E+02 -0.36499744390E+00 -0.24806457563E+03  0.26049549617E+03  0.77547676632E+02 0.  0.
         24    2    1    2    0    0 -0.66786672386E+02 -0.92596978756E+02 -0.37520071129E+03  0.40037681792E+03  0.80568992118E+02 0.  0.
         25    2    1    2    0    0  0.86674006911E+02  0.15514066481E+03  0.37095960386E+03  0.42990234544E+03  0.12499595822E+03 0.  0.
        -13    1    4    4    0    0  0.17655281137E+02 -0.24279527715E+02 -0.10362036126E+03  0.10788134077E+03  0.00000000000E+00 0.  1.
         14    1    4    4    0    0 -0.84441953523E+02 -0.68317451041E+02 -0.27158035002E+03  0.29249547715E+03  0.00000000000E+00 0. -1.
        -13    1    3    3    0    0  0.28098472371E+02 -0.13527610109E+02 -0.80630986666E+02  0.86451584113E+02  0.00000000000E+00 0.  1.
         14    1    3    3    0    0 -0.45651092437E+02  0.13162612665E+02 -0.16743358896E+03  0.17404391206E+03  0.00000000000E+00 0. -1.
          5    1    5    5  501    0 -0.25487349419E+02  0.38478563065E+02  0.14271975416E+03  0.15007072673E+03  0.47000000000E+01 0.  1.
         -5    1    5    5    0  501  0.11216135633E+03  0.11666210175E+03  0.22823984970E+03  0.27983161871E+03  0.47000000000E+01 0.  1.
          1    1    1    2  502    0 -0.23678003805E+01 -0.52141970495E+02  0.19805318070E+03  0.20481565846E+03  0.00000000000E+00 0. -1.
          1    1    1    2  503    0  0.33085922002E-01 -0.10036718119E+02 -0.46081680872E+03  0.46092609820E+03  0.00000000000E+00 0. -1.
<mgrwt>
<rscale>  0 0.22899356E+02</rscale>
<asrwt>0</asrwt>
<pdfrwt beam="1">  1        2 0.91282876E-01 0.52245927E+02</pdfrwt>
<pdfrwt beam="2">  1        2 0.16702836E+00 0.10036773E+02</pdfrwt>
<totfact> 0.23423519E+02</totfact>
</mgrwt>
</event>
<event>
13    1  0.1942437E-008  0.1155785E+03  0.7546771E-02  0.1289614E+00
          2   -1    0    0  503    0  0.00000000000E+00  0.00000000000E+00  0.17040970385E+04  0.17040970385E+04  0.00000000000E+00 0. -1.
         -1   -1    0    0    0  501 -0.00000000000E+00 -0.00000000000E+00 -0.11809203656E+04  0.11809203656E+04  0.00000000000E+00 0.  1.
         24    2    1    2    0    0 -0.42081452490E+02  0.22656074072E+02 -0.26229297639E+03  0.27820417253E+03  0.79472069390E+02 0.  0.
         24    2    1    2    0    0  0.42433645498E+02  0.63633163077E+02  0.79720283217E+02  0.14815020861E+03  0.98708495289E+02 0.  0.
         25    2    1    2    0    0  0.16783416251E+03 -0.20159302062E+02  0.47763428135E+03  0.52185330580E+03  0.12498664923E+03 0.  0.
        -11    1    4    4    0    0 -0.28123693605E+02  0.41246433281E+02  0.23384696981E+02  0.55127619695E+02  0.00000000000E+00 0.  1.
         12    1    4    4    0    0  0.70557339103E+02  0.22386729796E+02  0.56335586236E+02  0.93022588917E+02  0.00000000000E+00 0. -1.
        -11    1    3    3    0    0 -0.11086575930E+01 -0.25979545705E+02 -0.11258877561E+03  0.11555257812E+03  0.00000000000E+00 0.  1.
         12    1    3    3    0    0 -0.40972794897E+02  0.48635619778E+02 -0.14970420078E+03  0.16265159441E+03  0.00000000000E+00 0. -1.
          5    1    5    5  502    0  0.14491605477E+03 -0.31801503178E+02  0.47243943434E+03  0.49521016513E+03  0.47000000000E+01 0.  1.
         -5    1    5    5    0  502  0.22918107733E+02  0.11642201116E+02  0.51948470130E+01  0.26643140663E+02  0.47000000000E+01 0.  1.
          1    1    1    2  503    0 -0.11479653151E+03 -0.75826542459E+01  0.10775565677E+04  0.10836807172E+04  0.00000000000E+00 0. -1.
         -2    1    1    2    0  501 -0.53389824003E+02 -0.58547280841E+02 -0.84944148304E+03  0.85312899992E+03  0.00000000000E+00 0.  1.
<mgrwt>
<rscale>  0 0.95697010E+02</rscale>
<asrwt>0</asrwt>
<pdfrwt beam="1">  1        2 0.25060251E+00 0.11557853E+03</pdfrwt>
<pdfrwt beam="2">  1       -1 0.17366476E+00 0.79235455E+02</pdfrwt>
<totfact> 0.40342907E+00</totfact>
</mgrwt>
</event>
<event>
13    1  0.1942437E-008  0.5613063E+02  0.7546771E-02  0.1451585E+00
          2   -1    0    0  503    0  0.00000000000E+00  0.00000000000E+00  0.71148982331E+03  0.71148982331E+03  0.00000000000E+00 0. -1.
          2   -1    0    0  502    0 -0.00000000000E+00 -0.00000000000E+00 -0.10837666897E+04  0.10837666897E+04  0.00000000000E+00 0. -1.
         24    2    1    2    0    0  0.13574247582E+03  0.10221925321E+03  0.13418469546E+02  0.19603805299E+03  0.96830095664E+02 0.  0.
         24    2    1    2    0    0 -0.96548335731E+02 -0.70272751367E+02  0.10376230480E+03  0.17757522476E+03  0.80662902461E+02 0.  0.
         25    2    1    2    0    0 -0.91524645361E+01 -0.10776968770E+02  0.72010552256E+02  0.14495134559E+03  0.12500184914E+03 0.  0.
        -11    1    4    4    0    0 -0.20106879561E+02  0.16011228307E+02  0.34745645790E+02  0.43219277399E+02  0.00000000000E+00 0.  1.
         12    1    4    4    0    0 -0.76441456171E+02 -0.86283979674E+02  0.69016659011E+02  0.13435594736E+03  0.00000000000E+00 0. -1.
        -11    1    3    3    0    0  0.96541907403E+01  0.27994185360E+01 -0.28388225420E+02  0.30115303178E+02  0.00000000000E+00 0.  1.
         12    1    3    3    0    0  0.12608828508E+03  0.99419834670E+02  0.41806694966E+02  0.16592274981E+03  0.00000000000E+00 0. -1.
          5    1    5    5  501    0  0.35904287940E+02 -0.15518295958E+02 -0.18577815421E+02  0.43556407424E+02  0.47000000000E+01 0. -1.
         -5    1    5    5    0  501 -0.45056752476E+02  0.47413271878E+01  0.90588367677E+02  0.10139493817E+03  0.47000000000E+01 0. -1.
          1    1    1    2  502    0 -0.55394019893E+01 -0.55935043036E+02 -0.91695176707E+03  0.91867293263E+03  0.00000000000E+00 0. -1.
          1    1    1    2  503    0 -0.24502273568E+02  0.34765509966E+02  0.35548357412E+03  0.35801895699E+03  0.00000000000E+00 0. -1.
<mgrwt>
<rscale>  0 0.48860706E+02</rscale>
<asrwt>0</asrwt>
<pdfrwt beam="1">  1        2 0.10463086E+00 0.42532365E+02</pdfrwt>
<pdfrwt beam="2">  1        2 0.15937745E+00 0.56130634E+02</pdfrwt>
<totfact> 0.19386704E+02</totfact>
</mgrwt>
</event>
<event>
13    1  0.1942437E-008  0.1336657E+03  0.7546771E-02  0.1370919E+00
          2   -1    0    0  502    0  0.00000000000E+00  0.00000000000E+00  0.23677878047E+04  0.23677878047E+04  0.00000000000E+00 0. -1.
          2   -1    0    0  503    0 -0.00000000000E+00 -0.00000000000E+00 -0.15075789001E+04  0.15075789001E+04  0.00000000000E+00 0. -1.
         24    2    1    2    0    0 -0.33729313633E+02 -0.91457415481E+02 -0.17086943772E+03  0.21264417784E+03  0.80740672387E+02 0.  0.
         24    2    1    2    0    0  0.13430273750E+03  0.83876218042E+02  0.69090966339E+01  0.17782772754E+03  0.80638203189E+02 0.  0.
         25    2    1    2    0    0 -0.24041279873E+03 -0.20623977767E+03  0.25446683519E+03  0.42510083632E+03  0.12499676452E+03 0.  0.
        -11    1    4    4    0    0  0.62765778737E+02  0.18447901400E+02  0.38446651835E+02  0.75881572756E+02  0.00000000000E+00 0.  1.
         12    1    4    4    0    0  0.71536958761E+02  0.65428316641E+02 -0.31537555202E+02  0.10194615478E+03  0.00000000000E+00 0. -1.
        -11    1    3    3    0    0 -0.12560918159E+02 -0.94161197806E+02 -0.97059398830E+02  0.13581102584E+03  0.00000000000E+00 0.  1.
         12    1    3    3    0    0 -0.21168395474E+02  0.27037823258E+01 -0.73810038888E+02  0.76833152002E+02  0.00000000000E+00 0. -1.
          5    1    5    5  501    0 -0.19772955059E+03 -0.94617205780E+02  0.18442261702E+03  0.28650162735E+03  0.47000000000E+01 0. -1.
         -5    1    5    5    0  501 -0.42683248132E+02 -0.11162257189E+03  0.70044218175E+02  0.13859920896E+03  0.47000000000E+01 0. -1.
          1    1    1    2  502    0  0.17807285352E+02  0.28370409544E+02  0.19038392700E+04  0.19041339096E+04  0.00000000000E+00 0. -1.
          1    1    1    2  503    0  0.12203208951E+03  0.18545056556E+03 -0.11341368595E+04  0.11556600535E+04  0.00000000000E+00 0. -1.
<mgrwt>
<rscale>  0 0.66912337E+02</rscale>
<asrwt>0</asrwt>
<pdfrwt beam="1">  1        2 0.34820409E+00 0.33495963E+02</pdfrwt>
<pdfrwt beam="2">  1        2 0.22170278E+00 0.13366569E+03</pdfrwt>
<totfact> 0.16969607E+01</totfact>
</mgrwt>
</event>
<event>
13    1  0.1942437E-008  0.1631014E+03  0.7546771E-02  0.1416551E+00
          2   -1    0    0  502    0  0.00000000000E+00  0.00000000000E+00  0.17986906566E+04  0.17986906566E+04  0.00000000000E+00 0. -1.
          2   -1    0    0  503    0 -0.00000000000E+00 -0.00000000000E+00 -0.40638371672E+04  0.40638371672E+04  0.00000000000E+00 0. -1.
         24    2    1    2    0    0 -0.40877388269E+03  0.14208944205E+03 -0.13590535200E+04  0.14286681812E+04  0.82345643875E+02 0.  0.
         24    2    1    2    0    0 -0.18104869316E+03  0.27656794324E+02 -0.77310230570E+02  0.21698078591E+03  0.86949767875E+02 0.  0.
         25    2    1    2    0    0  0.59724650375E+03  0.49930445806E+01  0.11688072802E+04  0.13185082833E+04  0.12500127257E+03 0.  0.
        -13    1    3    3    0    0 -0.49171538969E+02  0.18869357531E+02 -0.94135687479E+02  0.10786760661E+03  0.00000000000E+00 0.  1.
         14    1    3    3    0    0 -0.35960234372E+03  0.12322008452E+03 -0.12649178325E+04  0.13208005746E+04  0.00000000000E+00 0. -1.
        -13    1    4    4    0    0 -0.47539024779E+02  0.30451850082E+02  0.10134898493E+02  0.57358436326E+02  0.00000000000E+00 0.  1.
         14    1    4    4    0    0 -0.13350966839E+03 -0.27950557577E+01 -0.87445129063E+02  0.15962234958E+03  0.00000000000E+00 0. -1.
          5    1    5    5  501    0  0.35080829072E+03  0.52992460743E+02  0.75979803338E+03  0.83856412948E+03  0.47000000000E+01 0. -1.
         -5    1    5    5    0  501  0.24643821303E+03 -0.47999416162E+02  0.40900924679E+03  0.47994415379E+03  0.47000000000E+01 0. -1.
          1    1    1    2  502    0  0.13885180557E+02 -0.13058446244E+02  0.44747115660E+03  0.44787694431E+03  0.00000000000E+00 0. -1.
          1    1    1    2  503    0 -0.21309108456E+02 -0.16168083471E+03 -0.24450611967E+04  0.24504936291E+04  0.00000000000E+00 0. -1.
<mgrwt>
<rscale>  0 0.55757278E+02</rscale>
<asrwt>0</asrwt>
<pdfrwt beam="1">  1        2 0.26451334E+00 0.19060988E+02</pdfrwt>
<pdfrwt beam="2">  1        2 0.59762309E+00 0.16310142E+03</pdfrwt>
<totfact> 0.12807541E+00</totfact>
</mgrwt>
</event>
<event>
13    1  0.1942437E-008  0.8450558E+02  0.7546771E-02  0.1390866E+00
         -1   -1    0    0    0  501  0.00000000000E+00  0.00000000000E+00  0.45288236641E+03  0.45288236641E+03  0.00000000000E+00 0.  1.
         -1   -1    0    0    0  502 -0.00000000000E+00 -0.00000000000E+00 -0.41952446529E+03  0.41952446529E+03  0.00000000000E+00 0.  1.
         24    2    1    2    0    0  0.53995036598E+01  0.75273713167E+02 -0.56400521213E+02  0.12443506685E+03  0.81288255827E+02 0.  0.
         24    2    1    2    0    0  0.45148107777E+02 -0.22025371437E+02 -0.11881337944E+02  0.85937442640E+02  0.68706689873E+02 0.  0.
         25    2    1    2    0    0 -0.32403101263E+02 -0.17209080694E+02  0.27887078595E+03  0.30779846970E+03  0.12499947706E+03 0.  0.
        -13    1    3    3    0    0 -0.26295008736E+02  0.52970173185E+02 -0.61529833551E+02  0.85341590965E+02  0.00000000000E+00 0.  1.
         14    1    3    3    0    0  0.31694512396E+02  0.22303539982E+02  0.51293123377E+01  0.39093475885E+02  0.00000000000E+00 0. -1.
        -13    1    4    4    0    0  0.42401573833E+02 -0.42583966087E+02 -0.20475077861E+02  0.63486348490E+02  0.00000000000E+00 0.  1.
         14    1    4    4    0    0  0.27465339444E+01  0.20558594651E+02  0.85937399175E+01  0.22451094149E+02  0.00000000000E+00 0. -1.
          5    1    5    5  503    0 -0.12446691193E+02 -0.21990323315E+02 -0.23332057174E+01  0.25807523904E+02  0.47000000000E+01 0. -1.
         -5    1    5    5    0  503 -0.19956410070E+02  0.47812426209E+01  0.28120399167E+03  0.28199094580E+03  0.47000000000E+01 0. -1.
         -2    1    1    2    0  501  0.22349161738E+02  0.39100485707E+02  0.75260569864E+02  0.87706820654E+02  0.00000000000E+00 0.  1.
         -2    1    1    2    0  502 -0.40493671912E+02 -0.75139746744E+02 -0.25249159554E+03  0.26652903186E+03  0.00000000000E+00 0.  1.
<mgrwt>
<rscale>  0 0.61691809E+02</rscale>
<asrwt>0</asrwt>
<pdfrwt beam="1">  1       -1 0.66600348E-01 0.45037018E+02</pdfrwt>
<pdfrwt beam="2">  1       -1 0.61694774E-01 0.84505579E+02</pdfrwt>
<totfact> 0.58835633E+01</totfact>
</mgrwt>
</event>
<event>
13    1  0.1942437E-008  0.9017869E+02  0.7546771E-02  0.1368590E+00
         -1   -1    0    0    0  501 -0.00000000000E+00  0.00000000000E+00  0.44659201388E+03  0.44659201388E+03  0.00000000000E+00 0.  1.
          2   -1    0    0  503    0  0.00000000000E+00 -0.00000000000E+00 -0.22546052251E+04  0.22546052251E+04  0.00000000000E+00 0. -1.
         24    2    1    2    0    0  0.42295931285E+02 -0.33648177376E+02 -0.19386593099E+02  0.99092648185E+02  0.80761174387E+02 0.  0.
         24    2    1    2    0    0  0.12123140768E+03 -0.39601894949E+02 -0.29531184871E+02  0.15333299843E+03  0.79834536612E+02 0.  0.
         25    2    1    2    0    0 -0.24591020938E+03 -0.39965237136E+02 -0.29549732487E+03  0.40621680721E+03  0.12499749677E+03 0.  0.
        -11    1    4    4    0    0  0.67465895481E+02 -0.60245891701E+02 -0.31301820830E+02  0.95713209680E+02  0.00000000000E+00 0.  1.
         12    1    4    4    0    0  0.53765512200E+02  0.20643996752E+02  0.17706359594E+01  0.57619788751E+02  0.00000000000E+00 0. -1.
        -13    1    3    3    0    0  0.60164198033E+02 -0.14518333742E+02  0.65570956527E+01  0.62237514756E+02  0.00000000000E+00 0.  1.
         14    1    3    3    0    0 -0.17868266748E+02 -0.19129843634E+02 -0.25943688752E+02  0.36855133429E+02  0.00000000000E+00 0. -1.
          5    1    5    5  502    0 -0.65472568800E+01 -0.33061571866E+02 -0.14483771364E+02  0.36983830789E+02  0.47000000000E+01 0.  1.
         -5    1    5    5    0  502 -0.23936295250E+03 -0.69036652698E+01 -0.28101355351E+03  0.36923297643E+03  0.47000000000E+01 0.  1.
          1    1    1    2  503    0  0.31702411241E+02  0.39457825299E+02 -0.17457843982E+04  0.17465180010E+04  0.00000000000E+00 0. -1.
         -2    1    1    2    0  501  0.50680459177E+02  0.73757484161E+02  0.28218628981E+03  0.29603678415E+03  0.00000000000E+00 0.  1.
<mgrwt>
<rscale>  0 0.67560859E+02</rscale>
<asrwt>0</asrwt>
<pdfrwt beam="2">  1        2 0.33155959E+00 0.50615836E+02</pdfrwt>
<pdfrwt beam="1">  1       -1 0.65675296E-01 0.90178687E+02</pdfrwt>
<totfact> 0.21525095E+01</totfact>
</mgrwt>
</event>
<event>
13    1  0.1942437E-008  0.1219869E+03  0.7546771E-02  0.1362647E+00
         -3   -1    0    0    0  501 -0.00000000000E+00  0.00000000000E+00  0.15971981346E+04  0.15971981346E+04  0.00000000000E+00 0.  1.
          2   -1    0    0  503    0  0.00000000000E+00 -0.00000000000E+00 -0.13958447456E+04  0.13958447456E+04  0.00000000000E+00 0. -1.
         24    2    1    2    0    0 -0.28080453584E+02 -0.31946640460E+03  0.62445287262E+03  0.70599410633E+03  0.75093225421E+02 0.  0.
         24    2    1    2    0    0  0.15010667790E+03  0.25365239932E+03  0.58455051177E+02  0.31051030862E+03  0.78282209496E+02 0.  0.
         25    2    1    2    0    0  0.36854081710E+02  0.39276207690E+02  0.25816238179E+02  0.13854847513E+03  0.12501343119E+03 0.  0.
        -11    1    3    3    0    0 -0.16204778436E+02 -0.11357138185E+03  0.15153587044E+03  0.19006360422E+03  0.00000000000E+00 0.  1.
         12    1    3    3    0    0 -0.11875675149E+02 -0.20589502275E+03  0.47291700218E+03  0.51593050210E+03  0.00000000000E+00 0. -1.
        -11    1    4    4    0    0  0.22363185004E+02  0.11200556955E+03  0.22262443731E+02  0.11636569965E+03  0.00000000000E+00 0.  1.
         12    1    4    4    0    0  0.12774349289E+03  0.14164682977E+03  0.36192607446E+02  0.19414460897E+03  0.00000000000E+00 0. -1.
          5    1    5    5  502    0  0.53861057391E+02 -0.27598011500E+02 -0.85786757048E+01  0.61305362073E+02  0.47000000000E+01 0.  1.
         -5    1    5    5    0  502 -0.17006975680E+02  0.66874219191E+02  0.34394913884E+02  0.77243113060E+02  0.47000000000E+01 0.  1.
          1    1    1    2  503    0 -0.12054820288E+03  0.17792175876E+02 -0.11689296663E+04  0.11752637982E+04  0.00000000000E+00 0. -1.
         -4    1    1    2    0  501 -0.38332103141E+02  0.87456217158E+01  0.66155889333E+03  0.66272619186E+03  0.00000000000E+00 0.  1.
<mgrwt>
<rscale>  0 0.69254414E+02</rscale>
<asrwt>0</asrwt>
<pdfrwt beam="2">  1        2 0.20527129E+00 0.12198690E+03</pdfrwt>
<pdfrwt beam="1">  1       -3 0.23488208E+00 0.39317121E+02</pdfrwt>
<totfact> 0.11947457E+00</totfact>
</mgrwt>
</event>
<event>
13    1  0.1942437E-008  0.3475968E+02  0.7546771E-02  0.1622066E+00
          2   -1    0    0  502    0  0.00000000000E+00  0.00000000000E+00  0.39484360565E+04  0.39484360565E+04  0.00000000000E+00 0. -1.
          2   -1    0    0  503    0 -0.00000000000E+00 -0.00000000000E+00 -0.56073871516E+03  0.56073871516E+03  0.00000000000E+00 0. -1.
         24    2    1    2    0    0 -0.18232049285E+03  0.26542470906E+02 -0.15306299780E+03  0.25248505543E+03  0.79844580548E+02 0.  0.
         24    2    1    2    0    0 -0.72502570353E+02  0.21730845077E+02 -0.38408019524E+02  0.11607605395E+03  0.79180944687E+02 0.  0.
         25    2    1    2    0    0  0.23704211140E+03 -0.93729883188E+02  0.91104384322E+03  0.95424883643E+03  0.12496281041E+03 0.  0.
        -11    1    3    3    0    0 -0.66036014460E+02  0.48920618172E+02 -0.57212271442E+02  0.10013603793E+03  0.00000000000E+00 0.  1.
         12    1    3    3    0    0 -0.11628447839E+03 -0.22378147266E+02 -0.95850726359E+02  0.15234901750E+03  0.00000000000E+00 0. -1.
        -11    1    4    4    0    0 -0.83125219766E+02 -0.47173324401E+00 -0.38147482468E+02  0.91461768582E+02  0.00000000000E+00 0.  1.
         12    1    4    4    0    0  0.10622649414E+02  0.22202578321E+02 -0.26053705564E+00  0.24614285369E+02  0.00000000000E+00 0. -1.
          5    1    5    5  501    0  0.19760669869E+03 -0.52614127427E+02  0.83153668327E+03  0.85632470442E+03  0.47000000000E+01 0. -1.
         -5    1    5    5    0  501  0.39435412717E+02 -0.41115755760E+02  0.79507159949E+02  0.97924132016E+02  0.47000000000E+01 0. -1.
          1    1    1    2  502    0  0.24965157250E+02  0.24181544592E+02  0.29266547986E+04  0.29268611713E+04  0.00000000000E+00 0. -1.
          1    1    1    2  503    0 -0.71842054466E+01  0.21275022613E+02 -0.25853028315E+03  0.25950365450E+03  0.00000000000E+00 0. -1.
<mgrwt>
<rscale>  0 0.27938114E+02</rscale>
<asrwt>0</asrwt>
<pdfrwt beam="1">  1        2 0.58065234E+00 0.34759681E+02</pdfrwt>
<pdfrwt beam="2">  1        2 0.82461578E-01 0.22455275E+02</pdfrwt>
<totfact> 0.93871611E+00</totfact>
</mgrwt>
</event>
<event>
13    1  0.4255791E-008  0.3983630E+03  0.7546771E-02  0.1176514E+00
          2   -1    0    0  502    0  0.00000000000E+00  0.00000000000E+00  0.39268609010E+04  0.39268609010E+04  0.00000000000E+00 0. -1.
          2   -1    0    0  503    0 -0.00000000000E+00 -0.00000000000E+00 -0.29021885929E+04  0.29021885929E+04  0.00000000000E+00 0. -1.
         24    2    1    2    0    0 -0.27711836803E+02  0.29951439810E+03 -0.46165949687E+03  0.55506541143E+03  0.67017157154E+02 0.  0.
         24    2    1    2    0    0 -0.67234401202E+03 -0.60983334566E+03 -0.85086068472E+02  0.91492567124E+03  0.76851576876E+02 0.  0.
         25    2    1    2    0    0  0.46410667368E+03  0.70667127826E+03  0.51732781044E+03  0.99901557352E+03  0.12499901040E+03 0.  0.
        -11    1    4    4    0    0 -0.27008235695E+03 -0.29355200725E+03 -0.49938347844E+02  0.40200882960E+03  0.00000000000E+00 0.  1.
         12    1    4    4    0    0 -0.40226165507E+03 -0.31628133841E+03 -0.35147720628E+02  0.51291684164E+03  0.00000000000E+00 0. -1.
        -13    1    3    3    0    0 -0.66217409177E+00  0.61041208588E+02 -0.14817524068E+03  0.16025719818E+03  0.00000000000E+00 0.  1.
         14    1    3    3    0    0 -0.27049662711E+02  0.23847318951E+03 -0.31348425619E+03  0.39480821325E+03  0.00000000000E+00 0. -1.
          5    1    5    5  501    0  0.28422190063E+03  0.32437493449E+03  0.28296709052E+03  0.51584266132E+03  0.47000000000E+01 0.  1.
         -5    1    5    5    0  501  0.17988477305E+03  0.38229634377E+03  0.23436071992E+03  0.48317291219E+03  0.47000000000E+01 0.  1.
          1    1    1    2  502    0  0.24010116008E+03 -0.32282101874E+03  0.26912859388E+04  0.27211912799E+04  0.00000000000E+00 0. -1.
          1    1    1    2  503    0 -0.41519849354E+01 -0.73531311966E+02 -0.16371958758E+04  0.16388515579E+04  0.00000000000E+00 0. -1.
<mgrwt>
<rscale>  0 0.17128577E+03</rscale>
<asrwt>0</asrwt>
<pdfrwt beam="1">  1        2 0.57747954E+00 0.39836303E+03</pdfrwt>
<pdfrwt beam="2">  1        2 0.42679244E+00 0.73648441E+02</pdfrwt>
<totfact> 0.33966678E-01</totfact>
</mgrwt>
</event>
<event>
13    1  0.1942437E-008  0.2860384E+02  0.7546771E-02  0.1665208E+00
          2   -1    0    0  502    0  0.00000000000E+00  0.00000000000E+00  0.15587402942E+04  0.15587402942E+04  0.00000000000E+00 0. -1.
          2   -1    0    0  503    0 -0.00000000000E+00 -0.00000000000E+00 -0.55391755904E+03  0.55391755904E+03  0.00000000000E+00 0. -1.
         24    2    1    2    0    0 -0.10702711390E+03 -0.37141458393E+02 -0.19994672714E+03  0.24328258697E+03  0.79833779741E+02 0.  0.
         24    2    1    2    0    0  0.78599596722E+01 -0.66846978871E+02  0.10121804679E+03  0.14511436345E+03  0.79264039357E+02 0.  0.
         25    2    1    2    0    0  0.10204754374E+03  0.91284182615E+02  0.10319721114E+04  0.10484928533E+04  0.12499728623E+03 0.  0.
        -13    1    3    3    0    0 -0.99240076128E+01 -0.17468967755E+02 -0.10201603956E+03  0.10397558891E+03  0.00000000000E+00 0.  1.
         14    1    3    3    0    0 -0.97103106292E+02 -0.19672490638E+02 -0.97930687577E+02  0.13930699806E+03  0.00000000000E+00 0. -1.
        -13    1    4    4    0    0  0.25228131139E+02 -0.76689871348E+02  0.93941863624E+02  0.12386633404E+03  0.00000000000E+00 0.  1.
         14    1    4    4    0    0 -0.17368171467E+02  0.98428924764E+01  0.72761831613E+01  0.21248029410E+02  0.00000000000E+00 0. -1.
          5    1    5    5  501    0  0.10951374080E+03  0.57832641466E+02  0.49044825869E+03  0.50586505938E+03  0.47000000000E+01 0. -1.
         -5    1    5    5    0  501 -0.74661970574E+01  0.33451541149E+02  0.54152385273E+03  0.54262779396E+03  0.47000000000E+01 0. -1.
          1    1    1    2  502    0 -0.17874518166E+02 -0.11667606453E+02  0.37268999199E+03  0.37330076556E+03  0.00000000000E+00 0. -1.
          1    1    1    2  503    0  0.14994128660E+02  0.24371861101E+02 -0.30111068787E+03  0.30246728395E+03  0.00000000000E+00 0. -1.
<mgrwt>
<rscale>  0 0.24709593E+02</rscale>
<asrwt>0</asrwt>
<pdfrwt beam="1">  1        2 0.22922651E+00 0.21345525E+02</pdfrwt>
<pdfrwt beam="2">  1        2 0.81458465E-01 0.28603841E+02</pdfrwt>
<totfact> 0.16116993E+02</totfact>
</mgrwt>
</event>
<event>
13    1  0.1942437E-008  0.1073712E+03  0.7546771E-02  0.1426604E+00
          4   -1    0    0  503    0 -0.00000000000E+00  0.00000000000E+00  0.23222840583E+04  0.23222840583E+04  0.00000000000E+00 0. -1.
          2   -1    0    0  502    0  0.00000000000E+00 -0.00000000000E+00 -0.25681648914E+04  0.25681648914E+04  0.00000000000E+00 0. -1.
         24    2    1    2    0    0 -0.41756243239E+03  0.29958286774E+03 -0.28065878324E+03  0.59167517846E+03  0.84863918149E+02 0.  0.
         24    2    1    2    0    0  0.24579310663E+03 -0.19323334793E+03 -0.84262237326E+03  0.90244290574E+03  0.81469971052E+02 0.  0.
         25    2    1    2    0    0  0.10828903724E+03 -0.44681590827E+02 -0.83372051240E+03  0.85114249228E+03  0.12502275481E+03 0.  0.
        -11    1    4    4    0    0  0.79374200130E+01  0.13162150224E+01 -0.34047873621E+01  0.87365688591E+01  0.00000000000E+00 0.  1.
         12    1    4    4    0    0  0.23785568662E+03 -0.19454956295E+03 -0.83921758589E+03  0.89370633688E+03  0.00000000000E+00 0. -1.
        -13    1    3    3    0    0 -0.22969637881E+02  0.40965409482E+02 -0.41763614586E+02  0.62848775181E+02  0.00000000000E+00 0.  1.
         14    1    3    3    0    0 -0.39459279451E+03  0.25861745826E+03 -0.23889516866E+03  0.52882640328E+03  0.00000000000E+00 0. -1.
          5    1    5    5  501    0  0.10430921662E+03 -0.79598462714E+02 -0.72481799818E+03  0.73661356791E+03  0.47000000000E+01 0. -1.
         -5    1    5    5    0  501  0.39798206277E+01  0.34916871887E+02 -0.10890251422E+03  0.11452892437E+03  0.47000000000E+01 0. -1.
          1    1    1    2  502    0  0.24568136116E+01  0.26692103805E+02 -0.41524674690E+03  0.41611100100E+03  0.00000000000E+00 0. -1.
          3    1    1    2  503    0  0.61023474909E+02 -0.88360032787E+02  0.21263675827E+04  0.21290773722E+04  0.00000000000E+00 0. -1.
<mgrwt>
<rscale>  0 0.53647724E+02</rscale>
<asrwt>0</asrwt>
<pdfrwt beam="2">  1        2 0.37767131E+00 0.26804931E+02</pdfrwt>
<pdfrwt beam="1">  1        4 0.34151236E+00 0.10737122E+03</pdfrwt>
<totfact> 0.68252627E-02</totfact>
</mgrwt>
</event>
<event>
13    1  0.1942437E-008  0.1765134E+03  0.7546771E-02  0.1369534E+00
         -3   -1    0    0    0  501 -0.00000000000E+00  0.00000000000E+00  0.11476733158E+03  0.11476733158E+03  0.00000000000E+00 0.  1.
          2   -1    0    0  503    0  0.00000000000E+00 -0.00000000000E+00 -0.29773228674E+04  0.29773228674E+04  0.00000000000E+00 0. -1.
         24    2    1    2    0    0 -0.11513005707E+03  0.15074714669E+03 -0.56703802384E+03  0.60339067781E+03  0.81046636649E+02 0.  0.
         24    2    1    2    0    0  0.11056561940E+03 -0.38505795506E+02 -0.59858894328E+03  0.61567584210E+03  0.83908086904E+02 0.  0.
         25    2    1    2    0    0 -0.88355835656E+02  0.11563662736E+02 -0.11145721819E+04  0.11250941089E+04  0.12500053296E+03 0.  0.
        -11    1    3    3    0    0 -0.51101144372E+02  0.47355212266E+02 -0.32658287137E+03  0.33393145248E+03  0.00000000000E+00 0.  1.
         12    1    3    3    0    0 -0.64028912696E+02  0.10339193442E+03 -0.24045515247E+03  0.26945922532E+03  0.00000000000E+00 0. -1.
        -11    1    4    4    0    0  0.11869874689E+02  0.21278114973E+01 -0.26827377834E+03  0.26854467347E+03  0.00000000000E+00 0.  1.
         12    1    4    4    0    0  0.98695744709E+02 -0.40633607003E+02 -0.33031516495E+03  0.34713116863E+03  0.00000000000E+00 0. -1.
          5    1    5    5  502    0 -0.73106464539E+01  0.24813650498E+01 -0.16619210198E+01  0.91899241324E+01  0.47000000000E+01 0.  1.
         -5    1    5    5    0  502 -0.81045189202E+02  0.90822976858E+01 -0.11129102609E+04  0.11159041848E+04  0.47000000000E+01 0.  1.
          1    1    1    2  503    0 -0.25228783187E+02  0.46699381649E+01 -0.57253665535E+03  0.57311126454E+03  0.00000000000E+00 0. -1.
         -4    1    1    2    0  501  0.11814905651E+03 -0.12847495208E+03 -0.98197314882E+01  0.17481830566E+03  0.00000000000E+00 0.  1.
<mgrwt>
<rscale>  0 0.67296849E+02</rscale>
<asrwt>0</asrwt>
<pdfrwt beam="2">  1        2 0.43784160E+00 0.25657354E+02</pdfrwt>
<pdfrwt beam="1">  1       -3 0.16877549E-01 0.17651336E+03</pdfrwt>
<totfact> 0.69137438E+01</totfact>
</mgrwt>
</event>
<event>
13    1  0.1942437E-008  0.1230631E+03  0.7546771E-02  0.1519819E+00
          2   -1    0    0  503    0  0.00000000000E+00  0.00000000000E+00  0.22644936742E+04  0.22644936742E+04  0.00000000000E+00 0. -1.
          2   -1    0    0  502    0 -0.00000000000E+00 -0.00000000000E+00 -0.45108631450E+03  0.45108631450E+03  0.00000000000E+00 0. -1.
         24    2    1    2    0    0 -0.18894111080E+02  0.97004049469E+02  0.57284340564E+02  0.14025655832E+03  0.81385707786E+02 0.  0.
         24    2    1    2    0    0 -0.14161933756E+02 -0.54617381730E+02  0.10213812912E+03  0.14158349441E+03  0.80187715486E+02 0.  0.
         25    2    1    2    0    0  0.68586371252E+02  0.13948881163E+03  0.14829220324E+04  0.14962765319E+04  0.12499794716E+03 0.  0.
        -11    1    3    3    0    0 -0.18834452760E+01  0.71450053631E+02  0.75978873790E+02  0.10431417350E+03  0.00000000000E+00 0.  1.
         12    1    3    3    0    0 -0.17010665804E+02  0.25553995838E+02 -0.18694533227E+02  0.35942384825E+02  0.00000000000E+00 0. -1.
        -13    1    4    4    0    0  0.27382127893E+02 -0.28695119427E+02  0.16551283607E+02  0.42978317742E+02  0.00000000000E+00 0.  1.
         14    1    4    4    0    0 -0.41544061649E+02 -0.25922262303E+02  0.85586845511E+02  0.98605176668E+02  0.00000000000E+00 0. -1.
          5    1    5    5  501    0 -0.61355266533E+01  0.77825475500E+02  0.10361341050E+04  0.10390815285E+04  0.47000000000E+01 0.  1.
         -5    1    5    5    0  501  0.74721897905E+02  0.61663336125E+02  0.44678792744E+03  0.45719500342E+03  0.47000000000E+01 0.  1.
          1    1    1    2  502    0 -0.41503432423E+02 -0.19230965138E+03 -0.35787595242E+03  0.40838797024E+03  0.00000000000E+00 0. -1.
          1    1    1    2  503    0  0.59731060079E+01  0.10434172011E+02  0.52893880994E+03  0.52907543376E+03  0.00000000000E+00 0. -1.
<mgrwt>
<rscale>  0 0.38465229E+02</rscale>
<asrwt>0</asrwt>
<pdfrwt beam="1">  1        2 0.33301377E+00 0.12022892E+02</pdfrwt>
<pdfrwt beam="2">  1        2 0.66336224E-01 0.12306305E+03</pdfrwt>
<totfact> 0.10460824E+02</totfact>
</mgrwt>
</event>
<event>
13    1  0.1942437E-008  0.6412446E+02  0.7546771E-02  0.1545554E+00
          2   -1    0    0  502    0  0.00000000000E+00  0.00000000000E+00  0.14386730277E+04  0.14386730277E+04  0.00000000000E+00 0. -1.
          2   -1    0    0  503    0 -0.00000000000E+00 -0.00000000000E+00 -0.20981993394E+04  0.20981993394E+04  0.00000000000E+00 0. -1.
         24    2    1    2    0    0 -0.43015269485E+02 -0.30475707487E+01 -0.57905777782E+03  0.58634917892E+03  0.81472992266E+02 0.  0.
         24    2    1    2    0    0  0.14454788073E+03  0.12967761375E+02 -0.53678897242E+03  0.56173769935E+03  0.79652930258E+02 0.  0.
         25    2    1    2    0    0 -0.12581234683E+03  0.28276725420E+02  0.80567897569E+02  0.19683704881E+03  0.12500127140E+03 0.  0.
        -11    1    3    3    0    0  0.48875777737E+01 -0.27075884447E+02 -0.83817957127E+02  0.88218149335E+02  0.00000000000E+00 0.  1.
         12    1    3    3    0    0 -0.47902847259E+02  0.24028313699E+02 -0.49523982069E+03  0.49813102959E+03  0.00000000000E+00 0. -1.
        -13    1    4    4    0    0 -0.37586841512E+01  0.21153603907E+01  0.41441226115E+00  0.43329197608E+01  0.00000000000E+00 0.  1.
         14    1    4    4    0    0  0.14830656488E+03  0.10852400984E+02 -0.53720338468E+03  0.55740477959E+03  0.00000000000E+00 0. -1.
          5    1    5    5  501    0 -0.59994644223E+00  0.34633132831E+02  0.60370071743E+02  0.69759941139E+02  0.47000000000E+01 0. -1.
         -5    1    5    5    0  501 -0.12521240039E+03 -0.63564074110E+01  0.20197825825E+02  0.12707710767E+03  0.47000000000E+01 0. -1.
          1    1    1    2  502    0 -0.57712007993E+01  0.18608094602E+02  0.12826394648E+04  0.12827874199E+04  0.00000000000E+00 0. -1.
          1    1    1    2  503    0  0.30050936386E+02 -0.56805010649E+02 -0.90688692385E+03  0.90916102021E+03  0.00000000000E+00 0. -1.
<mgrwt>
<rscale>  0 0.35345509E+02</rscale>
<asrwt>0</asrwt>
<pdfrwt beam="1">  1        2 0.21156957E+00 0.19482504E+02</pdfrwt>
<pdfrwt beam="2">  1        2 0.30855872E+00 0.64124460E+02</pdfrwt>
<totfact> 0.26340188E+01</totfact>
</mgrwt>
</event>
<event>
13    1  0.1942437E-008  0.2070333E+03  0.7546771E-02  0.1263243E+00
          2   -1    0    0  503    0  0.00000000000E+00  0.00000000000E+00  0.29413636198E+04  0.29413636198E+04  0.00000000000E+00 0. -1.
         -1   -1    0    0    0  501 -0.00000000000E+00 -0.00000000000E+00 -0.18461493465E+04  0.18461493465E+04  0.00000000000E+00 0.  1.
         24    2    1    2    0    0 -0.53392482125E+02 -0.10143414179E+03 -0.22052455784E+01  0.15092763461E+03  0.98156230125E+02 0.  0.
         24    2    1    2    0    0  0.18841149086E+03  0.69500372589E+02  0.94398212497E+02  0.23606045099E+03  0.80525289935E+02 0.  0.
         25    2    1    2    0    0 -0.11859928797E+03  0.26364919912E+03  0.47333707691E+03  0.56855097377E+03  0.12500212039E+03 0.  0.
        -11    1    3    3    0    0 -0.19248096872E+02 -0.10104522117E+03 -0.29725959448E+02  0.10707127822E+03  0.00000000000E+00 0.  1.
         12    1    3    3    0    0 -0.34144385254E+02 -0.38892061695E+00  0.27520713869E+02  0.43856356386E+02  0.00000000000E+00 0. -1.
        -13    1    4    4    0    0 -0.50119228687E+01  0.10143525782E+02 -0.27143011585E+01  0.11635201627E+02  0.00000000000E+00 0.  1.
         14    1    4    4    0    0  0.19342341373E+03  0.59356846807E+02  0.97112513655E+02  0.22442524936E+03  0.00000000000E+00 0. -1.
          5    1    5    5  502    0 -0.58435189032E+02  0.17881347707E+03  0.39735963773E+03  0.43966544394E+03  0.47000000000E+01 0.  1.
         -5    1    5    5    0  502 -0.60164098934E+02  0.84835722047E+02  0.75977439178E+02  0.12888552983E+03  0.47000000000E+01 0.  1.
          1    1    1    2  503    0 -0.49438156697E+02 -0.28237685173E+02  0.21740209945E+04  0.21747663742E+04  0.00000000000E+00 0. -1.
         -2    1    1    2    0  501  0.33018435927E+02 -0.20347774474E+03 -0.16443367650E+04  0.16572075327E+04  0.00000000000E+00 0.  1.
<mgrwt>
<rscale>  0 0.10856919E+03</rscale>
<asrwt>0</asrwt>
<pdfrwt beam="1">  1        2 0.43255348E+00 0.56934157E+02</pdfrwt>
<pdfrwt beam="2">  1       -1 0.27149255E+00 0.20703335E+03</pdfrwt>
<totfact> 0.23520653E-01</totfact>
</mgrwt>
</event>
<event>
13    1  0.1942437E-008  0.1474374E+03  0.7546771E-02  0.1356972E+00
          2   -1    0    0  503    0  0.00000000000E+00  0.00000000000E+00  0.28652107766E+04  0.28652107766E+04  0.00000000000E+00 0. -1.
          2   -1    0    0  502    0 -0.00000000000E+00 -0.00000000000E+00 -0.15950987835E+04  0.15950987835E+04  0.00000000000E+00 0. -1.
         24    2    1    2    0    0 -0.25443835603E+01  0.99521459303E+02 -0.38507299007E+03  0.40611205961E+03  0.82065842645E+02 0.  0.
         24    2    1    2    0    0  0.56788299784E+02 -0.65470000939E+01 -0.19678180718E+03  0.22068105433E+03  0.81910157480E+02 0.  0.
         25    2    1    2    0    0  0.36449223114E+02 -0.18356458569E+02  0.12071820455E+04  0.12143228051E+04  0.12500351444E+03 0.  0.
        -11    1    4    4    0    0 -0.20241315446E+02  0.58486979372E+01 -0.31322747383E+02  0.37749604265E+02  0.00000000000E+00 0.  1.
         12    1    4    4    0    0  0.77029615230E+02 -0.12395698031E+02 -0.16545905980E+03  0.18293145006E+03  0.00000000000E+00 0. -1.
        -13    1    3    3    0    0  0.24549747385E+02  0.18869977867E+01 -0.11621807548E+03  0.11879769327E+03  0.00000000000E+00 0.  1.
         14    1    3    3    0    0 -0.27094130946E+02  0.97634461516E+02 -0.26885491459E+03  0.28731436634E+03  0.00000000000E+00 0. -1.
          5    1    5    5  501    0 -0.11498481186E+02 -0.31472944819E+02  0.10210338537E+04  0.10215943333E+04  0.47000000000E+01 0. -1.
         -5    1    5    5    0  501  0.47947704300E+02  0.13116486250E+02  0.18614819177E+03  0.19272847184E+03  0.47000000000E+01 0. -1.
          1    1    1    2  502    0  0.12256581410E+02  0.31842130786E+02 -0.98354825790E+03  0.98413988879E+03  0.00000000000E+00 0. -1.
          1    1    1    2  503    0 -0.10294972075E+03 -0.10646013143E+03  0.16283330029E+04  0.16350537523E+04  0.00000000000E+00 0. -1.
<mgrwt>
<rscale>  0 0.70926031E+02</rscale>
<asrwt>0</asrwt>
<pdfrwt beam="1">  1        2 0.42135452E+00 0.14743743E+03</pdfrwt>
<pdfrwt beam="2">  1        2 0.23457335E+00 0.34119570E+02</pdfrwt>
<totfact> 0.79277213E+00</totfact>
</mgrwt>
</event>
<event>
13    1  0.1942437E-008  0.2548461E+02  0.7546771E-02  0.1730693E+00
          2   -1    0    0  503    0  0.00000000000E+00  0.00000000000E+00  0.12107770863E+04  0.12107770863E+04  0.00000000000E+00 0. -1.
          2   -1    0    0  502    0 -0.00000000000E+00 -0.00000000000E+00 -0.28821023281E+04  0.28821023281E+04  0.00000000000E+00 0. -1.
         24    2    1    2    0    0  0.12767350644E+02  0.14731081262E+02 -0.94776655547E+03  0.95123918049E+03  0.78832257601E+02 0.  0.
         24    2    1    2    0    0 -0.71798826088E+02  0.17220319548E+03 -0.41049663461E+03  0.45798115992E+03  0.80188801347E+02 0.  0.
         25    2    1    2    0    0  0.52947965631E+02 -0.20498861887E+03  0.29527952759E+02  0.24762814413E+03  0.12499590729E+03 0.  0.
        -11    1    3    3    0    0  0.37380754799E+02  0.24906984757E+02 -0.34875341014E+03  0.35163421308E+03  0.00000000000E+00 0.  1.
         12    1    3    3    0    0 -0.24613404154E+02 -0.10175903495E+02 -0.59901314533E+03  0.59960496742E+03  0.00000000000E+00 0. -1.
        -13    1    4    4    0    0 -0.15222609601E+02  0.28730536002E+02 -0.20099735709E+02  0.38225265436E+02  0.00000000000E+00 0.  1.
         14    1    4    4    0    0 -0.56576216486E+02  0.14347265948E+03 -0.39039689890E+03  0.41975589449E+03  0.00000000000E+00 0. -1.
          5    1    5    5  501    0  0.34233269599E+02 -0.16157013285E+03  0.75372507065E+02  0.18160377033E+03  0.47000000000E+01 0.  1.
         -5    1    5    5    0  501  0.18714696032E+02 -0.43418486025E+02 -0.45844554306E+02  0.66024373801E+02  0.47000000000E+01 0.  1.
          1    1    1    2  502    0 -0.99274070920E+01  0.23480198968E+02 -0.13891252538E+04  0.13893591486E+04  0.00000000000E+00 0. -1.
          1    1    1    2  503    0  0.16010916904E+02 -0.54258568341E+01  0.10465352494E+04  0.10466717812E+04  0.00000000000E+00 0. -1.
<mgrwt>
<rscale>  0 0.20756328E+02</rscale>
<asrwt>0</asrwt>
<pdfrwt beam="1">  1        2 0.17805545E+00 0.16905306E+02</pdfrwt>
<pdfrwt beam="2">  1        2 0.42383858E+00 0.25484610E+02</pdfrwt>
<totfact> 0.16424092E+01</totfact>
</mgrwt>
</event>
<event>
13    1  0.1942437E-008  0.3195616E+02  0.7546771E-02  0.1717713E+00
         -1   -1    0    0    0  501 -0.00000000000E+00  0.00000000000E+00  0.10116646020E+04  0.10116646020E+04  0.00000000000E+00 0.  1.
          2   -1    0    0  503    0  0.00000000000E+00 -0.00000000000E+00 -0.30052624625E+04  0.30052624625E+04  0.00000000000E+00 0. -1.
         24    2    1    2    0    0 -0.28401662143E+03  0.10704908657E+02 -0.34429796549E+02  0.29800128998E+03  0.82700191165E+02 0.  0.
         24    2    1    2    0    0  0.45452983568E+03 -0.40984078008E+03 -0.92606395260E+03  0.11130251128E+04  0.81631004347E+02 0.  0.
         25    2    1    2    0    0 -0.20561397708E+03  0.37190795679E+03 -0.57666662664E+03  0.72715662714E+03  0.12497890309E+03 0.  0.
        -11    1    4    4    0    0  0.86488261770E+02 -0.10451008924E+03 -0.25739334761E+03  0.29095345602E+03  0.00000000000E+00 0.  1.
         12    1    4    4    0    0  0.36804157391E+03 -0.30533069084E+03 -0.66867060499E+03  0.82207165677E+03  0.00000000000E+00 0. -1.
        -11    1    3    3    0    0 -0.10935859811E+03  0.18249984266E+02  0.24443281938E+02  0.11353342653E+03  0.00000000000E+00 0.  1.
         12    1    3    3    0    0 -0.17465802332E+03 -0.75450756096E+01 -0.58873078486E+02  0.18446786345E+03  0.00000000000E+00 0. -1.
          5    1    5    5  502    0 -0.10953903909E+03  0.93621082807E+02 -0.23925929111E+03  0.27933994812E+03  0.47000000000E+01 0. -1.
         -5    1    5    5    0  502 -0.96074937988E+02  0.27828687399E+03 -0.33740733553E+03  0.44781667902E+03  0.47000000000E+01 0. -1.
          1    1    1    2  503    0  0.14060078135E+02  0.31792113971E+01 -0.11671872898E+04  0.11672763009E+04  0.00000000000E+00 0. -1.
         -2    1    1    2    0  501  0.21040684697E+02  0.24048703239E+02  0.71074980511E+03  0.71146773363E+03  0.00000000000E+00 0.  1.
<mgrwt>
<rscale>  0 0.21462737E+02</rscale>
<asrwt>0</asrwt>
<pdfrwt beam="2">  1        2 0.44195036E+00 0.14415033E+02</pdfrwt>
<pdfrwt beam="1">  1       -1 0.14877421E+00 0.31956157E+02</pdfrwt>
<totfact> 0.20870985E+00</totfact>
</mgrwt>
</event>
<event>
13    1  0.1942437E-008  0.1551007E+03  0.7546771E-02  0.1387484E+00
          2   -1    0    0  502    0  0.00000000000E+00  0.00000000000E+00  0.87186951947E+03  0.87186951947E+03  0.00000000000E+00 0. -1.
          2   -1    0    0  503    0 -0.00000000000E+00 -0.00000000000E+00 -0.37583516736E+04  0.37583516736E+04  0.00000000000E+00 0. -1.
         24    2    1    2    0    0 -0.14236440231E+03  0.14729018259E+02 -0.78769868259E+03  0.80463476139E+03  0.80519051534E+02 0.  0.
         24    2    1    2    0    0  0.78362082381E+02 -0.15311935668E+02 -0.67547430071E+02  0.13230557300E+03  0.81037263084E+02 0.  0.
         25    2    1    2    0    0  0.17333046244E+03  0.73009544274E+02  0.47591686251E+03  0.52677779316E+03  0.12499656229E+03 0.  0.
        -11    1    4    4    0    0  0.80932291492E+02  0.14853847922E+02 -0.40512688363E+02  0.91716686173E+02  0.00000000000E+00 0.  1.
         12    1    4    4    0    0 -0.25702091102E+01 -0.30165783591E+02 -0.27034741708E+02  0.40588886826E+02  0.00000000000E+00 0. -1.
        -13    1    3    3    0    0  0.66038751315E+01 -0.57682075091E+01 -0.11502142853E+03  0.11535515769E+03  0.00000000000E+00 0.  1.
         14    1    3    3    0    0 -0.14896827744E+03  0.20497225768E+02 -0.67267725407E+03  0.68927960371E+03  0.00000000000E+00 0. -1.
          5    1    5    5  501    0  0.45857404551E+02  0.67076428668E+02  0.29018372333E+03  0.30138153912E+03  0.47000000000E+01 0.  1.
         -5    1    5    5    0  501  0.12747305789E+03  0.59331156061E+01  0.18573313917E+03  0.22539625404E+03  0.47000000000E+01 0.  1.
          1    1    1    2  502    0  0.16022049802E+02  0.19470074059E+02  0.32706051493E+03  0.32803105081E+03  0.00000000000E+00 0. -1.
          1    1    1    2  503    0 -0.12535019232E+03 -0.91896700923E+02 -0.28342134189E+04  0.28384720147E+04  0.00000000000E+00 0. -1.
<mgrwt>
<rscale>  0 0.62536750E+02</rscale>
<asrwt>0</asrwt>
<pdfrwt beam="1">  1        2 0.12821610E+00 0.25214874E+02</pdfrwt>
<pdfrwt beam="2">  1        2 0.55269878E+00 0.15510072E+03</pdfrwt>
<totfact> 0.56257141E+00</totfact>
</mgrwt>
</event>
<event>
13    1  0.1942437E-008  0.1398824E+03  0.7546771E-02  0.1239869E+00
         -3   -1    0    0    0  501 -0.00000000000E+00  0.00000000000E+00  0.19763940919E+04  0.19763940919E+04  0.00000000000E+00 0.  1.
          2   -1    0    0  503    0  0.00000000000E+00 -0.00000000000E+00 -0.10558668514E+04  0.10558668514E+04  0.00000000000E+00 0. -1.
         24    2    1    2    0    0 -0.42291694841E+02  0.87403425609E+02  0.89797610278E+02  0.15494270777E+03  0.80719796942E+02 0.  0.
         24    2    1    2    0    0 -0.11596930065E+03 -0.23109112003E+02  0.60917175478E+02  0.15819336174E+03  0.85623172551E+02 0.  0.
         25    2    1    2    0    0  0.20707127890E+03  0.17417599105E+03 -0.11172987264E+03  0.31831461977E+03  0.12499936925E+03 0.  0.
        -11    1    4    4    0    0 -0.15618583240E+02  0.24095677598E+02 -0.50530445506E+01  0.29156047067E+02  0.00000000000E+00 0.  1.
         12    1    4    4    0    0 -0.10035071741E+03 -0.47204789601E+02  0.65970220028E+02  0.12903731467E+03  0.00000000000E+00 0. -1.
        -13    1    3    3    0    0 -0.21152951312E+02 -0.11779556569E+02  0.23781056519E+02  0.33937353334E+02  0.00000000000E+00 0.  1.
         14    1    3    3    0    0 -0.21138743530E+02  0.99182982178E+02  0.66016553759E+02  0.12100535443E+03  0.00000000000E+00 0. -1.
          5    1    5    5  502    0  0.30052069504E+02  0.82093506510E+02 -0.75192398957E+02  0.11540562184E+03  0.47000000000E+01 0. -1.
         -5    1    5    5    0  502  0.17701920940E+03  0.92082484536E+02 -0.36537473687E+02  0.20290899792E+03  0.47000000000E+01 0. -1.
          1    1    1    2  503    0 -0.11584279921E+02 -0.13883215679E+03 -0.75150177254E+03  0.76430587949E+03  0.00000000000E+00 0. -1.
         -4    1    1    2    0  501 -0.37226003490E+02 -0.99638147865E+02  0.16330440999E+04  0.16365043746E+04  0.00000000000E+00 0.  1.
<mgrwt>
<rscale>  0 0.12197787E+03</rscale>
<asrwt>0</asrwt>
<pdfrwt beam="2">  1        2 0.15527454E+00 0.13988236E+03</pdfrwt>
<pdfrwt beam="1">  1       -3 0.29064619E+00 0.10636511E+03</pdfrwt>
<totfact> 0.86882255E-01</totfact>
</mgrwt>
</event>
<event>
13    1  0.1942437E-008  0.2010824E+03  0.7546771E-02  0.1259906E+00
          2   -1    0    0  503    0  0.00000000000E+00  0.00000000000E+00  0.11172540000E+04  0.11172540000E+04  0.00000000000E+00 0. -1.
          2   -1    0    0  502    0 -0.00000000000E+00 -0.00000000000E+00 -0.20121570858E+04  0.20121570858E+04  0.00000000000E+00 0. -1.
         24    2    1    2    0    0 -0.68816184995E+02  0.15566723427E+03 -0.17677379078E+03  0.25786710222E+03  0.79237075635E+02 0.  0.
         24    2    1    2    0    0  0.39438534804E+02  0.95631516142E+02 -0.22802708964E+02  0.13457117825E+03  0.82997913057E+02 0.  0.
         25    2    1    2    0    0 -0.70873918518E+02 -0.13354408769E+03  0.63508919742E+03  0.66469324598E+03  0.12498674686E+03 0.  0.
        -11    1    3    3    0    0 -0.59303258088E+02  0.11405610033E+03 -0.78251670483E+02  0.15049582843E+03  0.00000000000E+00 0.  1.
         12    1    3    3    0    0 -0.95129269072E+01  0.41611133948E+02 -0.98522120299E+02  0.10737127379E+03  0.00000000000E+00 0. -1.
        -13    1    4    4    0    0  0.50208324212E+02  0.75836442233E+02 -0.46263165492E+02  0.10204078730E+03  0.00000000000E+00 0.  1.
         14    1    4    4    0    0 -0.10769789408E+02  0.19795073909E+02  0.23460456528E+02  0.32530390951E+02  0.00000000000E+00 0. -1.
          5    1    5    5  501    0 -0.37838574328E+02 -0.14308280886E+03  0.39010367899E+03  0.41726181021E+03  0.47000000000E+01 0.  1.
         -5    1    5    5    0  501 -0.33035344190E+02  0.95387211668E+01  0.24498551844E+03  0.24743143578E+03  0.47000000000E+01 0.  1.
          1    1    1    2  502    0  0.15815347926E+03 -0.13552763102E+03 -0.16924480417E+04  0.17052157153E+04  0.00000000000E+00 0. -1.
          1    1    1    2  503    0 -0.57901910554E+02  0.17772968297E+02  0.36203225818E+03  0.36706384405E+03  0.00000000000E+00 0. -1.
<mgrwt>
<rscale>  0 0.11035944E+03</rscale>
<asrwt>0</asrwt>
<pdfrwt beam="1">  1        2 0.16430206E+00 0.60568223E+02</pdfrwt>
<pdfrwt beam="2">  1        2 0.29590545E+00 0.20108244E+03</pdfrwt>
<totfact> 0.34075269E+01</totfact>
</mgrwt>
</event>
<event>
13    1  0.1942437E-008  0.6793550E+02  0.7546771E-02  0.1508282E+00
          2   -1    0    0  502    0  0.00000000000E+00  0.00000000000E+00  0.18027456398E+04  0.18027456398E+04  0.00000000000E+00 0. -1.
          2   -1    0    0  503    0 -0.00000000000E+00 -0.00000000000E+00 -0.22552192254E+04  0.22552192254E+04  0.00000000000E+00 0. -1.
         24    2    1    2    0    0  0.42038860379E+03  0.38670744522E+03 -0.12968331526E+04  0.14193814403E+04  0.81229433896E+02 0.  0.
         24    2    1    2    0    0 -0.53796772608E+03 -0.15538455033E+03  0.16161315500E+03  0.58895177314E+03  0.84804165175E+02 0.  0.
         25    2    1    2    0    0  0.75221952840E+02 -0.24657589379E+03  0.11871213807E+03  0.31012326515E+03  0.12500341705E+03 0.  0.
        -11    1    3    3    0    0  0.27894290114E+03  0.30050063998E+03 -0.87948944969E+03  0.97036666722E+03  0.00000000000E+00 0.  1.
         12    1    3    3    0    0  0.14144570265E+03  0.86206805238E+02 -0.41734370294E+03  0.44901477309E+03  0.00000000000E+00 0. -1.
        -13    1    4    4    0    0 -0.16464775690E+03 -0.21799109448E+02  0.17208906877E+02  0.16697374494E+03  0.00000000000E+00 0.  1.
         14    1    4    4    0    0 -0.37331996918E+03 -0.13358544088E+03  0.14440424812E+03  0.42197802820E+03  0.00000000000E+00 0. -1.
          5    1    5    5  501    0  0.14304985124E+02 -0.88981879449E+02 -0.18852136987E+02  0.92194905166E+02  0.47000000000E+01 0.  1.
         -5    1    5    5    0  501  0.60916967716E+02 -0.15759401434E+03  0.13756427506E+03  0.21792835998E+03  0.47000000000E+01 0.  1.
          1    1    1    2  502    0  0.61418786971E+02  0.29066377572E+02  0.11505328282E+04  0.11525375961E+04  0.00000000000E+00 0. -1.
          1    1    1    2  503    0 -0.19061617522E+02 -0.13813378671E+02 -0.58649855423E+03  0.58697079042E+03  0.00000000000E+00 0. -1.
<mgrwt>
<rscale>  0 0.39990438E+02</rscale>
<asrwt>0</asrwt>
<pdfrwt beam="1">  1        2 0.26510965E+00 0.67935504E+02</pdfrwt>
<pdfrwt beam="2">  1        2 0.33164989E+00 0.23540490E+02</pdfrwt>
<totfact> 0.15302782E+01</totfact>
</mgrwt>
</event>
<event>
13    1  0.1942437E-008  0.5091798E+02  0.7546771E-02  0.1480326E+00
          2   -1    0    0  503    0  0.00000000000E+00  0.00000000000E+00  0.24613953442E+04  0.24613953442E+04  0.00000000000E+00 0. -1.
          2   -1    0    0  502    0 -0.00000000000E+00 -0.00000000000E+00 -0.18230654887E+04  0.18230654887E+04  0.00000000000E+00 0. -1.
         24    2    1    2    0    0 -0.32577606487E+03  0.23308666319E+03 -0.26661258116E+03  0.48383975317E+03  0.50588549225E+02 0.  0.
         24    2    1    2    0    0  0.26874587653E+03 -0.19114587287E+03  0.74398290403E+02  0.34749923335E+03  0.80371143423E+02 0.  0.
         25    2    1    2    0    0  0.34535525006E+02 -0.78122042247E+02  0.68269325661E+02  0.16607725852E+03  0.12500079599E+03 0.  0.
        -13    1    3    3    0    0 -0.20770714071E+03  0.12066007823E+03 -0.17070233939E+03  0.29468695161E+03  0.00000000000E+00 0.  1.
         14    1    3    3    0    0 -0.11806892416E+03  0.11242658496E+03 -0.95910241775E+02  0.18915280155E+03  0.00000000000E+00 0. -1.
        -13    1    4    4    0    0  0.16315921030E+03 -0.15209597871E+03  0.73713361846E+02  0.23492078316E+03  0.00000000000E+00 0.  1.
         14    1    4    4    0    0  0.10558666623E+03 -0.39049894160E+02  0.68492855763E+00  0.11257845019E+03  0.00000000000E+00 0. -1.
          5    1    5    5  501    0  0.81046432815E+02 -0.59754137603E+02  0.50958106340E+02  0.11295087354E+03  0.47000000000E+01 0.  1.
         -5    1    5    5    0  501 -0.46510907809E+02 -0.18367904643E+02  0.17311219321E+02  0.53126384975E+02  0.47000000000E+01 0.  1.
          1    1    1    2  502    0 -0.27489084038E+02  0.26406814925E+02 -0.12617767319E+04  0.12623523639E+04  0.00000000000E+00 0. -1.
          1    1    1    2  503    0  0.49983747366E+02  0.97744370003E+01  0.20240515525E+04  0.20246922240E+04  0.00000000000E+00 0. -1.
<mgrwt>
<rscale>  0 0.44055458E+02</rscale>
<asrwt>0</asrwt>
<pdfrwt beam="1">  1        2 0.36196991E+00 0.50917980E+02</pdfrwt>
<pdfrwt beam="2">  1        2 0.26809786E+00 0.38117839E+02</pdfrwt>
<totfact> 0.11424859E+01</totfact>
</mgrwt>
</event>
<event>
13    1  0.1942437E-008  0.8769799E+02  0.7546771E-02  0.1454096E+00
          2   -1    0    0  502    0  0.00000000000E+00  0.00000000000E+00  0.20004976576E+04  0.20004976576E+04  0.00000000000E+00 0. -1.
          2   -1    0    0  503    0 -0.00000000000E+00 -0.00000000000E+00 -0.17917509915E+04  0.17917509915E+04  0.00000000000E+00 0. -1.
         24    2    1    2    0    0 -0.10171000980E+03  0.42487513240E+03  0.15800617433E+03  0.47451582712E+03  0.96620468032E+02 0.  0.
         24    2    1    2    0    0  0.10075745441E+03 -0.64457524371E+03 -0.21919582471E+03  0.69302008116E+03  0.81244777689E+02 0.  0.
         25    2    1    2    0    0  0.12907904052E+02  0.32823384976E+03  0.64968556683E+03  0.73865235890E+03  0.12494757879E+03 0.  0.
        -11    1    3    3    0    0 -0.10954640011E+03  0.28584131976E+03  0.87187526945E+02  0.31828813788E+03  0.00000000000E+00 0.  1.
         12    1    3    3    0    0  0.78363903146E+01  0.13903381263E+03  0.70818647382E+02  0.15622768924E+03  0.00000000000E+00 0. -1.
        -13    1    4    4    0    0  0.10685104596E+03 -0.49556721768E+03 -0.15047982481E+03  0.52881772941E+03  0.00000000000E+00 0.  1.
         14    1    4    4    0    0 -0.60935915495E+01 -0.14900802603E+03 -0.68715999905E+02  0.16420235176E+03  0.00000000000E+00 0. -1.
          5    1    5    5  501    0 -0.38826984277E+02  0.26727410056E+03  0.47383245829E+03  0.54541935065E+03  0.47000000000E+01 0.  1.
         -5    1    5    5    0  501  0.51734888329E+02  0.60959749200E+02  0.17585310854E+03  0.19323300824E+03  0.47000000000E+01 0.  1.
          1    1    1    2  502    0  0.45358231945E+01 -0.87502829257E+02  0.75044867507E+03  0.75554651262E+03  0.00000000000E+00 0. -1.
          1    1    1    2  503    0 -0.16491171855E+02 -0.21030909189E+02 -0.11301979255E+04  0.11305138693E+04  0.00000000000E+00 0. -1.
<mgrwt>
<rscale>  0 0.48412619E+02</rscale>
<asrwt>0</asrwt>
<pdfrwt beam="1">  1        2 0.29419083E+00 0.87697988E+02</pdfrwt>
<pdfrwt beam="2">  1        2 0.26349279E+00 0.26725604E+02</pdfrwt>
<totfact> 0.19052950E+01</totfact>
</mgrwt>
</event>
<event>
13    1  0.1942437E-008  0.7716616E+02  0.7546771E-02  0.1507812E+00
          2   -1    0    0  502    0  0.00000000000E+00  0.00000000000E+00  0.71561672135E+03  0.71561672135E+03  0.00000000000E+00 0. -1.
          2   -1    0    0  503    0 -0.00000000000E+00 -0.00000000000E+00 -0.11257527402E+04  0.11257527402E+04  0.00000000000E+00 0. -1.
         24    2    1    2    0    0  0.14070005461E+03 -0.35035714313E+02 -0.19322454101E+03  0.25406023107E+03  0.78656666079E+02 0.  0.
         24    2    1    2    0    0 -0.17310591365E+02 -0.35504588528E+02 -0.62991784926E+02  0.10808453654E+03  0.78447878824E+02 0.  0.
         25    2    1    2    0    0 -0.59038567580E+02  0.13023259692E+03  0.55826017712E+03  0.58968179107E+03  0.12499643032E+03 0.  0.
        -13    1    4    4    0    0 -0.34708482028E+02  0.12344165115E+02 -0.28719250112E+02  0.46710303618E+02  0.00000000000E+00 0.  1.
         14    1    4    4    0    0  0.17397890663E+02 -0.47848753643E+02 -0.34272534814E+02  0.61374232927E+02  0.00000000000E+00 0. -1.
        -13    1    3    3    0    0  0.70651575525E+02 -0.29764850329E+02 -0.15768679505E+03  0.17533601105E+03  0.00000000000E+00 0.  1.
         14    1    3    3    0    0  0.70048479086E+02 -0.52708639838E+01 -0.35537745959E+02  0.78724220017E+02  0.00000000000E+00 0. -1.
          5    1    5    5  501    0 -0.48757662140E+02  0.15193379568E+03  0.52257224485E+03  0.54641104398E+03  0.47000000000E+01 0.  1.
         -5    1    5    5    0  501 -0.10280905440E+02 -0.21701198759E+02  0.35687932269E+02  0.43270747092E+02  0.47000000000E+01 0.  1.
          1    1    1    2  502    0 -0.20451759956E+02  0.37393098351E+01  0.85576352446E+02  0.88065708544E+02  0.00000000000E+00 0. -1.
          1    1    1    2  503    0 -0.43899135710E+02 -0.63431603918E+02 -0.79775622246E+03  0.80147719428E+03  0.00000000000E+00 0. -1.
<mgrwt>
<rscale>  0 0.40054279E+02</rscale>
<asrwt>0</asrwt>
<pdfrwt beam="1">  1        2 0.10523775E+00 0.20790789E+02</pdfrwt>
<pdfrwt beam="2">  1        2 0.16555187E+00 0.77166156E+02</pdfrwt>
<totfact> 0.18321962E+02</totfact>
</mgrwt>
</event>
<event>
13    1  0.1942437E-008  0.1239070E+03  0.7546771E-02  0.1404814E+00
          2   -1    0    0  503    0  0.00000000000E+00  0.00000000000E+00  0.14304840152E+04  0.14304840152E+04  0.00000000000E+00 0. -1.
          2   -1    0    0  502    0 -0.00000000000E+00 -0.00000000000E+00 -0.99857469199E+03  0.99857469199E+03  0.00000000000E+00 0. -1.
         24    2    1    2    0    0 -0.89727233546E+01  0.11591355868E+03 -0.12139754007E+03  0.18404350822E+03  0.74954568463E+02 0.  0.
         24    2    1    2    0    0  0.19343169019E+02  0.19555980594E+03 -0.13998991215E+03  0.25561374051E+03  0.84400313663E+02 0.  0.
         25    2    1    2    0    0  0.85630085320E+02 -0.32208699088E+03  0.86946518862E+03  0.93950289047E+03  0.12499370298E+03 0.  0.
        -11    1    4    4    0    0 -0.22013025588E+02  0.12904384140E+03 -0.11249501373E+03  0.17260363383E+03  0.00000000000E+00 0.  1.
         12    1    4    4    0    0  0.41356194607E+02  0.66515964542E+02 -0.27494898421E+02  0.83010106677E+02  0.00000000000E+00 0. -1.
        -13    1    3    3    0    0  0.23114796952E+02  0.17622193014E+02 -0.71056296101E+01  0.29921990190E+02  0.00000000000E+00 0.  1.
         14    1    3    3    0    0 -0.32087520307E+02  0.98291365666E+02 -0.11429191046E+03  0.15412151803E+03  0.00000000000E+00 0. -1.
          5    1    5    5  501    0  0.88160092709E+02 -0.15144333888E+03  0.55027225123E+03  0.57751963370E+03  0.47000000000E+01 0. -1.
         -5    1    5    5    0  501 -0.25300073886E+01 -0.17064365200E+03  0.31919293739E+03  0.36198325677E+03  0.47000000000E+01 0. -1.
          1    1    1    2  502    0 -0.12333220453E+03  0.13599423321E+02 -0.60631156706E+03  0.61887760772E+03  0.00000000000E+00 0. -1.
          1    1    1    2  503    0  0.27331673543E+02 -0.29857970600E+01  0.43014315390E+03  0.43102096029E+03  0.00000000000E+00 0. -1.
<mgrwt>
<rscale>  0 0.58367220E+02</rscale>
<asrwt>0</asrwt>
<pdfrwt beam="1">  1        2 0.21036530E+00 0.27494279E+02</pdfrwt>
<pdfrwt beam="2">  1        2 0.14684922E+00 0.12390696E+03</pdfrwt>
<totfact> 0.87022993E+01</totfact>
</mgrwt>
</event>
<event>
13    1  0.1942437E-008  0.7041934E+02  0.7546771E-02  0.1477304E+00
          2   -1    0    0  503    0  0.00000000000E+00  0.00000000000E+00  0.21824658225E+04  0.21824658225E+04  0.00000000000E+00 0. -1.
          2   -1    0    0  502    0 -0.00000000000E+00 -0.00000000000E+00 -0.11726575518E+04  0.11726575518E+04  0.00000000000E+00 0. -1.
         24    2    1    2    0    0  0.39937814417E+02 -0.39766351803E+02 -0.16542026670E+03  0.19221282930E+03  0.80034463548E+02 0.  0.
         24    2    1    2    0    0 -0.12198805008E+03  0.63932148113E+01 -0.28043822600E+03  0.31372564263E+03  0.69686603313E+02 0.  0.
         25    2    1    2    0    0  0.16338042791E+03 -0.21269182746E+02  0.82002520052E+03  0.84570238372E+03  0.12500259992E+03 0.  0.
        -13    1    4    4    0    0 -0.23082665443E+02 -0.19401484744E+02 -0.27089280905E+02  0.40534629568E+02  0.00000000000E+00 0.  1.
         14    1    4    4    0    0 -0.98905384638E+02  0.25794699555E+02 -0.25334894509E+03  0.27319101306E+03  0.00000000000E+00 0. -1.
        -13    1    3    3    0    0 -0.22271540858E+02 -0.27080252461E+01 -0.62232649459E+02  0.66153288593E+02  0.00000000000E+00 0.  1.
         14    1    3    3    0    0  0.62209355275E+02 -0.37058326557E+02 -0.10318761724E+03  0.12605954071E+03  0.00000000000E+00 0. -1.
          5    1    5    5  501    0  0.17138069059E+03 -0.47452738398E+02  0.73649678713E+03  0.75767586139E+03  0.47000000000E+01 0. -1.
         -5    1    5    5    0  501 -0.80002626773E+01  0.26183555652E+02  0.83528413390E+02  0.88026522327E+02  0.47000000000E+01 0. -1.
          1    1    1    2  502    0 -0.20451524571E+02  0.19353803835E+02 -0.68269196718E+03  0.68327238832E+03  0.00000000000E+00 0. -1.
          1    1    1    2  503    0 -0.60878667673E+02  0.35288515903E+02  0.13183335301E+04  0.13202101303E+04  0.00000000000E+00 0. -1.
<mgrwt>
<rscale>  0 0.44528864E+02</rscale>
<asrwt>0</asrwt>
<pdfrwt beam="1">  1        2 0.32095086E+00 0.70419339E+02</pdfrwt>
<pdfrwt beam="2">  1        2 0.17244964E+00 0.28157318E+02</pdfrwt>
<totfact> 0.30900815E+01</totfact>
</mgrwt>
</event>
<event>
13    1  0.1942437E-008  0.1216021E+03  0.7546771E-02  0.1347435E+00
          2   -1    0    0  502    0  0.00000000000E+00  0.00000000000E+00  0.20560352883E+04  0.20560352883E+04  0.00000000000E+00 0. -1.
          2   -1    0    0  503    0 -0.00000000000E+00 -0.00000000000E+00 -0.14049290275E+04  0.14049290275E+04  0.00000000000E+00 0. -1.
         24    2    1    2    0    0  0.79611959532E+02  0.72965329943E+02  0.46313245939E+02  0.14173456495E+03  0.79257596966E+02 0.  0.
         24    2    1    2    0    0 -0.47988257143E+02  0.13912851078E+02  0.32320711288E+02  0.99456550770E+02  0.79690255767E+02 0.  0.
         25    2    1    2    0    0 -0.89182767250E+02 -0.13416633371E+02  0.43344722446E+03  0.46003722877E+03  0.12499673370E+03 0.  0.
        -11    1    3    3    0    0  0.73559284870E+02  0.56084709921E+02  0.46322341380E+00  0.92502311612E+02  0.00000000000E+00 0.  1.
         12    1    3    3    0    0  0.60526746622E+01  0.16880620022E+02  0.45850022525E+02  0.49232253335E+02  0.00000000000E+00 0. -1.
        -13    1    4    4    0    0 -0.91201609359E+01  0.38896535671E+02 -0.47306819109E+01  0.40230550258E+02  0.00000000000E+00 0.  1.
         14    1    4    4    0    0 -0.38868096207E+02 -0.24983684594E+02  0.37051393199E+02  0.59226000512E+02  0.00000000000E+00 0. -1.
          5    1    5    5  501    0 -0.37941491431E+02 -0.27770730347E+02  0.38509579095E+03  0.38798405695E+03  0.47000000000E+01 0.  1.
         -5    1    5    5    0  501 -0.51241275819E+02  0.14354096976E+02  0.48351433512E+02  0.72053171826E+02  0.47000000000E+01 0.  1.
          1    1    1    2  502    0  0.16991841563E+02  0.41520674476E+02  0.14461955576E+04  0.14468912468E+04  0.00000000000E+00 0. -1.
          1    1    1    2  503    0  0.40567223297E+02 -0.11498222213E+03 -0.13071704785E+04  0.13128447246E+04  0.00000000000E+00 0. -1.
<mgrwt>
<rscale>  0 0.73860911E+02</rscale>
<asrwt>0</asrwt>
<pdfrwt beam="1">  1        2 0.30235813E+00 0.44863004E+02</pdfrwt>
<pdfrwt beam="2">  1        2 0.20660721E+00 0.12160207E+03</pdfrwt>
<totfact> 0.25844675E+01</totfact>
</mgrwt>
</event>
<event>
13    1  0.1942437E-008  0.5357904E+02  0.7546771E-02  0.1680898E+00
          2   -1    0    0  502    0  0.00000000000E+00  0.00000000000E+00  0.25748521697E+04  0.25748521697E+04  0.00000000000E+00 0. -1.
          2   -1    0    0  503    0 -0.00000000000E+00 -0.00000000000E+00 -0.29126729399E+04  0.29126729399E+04  0.00000000000E+00 0. -1.
         24    2    1    2    0    0  0.51738912761E+03  0.45221560446E+03 -0.96146127975E+03  0.11846149360E+04  0.81940782495E+02 0.  0.
         24    2    1    2    0    0 -0.13852742522E+04 -0.40251963300E+03  0.68990378255E+03  0.16012105540E+04  0.83073463178E+02 0.  0.
         25    2    1    2    0    0  0.90513454672E+03 -0.81296799833E+02  0.27841230422E+03  0.95865341040E+03  0.12500093121E+03 0.  0.
        -11    1    4    4    0    0 -0.79254410193E+03 -0.27136529529E+03  0.41241474801E+03  0.93372972608E+03  0.00000000000E+00 0.  1.
         12    1    4    4    0    0 -0.59273015030E+03 -0.13115433771E+03  0.27748903454E+03  0.66748082793E+03  0.00000000000E+00 0. -1.
        -13    1    3    3    0    0  0.10238666599E+03  0.87686896241E+02 -0.13682169202E+03  0.19207341448E+03  0.00000000000E+00 0.  1.
         14    1    3    3    0    0  0.41500246162E+03  0.36452870822E+03 -0.82463958773E+03  0.99254152151E+03  0.00000000000E+00 0. -1.
          5    1    5    5  501    0  0.48697134875E+03 -0.66359100490E+02  0.89698134280E+02  0.49961231972E+03  0.47000000000E+01 0.  1.
         -5    1    5    5    0  501  0.41816319797E+03 -0.14937699343E+02  0.18871416994E+03  0.45904109068E+03  0.47000000000E+01 0.  1.
          1    1    1    2  502    0 -0.33890973108E+02  0.41502307536E+02  0.69813250440E+03  0.70018571342E+03  0.00000000000E+00 0. -1.
          1    1    1    2  503    0 -0.33584489971E+01 -0.99014791624E+01 -0.10428080816E+04  0.10428604958E+04  0.00000000000E+00 0. -1.
<mgrwt>
<rscale>  0 0.23668506E+02</rscale>
<asrwt>0</asrwt>
<pdfrwt beam="1">  1        2 0.37865473E+00 0.53579039E+02</pdfrwt>
<pdfrwt beam="2">  1        2 0.42833425E+00 0.10455547E+02</pdfrwt>
<totfact> 0.39166835E+00</totfact>
</mgrwt>
</event>
<event>
13    1  0.1942437E-008  0.1421824E+03  0.7546771E-02  0.1281361E+00
          2   -1    0    0  503    0  0.00000000000E+00  0.00000000000E+00  0.32405306004E+04  0.32405306004E+04  0.00000000000E+00 0. -1.
          2   -1    0    0  502    0 -0.00000000000E+00 -0.00000000000E+00 -0.12125646266E+04  0.12125646266E+04  0.00000000000E+00 0. -1.
         24    2    1    2    0    0 -0.21084824583E+03  0.53320117233E+02  0.10341497447E+03  0.25376981648E+03  0.80027777298E+02 0.  0.
         24    2    1    2    0    0  0.12850992150E+02 -0.22204649045E+03  0.35874678646E+03  0.42960538415E+03  0.79948341907E+02 0.  0.
         25    2    1    2    0    0  0.32695253261E+03  0.21911249780E+03  0.55054642994E+03  0.68820996403E+03  0.12499335101E+03 0.  0.
        -11    1    3    3    0    0 -0.56306385493E+01 -0.11486888224E+02 -0.37850786880E+01  0.13340896230E+02  0.00000000000E+00 0.  1.
         12    1    3    3    0    0 -0.20521760728E+03  0.64807005458E+02  0.10720005316E+03  0.24042892025E+03  0.00000000000E+00 0. -1.
        -13    1    4    4    0    0  0.10703355667E+02  0.28843845129E+01  0.12506186060E+02  0.16711857656E+02  0.00000000000E+00 0.  1.
         14    1    4    4    0    0  0.21476364837E+01 -0.22493087497E+03  0.34624060040E+03  0.41289352649E+03  0.00000000000E+00 0. -1.
          5    1    5    5  501    0  0.24687145969E+03  0.10925043815E+03  0.30376075793E+03  0.40641587555E+03  0.47000000000E+01 0.  1.
         -5    1    5    5    0  501  0.80081072925E+02  0.10986205964E+03  0.24678567201E+03  0.28179408848E+03  0.47000000000E+01 0.  1.
          1    1    1    2  502    0 -0.37373671695E+02  0.58742923997E+02 -0.10294717569E+04  0.10318234446E+04  0.00000000000E+00 0. -1.
          1    1    1    2  503    0 -0.91581607232E+02 -0.10912904857E+03  0.20447295399E+04  0.20496866178E+04  0.00000000000E+00 0. -1.
<mgrwt>
<rscale>  0 0.99495359E+02</rscale>
<asrwt>0</asrwt>
<pdfrwt beam="1">  1        2 0.47654862E+00 0.14218236E+03</pdfrwt>
<pdfrwt beam="2">  1        2 0.17831833E+00 0.69624151E+02</pdfrwt>
<totfact> 0.72223342E+00</totfact>
</mgrwt>
</event>
<event>
13    1  0.1942437E-008  0.9293756E+02  0.7546771E-02  0.1351335E+00
          2   -1    0    0  503    0  0.00000000000E+00  0.00000000000E+00  0.25914452830E+04  0.25914452830E+04  0.00000000000E+00 0. -1.
          2   -1    0    0  502    0 -0.00000000000E+00 -0.00000000000E+00 -0.12127055596E+04  0.12127055596E+04  0.00000000000E+00 0. -1.
         24    2    1    2    0    0 -0.28172585259E+02 -0.46513290232E+02 -0.45114844845E+03  0.46177798230E+03  0.82138916874E+02 0.  0.
         24    2    1    2    0    0 -0.66732281968E+02 -0.21652813230E+02 -0.10592395437E+03  0.15098277219E+03  0.81571267068E+02 0.  0.
         25    2    1    2    0    0  0.22706807635E+03  0.10353583698E+03  0.14001117599E+04  0.14276609244E+04  0.12499277607E+03 0.  0.
        -11    1    3    3    0    0 -0.39495955973E+02  0.15562206426E+01 -0.30410363126E+03  0.30666165542E+03  0.00000000000E+00 0.  1.
         12    1    3    3    0    0  0.11323370714E+02 -0.48069510874E+02 -0.14704481719E+03  0.15511632688E+03  0.00000000000E+00 0. -1.
        -11    1    4    4    0    0  0.82634621566E+01 -0.12858903212E+02 -0.61507843012E+02  0.63378631656E+02  0.00000000000E+00 0.  1.
         12    1    4    4    0    0 -0.74995744124E+02 -0.87939100186E+01 -0.44416111355E+02  0.87604140530E+02  0.00000000000E+00 0. -1.
          5    1    5    5  501    0  0.16816296704E+03  0.11755319001E+02  0.78096098001E+03  0.79896127147E+03  0.47000000000E+01 0.  1.
         -5    1    5    5    0  501  0.58905109310E+02  0.91780517980E+02  0.61915077990E+03  0.62869965296E+03  0.47000000000E+01 0.  1.
          1    1    1    2  502    0 -0.77581816077E+02 -0.51007058609E+02 -0.60979729976E+03  0.61682526294E+03  0.00000000000E+00 0. -1.
          1    1    1    2  503    0 -0.54581393042E+02  0.15637325090E+02  0.11454976661E+04  0.11469039007E+04  0.00000000000E+00 0. -1.
<mgrwt>
<rscale>  0 0.72641157E+02</rscale>
<asrwt>0</asrwt>
<pdfrwt beam="1">  1        2 0.38109490E+00 0.56777235E+02</pdfrwt>
<pdfrwt beam="2">  1        2 0.17833905E+00 0.92937562E+02</pdfrwt>
<totfact> 0.17862966E+01</totfact>
</mgrwt>
</event>
<event>
13    1  0.1942437E-008  0.4031153E+02  0.7546771E-02  0.1508615E+00
          2   -1    0    0  502    0  0.00000000000E+00  0.00000000000E+00  0.17489670850E+04  0.17489670850E+04  0.00000000000E+00 0. -1.
          2   -1    0    0  503    0 -0.00000000000E+00 -0.00000000000E+00 -0.15034615989E+04  0.15034615989E+04  0.00000000000E+00 0. -1.
         24    2    1    2    0    0  0.82562086317E+01 -0.60704767174E+02 -0.25017904909E+03  0.26993456430E+03  0.80758149187E+02 0.  0.
         24    2    1    2    0    0  0.35747043399E+02 -0.40320094739E+02 -0.27054033840E+03  0.28713456745E+03  0.79690802298E+02 0.  0.
         25    2    1    2    0    0 -0.77018375279E+02  0.96079842271E+02 -0.39745352398E+02  0.17991110030E+03  0.12500057901E+03 0.  0.
        -11    1    3    3    0    0  0.27783512275E+02  0.72781645261E+00 -0.13604527791E+03  0.13885521564E+03  0.00000000000E+00 0.  1.
         12    1    3    3    0    0 -0.19527303643E+02 -0.61432583626E+02 -0.11413377119E+03  0.13107934865E+03  0.00000000000E+00 0. -1.
        -13    1    4    4    0    0  0.21035572714E+02  0.97293118736E+01 -0.18228109007E+02  0.29485908277E+02  0.00000000000E+00 0.  1.
         14    1    4    4    0    0  0.14711470685E+02 -0.50049406613E+02 -0.25231222939E+03  0.25764865917E+03  0.00000000000E+00 0. -1.
          5    1    5    5  501    0  0.27514099855E+02 -0.67891220235E+01 -0.69886884097E+01  0.29564330440E+02  0.47000000000E+01 0. -1.
         -5    1    5    5    0  501 -0.10453247513E+03  0.10286896429E+03 -0.32756663988E+02  0.15034676986E+03  0.47000000000E+01 0. -1.
          1    1    1    2  502    0  0.12006691783E+02  0.38492111836E+02  0.16600061375E+04  0.16604957633E+04  0.00000000000E+00 0. -1.
          1    1    1    2  503    0  0.21008431466E+02 -0.33547092193E+02 -0.85403591155E+03  0.85495268864E+03  0.00000000000E+00 0. -1.
<mgrwt>
<rscale>  0 0.39945272E+02</rscale>
<asrwt>0</asrwt>
<pdfrwt beam="1">  1        2 0.25720104E+00 0.40311532E+02</pdfrwt>
<pdfrwt beam="2">  1        2 0.22109729E+00 0.39582339E+02</pdfrwt>
<totfact> 0.35358368E+01</totfact>
</mgrwt>
</event>
<event>
13    1  0.1942437E-008  0.6967886E+02  0.7546771E-02  0.1487797E+00
          2   -1    0    0  502    0  0.00000000000E+00  0.00000000000E+00  0.34012699239E+03  0.34012699239E+03  0.00000000000E+00 0. -1.
          2   -1    0    0  503    0 -0.00000000000E+00 -0.00000000000E+00 -0.17372437210E+04  0.17372437210E+04  0.00000000000E+00 0. -1.
         24    2    1    2    0    0 -0.89310408959E+01  0.15152957942E+02 -0.36031742957E+03  0.37020855966E+03  0.83164607663E+02 0.  0.
         24    2    1    2    0    0  0.14113050179E+01  0.35502735661E+02 -0.21954159146E+03  0.23308795412E+03  0.69778563710E+02 0.  0.
         25    2    1    2    0    0 -0.76326877722E+02 -0.54773698867E+02 -0.11959718535E+03  0.19686700087E+03  0.12500871545E+03 0.  0.
        -11    1    4    4    0    0 -0.22597666960E+02 -0.57181433256E+01 -0.32095060545E+02  0.39666668962E+02  0.00000000000E+00 0.  1.
         12    1    4    4    0    0  0.24008971978E+02  0.41220878986E+02 -0.18744653092E+03  0.19342128516E+03  0.00000000000E+00 0. -1.
        -13    1    3    3    0    0 -0.46199430762E+02  0.91351232833E+01 -0.18866685752E+03  0.19445570449E+03  0.00000000000E+00 0.  1.
         14    1    3    3    0    0  0.37268389866E+02  0.60178346592E+01 -0.17165057204E+03  0.17575285517E+03  0.00000000000E+00 0. -1.
          5    1    5    5  501    0  0.33352483137E+02 -0.15313899018E+01 -0.33565158754E+02  0.47575657311E+02  0.47000000000E+01 0.  1.
         -5    1    5    5    0  501 -0.10967936086E+03 -0.53242308965E+02 -0.86032026597E+02  0.14929134356E+03  0.47000000000E+01 0.  1.
          1    1    1    2  502    0  0.67582281747E+02 -0.16715969774E+02  0.28541161845E+03  0.29377981618E+03  0.00000000000E+00 0. -1.
          1    1    1    2  503    0  0.16264331853E+02  0.20833975038E+02 -0.98307214071E+03  0.98342738260E+03  0.00000000000E+00 0. -1.
<mgrwt>
<rscale>  0 0.42914597E+02</rscale>
<asrwt>0</asrwt>
<pdfrwt beam="1">  1        2 0.50018677E-01 0.69678864E+02</pdfrwt>
<pdfrwt beam="2">  1        2 0.25547701E+00 0.26430721E+02</pdfrwt>
<totfact> 0.21610099E+02</totfact>
</mgrwt>
</event>
<event>
13    1  0.1942437E-008  0.7803159E+02  0.7546771E-02  0.1503961E+00
          2   -1    0    0  502    0  0.00000000000E+00  0.00000000000E+00  0.73486582924E+03  0.73486582924E+03  0.00000000000E+00 0. -1.
          2   -1    0    0  503    0 -0.00000000000E+00 -0.00000000000E+00 -0.23043001470E+04  0.23043001470E+04  0.00000000000E+00 0. -1.
         24    2    1    2    0    0  0.39656633753E+02 -0.13761665270E+03 -0.15328763630E+04  0.15415994544E+04  0.79422552212E+02 0.  0.
         24    2    1    2    0    0 -0.12565100505E+01  0.51934371510E+02  0.51860068259E+01  0.96440837391E+02  0.81087500197E+02 0.  0.
         25    2    1    2    0    0 -0.10817154844E+03  0.18321392447E+02  0.74717288653E+02  0.18232954265E+03  0.12499852634E+03 0.  0.
        -11    1    3    3    0    0 -0.19390674159E+01 -0.77825455090E+02 -0.10897240408E+04  0.10925012799E+04  0.00000000000E+00 0.  1.
         12    1    3    3    0    0  0.41595701169E+02 -0.59791197613E+02 -0.44315232215E+03  0.44909817445E+03  0.00000000000E+00 0. -1.
        -13    1    4    4    0    0 -0.14958866701E+02  0.69773040520E+02  0.13186214870E+02  0.72566666859E+02  0.00000000000E+00 0.  1.
         14    1    4    4    0    0  0.13702356651E+02 -0.17838669010E+02 -0.80002080445E+01  0.23874170532E+02  0.00000000000E+00 0. -1.
          5    1    5    5  501    0 -0.23442270751E+02  0.40189387800E+02 -0.22117155131E+02  0.51729928482E+02  0.47000000000E+01 0. -1.
         -5    1    5    5    0  501 -0.84729277685E+02 -0.21867995353E+02  0.96834443784E+02  0.13059961417E+03  0.47000000000E+01 0. -1.
          1    1    1    2  502    0  0.86089990128E+01  0.19271586994E+02  0.54869708409E+03  0.54910290385E+03  0.00000000000E+00 0. -1.
          1    1    1    2  503    0  0.61162425721E+02  0.48089301751E+02 -0.66515833435E+03  0.66969323800E+03  0.00000000000E+00 0. -1.
<mgrwt>
<rscale>  0 0.40583485E+02</rscale>
<asrwt>0</asrwt>
<pdfrwt beam="1">  1        2 0.10806851E+00 0.21107082E+02</pdfrwt>
<pdfrwt beam="2">  1        2 0.33886766E+00 0.78031592E+02</pdfrwt>
<totfact> 0.47235295E+01</totfact>
</mgrwt>
</event>
<event>
13    1  0.1942437E-008  0.7501218E+02  0.7546771E-02  0.1388204E+00
          2   -1    0    0  503    0  0.00000000000E+00  0.00000000000E+00  0.14823859255E+04  0.14823859255E+04  0.00000000000E+00 0. -1.
          2   -1    0    0  502    0 -0.00000000000E+00 -0.00000000000E+00 -0.28310891202E+04  0.28310891202E+04  0.00000000000E+00 0. -1.
         24    2    1    2    0    0  0.82280340428E+02  0.32728107978E+02 -0.29180490956E+03  0.31599609975E+03  0.82838676593E+02 0.  0.
         24    2    1    2    0    0 -0.42288491699E+03 -0.31954385096E+03 -0.12470950096E+03  0.55228639827E+03  0.92346523371E+02 0.  0.
         25    2    1    2    0    0  0.23502199147E+03  0.30644798572E+03  0.20585497039E+03  0.45513368529E+03  0.12499879288E+03 0.  0.
        -13    1    4    4    0    0 -0.19551197243E+03 -0.16652898740E+03 -0.15580075837E+02  0.25729277831E+03  0.00000000000E+00 0.  1.
         14    1    4    4    0    0 -0.22737294456E+03 -0.15301486356E+03 -0.10912942512E+03  0.29499361996E+03  0.00000000000E+00 0. -1.
        -13    1    3    3    0    0  0.13866433198E+02  0.16168171846E+02 -0.19578014346E+03  0.19693540140E+03  0.00000000000E+00 0.  1.
         14    1    3    3    0    0  0.68413907230E+02  0.16559936131E+02 -0.96024766106E+02  0.11906069836E+03  0.00000000000E+00 0. -1.
          5    1    5    5  501    0  0.47345462273E+02  0.98225055926E+02  0.31797051568E+01  0.10918770505E+03  0.47000000000E+01 0.  1.
         -5    1    5    5    0  501  0.18767652920E+03  0.20822292980E+03  0.20267526523E+03  0.34594598024E+03  0.47000000000E+01 0.  1.
          1    1    1    2  502    0  0.33344776860E+02 -0.39685802144E+02 -0.20622077160E+04  0.20628590599E+04  0.00000000000E+00 0. -1.
          1    1    1    2  503    0  0.72237808227E+02  0.20053559401E+02  0.92416396142E+03  0.92719980250E+03  0.00000000000E+00 0. -1.
<mgrwt>
<rscale>  0 0.62355711E+02</rscale>
<asrwt>0</asrwt>
<pdfrwt beam="1">  1        2 0.21799793E+00 0.75012184E+02</pdfrwt>
<pdfrwt beam="2">  1        2 0.41633663E+00 0.51834709E+02</pdfrwt>
<totfact> 0.10209124E+01</totfact>
</mgrwt>
</event>
<event>
13    1  0.1942437E-008  0.1139408E+03  0.7546771E-02  0.1299665E+00
          2   -1    0    0  502    0  0.00000000000E+00  0.00000000000E+00  0.27669462890E+04  0.27669462890E+04  0.00000000000E+00 0. -1.
          2   -1    0    0  503    0 -0.00000000000E+00 -0.00000000000E+00 -0.20663740580E+04  0.20663740580E+04  0.00000000000E+00 0. -1.
         24    2    1    2    0    0  0.12348636049E+03 -0.34613130385E+02  0.19884051091E+02  0.15315941758E+03  0.81335611421E+02 0.  0.
         24    2    1    2    0    0  0.68971385994E+01  0.12544717912E+03  0.55709399375E+03  0.57670751862E+03  0.80332302946E+02 0.  0.
         25    2    1    2    0    0  0.17861173762E+01 -0.38125193284E+00  0.65232492522E+03  0.66419565013E+03  0.12499887211E+03 0.  0.
        -13    1    4    4    0    0 -0.15035012392E+02  0.54621433604E+02  0.38743210976E+03  0.39155228550E+03  0.00000000000E+00 0.  1.
         14    1    4    4    0    0  0.21932150992E+02  0.70825745515E+02  0.16966188399E+03  0.18515523313E+03  0.00000000000E+00 0. -1.
        -13    1    3    3    0    0  0.10082383718E+03 -0.60239050419E+02  0.12055425601E+02  0.11806575552E+03  0.00000000000E+00 0.  1.
         14    1    3    3    0    0  0.22662523308E+02  0.25625920034E+02  0.78286254901E+01  0.35093662068E+02  0.00000000000E+00 0. -1.
          5    1    5    5  501    0 -0.56059976390E+02 -0.22138166001E+02  0.38932474784E+03  0.39399069612E+03  0.47000000000E+01 0. -1.
         -5    1    5    5    0  501  0.57846093767E+02  0.21756914068E+02  0.26300017738E+03  0.27020495402E+03  0.47000000000E+01 0. -1.
          1    1    1    2  502    0 -0.72887460774E+02  0.68046641318E+01  0.14527063550E+04  0.14545496345E+04  0.00000000000E+00 0. -1.
          1    1    1    2  503    0 -0.59282155689E+02 -0.97257460933E+02 -0.19814370941E+04  0.19847081261E+04  0.00000000000E+00 0. -1.
<mgrwt>
<rscale>  0 0.91328911E+02</rscale>
<asrwt>0</asrwt>
<pdfrwt beam="1">  1        2 0.40690387E+00 0.73204408E+02</pdfrwt>
<pdfrwt beam="2">  1        2 0.30387854E+00 0.11394082E+03</pdfrwt>
<totfact> 0.52417397E+00</totfact>
</mgrwt>
</event>
<event>
13    1  0.1942437E-008  0.2452683E+03  0.7546771E-02  0.1253225E+00
          2   -1    0    0  502    0  0.00000000000E+00  0.00000000000E+00  0.13041097543E+04  0.13041097543E+04  0.00000000000E+00 0. -1.
          2   -1    0    0  503    0 -0.00000000000E+00 -0.00000000000E+00 -0.23081970369E+04  0.23081970369E+04  0.00000000000E+00 0. -1.
         24    2    1    2    0    0 -0.71703931256E+02  0.34388995847E+02 -0.13307932832E+03  0.17494709585E+03  0.81069858318E+02 0.  0.
         24    2    1    2    0    0 -0.10623757124E+03  0.26349066194E+03 -0.45014958721E+03  0.53833033141E+03  0.80319016290E+02 0.  0.
         25    2    1    2    0    0  0.36988631266E+03 -0.25260124082E+03  0.49976358122E+03  0.68265289985E+03  0.12501229302E+03 0.  0.
        -11    1    3    3    0    0 -0.32196677329E+02  0.49446522115E+02 -0.11440974612E+03  0.12872907437E+03  0.00000000000E+00 0.  1.
         12    1    3    3    0    0 -0.39507253926E+02 -0.15057526267E+02 -0.18669582194E+02  0.46218021478E+02  0.00000000000E+00 0. -1.
        -11    1    4    4    0    0  0.89694863886E+01  0.35604045079E+02 -0.33758858686E+02  0.49877452339E+02  0.00000000000E+00 0.  1.
         12    1    4    4    0    0 -0.11520705762E+03  0.22788661686E+03 -0.41639072853E+03  0.48845287907E+03  0.00000000000E+00 0. -1.
          5    1    5    5  501    0  0.10958061500E+03 -0.14379046040E+03  0.16473615239E+03  0.24462971526E+03  0.47000000000E+01 0. -1.
         -5    1    5    5    0  501  0.26030569766E+03 -0.10881078042E+03  0.33502742883E+03  0.43802318459E+03  0.47000000000E+01 0. -1.
          1    1    1    2  502    0 -0.23120473777E+03 -0.80950739222E+02  0.62424988351E+03  0.67059419175E+03  0.00000000000E+00 0. -1.
          1    1    1    2  503    0  0.39259927598E+02  0.35672322257E+02 -0.15448718319E+04  0.15457822723E+04  0.00000000000E+00 0. -1.
<mgrwt>
<rscale>  0 0.11406338E+03</rscale>
<asrwt>0</asrwt>
<pdfrwt beam="1">  1        2 0.19178085E+00 0.24526834E+03</pdfrwt>
<pdfrwt beam="2">  1        2 0.33944074E+00 0.53045796E+02</pdfrwt>
<totfact> 0.20791240E+01</totfact>
</mgrwt>
</event>
<event>
13    1  0.1942437E-008  0.8348665E+02  0.7546771E-02  0.1384083E+00
          2   -1    0    0  503    0  0.00000000000E+00  0.00000000000E+00  0.24047794803E+04  0.24047794803E+04  0.00000000000E+00 0. -1.
          2   -1    0    0  502    0 -0.00000000000E+00 -0.00000000000E+00 -0.98997856577E+03  0.98997856577E+03  0.00000000000E+00 0. -1.
         24    2    1    2    0    0  0.20406501745E+03  0.27079532944E+02 -0.67092542261E+03  0.70638806320E+03  0.80419777906E+02 0.  0.
         24    2    1    2    0    0 -0.91080772569E+02  0.33449929836E+01  0.45102160772E+02  0.12975213868E+03  0.80588562936E+02 0.  0.
         25    2    1    2    0    0 -0.73788535117E+02 -0.10159299819E+02  0.60116834917E+03  0.61852776913E+03  0.12500103143E+03 0.  0.
        -11    1    3    3    0    0  0.20088484036E+02 -0.20033509144E+02 -0.55569261961E+02  0.62392560088E+02  0.00000000000E+00 0.  1.
         12    1    3    3    0    0  0.18397653341E+03  0.47113042088E+02 -0.61535616065E+03  0.64399550311E+03  0.00000000000E+00 0. -1.
        -13    1    4    4    0    0 -0.10130483600E+02  0.32872039314E+02  0.51782475594E+01  0.34785225519E+02  0.00000000000E+00 0.  1.
         14    1    4    4    0    0 -0.80950288969E+02 -0.29527046331E+02  0.39923913213E+02  0.94966913162E+02  0.00000000000E+00 0. -1.
          5    1    5    5  501    0  0.34458488948E+02  0.21737886559E+01  0.18854190387E+03  0.19173484903E+03  0.47000000000E+01 0.  1.
         -5    1    5    5    0  501 -0.10824702407E+03 -0.12333088475E+02  0.41262644529E+03  0.42679292010E+03  0.47000000000E+01 0.  1.
          1    1    1    2  502    0 -0.50406163469E+02 -0.67091950942E+02 -0.24292980040E+03  0.25701556202E+03  0.00000000000E+00 0. -1.
          1    1    1    2  503    0  0.11210453708E+02  0.46826724834E+02  0.16823856276E+04  0.16830745131E+04  0.00000000000E+00 0. -1.
<mgrwt>
<rscale>  0 0.63402498E+02</rscale>
<asrwt>0</asrwt>
<pdfrwt beam="1">  1        2 0.35364404E+00 0.48149937E+02</pdfrwt>
<pdfrwt beam="2">  1        2 0.14558508E+00 0.83486645E+02</pdfrwt>
<totfact> 0.29960374E+01</totfact>
</mgrwt>
</event>
<event>
13    1  0.1942437E-008  0.7998515E+02  0.7546771E-02  0.1333528E+00
          2   -1    0    0  503    0  0.00000000000E+00  0.00000000000E+00  0.33349121050E+03  0.33349121050E+03  0.00000000000E+00 0. -1.
          2   -1    0    0  502    0 -0.00000000000E+00 -0.00000000000E+00 -0.26666593902E+04  0.26666593902E+04  0.00000000000E+00 0. -1.
         24    2    1    2    0    0 -0.67761356316E+02 -0.15497272530E+02 -0.10055239215E+04  0.10110647937E+04  0.79636006087E+02 0.  0.
         24    2    1    2    0    0 -0.41523084835E+02 -0.10395346165E+03 -0.56256047838E+03  0.57925540036E+03  0.80821026052E+02 0.  0.
         25    2    1    2    0    0  0.59263360674E+02  0.26073732223E+03 -0.77614792995E+02  0.30519608521E+03  0.12499798885E+03 0.  0.
        -11    1    4    4    0    0  0.18468939314E+02 -0.78849065189E+01 -0.42515819420E+02  0.47019872087E+02  0.00000000000E+00 0.  1.
         12    1    4    4    0    0 -0.59992024148E+02 -0.96068555129E+02 -0.52004465896E+03  0.53223552828E+03  0.00000000000E+00 0. -1.
        -13    1    3    3    0    0 -0.76400378954E+02 -0.34878881545E+02 -0.76034934610E+03  0.76497364817E+03  0.00000000000E+00 0.  1.
         14    1    3    3    0    0  0.86390226384E+01  0.19381609015E+02 -0.24517457538E+03  0.24609114550E+03  0.00000000000E+00 0. -1.
          5    1    5    5  501    0 -0.33919431255E+02  0.52911397998E+02  0.41408348780E+01  0.63161541845E+02  0.47000000000E+01 0.  1.
         -5    1    5    5    0  501  0.93182791929E+02  0.20782592423E+03 -0.81755627873E+02  0.24203454337E+03  0.47000000000E+01 0.  1.
          1    1    1    2  502    0  0.30744929894E+01 -0.76869702595E+02 -0.88670973849E+03  0.89004076537E+03  0.00000000000E+00 0. -1.
          1    1    1    2  503    0  0.46946587487E+02 -0.64416885453E+02  0.19924075163E+03  0.21459355610E+03  0.00000000000E+00 0. -1.
<mgrwt>
<rscale>  0 0.78443295E+02</rscale>
<asrwt>0</asrwt>
<pdfrwt beam="1">  1        2 0.49042827E-01 0.79985150E+02</pdfrwt>
<pdfrwt beam="2">  1        2 0.39215577E+00 0.76931162E+02</pdfrwt>
<totfact> 0.70724333E+01</totfact>
</mgrwt>
</event>
<event>
13    1  0.1942437E-008  0.1256599E+03  0.7546771E-02  0.1308946E+00
          2   -1    0    0  502    0  0.00000000000E+00  0.00000000000E+00  0.22302582144E+04  0.22302582144E+04  0.00000000000E+00 0. -1.
          2   -1    0    0  503    0 -0.00000000000E+00 -0.00000000000E+00 -0.43560282701E+03  0.43560282701E+03  0.00000000000E+00 0. -1.
         24    2    1    2    0    0  0.18298277524E+02  0.12325156855E+02  0.20911151804E+03  0.22563660840E+03  0.81838350552E+02 0.  0.
         24    2    1    2    0    0  0.36785057334E+02 -0.11301724002E+03  0.22902805358E+03  0.27023198034E+03  0.80283478301E+02 0.  0.
         25    2    1    2    0    0  0.12182977725E+03  0.58809699899E+02  0.33469607807E+03  0.38202994587E+03  0.12499735772E+03 0.  0.
        -11    1    4    4    0    0  0.27074434262E+02 -0.88465365420E+02  0.22531552439E+03  0.24356976701E+03  0.00000000000E+00 0.  1.
         12    1    4    4    0    0  0.97106230720E+01 -0.24551874602E+02  0.37125291908E+01  0.26662213335E+02  0.00000000000E+00 0. -1.
        -13    1    3    3    0    0  0.32074736831E+02  0.41506361391E+02  0.13258910760E+03  0.14258835238E+03  0.00000000000E+00 0.  1.
         14    1    3    3    0    0 -0.13776459307E+02 -0.29181204536E+02  0.76522410435E+02  0.83048256020E+02  0.00000000000E+00 0. -1.
          5    1    5    5  501    0  0.14017298261E+03  0.65572504297E+02  0.32437321931E+03  0.35942773096E+03  0.47000000000E+01 0.  1.
         -5    1    5    5    0  501 -0.18343205354E+02 -0.67628043977E+01  0.10322858757E+02  0.22602214911E+02  0.47000000000E+01 0.  1.
          1    1    1    2  502    0 -0.52325695494E+02  0.31294994301E+02  0.13940038571E+04  0.13953365575E+04  0.00000000000E+00 0. -1.
          1    1    1    2  503    0 -0.12458741662E+03  0.10587388966E+02 -0.37218411950E+03  0.39262594921E+03  0.00000000000E+00 0. -1.
<mgrwt>
<rscale>  0 0.87529978E+02</rscale>
<asrwt>0</asrwt>
<pdfrwt beam="1">  1        2 0.32797914E+00 0.60970116E+02</pdfrwt>
<pdfrwt beam="2">  1        2 0.64059240E-01 0.12565987E+03</pdfrwt>
<totfact> 0.89759669E+01</totfact>
</mgrwt>
</event>
<event>
13    1  0.1942437E-008  0.1173725E+03  0.7546771E-02  0.1416279E+00
          2   -1    0    0  503    0  0.00000000000E+00  0.00000000000E+00  0.35486798593E+04  0.35486798593E+04  0.00000000000E+00 0. -1.
          2   -1    0    0  502    0 -0.00000000000E+00 -0.00000000000E+00 -0.34150205719E+03  0.34150205719E+03  0.00000000000E+00 0. -1.
         24    2    1    2    0    0 -0.37142939697E+02 -0.76282309840E+02  0.14508552471E+03  0.18654037131E+03  0.80925347608E+02 0.  0.
         24    2    1    2    0    0  0.11122607577E+03  0.18278484837E+02  0.11445744229E+03  0.18037359410E+03  0.82029168068E+02 0.  0.
         25    2    1    2    0    0 -0.71977329358E+02 -0.67703365104E+02  0.13870349184E+04  0.13961572990E+04  0.12499942908E+03 0.  0.
        -11    1    3    3    0    0 -0.58258490298E+02 -0.65430015390E+02  0.85567274216E+02  0.12246181863E+03  0.00000000000E+00 0.  1.
         12    1    3    3    0    0  0.21115550601E+02 -0.10852294450E+02  0.59518250493E+02  0.64078552681E+02  0.00000000000E+00 0. -1.
        -13    1    4    4    0    0  0.22525308160E+02 -0.29192015432E+02  0.44726746365E+02  0.57965896121E+02  0.00000000000E+00 0.  1.
         14    1    4    4    0    0  0.88700767611E+02  0.47470500269E+02  0.69730695922E+02  0.12240769798E+03  0.00000000000E+00 0. -1.
          5    1    5    5  501    0  0.11984452462E+02 -0.68746422556E+02  0.45611411694E+03  0.46144541973E+03  0.47000000000E+01 0. -1.
         -5    1    5    5    0  501 -0.83961781820E+02  0.10430574520E+01  0.93092080144E+03  0.93471187931E+03  0.47000000000E+01 0. -1.
          1    1    1    2  502    0 -0.26337167679E+02  0.11487329630E+03 -0.27089620788E+03  0.29542219965E+03  0.00000000000E+00 0. -1.
          1    1    1    2  503    0  0.24231360963E+02  0.10833893810E+02  0.18314961246E+04  0.18316884524E+04  0.00000000000E+00 0. -1.
<mgrwt>
<rscale>  0 0.55815963E+02</rscale>
<asrwt>0</asrwt>
<pdfrwt beam="1">  1        2 0.52186466E+00 0.26543024E+02</pdfrwt>
<pdfrwt beam="2">  1        2 0.50220893E-01 0.11737252E+03</pdfrwt>
<totfact> 0.28694397E+01</totfact>
</mgrwt>
</event>
<event>
13    1  0.1942437E-008  0.4067788E+03  0.7546771E-02  0.1202388E+00
          2   -1    0    0  502    0  0.00000000000E+00  0.00000000000E+00  0.15595668475E+04  0.15595668475E+04  0.00000000000E+00 0. -1.
          2   -1    0    0  503    0 -0.00000000000E+00 -0.00000000000E+00 -0.16557221744E+04  0.16557221744E+04  0.00000000000E+00 0. -1.
         24    2    1    2    0    0  0.68459425740E+02 -0.30121784786E+02 -0.55524952504E+03  0.56591109888E+03  0.79745356519E+02 0.  0.
         24    2    1    2    0    0 -0.61431497662E+02 -0.21023679349E+02 -0.38115560544E+02  0.10799762760E+03  0.77426530417E+02 0.  0.
         25    2    1    2    0    0 -0.24060238675E+03 -0.31712014852E+03 -0.15174422581E+03  0.44396652340E+03  0.12500106692E+03 0.  0.
        -13    1    4    4    0    0 -0.15305393768E+02  0.21683144670E+02 -0.36482855992E+02  0.45115547459E+02  0.00000000000E+00 0.  1.
         14    1    4    4    0    0 -0.46126103895E+02 -0.42706824019E+02 -0.16327045513E+01  0.62882080138E+02  0.00000000000E+00 0. -1.
        -13    1    3    3    0    0  0.43016412883E+02  0.20832593973E+02 -0.33611990551E+03  0.33950110402E+03  0.00000000000E+00 0.  1.
         14    1    3    3    0    0  0.25443012857E+02 -0.50954378760E+02 -0.21912961953E+03  0.22640999486E+03  0.00000000000E+00 0. -1.
          5    1    5    5  501    0 -0.18307650909E+03 -0.22309827861E+03 -0.16561045645E+03  0.33277434304E+03  0.47000000000E+01 0.  1.
         -5    1    5    5    0  501 -0.57525877658E+02 -0.94021869906E+02  0.13866230648E+02  0.11119218036E+03  0.47000000000E+01 0.  1.
          1    1    1    2  502    0  0.25465433424E+03  0.31835766030E+03  0.13418449198E+04  0.14024080072E+04  0.00000000000E+00 0. -1.
          1    1    1    2  503    0 -0.21079875566E+02  0.49907952353E+02 -0.69289093533E+03  0.69500576481E+03  0.00000000000E+00 0. -1.
<mgrwt>
<rscale>  0 0.14845241E+03</rscale>
<asrwt>0</asrwt>
<pdfrwt beam="1">  1        2 0.22934807E+00 0.40677876E+03</pdfrwt>
<pdfrwt beam="2">  1        2 0.24348855E+00 0.54177162E+02</pdfrwt>
<totfact> 0.29738390E+01</totfact>
</mgrwt>
</event>
<event>
13    1  0.1942437E-008  0.2648839E+02  0.7546771E-02  0.1684716E+00
         -3   -1    0    0    0  501 -0.00000000000E+00  0.00000000000E+00  0.14888918114E+03  0.14888918114E+03  0.00000000000E+00 0.  1.
          2   -1    0    0  503    0  0.00000000000E+00 -0.00000000000E+00 -0.16385070146E+04  0.16385070146E+04  0.00000000000E+00 0. -1.
         24    2    1    2    0    0 -0.16472057319E+03  0.57953268357E+02 -0.16253012294E+03  0.25063400776E+03  0.76875980895E+02 0.  0.
         24    2    1    2    0    0  0.10089796812E+03 -0.10261064858E+03 -0.36985432374E+03  0.40445187972E+03  0.77972796836E+02 0.  0.
         25    2    1    2    0    0  0.93268330883E+02  0.57634513511E+02 -0.87273841326E+03  0.88843790494E+03  0.12501541607E+03 0.  0.
        -11    1    4    4    0    0  0.86629668964E+02 -0.44417071292E+02 -0.28009698646E+03  0.29653313068E+03  0.00000000000E+00 0.  1.
         12    1    4    4    0    0  0.14268299153E+02 -0.58193577292E+02 -0.89757337288E+02  0.10791874905E+03  0.00000000000E+00 0. -1.
        -13    1    3    3    0    0 -0.47766016074E+02  0.55188053384E+02 -0.73868332175E+02  0.10384528890E+03  0.00000000000E+00 0.  1.
         14    1    3    3    0    0 -0.11695455712E+03  0.27652149724E+01 -0.88661790764E+02  0.14678871886E+03  0.00000000000E+00 0. -1.
          5    1    5    5  502    0  0.81421987661E+02  0.34962267792E+02 -0.25221032733E+03  0.26736499295E+03  0.47000000000E+01 0.  1.
         -5    1    5    5    0  502  0.11846343221E+02  0.22672245719E+02 -0.62052808593E+03  0.62107291198E+03  0.47000000000E+01 0.  1.
          1    1    1    2  503    0 -0.11760170649E+02 -0.23763776615E+02 -0.16173948170E+03  0.16389837898E+03  0.00000000000E+00 0. -1.
         -4    1    1    2    0  501 -0.17685555160E+02  0.10786643331E+02  0.77244508141E+02  0.79974024368E+02  0.00000000000E+00 0.  1.
<mgrwt>
<rscale>  0 0.23424759E+02</rscale>
<asrwt>0</asrwt>
<pdfrwt beam="2">  1        2 0.24095690E+00 0.26488390E+02</pdfrwt>
<pdfrwt beam="1">  1       -3 0.21895469E-01 0.20715466E+02</pdfrwt>
<totfact> 0.14247824E+02</totfact>
</mgrwt>
</event>
<event>
13    1  0.1942437E-008  0.1120679E+03  0.7546771E-02  0.1387779E+00
         -1   -1    0    0    0  501 -0.00000000000E+00  0.00000000000E+00  0.82453679214E+03  0.82453679214E+03  0.00000000000E+00 0.  1.
          2   -1    0    0  503    0  0.00000000000E+00 -0.00000000000E+00 -0.12117327469E+04  0.12117327469E+04  0.00000000000E+00 0. -1.
         24    2    1    2    0    0 -0.74731436758E+02 -0.38288224829E+02  0.15551438905E+03  0.19383498876E+03  0.79602147369E+02 0.  0.
         24    2    1    2    0    0  0.60837776972E+02  0.35648459933E+02 -0.53003504043E+02  0.11852732790E+03  0.79166332597E+02 0.  0.
         25    2    1    2    0    0  0.26117462659E+02  0.14600552543E+03 -0.18887495438E+03  0.27073519697E+03  0.12499625266E+03 0.  0.
        -11    1    3    3    0    0 -0.73797802376E+02 -0.12050754384E+02  0.63345905382E+02  0.98000204313E+02  0.00000000000E+00 0.  1.
         12    1    3    3    0    0 -0.93363438222E+00 -0.26237470445E+02  0.92168483666E+02  0.95834784446E+02  0.00000000000E+00 0. -1.
        -13    1    4    4    0    0 -0.13785369709E+01 -0.18524770324E+02 -0.25537813406E+02  0.31579224076E+02  0.00000000000E+00 0.  1.
         14    1    4    4    0    0  0.62216313942E+02  0.54173230257E+02 -0.27465690637E+02  0.86948103827E+02  0.00000000000E+00 0. -1.
          5    1    5    5  502    0 -0.38535506615E+02  0.43702275594E+02 -0.11463971071E+03  0.12868266175E+03  0.47000000000E+01 0. -1.
         -5    1    5    5    0  502  0.64652969273E+02  0.10230324984E+03 -0.74235243664E+02  0.14205253523E+03  0.47000000000E+01 0. -1.
          1    1    1    2  503    0 -0.76341879007E+01 -0.10885526329E+03 -0.87307643695E+03  0.87986943005E+03  0.00000000000E+00 0. -1.
         -2    1    1    2    0  501 -0.45896149716E+01 -0.34510497240E+02  0.57224455159E+03  0.57330259533E+03  0.00000000000E+00 0.  1.
<mgrwt>
<rscale>  0 0.62462565E+02</rscale>
<asrwt>0</asrwt>
<pdfrwt beam="2">  1        2 0.17819599E+00 0.11206793E+03</pdfrwt>
<pdfrwt beam="1">  1       -1 0.12125541E+00 0.34814350E+02</pdfrwt>
<totfact> 0.18523847E+01</totfact>
</mgrwt>
</event>
<event>
13    1  0.1942437E-008  0.6393549E+02  0.7546771E-02  0.1567230E+00
          2   -1    0    0  503    0  0.00000000000E+00  0.00000000000E+00  0.35713225169E+04  0.35713225169E+04  0.00000000000E+00 0. -1.
          2   -1    0    0  502    0 -0.00000000000E+00 -0.00000000000E+00 -0.21914382212E+04  0.21914382212E+04  0.00000000000E+00 0. -1.
         24    2    1    2    0    0 -0.80194139574E+03 -0.34495244850E+03 -0.96962977892E+03  0.13075239455E+04  0.85643248216E+02 0.  0.
         24    2    1    2    0    0  0.66896846513E+03  0.65510827107E+03 -0.87299580688E+02  0.94402889177E+03  0.82967930773E+02 0.  0.
         25    2    1    2    0    0  0.86471128916E+02 -0.28198821691E+03  0.15239817472E+03  0.35474595040E+03  0.12499950023E+03 0.  0.
        -11    1    4    4    0    0  0.17802303637E+03  0.17328777837E+03  0.13498559956E+02  0.24880326913E+03  0.00000000000E+00 0.  1.
         12    1    4    4    0    0  0.49094542876E+03  0.48182049271E+03 -0.10079814064E+03  0.69522562264E+03  0.00000000000E+00 0. -1.
        -13    1    3    3    0    0 -0.26154223979E+03 -0.69571880156E+02 -0.30313570669E+03  0.40636910115E+03  0.00000000000E+00 0.  1.
         14    1    3    3    0    0 -0.54039915595E+03 -0.27538056834E+03 -0.66649407224E+03  0.90115484435E+03  0.00000000000E+00 0. -1.
          5    1    5    5  501    0 -0.12015743776E+02 -0.14341529908E+03  0.35292759663E+02  0.14825651754E+03  0.47000000000E+01 0. -1.
         -5    1    5    5    0  501  0.98486872692E+02 -0.13857291783E+03  0.11710541505E+03  0.20648943286E+03  0.47000000000E+01 0. -1.
          1    1    1    2  502    0  0.12240055366E+01  0.16976302276E+02 -0.43548128972E+03  0.43581377528E+03  0.00000000000E+00 0. -1.
          1    1    1    2  503    0  0.45277796148E+02 -0.45143907939E+02  0.27198967704E+04  0.27206481751E+04  0.00000000000E+00 0. -1.
<mgrwt>
<rscale>  0 0.32987964E+02</rscale>
<asrwt>0</asrwt>
<pdfrwt beam="1">  1        2 0.52519449E+00 0.63935491E+02</pdfrwt>
<pdfrwt beam="2">  1        2 0.32227033E+00 0.17020371E+02</pdfrwt>
<totfact> 0.21701190E+00</totfact>
</mgrwt>
</event>
<event>
13    1  0.1942437E-008  0.3719462E+02  0.7546771E-02  0.1630730E+00
          2   -1    0    0  503    0  0.00000000000E+00  0.00000000000E+00  0.51474051528E+03  0.51474051528E+03  0.00000000000E+00 0. -1.
          2   -1    0    0  502    0 -0.00000000000E+00 -0.00000000000E+00 -0.18403158719E+04  0.18403158719E+04  0.00000000000E+00 0. -1.
         24    2    1    2    0    0 -0.48208825976E+02  0.64536219113E+02 -0.72746537940E+03  0.73588773334E+03  0.76392822797E+02 0.  0.
         24    2    1    2    0    0  0.45042485373E+02 -0.19771350011E+02 -0.52420154055E+03  0.53299573807E+03  0.82930512591E+02 0.  0.
         25    2    1    2    0    0  0.47260055824E+02 -0.36064146841E+02  0.34504559579E+03  0.37177389234E+03  0.12500091313E+03 0.  0.
        -11    1    4    4    0    0 -0.23112366460E+02 -0.10570231455E+01 -0.18992623347E+03  0.19133027189E+03  0.00000000000E+00 0.  1.
         12    1    4    4    0    0  0.68154851833E+02 -0.18714326866E+02 -0.33427530708E+03  0.34166546618E+03  0.00000000000E+00 0. -1.
        -13    1    3    3    0    0  0.75965438224E+01  0.23090278740E+02 -0.58905534928E+02  0.63723861273E+02  0.00000000000E+00 0.  1.
         14    1    3    3    0    0 -0.55805369799E+02  0.41445940372E+02 -0.66855984447E+03  0.67216387207E+03  0.00000000000E+00 0. -1.
          5    1    5    5  501    0  0.47130447782E+02  0.30719995512E+02  0.24481645559E+03  0.25124128673E+03  0.47000000000E+01 0. -1.
         -5    1    5    5    0  501  0.12960804261E+00 -0.66784142352E+02  0.10022914021E+03  0.12053260561E+03  0.47000000000E+01 0. -1.
          1    1    1    2  502    0 -0.29641633017E+02 -0.22459200181E+02 -0.56538901716E+03  0.56661078599E+03  0.00000000000E+00 0. -1.
          1    1    1    2  503    0 -0.14452082204E+02  0.13758477920E+02  0.14643498468E+03  0.14778823746E+03  0.00000000000E+00 0. -1.
<mgrwt>
<rscale>  0 0.27242944E+02</rscale>
<asrwt>0</asrwt>
<pdfrwt beam="1">  1        2 0.75697134E-01 0.19953907E+02</pdfrwt>
<pdfrwt beam="2">  1        2 0.27063469E+00 0.37194622E+02</pdfrwt>
<totfact> 0.12279473E+02</totfact>
</mgrwt>
</event>
<event>
13    1  0.1942437E-008  0.1386734E+03  0.7546771E-02  0.1424844E+00
          2   -1    0    0  503    0  0.00000000000E+00  0.00000000000E+00  0.13215111806E+04  0.13215111806E+04  0.00000000000E+00 0. -1.
          2   -1    0    0  502    0 -0.00000000000E+00 -0.00000000000E+00 -0.10780926603E+04  0.10780926603E+04  0.00000000000E+00 0. -1.
         24    2    1    2    0    0 -0.12760191830E+03  0.20552394829E+03 -0.74590956387E+02  0.27324874625E+03  0.10285292255E+03 0.  0.
         24    2    1    2    0    0  0.17295149478E+03 -0.11933595924E+03  0.17802987829E+03  0.28709328734E+03  0.81084075859E+02 0.  0.
         25    2    1    2    0    0  0.75673012806E+02 -0.81802840958E+02  0.14655159522E+03  0.22253075483E+03  0.12499782849E+03 0.  0.
        -11    1    4    4    0    0  0.18039687151E+03 -0.10686006541E+03  0.15894518876E+03  0.26310773052E+03  0.00000000000E+00 0.  1.
         12    1    4    4    0    0 -0.74453767311E+01 -0.12475893830E+02  0.19084689524E+02  0.23985556815E+02  0.00000000000E+00 0. -1.
        -11    1    3    3    0    0 -0.73271460698E+02  0.39573449732E+02  0.23180448513E+00  0.83275558298E+02  0.00000000000E+00 0.  1.
         12    1    3    3    0    0 -0.54330457599E+02  0.16595049856E+03 -0.74822760872E+02  0.18997318795E+03  0.00000000000E+00 0. -1.
          5    1    5    5  501    0 -0.11358305791E+02 -0.72456802369E+02  0.97456151118E+02  0.12206060261E+03  0.47000000000E+01 0.  1.
         -5    1    5    5    0  501  0.87031318597E+02 -0.93460385891E+01  0.49095444102E+02  0.10047015221E+03  0.47000000000E+01 0.  1.
          1    1    1    2  502    0 -0.13783268949E+03 -0.17029823967E+02 -0.80557115928E+03  0.81745504944E+03  0.00000000000E+00 0. -1.
          1    1    1    2  503    0  0.16810100204E+02  0.12644675877E+02  0.79899916254E+03  0.79927600304E+03  0.00000000000E+00 0. -1.
<mgrwt>
<rscale>  0 0.54009093E+02</rscale>
<asrwt>0</asrwt>
<pdfrwt beam="1">  1        2 0.19433988E+00 0.21034907E+02</pdfrwt>
<pdfrwt beam="2">  1        2 0.15854304E+00 0.13867340E+03</pdfrwt>
<totfact> 0.89518813E+01</totfact>
</mgrwt>
</event>
<event>
13    1  0.1942437E-008  0.6330389E+02  0.7546771E-02  0.1485218E+00
         -3   -1    0    0    0  501 -0.00000000000E+00  0.00000000000E+00  0.10018238210E+03  0.10018238210E+03  0.00000000000E+00 0.  1.
          2   -1    0    0  503    0  0.00000000000E+00 -0.00000000000E+00 -0.12339807392E+04  0.12339807392E+04  0.00000000000E+00 0. -1.
         24    2    1    2    0    0 -0.11465509609E+01 -0.49559091055E+01 -0.21149059543E+02  0.84022626528E+02  0.81158138439E+02 0.  0.
         24    2    1    2    0    0 -0.28161258586E+02 -0.11720161828E+01 -0.12100380766E+03  0.14830810506E+03  0.80987298098E+02 0.  0.
         25    2    1    2    0    0  0.99596158677E+02  0.64884259048E+02 -0.22266853975E+03  0.28166292976E+03  0.12499346186E+03 0.  0.
        -11    1    3    3    0    0 -0.13527454716E+01  0.31975372289E+02  0.12211217760E+02  0.34254462373E+02  0.00000000000E+00 0.  1.
         12    1    3    3    0    0  0.20619451074E+00 -0.36931281394E+02 -0.33360277302E+02  0.49768164154E+02  0.00000000000E+00 0. -1.
        -13    1    4    4    0    0 -0.13092220635E+02 -0.40372398319E+02 -0.73736255380E+02  0.85078623312E+02  0.00000000000E+00 0.  1.
         14    1    4    4    0    0 -0.15069037951E+02  0.39200382136E+02 -0.47267552277E+02  0.63229481752E+02  0.00000000000E+00 0. -1.
          5    1    5    5  502    0 -0.76877608924E+01  0.58563106609E+02 -0.46807411280E+02  0.75510018368E+02  0.47000000000E+01 0. -1.
         -5    1    5    5    0  502  0.10728391957E+03  0.63211524393E+01 -0.17586112847E+03  0.20615291139E+03  0.47000000000E+01 0. -1.
          1    1    1    2  503    0 -0.51726640405E+02 -0.35670718645E+02 -0.78430392970E+03  0.78681681453E+03  0.00000000000E+00 0. -1.
         -4    1    1    2    0  501 -0.18561708726E+02 -0.23085615115E+02  0.15326979531E+02  0.33352645436E+02  0.00000000000E+00 0.  1.
<mgrwt>
<rscale>  0 0.43303683E+02</rscale>
<asrwt>0</asrwt>
<pdfrwt beam="2">  1        2 0.18146777E+00 0.63303892E+02</pdfrwt>
<pdfrwt beam="1">  1       -3 0.14732702E-01 0.29622334E+02</pdfrwt>
<totfact> 0.42543531E+02</totfact>
</mgrwt>
</event>
<event>
13    1  0.1942437E-008  0.2023791E+03  0.7546771E-02  0.1344589E+00
          2   -1    0    0  503    0  0.00000000000E+00  0.00000000000E+00  0.13768315273E+04  0.13768315273E+04  0.00000000000E+00 0. -1.
          2   -1    0    0  502    0 -0.00000000000E+00 -0.00000000000E+00 -0.19577370445E+04  0.19577370445E+04  0.00000000000E+00 0. -1.
         24    2    1    2    0    0  0.18266620615E+03  0.60467562042E+03 -0.44922470039E+03  0.77940347675E+03  0.81654144592E+02 0.  0.
         24    2    1    2    0    0 -0.33787994494E+03 -0.75879357757E+03 -0.98154253029E+03  0.12890286977E+04  0.90767253203E+02 0.  0.
         25    2    1    2    0    0 -0.68390204070E+02  0.10379060023E+03  0.39148012529E+03  0.42933717766E+03  0.12499605959E+03 0.  0.
        -11    1    3    3    0    0  0.12192273311E+03  0.30977964494E+03 -0.19853353443E+03  0.38761339703E+03  0.00000000000E+00 0.  1.
         12    1    3    3    0    0  0.60743473035E+02  0.29489597548E+03 -0.25069116596E+03  0.39179007972E+03  0.00000000000E+00 0. -1.
        -11    1    4    4    0    0 -0.75544262727E+02 -0.24672889952E+03 -0.26185964678E+03  0.36763101080E+03  0.00000000000E+00 0.  1.
         12    1    4    4    0    0 -0.26233568221E+03 -0.51206467805E+03 -0.71968288350E+03  0.92139768693E+03  0.00000000000E+00 0. -1.
          5    1    5    5  501    0  0.15829658452E+02 -0.14380084072E+02  0.11487819443E+03  0.11694637430E+03  0.47000000000E+01 0. -1.
         -5    1    5    5    0  501 -0.84219862522E+02  0.11817068430E+03  0.27660193086E+03  0.31239080336E+03  0.47000000000E+01 0. -1.
          1    1    1    2  502    0  0.27616532408E+02 -0.60785739529E+00 -0.17225143222E+03  0.17445228074E+03  0.00000000000E+00 0. -1.
          1    1    1    2  503    0  0.19598741045E+03  0.50935214317E+02  0.63063302041E+03  0.66234693896E+03  0.00000000000E+00 0. -1.
<mgrwt>
<rscale>  0 0.74768735E+02</rscale>
<asrwt>0</asrwt>
<pdfrwt beam="1">  1        2 0.20247522E+00 0.20237914E+03</pdfrwt>
<pdfrwt beam="2">  1        2 0.28790251E+00 0.27623221E+02</pdfrwt>
<totfact> 0.30305947E+01</totfact>
</mgrwt>
</event>
<event>
13    1  0.1942437E-008  0.1397301E+03  0.7546771E-02  0.1272726E+00
          2   -1    0    0  503    0  0.00000000000E+00  0.00000000000E+00  0.16630845672E+04  0.16630845672E+04  0.00000000000E+00 0. -1.
          2   -1    0    0  502    0 -0.00000000000E+00 -0.00000000000E+00 -0.35527387329E+03  0.35527387329E+03  0.00000000000E+00 0. -1.
         24    2    1    2    0    0 -0.16661323858E+02  0.51720117257E+02 -0.11572272247E+03  0.15091838164E+03  0.80199994887E+02 0.  0.
         24    2    1    2    0    0  0.22143160714E+00  0.52128421721E+01  0.30741276064E+02  0.82767754881E+02  0.76669762218E+02 0.  0.
         25    2    1    2    0    0 -0.92557692030E+02  0.11279954047E+03  0.13646124903E+03  0.23566493485E+03  0.12500250537E+03 0.  0.
        -11    1    4    4    0    0  0.32401189181E+02 -0.15589299690E+02  0.25527593146E+02  0.44096727055E+02  0.00000000000E+00 0.  1.
         12    1    4    4    0    0 -0.32179757573E+02  0.20802141862E+02  0.52136829177E+01  0.38671027826E+02  0.00000000000E+00 0. -1.
        -13    1    3    3    0    0  0.19786614385E+02  0.46035145067E+02 -0.97838119165E+02  0.10992289230E+03  0.00000000000E+00 0.  1.
         14    1    3    3    0    0 -0.36447938243E+02  0.56849721903E+01 -0.17884603308E+02  0.40995489343E+02  0.00000000000E+00 0. -1.
          5    1    5    5  501    0 -0.83432218145E+02  0.13952544422E+03  0.12363438744E+03  0.20429350545E+03  0.47000000000E+01 0. -1.
         -5    1    5    5    0  501 -0.91254738854E+01 -0.26725903750E+02  0.12826861586E+02  0.31371429406E+02  0.47000000000E+01 0. -1.
          1    1    1    2  502    0  0.29016079862E+01 -0.79241733117E+02 -0.13184078157E+03  0.15384948256E+03  0.00000000000E+00 0. -1.
          1    1    1    2  503    0  0.10609597630E+03 -0.90490766785E+02  0.13881716728E+04  0.13951578865E+04  0.00000000000E+00 0. -1.
<mgrwt>
<rscale>  0 0.10368811E+03</rscale>
<asrwt>0</asrwt>
<pdfrwt beam="1">  1        2 0.24457126E+00 0.13973014E+03</pdfrwt>
<pdfrwt beam="2">  1        2 0.52246158E-01 0.76942764E+02</pdfrwt>
<totfact> 0.19175272E+02</totfact>
</mgrwt>
</event>
<event>
13    1  0.1942437E-008  0.1798057E+03  0.7546771E-02  0.1363916E+00
          2   -1    0    0  503    0  0.00000000000E+00  0.00000000000E+00  0.18017734270E+04  0.18017734270E+04  0.00000000000E+00 0. -1.
          2   -1    0    0  502    0 -0.00000000000E+00 -0.00000000000E+00 -0.23831670742E+03  0.23831670742E+03  0.00000000000E+00 0. -1.
         24    2    1    2    0    0 -0.22789283796E+03 -0.15263253144E+02  0.13393227706E+03  0.27680379767E+03  0.80711678657E+02 0.  0.
         24    2    1    2    0    0  0.56576280029E+02  0.78367724659E+02  0.30061014885E+03  0.32541479007E+03  0.78650799572E+02 0.  0.
         25    2    1    2    0    0 -0.13387924343E+02 -0.76702583697E+02  0.82059355108E+03  0.83370354436E+03  0.12500120375E+03 0.  0.
        -11    1    4    4    0    0 -0.37048278587E+01  0.59506524686E+02  0.11834041867E+03  0.13251115772E+03  0.00000000000E+00 0.  1.
         12    1    4    4    0    0  0.60281107888E+02  0.18861199973E+02  0.18226973018E+03  0.19290363235E+03  0.00000000000E+00 0. -1.
        -11    1    3    3    0    0 -0.10309275131E+03 -0.26192261073E+02  0.10233492590E+03  0.14760280137E+03  0.00000000000E+00 0.  1.
         12    1    3    3    0    0 -0.12480008666E+03  0.10929007929E+02  0.31597351156E+02  0.12920099630E+03  0.00000000000E+00 0. -1.
          5    1    5    5  501    0  0.34934989721E+02 -0.54675633284E+02  0.18936544044E+03  0.20022796611E+03  0.47000000000E+01 0.  1.
         -5    1    5    5    0  501 -0.48322914065E+02 -0.22026950413E+02  0.63122811064E+03  0.63347557825E+03  0.47000000000E+01 0.  1.
          1    1    1    2  502    0  0.16566145238E+03  0.31872012890E+02 -0.99259262391E+02  0.19573436893E+03  0.00000000000E+00 0. -1.
          1    1    1    2  503    0  0.19043029895E+02 -0.18273900708E+02  0.40758000500E+03  0.40843363342E+03  0.00000000000E+00 0. -1.
<mgrwt>
<rscale>  0 0.68887949E+02</rscale>
<asrwt>0</asrwt>
<pdfrwt beam="1">  1        2 0.26496667E+00 0.26392659E+02</pdfrwt>
<pdfrwt beam="2">  1        2 0.35046576E-01 0.17980566E+03</pdfrwt>
<totfact> 0.29690990E+02</totfact>
</mgrwt>
</event>
<event>
13    1  0.1942437E-008  0.6670669E+02  0.7546771E-02  0.1480833E+00
          2   -1    0    0  502    0  0.00000000000E+00  0.00000000000E+00  0.11421682569E+04  0.11421682569E+04  0.00000000000E+00 0. -1.
          2   -1    0    0  503    0 -0.00000000000E+00 -0.00000000000E+00 -0.22593852252E+03  0.22593852252E+03  0.00000000000E+00 0. -1.
         24    2    1    2    0    0 -0.99754834338E+00 -0.30261717138E+02 -0.15726347193E+02  0.83150815940E+02  0.75828580157E+02 0.  0.
         24    2    1    2    0    0 -0.56022212894E+02 -0.14853250416E+02  0.31762840261E+02  0.10430661822E+03  0.80696252683E+02 0.  0.
         25    2    1    2    0    0 -0.33787062726E+02  0.33035701556E+02  0.95480852037E+02  0.16424546016E+03  0.12500821930E+03 0.  0.
        -13    1    3    3    0    0  0.21041542479E+02  0.33854376671E+01  0.20093343644E+02  0.29290786211E+02  0.00000000000E+00 0.  1.
         14    1    3    3    0    0 -0.22039090822E+02 -0.33647154805E+02 -0.35819690837E+02  0.53860029729E+02  0.00000000000E+00 0. -1.
        -13    1    4    4    0    0 -0.66904569259E+02 -0.25907055188E+02  0.32157295201E+01  0.71817392132E+02  0.00000000000E+00 0.  1.
         14    1    4    4    0    0  0.10882356365E+02  0.11053804772E+02  0.28547110741E+02  0.32489226086E+02  0.00000000000E+00 0. -1.
          5    1    5    5  501    0 -0.50819986883E+02 -0.27941314683E+02  0.79961781744E+02  0.98890670302E+02  0.47000000000E+01 0. -1.
         -5    1    5    5    0  501  0.17032924157E+02  0.60977016239E+02  0.15519070293E+02  0.65354789859E+02  0.47000000000E+01 0. -1.
          1    1    1    2  502    0  0.63145224602E+02  0.20760050767E+02  0.90733406596E+03  0.90976557769E+03  0.00000000000E+00 0. -1.
          1    1    1    2  503    0  0.27661599361E+02 -0.86807847692E+01 -0.10262167663E+03  0.10663830746E+03  0.00000000000E+00 0. -1.
<mgrwt>
<rscale>  0 0.43976607E+02</rscale>
<asrwt>0</asrwt>
<pdfrwt beam="1">  1        2 0.16796592E+00 0.66706688E+02</pdfrwt>
<pdfrwt beam="2">  1        2 0.33226254E-01 0.28991725E+02</pdfrwt>
<totfact> 0.57953956E+02</totfact>
</mgrwt>
</event>
<event>
13    1  0.1942437E-008  0.8128062E+02  0.7546771E-02  0.1479457E+00
          2   -1    0    0  503    0  0.00000000000E+00  0.00000000000E+00  0.27321719262E+04  0.27321719262E+04  0.00000000000E+00 0. -1.
          2   -1    0    0  502    0 -0.00000000000E+00 -0.00000000000E+00 -0.36085390123E+04  0.36085390123E+04  0.00000000000E+00 0. -1.
         24    2    1    2    0    0 -0.23419510287E+03 -0.56636645286E+03 -0.89695282448E+03  0.10906986940E+04  0.97370255749E+02 0.  0.
         24    2    1    2    0    0  0.85195306905E+03  0.35066706144E+03 -0.51746363990E+03  0.10598307977E+04  0.81739104473E+02 0.  0.
         25    2    1    2    0    0 -0.64328345888E+03  0.27199551872E+03  0.12665306195E+03  0.72073652269E+03  0.12499986548E+03 0.  0.
        -11    1    3    3    0    0 -0.55693858105E+01 -0.16911538845E+02 -0.67670423551E+02  0.69973598079E+02  0.00000000000E+00 0.  1.
         12    1    3    3    0    0 -0.22862571706E+03 -0.54945491401E+03 -0.82928240093E+03  0.10207250960E+04  0.00000000000E+00 0. -1.
        -13    1    4    4    0    0  0.40737550004E+03  0.12773436091E+03 -0.21932615672E+03  0.47997377847E+03  0.00000000000E+00 0.  1.
         14    1    4    4    0    0  0.44457756901E+03  0.22293270052E+03 -0.29813748317E+03  0.57985701919E+03  0.00000000000E+00 0. -1.
          5    1    5    5  501    0 -0.51591335472E+03  0.16263381075E+03  0.10936457478E+03  0.55190492496E+03  0.47000000000E+01 0. -1.
         -5    1    5    5    0  501 -0.12737010416E+03  0.10936170798E+03  0.17288487178E+02  0.16883159773E+03  0.47000000000E+01 0. -1.
          1    1    1    2  502    0  0.18323755383E+02 -0.79217229686E+02 -0.15278688998E+04  0.15300308835E+04  0.00000000000E+00 0. -1.
          1    1    1    2  503    0  0.72017373170E+01  0.22921102382E+02  0.19392652161E+04  0.19394140405E+04  0.00000000000E+00 0. -1.
<mgrwt>
<rscale>  0 0.44190913E+02</rscale>
<asrwt>0</asrwt>
<pdfrwt beam="1">  1        2 0.40178999E+00 0.24025860E+02</pdfrwt>
<pdfrwt beam="2">  1        2 0.53066750E+00 0.81280619E+02</pdfrwt>
<totfact> 0.10570092E+00</totfact>
</mgrwt>
</event>
<event>
13    1  0.1942437E-008  0.8545638E+02  0.7546771E-02  0.1331046E+00
          2   -1    0    0  502    0  0.00000000000E+00  0.00000000000E+00  0.11816510151E+04  0.11816510151E+04  0.00000000000E+00 0. -1.
          2   -1    0    0  503    0 -0.00000000000E+00 -0.00000000000E+00 -0.19731554057E+04  0.19731554057E+04  0.00000000000E+00 0. -1.
         24    2    1    2    0    0  0.27806731408E+03 -0.11679058282E+03 -0.75216678595E+03  0.81436952878E+03  0.80507043970E+02 0.  0.
         24    2    1    2    0    0 -0.20823513302E+03  0.13775270352E+03  0.30330093202E+02  0.26358300596E+03  0.78856886371E+02 0.  0.
         25    2    1    2    0    0 -0.20050389678E+03  0.31066730221E+02  0.26166130295E+03  0.35391961640E+03  0.12500201224E+03 0.  0.
        -11    1    3    3    0    0  0.18045668512E+03 -0.10059174525E+03 -0.58129178923E+03  0.61691446623E+03  0.00000000000E+00 0.  1.
         12    1    3    3    0    0  0.97610628953E+02 -0.16198837573E+02 -0.17087499672E+03  0.19745506255E+03  0.00000000000E+00 0. -1.
        -11    1    4    4    0    0 -0.16882847483E+02  0.43579227555E+02  0.17577698007E+02  0.49931503889E+02  0.00000000000E+00 0.  1.
         12    1    4    4    0    0 -0.19135228554E+03  0.94173475970E+02  0.12752395195E+02  0.21365150208E+03  0.00000000000E+00 0. -1.
          5    1    5    5  501    0 -0.16071053852E+03 -0.12220363351E+02  0.24378364290E+03  0.29228371322E+03  0.47000000000E+01 0. -1.
         -5    1    5    5    0  501 -0.39793358258E+02  0.43287093572E+02  0.17877660047E+02  0.61635903174E+02  0.47000000000E+01 0. -1.
          1    1    1    2  502    0  0.72813800063E+02  0.10655929029E+02  0.69207737612E+03  0.69597880201E+03  0.00000000000E+00 0. -1.
          1    1    1    2  503    0  0.57857915655E+02 -0.62684779956E+02 -0.10234063769E+04  0.10269554676E+04  0.00000000000E+00 0. -1.
<mgrwt>
<rscale>  0 0.79301216E+02</rscale>
<asrwt>0</asrwt>
<pdfrwt beam="1">  1        2 0.17377221E+00 0.73589390E+02</pdfrwt>
<pdfrwt beam="2">  1        2 0.29016991E+00 0.85456379E+02</pdfrwt>
<totfact> 0.35460258E+01</totfact>
</mgrwt>
</event>
<event>
13    1  0.1942437E-008  0.6540554E+02  0.7546771E-02  0.1417763E+00
          2   -1    0    0  503    0  0.00000000000E+00  0.00000000000E+00  0.19298420853E+04  0.19298420853E+04  0.00000000000E+00 0. -1.
          2   -1    0    0  502    0 -0.00000000000E+00 -0.00000000000E+00 -0.99967053527E+03  0.99967053527E+03  0.00000000000E+00 0. -1.
         24    2    1    2    0    0 -0.10103802172E+03  0.26603388990E+03 -0.33020846632E+03  0.44315224580E+03  0.79771983329E+02 0.  0.
         24    2    1    2    0    0  0.88370510197E+02 -0.32842004381E+02  0.11259520301E+03  0.16673083312E+03  0.78952812800E+02 0.  0.
         25    2    1    2    0    0  0.28749791746E+00 -0.33237380663E+03  0.11591659201E+04  0.12123374974E+04  0.12499658949E+03 0.  0.
        -11    1    4    4    0    0  0.98353289648E+02 -0.19282227415E+02  0.11139991337E+03  0.14985030723E+03  0.00000000000E+00 0.  1.
         12    1    4    4    0    0 -0.99827794510E+01 -0.13559776966E+02  0.11952896347E+01  0.16880525888E+02  0.00000000000E+00 0. -1.
        -13    1    3    3    0    0 -0.62958825399E+02  0.23998874372E+03 -0.29259620788E+03  0.38362866378E+03  0.00000000000E+00 0.  1.
         14    1    3    3    0    0 -0.38079196322E+02  0.26045146182E+02 -0.37612258433E+02  0.59523582021E+02  0.00000000000E+00 0. -1.
          5    1    5    5  501    0  0.51469461096E+02 -0.14797764524E+03  0.64269889249E+03  0.66153642781E+03  0.47000000000E+01 0. -1.
         -5    1    5    5    0  501 -0.51181963178E+02 -0.18439616140E+03  0.51646702761E+03  0.55080106962E+03  0.47000000000E+01 0. -1.
          1    1    1    2  502    0 -0.20134796798E+02  0.42567744678E+02 -0.55639380672E+03  0.55838292514E+03  0.00000000000E+00 0. -1.
          1    1    1    2  503    0  0.32514810405E+02  0.56614176434E+02  0.54501269993E+03  0.54890911902E+03  0.00000000000E+00 0. -1.
<mgrwt>
<rscale>  0 0.55496986E+02</rscale>
<asrwt>0</asrwt>
<pdfrwt beam="1">  1        2 0.28380031E+00 0.65405538E+02</pdfrwt>
<pdfrwt beam="2">  1        2 0.14701037E+00 0.47089520E+02</pdfrwt>
<totfact> 0.49108096E+01</totfact>
</mgrwt>
</event>
<event>
13    1  0.1942437E-008  0.5999838E+02  0.7546771E-02  0.1479584E+00
         -3   -1    0    0    0  501 -0.00000000000E+00  0.00000000000E+00  0.42580409999E+04  0.42580409999E+04  0.00000000000E+00 0.  1.
          2   -1    0    0  503    0  0.00000000000E+00 -0.00000000000E+00 -0.58737632317E+02  0.58737632317E+02  0.00000000000E+00 0. -1.
         24    2    1    2    0    0  0.12272840844E+03  0.20426659072E+02  0.10785136304E+04  0.10886278081E+04  0.80245517082E+02 0.  0.
         24    2    1    2    0    0  0.10205249628E+03 -0.19137051962E+03  0.16795307131E+04  0.16954663342E+04  0.82129692365E+02 0.  0.
         25    2    1    2    0    0 -0.13421159980E+03  0.15944300812E+03  0.44297447749E+03  0.50525957408E+03  0.12500409246E+03 0.  0.
        -13    1    3    3    0    0  0.24410289378E+01  0.13624899238E+02  0.28066812870E+02  0.31294448169E+02  0.00000000000E+00 0.  1.
         14    1    3    3    0    0  0.12028737950E+03  0.68017598345E+01  0.10504468175E+04  0.10573333599E+04  0.00000000000E+00 0. -1.
        -13    1    4    4    0    0  0.76956047302E+02 -0.13067744079E+03  0.14062793877E+04  0.14144329405E+04  0.00000000000E+00 0.  1.
         14    1    4    4    0    0  0.25096448983E+02 -0.60693078834E+02  0.27325132538E+03  0.28103339373E+03  0.00000000000E+00 0. -1.
          5    1    5    5  502    0 -0.72847428797E+02  0.16492370048E+03  0.34790597259E+03  0.39187655024E+03  0.47000000000E+01 0. -1.
         -5    1    5    5    0  502 -0.61364170999E+02 -0.54806923615E+01  0.95068504907E+02  0.11338302385E+03  0.47000000000E+01 0. -1.
          1    1    1    2  503    0 -0.31245439541E+02  0.90114176696E+01  0.56379470009E+01  0.33004084397E+02  0.00000000000E+00 0. -1.
         -4    1    1    2    0  501 -0.59323865389E+02  0.24894347587E+01  0.99264659959E+03  0.99442083142E+03  0.00000000000E+00 0.  1.
<mgrwt>
<rscale>  0 0.44171091E+02</rscale>
<asrwt>0</asrwt>
<pdfrwt beam="2">  1        2 0.86378900E-02 0.32518966E+02</pdfrwt>
<pdfrwt beam="1">  1       -3 0.62618229E+00 0.59998381E+02</pdfrwt>
<totfact> 0.47016227E-01</totfact>
</mgrwt>
</event>
<event>
13    1  0.1942437E-008  0.5195353E+02  0.7546771E-02  0.1505686E+00
          2   -1    0    0  502    0  0.00000000000E+00  0.00000000000E+00  0.19296362389E+04  0.19296362389E+04  0.00000000000E+00 0. -1.
          2   -1    0    0  503    0 -0.00000000000E+00 -0.00000000000E+00 -0.23880487866E+04  0.23880487866E+04  0.00000000000E+00 0. -1.
         24    2    1    2    0    0 -0.80417134474E+02 -0.44680693571E+02 -0.66951487936E+03  0.68080250107E+03  0.82332204357E+02 0.  0.
         24    2    1    2    0    0  0.50692633746E+01  0.40099710490E+02  0.70823309159E+02  0.11850551865E+03  0.85987979490E+02 0.  0.
         25    2    1    2    0    0  0.76467894781E+02 -0.18138648868E+02  0.48694697655E+03  0.50884092328E+03  0.12500151088E+03 0.  0.
        -11    1    3    3    0    0 -0.83795569114E+02 -0.60133470678E+02 -0.62728096185E+03  0.63570365485E+03  0.00000000000E+00 0.  1.
         12    1    3    3    0    0  0.33784346397E+01  0.15452777107E+02 -0.42233917518E+02  0.45098846214E+02  0.00000000000E+00 0. -1.
        -13    1    4    4    0    0  0.10921428287E+02  0.63018054576E+02  0.28498162225E+02  0.70019269123E+02  0.00000000000E+00 0.  1.
         14    1    4    4    0    0 -0.58521649127E+01 -0.22918344086E+02  0.42325146934E+02  0.48486249523E+02  0.00000000000E+00 0. -1.
          5    1    5    5  501    0  0.85473236136E+02 -0.23707232368E+02  0.17110624111E+03  0.19278781784E+03  0.47000000000E+01 0.  1.
         -5    1    5    5    0  501 -0.90053413547E+01  0.55685835001E+01  0.31584073544E+03  0.31605310544E+03  0.47000000000E+01 0.  1.
          1    1    1    2  502    0  0.18110783821E+02 -0.25565702925E+02  0.13308472172E+04  0.13312159559E+04  0.00000000000E+00 0. -1.
          1    1    1    2  503    0 -0.19230807503E+02  0.48285334874E+02 -0.16775151713E+04  0.16783201266E+04  0.00000000000E+00 0. -1.
<mgrwt>
<rscale>  0 0.40345194E+02</rscale>
<asrwt>0</asrwt>
<pdfrwt beam="1">  1        2 0.28377004E+00 0.31330587E+02</pdfrwt>
<pdfrwt beam="2">  1        2 0.35118364E+00 0.51953533E+02</pdfrwt>
<totfact> 0.11288761E+01</totfact>
</mgrwt>
</event>
<event>
13    1  0.1942437E-008  0.9805640E+02  0.7546771E-02  0.1452355E+00
          2   -1    0    0  502    0  0.00000000000E+00  0.00000000000E+00  0.14359037691E+04  0.14359037691E+04  0.00000000000E+00 0. -1.
          2   -1    0    0  503    0 -0.00000000000E+00 -0.00000000000E+00 -0.29423064002E+04  0.29423064002E+04  0.00000000000E+00 0. -1.
         24    2    1    2    0    0 -0.20532569714E+03 -0.83899876855E+02 -0.43174254694E+03  0.49173914449E+03  0.78790406424E+02 0.  0.
         24    2    1    2    0    0  0.22052926030E+03 -0.75060468689E+02 -0.39254604947E+03  0.46365076890E+03  0.81316701487E+02 0.  0.
         25    2    1    2    0    0  0.65799315200E+02  0.18450805736E+03  0.42965362055E+02  0.23630177563E+03  0.12497893310E+03 0.  0.
        -11    1    4    4    0    0  0.12535890267E+03 -0.25073029429E+02 -0.14230180779E+03  0.19129379442E+03  0.00000000000E+00 0.  1.
         12    1    4    4    0    0  0.95170357631E+02 -0.49987439260E+02 -0.25024424168E+03  0.27235697448E+03  0.00000000000E+00 0. -1.
        -13    1    3    3    0    0 -0.14214372221E+03 -0.86887473692E+02 -0.35604513800E+03  0.39309338731E+03  0.00000000000E+00 0.  1.
         14    1    3    3    0    0 -0.63181974928E+02  0.29875968371E+01 -0.75697408935E+02  0.98645757183E+02  0.00000000000E+00 0. -1.
          5    1    5    5  501    0  0.40040807288E+02  0.51634323342E+01  0.36990513365E+02  0.54957395870E+02  0.47000000000E+01 0. -1.
         -5    1    5    5    0  501  0.25758507912E+02  0.17934462503E+03  0.59748486894E+01  0.18134437976E+03  0.47000000000E+01 0. -1.
          1    1    1    2  502    0  0.16808006408E+02 -0.17423994458E+02  0.12293689566E+04  0.12296073097E+04  0.00000000000E+00 0. -1.
          1    1    1    2  503    0 -0.97810884765E+02 -0.81237173575E+01 -0.19544483533E+04  0.19569111706E+04  0.00000000000E+00 0. -1.
<mgrwt>
<rscale>  0 0.48722748E+02</rscale>
<asrwt>0</asrwt>
<pdfrwt beam="1">  1        2 0.21116232E+00 0.24209599E+02</pdfrwt>
<pdfrwt beam="2">  1        2 0.43269211E+00 0.98056405E+02</pdfrwt>
<totfact> 0.93512280E+00</totfact>
</mgrwt>
</event>
<event>
13    1  0.1942437E-008  0.7396236E+02  0.7546771E-02  0.1429579E+00
          2   -1    0    0  502    0  0.00000000000E+00  0.00000000000E+00  0.16005524593E+04  0.16005524593E+04  0.00000000000E+00 0. -1.
          2   -1    0    0  503    0 -0.00000000000E+00 -0.00000000000E+00 -0.42822475660E+04  0.42822475660E+04  0.00000000000E+00 0. -1.
         24    2    1    2    0    0  0.26512748766E+01 -0.67852071573E+01 -0.45427601776E+03  0.46133476160E+03  0.80062435941E+02 0.  0.
         24    2    1    2    0    0  0.37518739941E+01 -0.36950673149E+02 -0.17800352469E+03  0.19907928621E+03  0.81042449317E+02 0.  0.
         25    2    1    2    0    0  0.94383783663E+02  0.36583801039E+02  0.56836673486E+03  0.59068978230E+03  0.12500800177E+03 0.  0.
        -11    1    3    3    0    0  0.21353120361E+02  0.29556047440E+02 -0.15222092661E+03  0.15652707812E+03  0.00000000000E+00 0.  1.
         12    1    3    3    0    0 -0.18701845484E+02 -0.36341254597E+02 -0.30205509116E+03  0.30480768347E+03  0.00000000000E+00 0. -1.
        -13    1    4    4    0    0  0.77741124734E+01 -0.45992530065E+02 -0.42156406482E+02  0.62872189830E+02  0.00000000000E+00 0.  1.
         14    1    4    4    0    0 -0.40222384793E+01  0.90418569162E+01 -0.13584711821E+03  0.13620709638E+03  0.00000000000E+00 0. -1.
          5    1    5    5  501    0 -0.16078301542E+02 -0.24533728910E+02  0.17593232390E+03  0.17842277945E+03  0.47000000000E+01 0.  1.
         -5    1    5    5    0  501  0.11046208520E+03  0.61117529949E+02  0.39243441096E+03  0.41226700285E+03  0.47000000000E+01 0.  1.
          1    1    1    2  502    0 -0.28947103203E+02  0.24684257048E+02  0.10062203100E+04  0.10069392035E+04  0.00000000000E+00 0. -1.
          1    1    1    2  503    0 -0.71839829330E+02 -0.17532177781E+02 -0.36240026090E+04  0.36247569917E+04  0.00000000000E+00 0. -1.
<mgrwt>
<rscale>  0 0.53044586E+02</rscale>
<asrwt>0</asrwt>
<pdfrwt beam="1">  1        2 0.23537537E+00 0.38042704E+02</pdfrwt>
<pdfrwt beam="2">  1        2 0.62974228E+00 0.73962358E+02</pdfrwt>
<totfact> 0.12147756E+00</totfact>
</mgrwt>
</event>
<event>
13    1  0.1942437E-008  0.7556417E+02  0.7546771E-02  0.1352181E+00
          2   -1    0    0  503    0  0.00000000000E+00  0.00000000000E+00  0.32648559632E+04  0.32648559632E+04  0.00000000000E+00 0. -1.
          2   -1    0    0  502    0 -0.00000000000E+00 -0.00000000000E+00 -0.13274555074E+04  0.13274555074E+04  0.00000000000E+00 0. -1.
         24    2    1    2    0    0 -0.16925243527E+02  0.40505900191E+02 -0.90222164902E+02  0.12846573744E+03  0.80226023443E+02 0.  0.
         24    2    1    2    0    0  0.96771761818E+02  0.31907192590E+02  0.42965972789E+02  0.15628338324E+03  0.11043359197E+03 0.  0.
         25    2    1    2    0    0 -0.78077279614E+02 -0.39984001782E+02  0.20130012806E+03  0.25266817141E+03  0.12499872517E+03 0.  0.
        -11    1    4    4    0    0 -0.30521682462E+01 -0.31613765500E+02  0.59970979434E+01  0.32321990716E+02  0.00000000000E+00 0.  1.
         12    1    4    4    0    0  0.99823930064E+02  0.63520958091E+02  0.36968874846E+02  0.12396139253E+03  0.00000000000E+00 0. -1.
        -13    1    3    3    0    0 -0.12311742414E+02  0.60517441708E+02 -0.38398363486E+02  0.72721207846E+02  0.00000000000E+00 0.  1.
         14    1    3    3    0    0 -0.46135011123E+01 -0.20011541517E+02 -0.51823801416E+02  0.55744529594E+02  0.00000000000E+00 0. -1.
          5    1    5    5  501    0 -0.65413567690E+02  0.35428914893E+02  0.11727253244E+03  0.13895711465E+03  0.47000000000E+01 0.  1.
         -5    1    5    5    0  501 -0.12663711924E+02 -0.75412916676E+02  0.84027595628E+02  0.11371105675E+03  0.47000000000E+01 0.  1.
          1    1    1    2  502    0  0.38100210757E+01 -0.10153472615E+03 -0.11330835974E+04  0.11376301049E+04  0.00000000000E+00 0. -1.
          1    1    1    2  503    0 -0.55792597527E+01  0.69105635153E+02  0.29164401173E+04  0.29172640735E+04  0.00000000000E+00 0. -1.
<mgrwt>
<rscale>  0 0.72380253E+02</rscale>
<asrwt>0</asrwt>
<pdfrwt beam="1">  1        2 0.48012588E+00 0.69330491E+02</pdfrwt>
<pdfrwt beam="2">  1        2 0.19521405E+00 0.75564171E+02</pdfrwt>
<totfact> 0.68580152E+00</totfact>
</mgrwt>
</event>
<event>
13    1  0.1942437E-008  0.1082707E+03  0.7546771E-02  0.1305845E+00
          2   -1    0    0  503    0  0.00000000000E+00  0.00000000000E+00  0.37006389041E+04  0.37006389041E+04  0.00000000000E+00 0. -1.
          2   -1    0    0  502    0 -0.00000000000E+00 -0.00000000000E+00 -0.13165316123E+04  0.13165316123E+04  0.00000000000E+00 0. -1.
         24    2    1    2    0    0 -0.25091251169E+02 -0.10650946079E+03  0.24479320872E+03  0.27989614018E+03  0.80276385861E+02 0.  0.
         24    2    1    2    0    0  0.60283532011E+02  0.75928085791E+02  0.20292166052E+03  0.23850624053E+03  0.79428257063E+02 0.  0.
         25    2    1    2    0    0  0.12047469126E+02 -0.69863130952E+01  0.11641493207E+04  0.11709235375E+04  0.12499735915E+03 0.  0.
        -11    1    4    4    0    0  0.46610541638E+02  0.89183904638E+02  0.19141920149E+03  0.21625823022E+03  0.00000000000E+00 0.  1.
         12    1    4    4    0    0  0.13672990373E+02 -0.13255818846E+02  0.11502459025E+02  0.22248010307E+02  0.00000000000E+00 0. -1.
        -13    1    3    3    0    0 -0.45128302184E+02 -0.10066221617E+03  0.22732662159E+03  0.25267931911E+03  0.00000000000E+00 0.  1.
         14    1    3    3    0    0  0.20037051016E+02 -0.58472446202E+01  0.17466587136E+02  0.27216821071E+02  0.00000000000E+00 0. -1.
          5    1    5    5  501    0  0.12703202744E+02 -0.15376262857E+01  0.10385821855E+02  0.17137413753E+02  0.47000000000E+01 0. -1.
         -5    1    5    5    0  501 -0.65573361770E+00 -0.54486868095E+01  0.11537634988E+04  0.11537861237E+04  0.47000000000E+01 0. -1.
          1    1    1    2  502    0 -0.22447626321E+02  0.10600593822E+03 -0.12748555805E+04  0.12794521898E+04  0.00000000000E+00 0. -1.
          1    1    1    2  503    0 -0.24792123647E+02 -0.68438250129E+02  0.20470986823E+04  0.20483924084E+04  0.00000000000E+00 0. -1.
<mgrwt>
<rscale>  0 0.88775368E+02</rscale>
<asrwt>0</asrwt>
<pdfrwt beam="1">  1        2 0.54421160E+00 0.72790408E+02</pdfrwt>
<pdfrwt beam="2">  1        2 0.19360759E+00 0.10827067E+03</pdfrwt>
<totfact> 0.37559168E+00</totfact>
</mgrwt>
</event>
<event>
13    1  0.1942437E-008  0.4758720E+02  0.7546771E-02  0.1479526E+00
          2   -1    0    0  503    0  0.00000000000E+00  0.00000000000E+00  0.10919828440E+04  0.10919828440E+04  0.00000000000E+00 0. -1.
          2   -1    0    0  502    0 -0.00000000000E+00 -0.00000000000E+00 -0.97177592057E+03  0.97177592057E+03  0.00000000000E+00 0. -1.
         24    2    1    2    0    0 -0.17750343958E+03  0.10398567672E+03 -0.27731853406E+02  0.22245354511E+03  0.79975196241E+02 0.  0.
         24    2    1    2    0    0  0.30264868998E+03 -0.37223108999E+03 -0.16326692667E+03  0.51297800485E+03  0.79612374770E+02 0.  0.
         25    2    1    2    0    0 -0.10614378073E+03  0.33587531898E+03  0.44635338272E+03  0.58217925712E+03  0.12499045190E+03 0.  0.
        -11    1    3    3    0    0 -0.17747057691E+03  0.76799552519E+02 -0.21539972731E+02  0.19457118841E+03  0.00000000000E+00 0.  1.
         12    1    3    3    0    0 -0.32862674119E-01  0.27186124196E+02 -0.61918806749E+01  0.27882356698E+02  0.00000000000E+00 0. -1.
        -11    1    4    4    0    0  0.28890073271E+03 -0.34976388787E+03 -0.17209839279E+03  0.48519714284E+03  0.00000000000E+00 0.  1.
         12    1    4    4    0    0  0.13747957267E+02 -0.22467202127E+02  0.88314661237E+01  0.27780862015E+02  0.00000000000E+00 0. -1.
          5    1    5    5  501    0 -0.10010498651E+03  0.11420298329E+03  0.18464758408E+03  0.23912371280E+03  0.47000000000E+01 0. -1.
         -5    1    5    5    0  501 -0.60387942197E+01  0.22167233569E+03  0.26170579863E+03  0.34305554431E+03  0.47000000000E+01 0. -1.
          1    1    1    2  502    0  0.15247508168E+02 -0.45060325762E+02 -0.43797734836E+03  0.44055314905E+03  0.00000000000E+00 0. -1.
          1    1    1    2  503    0 -0.34248977836E+02 -0.22569579942E+02  0.30282966911E+03  0.30559480839E+03  0.00000000000E+00 0. -1.
<mgrwt>
<rscale>  0 0.44180030E+02</rscale>
<asrwt>0</asrwt>
<pdfrwt beam="1">  1        2 0.16058571E+00 0.41016807E+02</pdfrwt>
<pdfrwt beam="2">  1        2 0.14290822E+00 0.47587202E+02</pdfrwt>
<totfact> 0.13465447E+02</totfact>
</mgrwt>
</event>
<event>
13    1  0.1942437E-008  0.4328270E+02  0.7546771E-02  0.1543597E+00
          2   -1    0    0  503    0  0.00000000000E+00  0.00000000000E+00  0.40685597948E+04  0.40685597948E+04  0.00000000000E+00 0. -1.
          2   -1    0    0  502    0 -0.00000000000E+00 -0.00000000000E+00 -0.43213242984E+03  0.43213242984E+03  0.00000000000E+00 0. -1.
         24    2    1    2    0    0  0.79486525794E+01  0.34707901804E+02 -0.11271985438E+03  0.14343569017E+03  0.81241689518E+02 0.  0.
         24    2    1    2    0    0 -0.77531611566E+02 -0.31140119198E+02 -0.12041054442E+02  0.11527547036E+03  0.78502160862E+02 0.  0.
         25    2    1    2    0    0  0.11352861943E+03 -0.60603354113E+02  0.17621943286E+04  0.17713037868E+04  0.12500695838E+03 0.  0.
        -11    1    4    4    0    0 -0.87216760615E+02 -0.42597642022E+02 -0.18721940240E+02  0.98852584612E+02  0.00000000000E+00 0.  1.
         12    1    4    4    0    0  0.96851490498E+01  0.11457522824E+02  0.66808857978E+01  0.16422885752E+02  0.00000000000E+00 0. -1.
        -13    1    3    3    0    0 -0.35778165155E+02  0.25285995285E+02 -0.60081552453E+02  0.74358937625E+02  0.00000000000E+00 0.  1.
         14    1    3    3    0    0  0.43726817735E+02  0.94219065194E+01 -0.52638301932E+02  0.69076752543E+02  0.00000000000E+00 0. -1.
          5    1    5    5  501    0  0.10648409524E+03 -0.58011613629E+02  0.17566898155E+04  0.17608763181E+04  0.47000000000E+01 0. -1.
         -5    1    5    5    0  501  0.70445241965E+01 -0.25917404846E+01  0.55045131106E+01  0.10427468747E+02  0.47000000000E+01 0. -1.
          1    1    1    2  502    0 -0.23039633939E+02  0.36604760991E+02 -0.23376215050E+03  0.23772983882E+03  0.00000000000E+00 0. -1.
          1    1    1    2  503    0 -0.20906026508E+02  0.20430810516E+02  0.22327560957E+04  0.22329474385E+04  0.00000000000E+00 0. -1.
<mgrwt>
<rscale>  0 0.35569898E+02</rscale>
<asrwt>0</asrwt>
<pdfrwt beam="1">  1        2 0.59831760E+00 0.29231489E+02</pdfrwt>
<pdfrwt beam="2">  1        2 0.63548889E-01 0.43282696E+02</pdfrwt>
<totfact> 0.10656042E+01</totfact>
</mgrwt>
</event>
<event>
13    1  0.1942437E-008  0.2792847E+03  0.7546771E-02  0.1288603E+00
          2   -1    0    0  503    0  0.00000000000E+00  0.00000000000E+00  0.31706662282E+04  0.31706662282E+04  0.00000000000E+00 0. -1.
          2   -1    0    0  502    0 -0.00000000000E+00 -0.00000000000E+00 -0.89766984537E+03  0.89766984537E+03  0.00000000000E+00 0. -1.
         24    2    1    2    0    0 -0.15049514806E+03  0.19451750899E+03  0.10729224817E+03  0.28547908927E+03  0.97472216557E+02 0.  0.
         24    2    1    2    0    0 -0.18369255734E+03 -0.36639493545E+02  0.28594148379E+03  0.35151127603E+03  0.81928242455E+02 0.  0.
         25    2    1    2    0    0  0.23200587152E+03  0.14386172085E+03  0.17496115626E+04  0.17751870493E+04  0.12500208358E+03 0.  0.
        -11    1    4    4    0    0 -0.17846603033E+03 -0.45613778021E+02  0.28704728709E+03  0.34106727452E+03  0.00000000000E+00 0.  1.
         12    1    4    4    0    0 -0.52265270144E+01  0.89742844762E+01 -0.11058032964E+01  0.10444001504E+02  0.00000000000E+00 0. -1.
        -13    1    3    3    0    0 -0.77477191516E+02  0.12768766042E+03  0.11153325148E+03  0.18640418454E+03  0.00000000000E+00 0.  1.
         14    1    3    3    0    0 -0.73017956542E+02  0.66829848574E+02 -0.42410033144E+01  0.99074904729E+02  0.00000000000E+00 0. -1.
          5    1    5    5  501    0  0.17350227061E+03  0.61894995579E+02  0.13732125403E+04  0.13855211291E+04  0.47000000000E+01 0. -1.
         -5    1    5    5    0  501  0.58503600908E+02  0.81966725273E+02  0.37639902226E+03  0.38966592015E+03  0.47000000000E+01 0. -1.
          1    1    1    2  502    0  0.91260925287E+02 -0.27049005401E+03 -0.73597502111E+03  0.78940018843E+03  0.00000000000E+00 0. -1.
          1    1    1    2  503    0  0.10920908596E+02 -0.31249682284E+02  0.86612610940E+03  0.86675847056E+03  0.00000000000E+00 0. -1.
<mgrwt>
<rscale>  0 0.96151768E+02</rscale>
<asrwt>0</asrwt>
<pdfrwt beam="1">  1        2 0.46627444E+00 0.33103004E+02</pdfrwt>
<pdfrwt beam="2">  1        2 0.13201027E+00 0.27928470E+03</pdfrwt>
<totfact> 0.14338404E+01</totfact>
</mgrwt>
</event>
<event>
13    1  0.1942437E-008  0.1823517E+03  0.7546771E-02  0.1251974E+00
          2   -1    0    0  502    0  0.00000000000E+00  0.00000000000E+00  0.26758525438E+04  0.26758525438E+04  0.00000000000E+00 0. -1.
          4   -1    0    0  503    0 -0.00000000000E+00 -0.00000000000E+00 -0.38837168162E+03  0.38837168162E+03  0.00000000000E+00 0. -1.
         24    2    1    2    0    0  0.18976302967E+03 -0.87469731655E+02 -0.24750573764E+02  0.22707002041E+03  0.85365343571E+02 0.  0.
         24    2    1    2    0    0 -0.68429863977E+02  0.23005274222E+03  0.27546029223E+03  0.37402373492E+03  0.80052927486E+02 0.  0.
         25    2    1    2    0    0 -0.51195077754E+01 -0.28261576041E+02  0.14966856470E+04  0.15021710492E+04  0.12500003629E+03 0.  0.
        -13    1    3    3    0    0  0.13320308637E+03 -0.39684544154E+02 -0.51673300236E+02  0.14828369843E+03  0.00000000000E+00 0.  1.
         14    1    3    3    0    0  0.56559943302E+02 -0.47785187501E+02  0.26922726472E+02  0.78786321982E+02  0.00000000000E+00 0. -1.
        -13    1    4    4    0    0 -0.71844782072E+02  0.10547542618E+03  0.12478729911E+03  0.17848979875E+03  0.00000000000E+00 0.  1.
         14    1    4    4    0    0  0.34149180941E+01  0.12457731605E+03  0.15067299311E+03  0.19553393616E+03  0.00000000000E+00 0. -1.
          5    1    5    5  501    0  0.40496003204E+01 -0.76374811112E+02  0.76326119424E+03  0.76709794138E+03  0.47000000000E+01 0. -1.
         -5    1    5    5    0  501 -0.91691080959E+01  0.48113235071E+02  0.73342445280E+03  0.73507310786E+03  0.47000000000E+01 0. -1.
          1    1    1    2  502    0  0.54839335288E+02 -0.47025875191E+02  0.70819127243E+03  0.71186632452E+03  0.00000000000E+00 0. -1.
          3    1    1    2  503    0 -0.17105299321E+03 -0.67295559338E+02 -0.16810577576E+03  0.24909309633E+03  0.00000000000E+00 0. -1.
<mgrwt>
<rscale>  0 0.11477500E+03</rscale>
<asrwt>0</asrwt>
<pdfrwt beam="1">  1        2 0.39350772E+00 0.72241163E+02</pdfrwt>
<pdfrwt beam="2">  1        4 0.57113484E-01 0.18235173E+03</pdfrwt>
<totfact> 0.68766506E+00</totfact>
</mgrwt>
</event>
<event>
13    1  0.1942437E-008  0.3691331E+03  0.7546771E-02  0.1280378E+00
          2   -1    0    0  503    0  0.00000000000E+00  0.00000000000E+00  0.19805484522E+04  0.19805484522E+04  0.00000000000E+00 0. -1.
          2   -1    0    0  502    0 -0.00000000000E+00 -0.00000000000E+00 -0.56759922864E+03  0.56759922864E+03  0.00000000000E+00 0. -1.
         24    2    1    2    0    0  0.22674339956E+03  0.10279078723E+03  0.29056219608E+03  0.38946984662E+03  0.72676381685E+02 0.  0.
         24    2    1    2    0    0  0.13193088467E+03 -0.28191186503E+02  0.30919652174E+03  0.34676648524E+03  0.80274559530E+02 0.  0.
         25    2    1    2    0    0 -0.18338711981E+02  0.91693403847E+02  0.44854670977E+03  0.47493547937E+03  0.12500228019E+03 0.  0.
        -13    1    4    4    0    0  0.50825705117E+02 -0.51626178784E+02  0.13616750003E+03  0.15424040554E+03  0.00000000000E+00 0.  1.
         14    1    4    4    0    0  0.81105179550E+02  0.23434992281E+02  0.17302902171E+03  0.19252607971E+03  0.00000000000E+00 0. -1.
        -13    1    3    3    0    0  0.90734119109E+02  0.62784242348E+01  0.82276424774E+02  0.12264383007E+03  0.00000000000E+00 0.  1.
         14    1    3    3    0    0  0.13600928045E+03  0.96512362997E+02  0.20828577131E+03  0.26682601655E+03  0.00000000000E+00 0. -1.
          5    1    5    5  501    0  0.23027015122E+02  0.26660580468E+02  0.22759636031E+02  0.42203329354E+02  0.47000000000E+01 0.  1.
         -5    1    5    5    0  501 -0.41365727103E+02  0.65032823380E+02  0.42578707374E+03  0.43273215002E+03  0.47000000000E+01 0.  1.
          1    1    1    2  502    0 -0.36571351374E+03 -0.15687472914E+03 -0.40445697087E+03  0.56739888620E+03  0.00000000000E+00 0. -1.
          1    1    1    2  503    0  0.25377941496E+02 -0.94182754324E+01  0.76910076684E+03  0.76957698341E+03  0.00000000000E+00 0. -1.
<mgrwt>
<rscale>  0 0.99960762E+02</rscale>
<asrwt>0</asrwt>
<pdfrwt beam="1">  1        2 0.29125712E+00 0.27069241E+02</pdfrwt>
<pdfrwt beam="2">  1        2 0.83470475E-01 0.36913314E+03</pdfrwt>
<totfact> 0.94952790E+01</totfact>
</mgrwt>
</event>
<event>
13    1  0.1942437E-008  0.1426203E+03  0.7546771E-02  0.1375562E+00
          2   -1    0    0  502    0  0.00000000000E+00  0.00000000000E+00  0.99232933390E+03  0.99232933390E+03  0.00000000000E+00 0. -1.
          2   -1    0    0  503    0 -0.00000000000E+00 -0.00000000000E+00 -0.85013800119E+03  0.85013800119E+03  0.00000000000E+00 0. -1.
         24    2    1    2    0    0 -0.69069037306E+02 -0.15118920341E+03  0.20838457729E+02  0.18654109317E+03  0.82064797424E+02 0.  0.
         24    2    1    2    0    0  0.16849930263E+02  0.16279580315E+03  0.46167921132E+02  0.18838947900E+03  0.81072345353E+02 0.  0.
         25    2    1    2    0    0 -0.46326458908E+02  0.60962173338E+02  0.22485041658E+03  0.26840916644E+03  0.12499297348E+03 0.  0.
        -11    1    3    3    0    0  0.18196710705E+02 -0.34805925832E+02  0.10777677968E+02  0.40727522585E+02  0.00000000000E+00 0.  1.
         12    1    3    3    0    0 -0.87265748011E+02 -0.11638327758E+03  0.10060779762E+02  0.14581357058E+03  0.00000000000E+00 0. -1.
        -13    1    4    4    0    0 -0.13834519529E+02  0.14004164899E+03  0.51432579299E+02  0.14982779314E+03  0.00000000000E+00 0.  1.
         14    1    4    4    0    0  0.30684449792E+02  0.22754154156E+02 -0.52646581669E+01  0.38561685856E+02  0.00000000000E+00 0. -1.
          5    1    5    5  501    0  0.28982405089E+02  0.45897629606E+02  0.15569827510E+03  0.16495640357E+03  0.47000000000E+01 0. -1.
         -5    1    5    5    0  501 -0.75308863997E+02  0.15064543732E+02  0.69152141475E+02  0.10345276287E+03  0.47000000000E+01 0. -1.
          1    1    1    2  502    0 -0.85317475197E+00  0.30202725298E+02  0.51670685482E+03  0.51758951529E+03  0.00000000000E+00 0. -1.
          1    1    1    2  503    0  0.99398740703E+02 -0.10277149837E+03 -0.66637231754E+03  0.68153808120E+03  0.00000000000E+00 0. -1.
<mgrwt>
<rscale>  0 0.65644802E+02</rscale>
<asrwt>0</asrwt>
<pdfrwt beam="1">  1        2 0.14593078E+00 0.30214773E+02</pdfrwt>
<pdfrwt beam="2">  1        2 0.12502029E+00 0.14262030E+03</pdfrwt>
<totfact> 0.17468115E+02</totfact>
</mgrwt>
</event>
<event>
13    1  0.1942437E-008  0.1005643E+03  0.7546771E-02  0.1408746E+00
          2   -1    0    0  503    0  0.00000000000E+00  0.00000000000E+00  0.19699015159E+04  0.19699015159E+04  0.00000000000E+00 0. -1.
         -3   -1    0    0    0  501 -0.00000000000E+00 -0.00000000000E+00 -0.15098435973E+04  0.15098435973E+04  0.00000000000E+00 0.  1.
         24    2    1    2    0    0 -0.19971749745E+03  0.98458682040E+02 -0.54120920871E+02  0.24310439234E+03  0.81175616053E+02 0.  0.
         24    2    1    2    0    0  0.18164068466E+03  0.12589194159E+03  0.60007467388E+02  0.24455233445E+03  0.85806927804E+02 0.  0.
         25    2    1    2    0    0  0.56201745835E+02 -0.12006717097E+03  0.98245990481E+03  0.99921386669E+03  0.12500450005E+03 0.  0.
        -11    1    3    3    0    0 -0.11714073137E+03  0.92962674211E+02 -0.57641089630E+02  0.16027010001E+03  0.00000000000E+00 0.  1.
         12    1    3    3    0    0 -0.82576766073E+02  0.54960078291E+01  0.35201687589E+01  0.82834292327E+02  0.00000000000E+00 0. -1.
        -13    1    4    4    0    0  0.16214672851E+03  0.13845597918E+03  0.59463881864E+02  0.22135395407E+03  0.00000000000E+00 0.  1.
         14    1    4    4    0    0  0.19493956148E+02 -0.12564037585E+02  0.54358552374E+00  0.23198380374E+02  0.00000000000E+00 0. -1.
          5    1    5    5  502    0  0.74078027398E+02 -0.95021126687E+02  0.45090486404E+03  0.46674817094E+03  0.47000000000E+01 0. -1.
         -5    1    5    5    0  502 -0.17876281562E+02 -0.25046044286E+02  0.53155504078E+03  0.53246569575E+03  0.47000000000E+01 0. -1.
          1    1    1    2  503    0  0.22424855444E+02 -0.24002375858E+02  0.72991774414E+03  0.73065648659E+03  0.00000000000E+00 0. -1.
         -4    1    1    2    0  501 -0.60549788494E+02 -0.80281076800E+02 -0.12582062768E+04  0.12622180332E+04  0.00000000000E+00 0.  1.
<mgrwt>
<rscale>  0 0.57474610E+02</rscale>
<asrwt>0</asrwt>
<pdfrwt beam="1">  1        2 0.28969140E+00 0.32847956E+02</pdfrwt>
<pdfrwt beam="2">  1       -3 0.22203582E+00 0.10056427E+03</pdfrwt>
<totfact> 0.81007005E-01</totfact>
</mgrwt>
</event>
<event>
13    1  0.1942437E-008  0.5638603E+02  0.7546771E-02  0.1557441E+00
          2   -1    0    0  503    0  0.00000000000E+00  0.00000000000E+00  0.81991650247E+03  0.81991650247E+03  0.00000000000E+00 0. -1.
         -3   -1    0    0    0  501 -0.00000000000E+00 -0.00000000000E+00 -0.51731362773E+03  0.51731362773E+03  0.00000000000E+00 0.  1.
         24    2    1    2    0    0 -0.10939035231E+03  0.10636692799E+03 -0.27861644009E+03  0.32779545335E+03  0.80886129832E+02 0.  0.
         24    2    1    2    0    0  0.13085689446E+02 -0.40899963612E+02 -0.58965199477E+02  0.11219135462E+03  0.85240618308E+02 0.  0.
         25    2    1    2    0    0  0.38728998697E+02 -0.30231888031E+02  0.11773613924E+03  0.17860485285E+03  0.12499597028E+03 0.  0.
        -11    1    3    3    0    0 -0.94226711559E+02  0.64079766759E+02 -0.13165168642E+03  0.17411793767E+03  0.00000000000E+00 0.  1.
         12    1    3    3    0    0 -0.15163640747E+02  0.42287161231E+02 -0.14696475367E+03  0.15367751568E+03  0.00000000000E+00 0. -1.
        -11    1    4    4    0    0 -0.25165640146E+02 -0.49475327922E+02 -0.41339553765E+02  0.69210376552E+02  0.00000000000E+00 0.  1.
         12    1    4    4    0    0  0.38251329593E+02  0.85753643097E+01 -0.17625645711E+02  0.42980978064E+02  0.00000000000E+00 0. -1.
          5    1    5    5  502    0 -0.42800728973E+02  0.48803273900E+01  0.24486920394E+02  0.49773680459E+02  0.47000000000E+01 0.  1.
         -5    1    5    5    0  502  0.81529727670E+02 -0.35112215421E+02  0.93249218844E+02  0.12883117240E+03  0.47000000000E+01 0.  1.
          1    1    1    2  503    0  0.54337987821E+02 -0.14961316537E+02  0.61817300759E+03  0.62073692111E+03  0.00000000000E+00 0. -1.
         -4    1    1    2    0  501  0.32376763412E+01 -0.20273759810E+02 -0.95724632512E+02  0.97901548274E+02  0.00000000000E+00 0.  1.
<mgrwt>
<rscale>  0 0.34024141E+02</rscale>
<asrwt>0</asrwt>
<pdfrwt beam="1">  1        2 0.12057596E+00 0.56386026E+02</pdfrwt>
<pdfrwt beam="2">  1       -3 0.76075533E-01 0.20530657E+02</pdfrwt>
<totfact> 0.35655859E+01</totfact>
</mgrwt>
</event>
<event>
13    1  0.1942437E-008  0.1927560E+03  0.7546771E-02  0.1454173E+00
          2   -1    0    0  502    0  0.00000000000E+00  0.00000000000E+00  0.80311674207E+03  0.80311674207E+03  0.00000000000E+00 0. -1.
          2   -1    0    0  503    0 -0.00000000000E+00 -0.00000000000E+00 -0.14050624602E+04  0.14050624602E+04  0.00000000000E+00 0. -1.
         24    2    1    2    0    0  0.70996500556E+02  0.45257354725E+01 -0.36354556699E+02  0.11372174267E+03  0.80932043042E+02 0.  0.
         24    2    1    2    0    0 -0.16848901843E+03 -0.37620016649E+02 -0.83377790685E+02  0.20768650415E+03  0.79862463297E+02 0.  0.
         25    2    1    2    0    0  0.28266008935E+00  0.21230770600E+03 -0.16679291089E+03  0.29752409421E+03  0.12500427829E+03 0.  0.
        -13    1    3    3    0    0  0.60095161598E+02  0.14153599839E+02  0.12288854328E+02  0.62950526421E+02  0.00000000000E+00 0.  1.
         14    1    3    3    0    0  0.10901338957E+02 -0.96278643668E+01 -0.48643411027E+02  0.50771216252E+02  0.00000000000E+00 0. -1.
        -13    1    4    4    0    0 -0.11541762435E+03 -0.25289697446E+02 -0.95434736890E+02  0.15188346129E+03  0.00000000000E+00 0.  1.
         14    1    4    4    0    0 -0.53071394080E+02 -0.12330319203E+02  0.12056946205E+02  0.55803042865E+02  0.00000000000E+00 0. -1.
          5    1    5    5  501    0  0.15594379948E+02  0.22499205081E+03 -0.15720745667E+03  0.27495614568E+03  0.47000000000E+01 0. -1.
         -5    1    5    5    0  501 -0.15311719859E+02 -0.12684344814E+02 -0.95854542181E+01  0.22567948532E+02  0.47000000000E+01 0. -1.
          1    1    1    2  502    0  0.97109393480E+02 -0.16706130111E+03  0.62221640405E+03  0.65153124722E+03  0.00000000000E+00 0. -1.
          1    1    1    2  503    0  0.10046430461E+00 -0.12152123712E+02 -0.93763686395E+03  0.93771561405E+03  0.00000000000E+00 0. -1.
<mgrwt>
<rscale>  0 0.48399116E+02</rscale>
<asrwt>0</asrwt>
<pdfrwt beam="1">  1        2 0.11810540E+00 0.19275597E+03</pdfrwt>
<pdfrwt beam="2">  1        2 0.20662683E+00 0.12152539E+02</pdfrwt>
<totfact> 0.12465313E+02</totfact>
</mgrwt>
</event>
<event>
13    1  0.1942437E-008  0.5704228E+02  0.7546771E-02  0.1558734E+00
         -1   -1    0    0    0  501 -0.00000000000E+00  0.00000000000E+00  0.69107003769E+03  0.69107003769E+03  0.00000000000E+00 0.  1.
          2   -1    0    0  503    0  0.00000000000E+00 -0.00000000000E+00 -0.31412210061E+04  0.31412210061E+04  0.00000000000E+00 0. -1.
         24    2    1    2    0    0 -0.66934483724E+03  0.32122725399E+02  0.14462941288E+03  0.69018634124E+03  0.79907058069E+02 0.  0.
         24    2    1    2    0    0  0.57886166237E+03  0.39806404902E+02 -0.79478146096E+03  0.98545667466E+03  0.52743842354E+02 0.  0.
         25    2    1    2    0    0  0.12993873150E+03 -0.84221630920E+02 -0.24297598269E+03  0.31406953335E+03  0.12499994622E+03 0.  0.
        -13    1    3    3    0    0 -0.42840024826E+03  0.25956487821E+01  0.12682879368E+03  0.44678748080E+03  0.00000000000E+00 0.  1.
         14    1    3    3    0    0 -0.24094458899E+03  0.29527076617E+02  0.17800619202E+02  0.24339886043E+03  0.00000000000E+00 0. -1.
        -13    1    4    4    0    0  0.25831907709E+03  0.77206360431E+01 -0.31311652647E+03  0.40599299619E+03  0.00000000000E+00 0.  1.
         14    1    4    4    0    0  0.32054258529E+03  0.32085768859E+02 -0.48166493449E+03  0.57946367846E+03  0.00000000000E+00 0. -1.
          5    1    5    5  502    0  0.29597560400E+02 -0.66304740312E+02 -0.18003256751E+03  0.19418071360E+03  0.47000000000E+01 0. -1.
         -5    1    5    5    0  502  0.10034117110E+03 -0.17916890608E+02 -0.62943415180E+02  0.11988881975E+03  0.47000000000E+01 0. -1.
          1    1    1    2  503    0 -0.57005212259E+02  0.24354905818E+01 -0.16986099091E+04  0.16995679301E+04  0.00000000000E+00 0. -1.
         -2    1    1    2    0  501  0.17549655632E+02  0.98570100370E+01  0.14158697144E+03  0.14301056443E+03  0.00000000000E+00 0.  1.
<mgrwt>
<rscale>  0 0.33884625E+02</rscale>
<asrwt>0</asrwt>
<pdfrwt beam="2">  1        2 0.46194427E+00 0.57042279E+02</pdfrwt>
<pdfrwt beam="1">  1       -1 0.10162795E+00 0.20128365E+02</pdfrwt>
<totfact> 0.33411151E+00</totfact>
</mgrwt>
</event>
<event>
13    1  0.1942437E-008  0.1706666E+03  0.7546771E-02  0.1366174E+00
          2   -1    0    0  503    0  0.00000000000E+00  0.00000000000E+00  0.73905971474E+03  0.73905971474E+03  0.00000000000E+00 0. -1.
         -1   -1    0    0    0  501 -0.00000000000E+00 -0.00000000000E+00 -0.68602279390E+03  0.68602279390E+03  0.00000000000E+00 0.  1.
         24    2    1    2    0    0  0.71774489794E+02  0.16329354066E+03 -0.10437962690E+03  0.22187006223E+03  0.80714683885E+02 0.  0.
         24    2    1    2    0    0  0.61244208709E+02 -0.55656596892E+02 -0.52769556415E+02  0.12592660590E+03  0.78894702679E+02 0.  0.
         25    2    1    2    0    0 -0.88347108295E+02  0.79181946030E+02  0.10371422095E+02  0.17264946919E+03  0.12500112277E+03 0.  0.
        -13    1    4    4    0    0  0.11294547758E+01 -0.53458329339E+02 -0.31853167548E+02  0.62238998439E+02  0.00000000000E+00 0.  1.
         14    1    4    4    0    0  0.60114753933E+02 -0.21982675529E+01 -0.20916388867E+02  0.63687607460E+02  0.00000000000E+00 0. -1.
        -13    1    3    3    0    0  0.71529062023E+02  0.17241086026E+03 -0.99778481229E+02  0.21165456944E+03  0.00000000000E+00 0.  1.
         14    1    3    3    0    0  0.24542777103E+00 -0.91173195964E+01 -0.46011456663E+01  0.10215492786E+02  0.00000000000E+00 0. -1.
          5    1    5    5  502    0 -0.10505945631E+03  0.90697906071E+02  0.32113447681E+02  0.14253758468E+03  0.47000000000E+01 0. -1.
         -5    1    5    5    0  502  0.16712348014E+02 -0.11515960041E+02 -0.21742025586E+02  0.30111884504E+02  0.47000000000E+01 0. -1.
          1    1    1    2  503    0 -0.19463202040E+02 -0.19125288045E+02  0.53145529738E+03  0.53215535888E+03  0.00000000000E+00 0. -1.
         -2    1    1    2    0  501 -0.25208388168E+02 -0.16769360175E+03 -0.33164061532E+03  0.37248101244E+03  0.00000000000E+00 0.  1.
<mgrwt>
<rscale>  0 0.68242355E+02</rscale>
<asrwt>0</asrwt>
<pdfrwt beam="1">  1        2 0.10868525E+00 0.27287229E+02</pdfrwt>
<pdfrwt beam="2">  1       -1 0.10088570E+00 0.17066661E+03</pdfrwt>
<totfact> 0.51766208E+01</totfact>
</mgrwt>
</event>
<event>
13    1  0.1942437E-008  0.9698192E+02  0.7546771E-02  0.1493291E+00
          2   -1    0    0  503    0  0.00000000000E+00  0.00000000000E+00  0.10142786230E+04  0.10142786230E+04  0.00000000000E+00 0. -1.
          2   -1    0    0  502    0 -0.00000000000E+00 -0.00000000000E+00 -0.15097833897E+04  0.15097833897E+04  0.00000000000E+00 0. -1.
         24    2    1    2    0    0  0.10795745940E+01  0.57464705448E+02 -0.54184672424E+03  0.55092067581E+03  0.81316422763E+02 0.  0.
         24    2    1    2    0    0  0.38243224262E+02  0.14413061168E+03 -0.49309298953E+03  0.52112143370E+03  0.78680842073E+02 0.  0.
         25    2    1    2    0    0  0.36672170182E+02 -0.18065269832E+03 -0.19410522783E+03  0.29543497457E+03  0.12499895702E+03 0.  0.
        -11    1    4    4    0    0 -0.43524886902E+01 -0.41347598228E+01 -0.19347071633E+01  0.63074153501E+01  0.00000000000E+00 0.  1.
         12    1    4    4    0    0  0.42595712952E+02  0.14826537151E+03 -0.49115828237E+03  0.51481401835E+03  0.00000000000E+00 0. -1.
        -11    1    3    3    0    0 -0.29350703744E+02  0.27990765925E+02 -0.11434254529E+03  0.12132256365E+03  0.00000000000E+00 0.  1.
         12    1    3    3    0    0  0.30430278338E+02  0.29473939522E+02 -0.42750417895E+03  0.42959811216E+03  0.00000000000E+00 0. -1.
          5    1    5    5  501    0  0.45270035430E+02 -0.37855928311E+02 -0.12101893921E+03  0.13472238516E+03  0.47000000000E+01 0. -1.
         -5    1    5    5    0  501 -0.85978652482E+01 -0.14279677001E+03 -0.73086288618E+02  0.16071258941E+03  0.47000000000E+01 0. -1.
          1    1    1    2  502    0  0.18044181731E+02  0.29088847781E+01 -0.20863194767E+03  0.20943099983E+03  0.00000000000E+00 0. -1.
          1    1    1    2  503    0 -0.94039150769E+02 -0.23851503593E+02  0.94217212262E+03  0.94715392875E+03  0.00000000000E+00 0. -1.
<mgrwt>
<rscale>  0 0.42101696E+02</rscale>
<asrwt>0</asrwt>
<pdfrwt beam="1">  1        2 0.14915862E+00 0.96981920E+02</pdfrwt>
<pdfrwt beam="2">  1        2 0.22202697E+00 0.18277147E+02</pdfrwt>
<totfact> 0.82256954E+01</totfact>
</mgrwt>
</event>
<event>
13    1  0.1942437E-008  0.8922903E+02  0.7546771E-02  0.1393065E+00
          2   -1    0    0  503    0  0.00000000000E+00  0.00000000000E+00  0.95623205504E+03  0.95623205504E+03  0.00000000000E+00 0. -1.
          2   -1    0    0  502    0 -0.00000000000E+00 -0.00000000000E+00 -0.98653986347E+03  0.98653986347E+03  0.00000000000E+00 0. -1.
         24    2    1    2    0    0 -0.78921699664E+02  0.23498112195E+03 -0.17149577763E+03  0.31190000062E+03  0.80162624053E+02 0.  0.
         24    2    1    2    0    0  0.15848691161E+03 -0.17480554750E+03 -0.28563234828E+03  0.37933388018E+03  0.81444911930E+02 0.  0.
         25    2    1    2    0    0 -0.13281693547E+03  0.21029621204E+02  0.54132150024E+03  0.57160808513E+03  0.12499701218E+03 0.  0.
        -11    1    3    3    0    0 -0.48926588796E+02  0.41816492950E+02 -0.52426691180E+02  0.83011975774E+02  0.00000000000E+00 0.  1.
         12    1    3    3    0    0 -0.29995110868E+02  0.19316462900E+03 -0.11906908645E+03  0.22888802485E+03  0.00000000000E+00 0. -1.
        -11    1    4    4    0    0 -0.54246844418E+01 -0.43313522379E+01  0.17461866202E+01  0.71580012025E+01  0.00000000000E+00 0.  1.
         12    1    4    4    0    0  0.16391159605E+03 -0.17047419527E+03 -0.28737853490E+03  0.37217587898E+03  0.00000000000E+00 0. -1.
          5    1    5    5  501    0 -0.11852605668E+03  0.70816116292E+01  0.53782633881E+03  0.55079745465E+03  0.47000000000E+01 0.  1.
         -5    1    5    5    0  501 -0.14290878786E+02  0.13948009575E+02  0.34951614313E+01  0.20810630481E+02  0.47000000000E+01 0.  1.
          1    1    1    2  502    0  0.76334468238E+02 -0.46226868717E+02 -0.39060201078E+03  0.40066670096E+03  0.00000000000E+00 0. -1.
          1    1    1    2  503    0 -0.23082744720E+02 -0.34978326933E+02  0.27610082803E+03  0.27926325161E+03  0.00000000000E+00 0. -1.
<mgrwt>
<rscale>  0 0.61150855E+02</rscale>
<asrwt>0</asrwt>
<pdfrwt beam="1">  1        2 0.14062236E+00 0.41908191E+02</pdfrwt>
<pdfrwt beam="2">  1        2 0.14507939E+00 0.89229027E+02</pdfrwt>
<totfact> 0.15174554E+02</totfact>
</mgrwt>
</event>
<event>
13    1  0.1942437E-008  0.9170711E+02  0.7546771E-02  0.1372421E+00
          2   -1    0    0  502    0  0.00000000000E+00  0.00000000000E+00  0.66081032379E+03  0.66081032379E+03  0.00000000000E+00 0. -1.
          2   -1    0    0  503    0 -0.00000000000E+00 -0.00000000000E+00 -0.80095534141E+03  0.80095534141E+03  0.00000000000E+00 0. -1.
         24    2    1    2    0    0  0.10612454686E+03 -0.40235903306E+02 -0.36707927313E+03  0.39239293205E+03  0.79647178204E+02 0.  0.
         24    2    1    2    0    0  0.17813914386E+02 -0.35202080257E+01 -0.82062691599E+02  0.11723116496E+03  0.81725964510E+02 0.  0.
         25    2    1    2    0    0 -0.44361606094E+02  0.75477244403E+02  0.70639259452E+02  0.16816772200E+03  0.12500284489E+03 0.  0.
        -13    1    3    3    0    0 -0.17951010966E+01  0.16231589360E+02 -0.55515159853E+02  0.57867260645E+02  0.00000000000E+00 0.  1.
         14    1    3    3    0    0  0.10791964795E+03 -0.56467492667E+02 -0.31156411328E+03  0.33452567140E+03  0.00000000000E+00 0. -1.
        -13    1    4    4    0    0 -0.12324124277E+02 -0.31524913460E+02 -0.11867840828E+02  0.35868507827E+02  0.00000000000E+00 0.  1.
         14    1    4    4    0    0  0.30138038662E+02  0.28004705434E+02 -0.70194850772E+02  0.81362657133E+02  0.00000000000E+00 0. -1.
          5    1    5    5  501    0 -0.95914019755E+01 -0.33122686741E+02  0.17187841753E+01  0.34844678042E+02  0.47000000000E+01 0. -1.
         -5    1    5    5    0  501 -0.34770204118E+02  0.10859993114E+03  0.68920475276E+02  0.13332304396E+03  0.47000000000E+01 0. -1.
          1    1    1    2  502    0  0.29566151875E+02 -0.38091813666E+02  0.49900324621E+03  0.50132762076E+03  0.00000000000E+00 0. -1.
          1    1    1    2  503    0 -0.10914300702E+03  0.63706805959E+01 -0.26064555856E+03  0.28264622543E+03  0.00000000000E+00 0. -1.
<mgrwt>
<rscale>  0 0.66498823E+02</rscale>
<asrwt>0</asrwt>
<pdfrwt beam="1">  1        2 0.97177989E-01 0.48219743E+02</pdfrwt>
<pdfrwt beam="2">  1        2 0.11778755E+00 0.91707115E+02</pdfrwt>
<totfact> 0.30081196E+02</totfact>
</mgrwt>
</event>
<event>
13    1  0.1942437E-008  0.1358101E+03  0.7546771E-02  0.1282491E+00
         -1   -1    0    0    0  501 -0.00000000000E+00  0.00000000000E+00  0.10349469782E+04  0.10349469782E+04  0.00000000000E+00 0.  1.
          2   -1    0    0  503    0  0.00000000000E+00 -0.00000000000E+00 -0.22116037230E+04  0.22116037230E+04  0.00000000000E+00 0. -1.
         24    2    1    2    0    0 -0.17751512948E+03 -0.12297638034E+03  0.53351396383E+03  0.57955190100E+03  0.67885528847E+02 0.  0.
         24    2    1    2    0    0  0.28638792439E+01  0.64113730163E+02  0.22640851712E+02  0.10876377183E+03  0.84842075032E+02 0.  0.
         25    2    1    2    0    0  0.40994764065E+02 -0.92426605195E+01 -0.25849759225E+03  0.29019016510E+03  0.12499331690E+03 0.  0.
        -11    1    3    3    0    0 -0.13947634940E+03 -0.89622977832E+02  0.32322922027E+03  0.36326720060E+03  0.00000000000E+00 0.  1.
         12    1    3    3    0    0 -0.38038780083E+02 -0.33353402512E+02  0.21028474356E+03  0.21628470040E+03  0.00000000000E+00 0. -1.
        -13    1    4    4    0    0  0.30512731768E+02  0.60116905547E+02  0.37475705976E+02  0.77132986918E+02  0.00000000000E+00 0.  1.
         14    1    4    4    0    0 -0.27648852524E+02  0.39968246164E+01 -0.14834854264E+02  0.31630784908E+02  0.00000000000E+00 0. -1.
          5    1    5    5  502    0 -0.13713967874E+02 -0.28734879160E+02 -0.21520919352E+03  0.21760251186E+03  0.47000000000E+01 0. -1.
         -5    1    5    5    0  502  0.54708731939E+02  0.19492218641E+02 -0.43288398730E+02  0.72587653237E+02  0.47000000000E+01 0. -1.
          1    1    1    2  503    0  0.58242238817E+02 -0.42522965802E+02 -0.18591682753E+04  0.18605663215E+04  0.00000000000E+00 0. -1.
         -2    1    1    2    0  501  0.75414247356E+02  0.11062827650E+03  0.38485430717E+03  0.40747854178E+03  0.00000000000E+00 0.  1.
<mgrwt>
<rscale>  0 0.98963370E+02</rscale>
<asrwt>0</asrwt>
<pdfrwt beam="2">  1        2 0.32523584E+00 0.72113529E+02</pdfrwt>
<pdfrwt beam="1">  1       -1 0.15219809E+00 0.13581014E+03</pdfrwt>
<totfact> 0.33092351E+00</totfact>
</mgrwt>
</event>
<event>
13    1  0.1942437E-008  0.2888693E+02  0.7546771E-02  0.1666177E+00
          2   -1    0    0  503    0  0.00000000000E+00  0.00000000000E+00  0.10172065965E+04  0.10172065965E+04  0.00000000000E+00 0. -1.
          2   -1    0    0  502    0 -0.00000000000E+00 -0.00000000000E+00 -0.11325777120E+04  0.11325777120E+04  0.00000000000E+00 0. -1.
         24    2    1    2    0    0  0.19831685705E+03 -0.51674796190E+02 -0.62510449207E+03  0.66279950370E+03  0.80917833274E+02 0.  0.
         24    2    1    2    0    0 -0.19304988889E+02  0.69417208943E+02  0.17549383390E+02  0.10839250687E+03  0.79053925872E+02 0.  0.
         25    2    1    2    0    0 -0.17111210501E+03 -0.79654628183E+01  0.22926816182E+03  0.31230301399E+03  0.12500592564E+03 0.  0.
        -11    1    3    3    0    0  0.49205025734E+02 -0.51482309341E+02 -0.20473772896E+03  0.21676969436E+03  0.00000000000E+00 0.  1.
         12    1    3    3    0    0  0.14911183132E+03 -0.19248684846E+00 -0.42036676311E+03  0.44602980934E+03  0.00000000000E+00 0. -1.
        -11    1    4    4    0    0  0.27406044335E+02  0.48587262383E+02  0.10516293560E+02  0.56766237872E+02  0.00000000000E+00 0.  1.
         12    1    4    4    0    0 -0.46711033224E+02  0.20829946561E+02  0.70330898296E+01  0.51626269003E+02  0.00000000000E+00 0. -1.
          5    1    5    5  501    0 -0.69761397600E+02 -0.14146568035E+02  0.11872781454E+02  0.72317569938E+02  0.47000000000E+01 0. -1.
         -5    1    5    5    0  501 -0.10135070741E+03  0.61811052162E+01  0.21739538036E+03  0.23998544405E+03  0.47000000000E+01 0. -1.
          1    1    1    2  502    0  0.20521613715E+02 -0.45653419296E+01 -0.40109723070E+03  0.40164781519E+03  0.00000000000E+00 0. -1.
          1    1    1    2  503    0 -0.28421376871E+02 -0.52116080056E+01  0.66401306201E+03  0.66464146879E+03  0.00000000000E+00 0. -1.
<mgrwt>
<rscale>  0 0.24643427E+02</rscale>
<asrwt>0</asrwt>
<pdfrwt beam="1">  1        2 0.14958921E+00 0.28886931E+02</pdfrwt>
<pdfrwt beam="2">  1        2 0.16655555E+00 0.21023296E+02</pdfrwt>
<totfact> 0.12937417E+02</totfact>
</mgrwt>
</event>
<event>
13    1  0.1942437E-008  0.1238646E+03  0.7546771E-02  0.1344701E+00
          2   -1    0    0  503    0  0.00000000000E+00  0.00000000000E+00  0.28630805904E+04  0.28630805904E+04  0.00000000000E+00 0. -1.
          2   -1    0    0  502    0 -0.00000000000E+00 -0.00000000000E+00 -0.41808466833E+03  0.41808466833E+03  0.00000000000E+00 0. -1.
         24    2    1    2    0    0 -0.23230484938E+02 -0.84602762358E+02  0.53353749687E+02  0.13080016503E+03  0.81023316003E+02 0.  0.
         24    2    1    2    0    0 -0.53619962293E+02 -0.96947071212E+02  0.20361116111E+03  0.24506638494E+03  0.79537369378E+02 0.  0.
         25    2    1    2    0    0 -0.20830552019E+02 -0.42501415186E+00  0.13418324345E+04  0.13478025637E+04  0.12499350339E+03 0.  0.
        -11    1    3    3    0    0 -0.32216225700E+02 -0.97962066826E+02  0.48676164326E+02  0.11403429619E+03  0.00000000000E+00 0.  1.
         12    1    3    3    0    0  0.89857407620E+01  0.13359304467E+02  0.46775853616E+01  0.16765868832E+02  0.00000000000E+00 0. -1.
        -11    1    4    4    0    0 -0.68463904755E+02 -0.46236650932E+02  0.13781603709E+03  0.16068103256E+03  0.00000000000E+00 0.  1.
         12    1    4    4    0    0  0.14843942463E+02 -0.50710420280E+02  0.65795124019E+02  0.84385352387E+02  0.00000000000E+00 0. -1.
          5    1    5    5  501    0 -0.49885638741E+02  0.47887170081E+02  0.81483099613E+03  0.81777344067E+03  0.47000000000E+01 0. -1.
         -5    1    5    5    0  501  0.29055086722E+02 -0.48312184233E+02  0.52700143841E+03  0.53002912307E+03  0.47000000000E+01 0. -1.
          1    1    1    2  502    0  0.13023699889E+03  0.15077959179E+03 -0.32727776293E+03  0.38315387939E+03  0.00000000000E+00 0. -1.
          1    1    1    2  503    0 -0.32555999644E+02  0.31195255929E+02  0.11734763396E+04  0.11743422656E+04  0.00000000000E+00 0. -1.
<mgrwt>
<rscale>  0 0.74732575E+02</rscale>
<asrwt>0</asrwt>
<pdfrwt beam="1">  1        2 0.42104125E+00 0.45089213E+02</pdfrwt>
<pdfrwt beam="2">  1        2 0.61483041E-01 0.12386461E+03</pdfrwt>
<totfact> 0.48223601E+01</totfact>
</mgrwt>
</event>
<event>
13    1  0.1942437E-008  0.2176037E+03  0.7546771E-02  0.1260317E+00
          2   -1    0    0  503    0  0.00000000000E+00  0.00000000000E+00  0.45152989383E+03  0.45152989383E+03  0.00000000000E+00 0. -1.
          2   -1    0    0  502    0 -0.00000000000E+00 -0.00000000000E+00 -0.22915928270E+04  0.22915928270E+04  0.00000000000E+00 0. -1.
         24    2    1    2    0    0  0.51622379416E+01  0.81516480851E+01 -0.62752466118E+03  0.63273562272E+03  0.80461604550E+02 0.  0.
         24    2    1    2    0    0 -0.80456235219E+02 -0.25377762124E+02 -0.77354395304E+03  0.78234107117E+03  0.81055954547E+02 0.  0.
         25    2    1    2    0    0 -0.14060066566E+03 -0.19796339864E+02 -0.62499517094E+02  0.19922653719E+03  0.12499832489E+03 0.  0.
        -11    1    4    4    0    0 -0.97254925265E+02 -0.20752621564E+02 -0.67050766232E+03  0.67784195578E+03  0.00000000000E+00 0.  1.
         12    1    4    4    0    0  0.16798690047E+02 -0.46251405599E+01 -0.10303629072E+03  0.10449911539E+03  0.00000000000E+00 0. -1.
        -11    1    3    3    0    0  0.24297385269E+02 -0.27132020278E+02 -0.40377098903E+03  0.40541031195E+03  0.00000000000E+00 0.  1.
         12    1    3    3    0    0 -0.19135147327E+02  0.35283668363E+02 -0.22375367216E+03  0.22732531078E+03  0.00000000000E+00 0. -1.
          5    1    5    5  501    0 -0.73216809556E+02  0.48051147566E+02 -0.54267657981E+02  0.10313429443E+03  0.47000000000E+01 0.  1.
         -5    1    5    5    0  501 -0.67383856107E+02 -0.67847487431E+02 -0.82318591124E+01  0.96092242762E+02  0.47000000000E+01 0.  1.
          1    1    1    2  502    0 -0.68671194286E+01 -0.55319287293E+02 -0.71281009907E+03  0.71498644617E+03  0.00000000000E+00 0. -1.
          1    1    1    2  503    0  0.22276178237E+03  0.92341741197E+02  0.33631529718E+03  0.41383304359E+03  0.00000000000E+00 0. -1.
<mgrwt>
<rscale>  0 0.11013663E+03</rscale>
<asrwt>0</asrwt>
<pdfrwt beam="1">  1        2 0.66401456E-01 0.21760371E+03</pdfrwt>
<pdfrwt beam="2">  1        2 0.33699894E+00 0.55743886E+02</pdfrwt>
<totfact> 0.81271173E+01</totfact>
</mgrwt>
</event>
<event>
13    1  0.1942437E-008  0.1180264E+03  0.7546771E-02  0.1380159E+00
          2   -1    0    0  502    0  0.00000000000E+00  0.00000000000E+00  0.33507645397E+04  0.33507645397E+04  0.00000000000E+00 0. -1.
          2   -1    0    0  503    0 -0.00000000000E+00 -0.00000000000E+00 -0.14578155787E+03  0.14578155787E+03  0.00000000000E+00 0. -1.
         24    2    1    2    0    0  0.32835359091E+02  0.33800563442E+02  0.39661757000E+03  0.40762611547E+03  0.81442705560E+02 0.  0.
         24    2    1    2    0    0 -0.34816621888E+02 -0.52018537098E+02  0.88570537157E+02  0.13525369182E+03  0.80812720137E+02 0.  0.
         25    2    1    2    0    0  0.65961168060E+02  0.56132241253E+02  0.94513003081E+03  0.95728468305E+03  0.12498593947E+03 0.  0.
        -13    1    4    4    0    0 -0.46507009726E+02 -0.67812876114E+02  0.66941150484E+02  0.10603115461E+03  0.00000000000E+00 0.  1.
         14    1    4    4    0    0  0.11690387837E+02  0.15794339016E+02  0.21629386673E+02  0.29222537203E+02  0.00000000000E+00 0. -1.
        -13    1    3    3    0    0 -0.16093826076E+02  0.36007808101E+02  0.11007473067E+03  0.11692741258E+03  0.00000000000E+00 0.  1.
         14    1    3    3    0    0  0.48929185167E+02 -0.22072446588E+01  0.28654283933E+03  0.29069870289E+03  0.00000000000E+00 0. -1.
          5    1    5    5  501    0  0.20512078770E+02  0.12905781233E+02  0.78288482751E+03  0.78327392891E+03  0.47000000000E+01 0. -1.
         -5    1    5    5    0  501  0.45449089290E+02  0.43226460020E+02  0.16224520330E+03  0.17401075415E+03  0.47000000000E+01 0. -1.
          1    1    1    2  502    0  0.34226622052E+02 -0.80615139871E+01  0.18615621647E+04  0.18618942351E+04  0.00000000000E+00 0. -1.
          1    1    1    2  503    0 -0.98206527315E+02 -0.29852753609E+02 -0.86897320804E+02  0.13448737215E+03  0.00000000000E+00 0. -1.
<mgrwt>
<rscale>  0 0.64421929E+02</rscale>
<asrwt>0</asrwt>
<pdfrwt beam="1">  1        2 0.49275944E+00 0.35163186E+02</pdfrwt>
<pdfrwt beam="2">  1        2 0.21438467E-01 0.11802642E+03</pdfrwt>
<totfact> 0.86901321E+01</totfact>
</mgrwt>
</event>
<event>
13    1  0.1942437E-008  0.2422012E+03  0.7546771E-02  0.1172510E+00
          2   -1    0    0  502    0  0.00000000000E+00  0.00000000000E+00  0.17724111903E+04  0.17724111903E+04  0.00000000000E+00 0. -1.
          2   -1    0    0  503    0 -0.00000000000E+00 -0.00000000000E+00 -0.29534999507E+04  0.29534999507E+04  0.00000000000E+00 0. -1.
         24    2    1    2    0    0 -0.38488886406E+02  0.49401889989E+02 -0.26879501427E+03  0.28757851030E+03  0.80800363716E+02 0.  0.
         24    2    1    2    0    0  0.10824699030E+03  0.90575214339E+02 -0.13556367337E+03  0.21185360755E+03  0.81136681801E+02 0.  0.
         25    2    1    2    0    0 -0.48523576574E+03 -0.13169309207E+03 -0.73147926142E+02  0.52323232750E+03  0.12499852236E+03 0.  0.
        -11    1    4    4    0    0  0.62721394069E+02  0.25844330168E+01 -0.41580523798E+02  0.75296696656E+02  0.00000000000E+00 0.  1.
         12    1    4    4    0    0  0.45525596226E+02  0.87990781322E+02 -0.93983149570E+02  0.13655691089E+03  0.00000000000E+00 0. -1.
        -13    1    3    3    0    0  0.24761125306E+02  0.20336884098E+02 -0.71092047415E+02  0.77979365135E+02  0.00000000000E+00 0.  1.
         14    1    3    3    0    0 -0.63250011712E+02  0.29065005891E+02 -0.19770296686E+03  0.20959914516E+03  0.00000000000E+00 0. -1.
          5    1    5    5  501    0 -0.11497626550E+03 -0.77885760083E+02 -0.52314948405E+02  0.14847449976E+03  0.47000000000E+01 0.  1.
         -5    1    5    5    0  501 -0.37025950024E+03 -0.53807331987E+02 -0.20832977737E+02  0.37475782774E+03  0.47000000000E+01 0.  1.
          1    1    1    2  502    0  0.22810757597E+03  0.53061066693E+02  0.14862340345E+04  0.15045730784E+04  0.00000000000E+00 0. -1.
          1    1    1    2  503    0  0.18737008588E+03 -0.61345078950E+02 -0.21898161812E+04  0.21986736172E+04  0.00000000000E+00 0. -1.
<mgrwt>
<rscale>  0 0.17522089E+03</rscale>
<asrwt>0</asrwt>
<pdfrwt beam="1">  1        2 0.26064871E+00 0.24220124E+03</pdfrwt>
<pdfrwt beam="2">  1        2 0.43433822E+00 0.12676384E+03</pdfrwt>
<totfact> 0.50235645E+00</totfact>
</mgrwt>
</event>
<event>
13    1  0.1942437E-008  0.7245995E+02  0.7546771E-02  0.1518041E+00
          2   -1    0    0  503    0  0.00000000000E+00  0.00000000000E+00  0.31507514662E+04  0.31507514662E+04  0.00000000000E+00 0. -1.
          2   -1    0    0  502    0 -0.00000000000E+00 -0.00000000000E+00 -0.24074759134E+03  0.24074759134E+03  0.00000000000E+00 0. -1.
         24    2    1    2    0    0  0.57109549633E+02  0.27015488060E+02 -0.74844596456E+01  0.10248812476E+03  0.80352108414E+02 0.  0.
         24    2    1    2    0    0 -0.67948887571E+02  0.23266810459E+03  0.11583584603E+03  0.28008669194E+03  0.79240857891E+02 0.  0.
         25    2    1    2    0    0  0.54062008840E+02 -0.29060749844E+03  0.95315600813E+03  0.10057368199E+04  0.12499902432E+03 0.  0.
        -11    1    4    4    0    0 -0.52493555747E+02  0.10093773040E+03  0.17803852397E+02  0.11515631104E+03  0.00000000000E+00 0.  1.
         12    1    4    4    0    0 -0.15455331824E+02  0.13173037420E+03  0.98031993631E+02  0.16493038090E+03  0.00000000000E+00 0. -1.
        -13    1    3    3    0    0  0.17184249525E+02 -0.23237679853E+02  0.17303296587E+02  0.33685193624E+02  0.00000000000E+00 0.  1.
         14    1    3    3    0    0  0.39925300107E+02  0.50253167914E+02 -0.24787756233E+02  0.68802931137E+02  0.00000000000E+00 0. -1.
          5    1    5    5  501    0  0.31393120832E+02 -0.45819175713E+02  0.72801286395E+02  0.91689924198E+02  0.47000000000E+01 0.  1.
         -5    1    5    5    0  501  0.22668888007E+02 -0.24478832272E+03  0.88035472173E+03  0.91404689568E+03  0.47000000000E+01 0.  1.
          1    1    1    2  502    0 -0.54348860239E+02  0.48336517786E+02 -0.60177858518E+02  0.94401229954E+02  0.00000000000E+00 0. -1.
          1    1    1    2  503    0  0.11126189338E+02 -0.17412612006E+02  0.19086743389E+04  0.19087861910E+04  0.00000000000E+00 0. -1.
<mgrwt>
<rscale>  0 0.38694901E+02</rscale>
<asrwt>0</asrwt>
<pdfrwt beam="1">  1        2 0.46334578E+00 0.20663764E+02</pdfrwt>
<pdfrwt beam="2">  1        2 0.35404059E-01 0.72459953E+02</pdfrwt>
<totfact> 0.70845885E+01</totfact>
</mgrwt>
</event>
<event>
13    1  0.1942437E-008  0.4624401E+02  0.7546771E-02  0.1595770E+00
          2   -1    0    0  502    0  0.00000000000E+00  0.00000000000E+00  0.19622577674E+04  0.19622577674E+04  0.00000000000E+00 0. -1.
          2   -1    0    0  503    0 -0.00000000000E+00 -0.00000000000E+00 -0.23361924842E+04  0.23361924842E+04  0.00000000000E+00 0. -1.
         24    2    1    2    0    0 -0.11651782917E+02  0.14068975891E+03 -0.22372307413E+03  0.28327697763E+03  0.10131367060E+03 0.  0.
         24    2    1    2    0    0 -0.24140269172E+03 -0.45457442573E+03  0.13201900445E+02  0.52116259758E+03  0.80765059585E+02 0.  0.
         25    2    1    2    0    0  0.18839891587E+03  0.30239940088E+03  0.62639319205E+02  0.38273681039E+03  0.12499693024E+03 0.  0.
        -11    1    3    3    0    0 -0.43705494636E+02  0.64554538894E+02 -0.16322215345E+03  0.18088374755E+03  0.00000000000E+00 0.  1.
         12    1    3    3    0    0  0.32053711719E+02  0.76135220020E+02 -0.60500920685E+02  0.10239323008E+03  0.00000000000E+00 0. -1.
        -13    1    4    4    0    0 -0.12978091004E+03 -0.16102568941E+03 -0.36493858286E+00  0.20681511173E+03  0.00000000000E+00 0.  1.
         14    1    4    4    0    0 -0.11162178168E+03 -0.29354873632E+03  0.13566839028E+02  0.31434748585E+03  0.00000000000E+00 0. -1.
          5    1    5    5  501    0  0.83521371079E+02  0.85752298335E+02  0.75579182647E+02  0.14164596340E+03  0.47000000000E+01 0. -1.
         -5    1    5    5    0  501  0.10487754479E+03  0.21664710254E+03 -0.12939863442E+02  0.24109084700E+03  0.47000000000E+01 0. -1.
          1    1    1    2  502    0  0.18720846355E+02  0.62497416043E+01  0.14422227420E+04  0.14423577805E+04  0.00000000000E+00 0. -1.
          1    1    1    2  503    0  0.45934712410E+02  0.52355243348E+01 -0.16682756044E+04  0.16689160856E+04  0.00000000000E+00 0. -1.
<mgrwt>
<rscale>  0 0.30210839E+02</rscale>
<asrwt>0</asrwt>
<pdfrwt beam="1">  1        2 0.28856732E+00 0.19736498E+02</pdfrwt>
<pdfrwt beam="2">  1        2 0.34355772E+00 0.46244007E+02</pdfrwt>
<totfact> 0.12406444E+01</totfact>
</mgrwt>
</event>
<event>
13    1  0.1942437E-008  0.1631719E+03  0.7546771E-02  0.1305469E+00
          2   -1    0    0  503    0  0.00000000000E+00  0.00000000000E+00  0.26375707458E+04  0.26375707458E+04  0.00000000000E+00 0. -1.
          2   -1    0    0  502    0 -0.00000000000E+00 -0.00000000000E+00 -0.28170970902E+03  0.28170970902E+03  0.00000000000E+00 0. -1.
         24    2    1    2    0    0 -0.36561447167E+02 -0.77655357725E+02  0.78768619019E+02  0.13926795577E+03  0.76314966819E+02 0.  0.
         24    2    1    2    0    0 -0.37110091865E+02 -0.19024035770E+03  0.48189377741E+02  0.21454448685E+03  0.78349014618E+02 0.  0.
         25    2    1    2    0    0  0.26728063028E+03  0.18095117817E+03  0.13045493232E+04  0.13496874745E+04  0.12500031246E+03 0.  0.
        -13    1    3    3    0    0 -0.20123434190E+02 -0.86930833963E+02  0.43503848549E+02  0.99269871238E+02  0.00000000000E+00 0.  1.
         14    1    3    3    0    0 -0.16438012976E+02  0.92754762383E+01  0.35264770471E+02  0.39998084534E+02  0.00000000000E+00 0. -1.
        -13    1    4    4    0    0 -0.54170785127E+02 -0.10243962645E+03  0.70526511791E+01  0.11609518043E+03  0.00000000000E+00 0.  1.
         14    1    4    4    0    0  0.17060693262E+02 -0.87800731249E+02  0.41136726562E+02  0.98449306420E+02  0.00000000000E+00 0. -1.
          5    1    5    5  501    0  0.57267846329E+02  0.97929902627E+02  0.56979744062E+03  0.58100007348E+03  0.47000000000E+01 0.  1.
         -5    1    5    5    0  501  0.21001278395E+03  0.83021275544E+02  0.73475188257E+03  0.76868740106E+03  0.47000000000E+01 0.  1.
          1    1    1    2  502    0 -0.18899783269E+03  0.13519008908E+03 -0.52087006189E+02  0.23813776929E+03  0.00000000000E+00 0. -1.
          1    1    1    2  503    0 -0.46112585553E+01 -0.48245551821E+02  0.97644072301E+03  0.97764276836E+03  0.00000000000E+00 0. -1.
<mgrwt>
<rscale>  0 0.88928035E+02</rscale>
<asrwt>0</asrwt>
<pdfrwt beam="1">  1        2 0.38787804E+00 0.48465420E+02</pdfrwt>
<pdfrwt beam="2">  1        2 0.41427900E-01 0.16317192E+03</pdfrwt>
<totfact> 0.93870829E+01</totfact>
</mgrwt>
</event>
<event>
13    1  0.1942437E-008  0.8708378E+02  0.7546771E-02  0.1434718E+00
          2   -1    0    0  503    0  0.00000000000E+00  0.00000000000E+00  0.32897033848E+04  0.32897033848E+04  0.00000000000E+00 0. -1.
          2   -1    0    0  502    0 -0.00000000000E+00 -0.00000000000E+00 -0.28352017525E+04  0.28352017525E+04  0.00000000000E+00 0. -1.
         24    2    1    2    0    0  0.86715737746E+02  0.35524590110E+02 -0.22800404569E+03  0.25909267306E+03  0.79759342441E+02 0.  0.
         24    2    1    2    0    0  0.22129073112E+01  0.62189006309E+02  0.12927632451E+03  0.16454463673E+03  0.80561777124E+02 0.  0.
         25    2    1    2    0    0 -0.29502243679E+02 -0.17387986050E+03  0.26956039237E+04  0.27042577575E+04  0.12499966922E+03 0.  0.
        -11    1    3    3    0    0 -0.75524363125E+01 -0.14232461476E+02 -0.37050067875E+02  0.40401853713E+02  0.00000000000E+00 0.  1.
         12    1    3    3    0    0  0.94268174059E+02  0.49757051586E+02 -0.19095397781E+03  0.21869081934E+03  0.00000000000E+00 0. -1.
        -11    1    4    4    0    0 -0.20642632123E+02  0.67761892963E+02  0.65156169197E+02  0.96245097451E+02  0.00000000000E+00 0.  1.
         12    1    4    4    0    0  0.22855539434E+02 -0.55728866537E+01  0.64120155312E+02  0.68299539279E+02  0.00000000000E+00 0. -1.
          5    1    5    5  501    0 -0.14591851126E+02 -0.18151095148E+03  0.26326504281E+04  0.26389447729E+04  0.47000000000E+01 0. -1.
         -5    1    5    5    0  501 -0.14910392553E+02  0.76310909769E+01  0.62953495622E+02  0.65312984670E+02  0.47000000000E+01 0. -1.
          1    1    1    2  502    0 -0.72637042824E+02  0.48033767433E+02 -0.25683882795E+04  0.25698641476E+04  0.00000000000E+00 0. -1.
          1    1    1    2  503    0  0.13210641446E+02  0.28132496649E+02  0.42601370936E+03  0.42714592235E+03  0.00000000000E+00 0. -1.
<mgrwt>
<rscale>  0 0.52024539E+02</rscale>
<asrwt>0</asrwt>
<pdfrwt beam="1">  1        2 0.48377991E+00 0.31079872E+02</pdfrwt>
<pdfrwt beam="2">  1        2 0.41694143E+00 0.87083780E+02</pdfrwt>
<totfact> 0.13979518E+00</totfact>
</mgrwt>
</event>
<event>
13    1  0.1942437E-008  0.6239233E+02  0.7546771E-02  0.1429644E+00
          2   -1    0    0  502    0  0.00000000000E+00  0.00000000000E+00  0.80394550517E+03  0.80394550517E+03  0.00000000000E+00 0. -1.
          2   -1    0    0  503    0 -0.00000000000E+00 -0.00000000000E+00 -0.13224443106E+04  0.13224443106E+04  0.00000000000E+00 0. -1.
         24    2    1    2    0    0 -0.24770634500E+02  0.43575429075E+02 -0.28150461073E+03  0.29729989149E+03  0.81424672337E+02 0.  0.
         24    2    1    2    0    0  0.14716993404E+03  0.10893801050E+03 -0.16607857443E+03  0.26082961314E+03  0.83207659437E+02 0.  0.
         25    2    1    2    0    0 -0.14628643911E+03 -0.13141547254E+03  0.22790787170E+03  0.32594082594E+03  0.12500270134E+03 0.  0.
        -11    1    3    3    0    0 -0.52345458646E+02  0.15579826175E+02 -0.13531042504E+03  0.14591671991E+03  0.00000000000E+00 0.  1.
         12    1    3    3    0    0  0.27574824146E+02  0.27995602900E+02 -0.14619418569E+03  0.15138317158E+03  0.00000000000E+00 0. -1.
        -13    1    4    4    0    0  0.40300250073E+01 -0.10111595855E+02  0.65634475244E+00  0.10904873256E+02  0.00000000000E+00 0.  1.
         14    1    4    4    0    0  0.14313990904E+03  0.11904960635E+03 -0.16673491918E+03  0.24992473989E+03  0.00000000000E+00 0. -1.
          5    1    5    5  501    0  0.54794258006E+01  0.16497337011E+02  0.34850064863E+02  0.39227582853E+02  0.47000000000E+01 0.  1.
         -5    1    5    5    0  501 -0.15176586491E+03 -0.14791280955E+03  0.19305780684E+03  0.28671324309E+03  0.47000000000E+01 0.  1.
          1    1    1    2  502    0 -0.38618351867E+02 -0.23246453546E+02  0.46939753828E+03  0.47155680850E+03  0.00000000000E+00 0. -1.
          1    1    1    2  503    0  0.62505491428E+02  0.21484865123E+01 -0.76822103030E+03  0.77076267673E+03  0.00000000000E+00 0. -1.
<mgrwt>
<rscale>  0 0.53031572E+02</rscale>
<asrwt>0</asrwt>
<pdfrwt beam="1">  1        2 0.11822728E+00 0.45075212E+02</pdfrwt>
<pdfrwt beam="2">  1        2 0.19447710E+00 0.62392333E+02</pdfrwt>
<totfact> 0.12592474E+02</totfact>
</mgrwt>
</event>
<event>
13    1  0.1942437E-008  0.6295029E+02  0.7546771E-02  0.1509609E+00
          2   -1    0    0  503    0  0.00000000000E+00  0.00000000000E+00  0.77668101245E+03  0.77668101245E+03  0.00000000000E+00 0. -1.
          2   -1    0    0  502    0 -0.00000000000E+00 -0.00000000000E+00 -0.15037897484E+04  0.15037897484E+04  0.00000000000E+00 0. -1.
         24    2    1    2    0    0  0.36587823159E+02  0.20369917283E+02 -0.34636110423E+03  0.35800817753E+03  0.80313375718E+02 0.  0.
         24    2    1    2    0    0 -0.39929348953E+02  0.40898121971E+02 -0.59705090294E+02  0.11507191380E+03  0.80061465457E+02 0.  0.
         25    2    1    2    0    0 -0.66227028153E+02 -0.41294399656E+02  0.30964041779E+02  0.15058468670E+03  0.12500291711E+03 0.  0.
        -11    1    3    3    0    0  0.11805286673E+02  0.47539684828E+02 -0.13821048556E+03  0.14663398224E+03  0.00000000000E+00 0.  1.
         12    1    3    3    0    0  0.24782536486E+02 -0.27169767546E+02 -0.20815061867E+03  0.21137419530E+03  0.00000000000E+00 0. -1.
        -13    1    4    4    0    0 -0.61535932171E+02  0.19158888470E+02 -0.25950092319E+02  0.69477631270E+02  0.00000000000E+00 0.  1.
         14    1    4    4    0    0  0.21606583218E+02  0.21739233501E+02 -0.33754997975E+02  0.45594282534E+02  0.00000000000E+00 0. -1.
          5    1    5    5  501    0 -0.76837839485E+02  0.24108584831E+02  0.21542844031E+02  0.83495278718E+02  0.47000000000E+01 0. -1.
         -5    1    5    5    0  501  0.10610811332E+02 -0.65402984488E+02  0.94211977478E+01  0.67089407987E+02  0.47000000000E+01 0. -1.
          1    1    1    2  502    0  0.50941903280E+02 -0.36912473840E+02 -0.10031777136E+04  0.10051483141E+04  0.00000000000E+00 0. -1.
          1    1    1    2  503    0  0.18626650667E+02  0.16938834243E+02  0.65117113037E+03  0.65165766876E+03  0.00000000000E+00 0. -1.
<mgrwt>
<rscale>  0 0.39810714E+02</rscale>
<asrwt>0</asrwt>
<pdfrwt beam="1">  1        2 0.11421780E+00 0.25176899E+02</pdfrwt>
<pdfrwt beam="2">  1        2 0.22114555E+00 0.62950285E+02</pdfrwt>
<totfact> 0.10875813E+02</totfact>
</mgrwt>
</event>
<event>
13    1  0.1942437E-008  0.9514885E+02  0.7546771E-02  0.1431513E+00
          2   -1    0    0  503    0  0.00000000000E+00  0.00000000000E+00  0.13594717909E+04  0.13594717909E+04  0.00000000000E+00 0. -1.
         -3   -1    0    0    0  501 -0.00000000000E+00 -0.00000000000E+00 -0.11159495846E+04  0.11159495846E+04  0.00000000000E+00 0.  1.
         24    2    1    2    0    0  0.31441343481E+02 -0.11681867387E+01 -0.18833991753E+03  0.20501998420E+03  0.74641453939E+02 0.  0.
         24    2    1    2    0    0  0.76206370476E+01  0.33163596656E+02 -0.79982652248E+02  0.11655095631E+03  0.77646651588E+02 0.  0.
         25    2    1    2    0    0 -0.78571645617E+02 -0.15259766778E+03  0.87696323607E+03  0.90230097393E+03  0.12499191348E+03 0.  0.
        -11    1    3    3    0    0  0.49616357973E+02 -0.14986115076E+02 -0.16236660800E+03  0.17043849922E+03  0.00000000000E+00 0.  1.
         12    1    3    3    0    0 -0.18175014492E+02  0.13817928337E+02 -0.25973309524E+02  0.34581484972E+02  0.00000000000E+00 0. -1.
        -11    1    4    4    0    0  0.12202278174E+02 -0.20909296630E+02 -0.62536359984E+01  0.25004044501E+02  0.00000000000E+00 0.  1.
         12    1    4    4    0    0 -0.45816411260E+01  0.54072893287E+02 -0.73729016250E+02  0.91546911805E+02  0.00000000000E+00 0. -1.
          5    1    5    5  502    0 -0.86969972350E+02 -0.72251368089E+02  0.31851969302E+03  0.33802503032E+03  0.47000000000E+01 0.  1.
         -5    1    5    5    0  502  0.83983267324E+01 -0.80346299693E+02  0.55844354304E+03  0.56427594361E+03  0.47000000000E+01 0.  1.
          1    1    1    2  503    0  0.23059523052E+02  0.17818735735E+02  0.43937977284E+03  0.44034513024E+03  0.00000000000E+00 0. -1.
         -4    1    1    2    0  501  0.16450142036E+02  0.10278352213E+03 -0.80449823291E+03  0.81120433082E+03  0.00000000000E+00 0.  1.
<mgrwt>
<rscale>  0 0.52657535E+02</rscale>
<asrwt>0</asrwt>
<pdfrwt beam="1">  1        2 0.19992232E+00 0.29141876E+02</pdfrwt>
<pdfrwt beam="2">  1       -3 0.16411023E+00 0.95148848E+02</pdfrwt>
<totfact> 0.35177928E+00</totfact>
</mgrwt>
</event>
<event>
13    1  0.1942437E-008  0.9853977E+02  0.7546771E-02  0.1327477E+00
         -1   -1    0    0    0  501 -0.00000000000E+00  0.00000000000E+00  0.51695250621E+03  0.51695250621E+03  0.00000000000E+00 0.  1.
          2   -1    0    0  503    0  0.00000000000E+00 -0.00000000000E+00 -0.45702329347E+03  0.45702329347E+03  0.00000000000E+00 0. -1.
         24    2    1    2    0    0 -0.23686516623E+02  0.57722947949E+02  0.10889641579E+03  0.15045674410E+03  0.82980797092E+02 0.  0.
         24    2    1    2    0    0  0.88358899845E+02 -0.16904942469E+02  0.21990912807E+02  0.12270983608E+03  0.80504853046E+02 0.  0.
         25    2    1    2    0    0 -0.10121351765E+03  0.53317174159E+02 -0.14084548818E+03  0.22034005879E+03  0.12500157099E+03 0.  0.
        -11    1    4    4    0    0  0.30633958960E+02 -0.41363797255E+02 -0.98314789887E+01  0.52402873433E+02  0.00000000000E+00 0.  1.
         12    1    4    4    0    0  0.57724940885E+02  0.24458854786E+02  0.31822391796E+02  0.70306962651E+02  0.00000000000E+00 0. -1.
        -13    1    3    3    0    0 -0.26908683837E+02  0.72157549608E+02  0.11142872894E+03  0.13545165508E+03  0.00000000000E+00 0.  1.
         14    1    3    3    0    0  0.32221672146E+01 -0.14434601659E+02 -0.25323131563E+01  0.15005089021E+02  0.00000000000E+00 0. -1.
          5    1    5    5  502    0 -0.10710366608E+03  0.22989592985E+02 -0.15177306852E+03  0.18723480179E+03  0.47000000000E+01 0. -1.
         -5    1    5    5    0  502  0.58901484338E+01  0.30327581174E+02  0.10927580344E+02  0.33105256993E+02  0.47000000000E+01 0. -1.
          1    1    1    2  503    0  0.85768493919E+02 -0.50388713258E+02 -0.18886896306E+03  0.21346367883E+03  0.00000000000E+00 0. -1.
         -2    1    1    2    0  501 -0.49227359492E+02 -0.43746466381E+02  0.25875633539E+03  0.26700548187E+03  0.00000000000E+00 0.  1.
<mgrwt>
<rscale>  0 0.80557373E+02</rscale>
<asrwt>0</asrwt>
<pdfrwt beam="2">  1        2 0.67209307E-01 0.98539773E+02</pdfrwt>
<pdfrwt beam="1">  1       -1 0.76022428E-01 0.65856558E+02</pdfrwt>
<totfact> 0.15853529E+02</totfact>
</mgrwt>
</event>
<event>
13    1  0.1942437E-008  0.1149247E+03  0.7546771E-02  0.1260092E+00
          2   -1    0    0  502    0  0.00000000000E+00  0.00000000000E+00  0.38688758084E+03  0.38688758084E+03  0.00000000000E+00 0. -1.
          2   -1    0    0  503    0 -0.00000000000E+00 -0.00000000000E+00 -0.30962741152E+04  0.30962741152E+04  0.00000000000E+00 0. -1.
         24    2    1    2    0    0  0.61520385168E+02 -0.35545105945E+02 -0.17199899609E+03  0.19383136758E+03  0.54210073360E+02 0.  0.
         24    2    1    2    0    0  0.20379811888E+02 -0.15027866281E+02 -0.16331062526E+03  0.18379535572E+03  0.80431330725E+02 0.  0.
         25    2    1    2    0    0 -0.73486633419E+02 -0.68256386880E+01  0.71899741371E+02  0.16199161460E+03  0.12499934302E+03 0.  0.
        -11    1    4    4    0    0  0.45908793844E+02  0.10324275466E+02 -0.10808614276E+03  0.11788478389E+03  0.00000000000E+00 0.  1.
         12    1    4    4    0    0 -0.25528981956E+02 -0.25352141747E+02 -0.55224482498E+02  0.65910571824E+02  0.00000000000E+00 0. -1.
        -11    1    3    3    0    0  0.50463235231E+02 -0.38993745929E+02 -0.17064215811E+03  0.18216969138E+03  0.00000000000E+00 0.  1.
         12    1    3    3    0    0  0.11057149937E+02  0.34486399846E+01 -0.13568379752E+01  0.11661676198E+02  0.00000000000E+00 0. -1.
          5    1    5    5  501    0 -0.57134548169E+02  0.93653245877E+01 -0.24300618182E+02  0.62965672736E+02  0.47000000000E+01 0.  1.
         -5    1    5    5    0  501 -0.16352085250E+02 -0.16190963276E+02  0.96200359553E+02  0.99025941863E+02  0.47000000000E+01 0.  1.
          1    1    1    2  502    0 -0.92440869612E+02 -0.88363876267E+02  0.22953103812E+03  0.26275080678E+03  0.00000000000E+00 0. -1.
          1    1    1    2  503    0  0.84027305976E+02  0.14576248718E+03 -0.26755076925E+04  0.26807925514E+04  0.00000000000E+00 0. -1.
<mgrwt>
<rscale>  0 0.11025844E+03</rscale>
<asrwt>0</asrwt>
<pdfrwt beam="1">  1        2 0.56895236E-01 0.10578168E+03</pdfrwt>
<pdfrwt beam="2">  1        2 0.45533440E+00 0.11492466E+03</pdfrwt>
<totfact> 0.34033913E+01</totfact>
</mgrwt>
</event>
<event>
13    1  0.1942437E-008  0.5088030E+02  0.7546771E-02  0.1492187E+00
          2   -1    0    0  503    0  0.00000000000E+00  0.00000000000E+00  0.22749854362E+04  0.22749854362E+04  0.00000000000E+00 0. -1.
          2   -1    0    0  502    0 -0.00000000000E+00 -0.00000000000E+00 -0.62166829412E+03  0.62166829412E+03  0.00000000000E+00 0. -1.
         24    2    1    2    0    0 -0.75168551920E+02 -0.18695347068E+03 -0.37196945786E+03  0.43570266105E+03  0.10427665065E+03 0.  0.
         24    2    1    2    0    0  0.57711043549E+02 -0.65157557788E+02  0.75558250747E+01  0.11802069968E+03  0.79345593300E+02 0.  0.
         25    2    1    2    0    0  0.72750910466E+02  0.19810693722E+03  0.14127037165E+04  0.14338393847E+04  0.12499814851E+03 0.  0.
        -13    1    3    3    0    0 -0.77945349402E+02 -0.17500605040E+03 -0.37665100345E+03  0.42257374927E+03  0.00000000000E+00 0.  1.
         14    1    3    3    0    0  0.27767974822E+01 -0.11947420278E+02  0.46815455885E+01  0.13128911785E+02  0.00000000000E+00 0. -1.
        -13    1    4    4    0    0 -0.80816983283E+01 -0.34194862355E+02 -0.19799030315E+02  0.40331179759E+02  0.00000000000E+00 0.  1.
         14    1    4    4    0    0  0.65792741877E+02 -0.30962695433E+02  0.27354855390E+02  0.77689519921E+02  0.00000000000E+00 0. -1.
          5    1    5    5  501    0  0.80149097159E+02  0.14418146985E+03  0.12759279210E+04  0.12865559932E+04  0.47000000000E+01 0.  1.
         -5    1    5    5    0  501 -0.73981866925E+01  0.53925467374E+02  0.13677579546E+03  0.14728339153E+03  0.47000000000E+01 0.  1.
          1    1    1    2  502    0 -0.46738442515E+02  0.19956805768E+02 -0.14736416472E+03  0.15588121487E+03  0.00000000000E+00 0. -1.
          1    1    1    2  503    0 -0.85549595806E+01  0.34047285476E+02  0.75239122312E+03  0.75320976999E+03  0.00000000000E+00 0. -1.
<mgrwt>
<rscale>  0 0.42263279E+02</rscale>
<asrwt>0</asrwt>
<pdfrwt beam="1">  1        2 0.33455668E+00 0.35105626E+02</pdfrwt>
<pdfrwt beam="2">  1        2 0.91421809E-01 0.50880299E+02</pdfrwt>
<totfact> 0.63412835E+01</totfact>
</mgrwt>
</event>
<event>
13    1  0.1942437E-008  0.1833196E+03  0.7546771E-02  0.1237107E+00
          2   -1    0    0  502    0  0.00000000000E+00  0.00000000000E+00  0.17146391607E+04  0.17146391607E+04  0.00000000000E+00 0. -1.
          2   -1    0    0  503    0 -0.00000000000E+00 -0.00000000000E+00 -0.11296186086E+04  0.11296186086E+04  0.00000000000E+00 0. -1.
         24    2    1    2    0    0  0.52937536352E+02 -0.22701289460E+02 -0.36801339663E+02  0.10507889880E+03  0.79809179139E+02 0.  0.
         24    2    1    2    0    0 -0.24483434744E+03 -0.14164250885E+03  0.21811756047E+03  0.36797483357E+03  0.88451964089E+02 0.  0.
         25    2    1    2    0    0 -0.13541201872E+03 -0.56899632713E+02  0.98009081805E+03  0.99888779687E+03  0.12499934442E+03 0.  0.
        -11    1    4    4    0    0 -0.23948195623E+03 -0.11304647522E+03  0.20938711983E+03  0.33760047226E+03  0.00000000000E+00 0.  1.
         12    1    4    4    0    0 -0.53523912179E+01 -0.28596033631E+02  0.87304406385E+01  0.30374361309E+02  0.00000000000E+00 0. -1.
        -11    1    3    3    0    0 -0.14608666914E+02 -0.21139836573E+02 -0.26182022190E+02  0.36685203084E+02  0.00000000000E+00 0.  1.
         12    1    3    3    0    0  0.67546203266E+02 -0.15614528868E+01 -0.10619317473E+02  0.68393695721E+02  0.00000000000E+00 0. -1.
          5    1    5    5  501    0 -0.73963542732E+00 -0.35174482387E+02  0.45376394579E+03  0.45515008489E+03  0.47000000000E+01 0. -1.
         -5    1    5    5    0  501 -0.13467238329E+03 -0.21725150327E+02  0.52632687226E+03  0.54373771199E+03  0.47000000000E+01 0. -1.
          1    1    1    2  502    0  0.46914055654E+02  0.69046728313E+02  0.36703599820E+03  0.37640909033E+03  0.00000000000E+00 0. -1.
          1    1    1    2  503    0  0.28039477416E+03  0.15219670272E+03 -0.94342248496E+03  0.99590714970E+03  0.00000000000E+00 0. -1.
<mgrwt>
<rscale>  0 0.12370502E+03</rscale>
<asrwt>0</asrwt>
<pdfrwt beam="1">  1        2 0.25215282E+00 0.83476819E+02</pdfrwt>
<pdfrwt beam="2">  1        2 0.16612038E+00 0.18331955E+03</pdfrwt>
<totfact> 0.47869949E+01</totfact>
</mgrwt>
</event>
<event>
13    1  0.1942437E-008  0.3223470E+03  0.7546771E-02  0.1286367E+00
          2   -1    0    0  503    0  0.00000000000E+00  0.00000000000E+00  0.28132250981E+04  0.28132250981E+04  0.00000000000E+00 0. -1.
          2   -1    0    0  502    0 -0.00000000000E+00 -0.00000000000E+00 -0.21008539572E+04  0.21008539572E+04  0.00000000000E+00 0. -1.
         24    2    1    2    0    0  0.39702566921E+02  0.24381591151E+02 -0.32287859993E+03  0.33605153210E+03  0.80680147011E+02 0.  0.
         24    2    1    2    0    0 -0.13285305455E+03 -0.14544126748E+03 -0.43278331223E+03  0.48149400667E+03  0.75709885230E+02 0.  0.
         25    2    1    2    0    0  0.32547114011E+03 -0.10645440717E+03 -0.62965990792E+03  0.72757053820E+03  0.12499313802E+03 0.  0.
        -11    1    4    4    0    0 -0.27222700178E+02 -0.44011995616E+02 -0.19910189409E+03  0.20571751358E+03  0.00000000000E+00 0.  1.
         12    1    4    4    0    0 -0.10563035437E+03 -0.10142927186E+03 -0.23368141814E+03  0.27577649309E+03  0.00000000000E+00 0. -1.
        -13    1    3    3    0    0  0.48934358111E+02  0.20019645598E+02 -0.10156415546E+03  0.11450168246E+03  0.00000000000E+00 0.  1.
         14    1    3    3    0    0 -0.92317911892E+01  0.43619455531E+01 -0.22131444448E+03  0.22154984963E+03  0.00000000000E+00 0. -1.
          5    1    5    5  501    0  0.11331866160E+02  0.12374503199E+02 -0.91820487766E+02  0.93459250444E+02  0.47000000000E+01 0. -1.
         -5    1    5    5    0  501  0.31413927395E+03 -0.11882891037E+03 -0.53783942016E+03  0.63411128775E+03  0.47000000000E+01 0. -1.
          1    1    1    2  502    0 -0.22984527569E+02 -0.18155580321E+02 -0.62576301701E+03  0.62644813597E+03  0.00000000000E+00 0. -1.
          1    1    1    2  503    0 -0.20933612492E+03  0.24566966382E+03  0.27234559779E+04  0.27425148424E+04  0.00000000000E+00 0. -1.
<mgrwt>
<rscale>  0 0.97167876E+02</rscale>
<asrwt>0</asrwt>
<pdfrwt beam="1">  1        2 0.41370957E+00 0.32234701E+03</pdfrwt>
<pdfrwt beam="2">  1        2 0.30894911E+00 0.29290162E+02</pdfrwt>
<totfact> 0.45633583E+00</totfact>
</mgrwt>
</event>
<event>
13    1  0.1942437E-008  0.5901280E+02  0.7546771E-02  0.1405265E+00
          2   -1    0    0  503    0  0.00000000000E+00  0.00000000000E+00  0.45127097423E+03  0.45127097423E+03  0.00000000000E+00 0. -1.
          2   -1    0    0  502    0 -0.00000000000E+00 -0.00000000000E+00 -0.16519626761E+04  0.16519626761E+04  0.00000000000E+00 0. -1.
         24    2    1    2    0    0  0.48910117178E+02  0.82493864587E+02 -0.81296817587E+03  0.82267195518E+03  0.81697329242E+02 0.  0.
         24    2    1    2    0    0  0.75157480327E+01  0.36911092469E+01 -0.25192141242E+01  0.80962605319E+02  0.80489044374E+02 0.  0.
         25    2    1    2    0    0 -0.41131204536E+02 -0.87755409848E+02  0.13887735193E+03  0.21049108653E+03  0.12500716254E+03 0.  0.
        -11    1    3    3    0    0  0.46034251586E+02  0.26739700980E+01 -0.29819077558E+03  0.30173505113E+03  0.00000000000E+00 0.  1.
         12    1    3    3    0    0  0.28758655922E+01  0.79819894489E+02 -0.51477740028E+03  0.52093690405E+03  0.00000000000E+00 0. -1.
        -13    1    4    4    0    0  0.39291867408E+02  0.20641227976E+02  0.31918945915E+01  0.44498307023E+02  0.00000000000E+00 0.  1.
         14    1    4    4    0    0 -0.31776119376E+02 -0.16950118729E+02 -0.57111087157E+01  0.36464298297E+02  0.00000000000E+00 0. -1.
          5    1    5    5  501    0 -0.12627848200E+02 -0.71010240967E+02  0.15675511511E+03  0.17261568001E+03  0.47000000000E+01 0. -1.
         -5    1    5    5    0  501 -0.28503356335E+02 -0.16745168880E+02 -0.17877763177E+02  0.37875406525E+02  0.47000000000E+01 0. -1.
          1    1    1    2  502    0  0.47336679862E+01  0.57329567701E+02 -0.75170377790E+03  0.75390162266E+03  0.00000000000E+00 0. -1.
          1    1    1    2  503    0 -0.20028328661E+02 -0.55759131688E+02  0.22762211405E+03  0.23520638069E+03  0.00000000000E+00 0. -1.
<mgrwt>
<rscale>  0 0.58263982E+02</rscale>
<asrwt>0</asrwt>
<pdfrwt beam="1">  1        2 0.66363379E-01 0.59012801E+02</pdfrwt>
<pdfrwt beam="2">  1        2 0.24293569E+00 0.57524664E+02</pdfrwt>
<totfact> 0.16360231E+02</totfact>
</mgrwt>
</event>
<event>
13    1  0.1942437E-008  0.2821416E+02  0.7546771E-02  0.1654088E+00
         -1   -1    0    0    0  501 -0.00000000000E+00  0.00000000000E+00  0.46478016616E+03  0.46478016616E+03  0.00000000000E+00 0.  1.
          2   -1    0    0  503    0  0.00000000000E+00 -0.00000000000E+00 -0.26064422152E+04  0.26064422152E+04  0.00000000000E+00 0. -1.
         24    2    1    2    0    0  0.23615098573E+02  0.99055056511E+02  0.18470919252E+03  0.22560447403E+03  0.80064447795E+02 0.  0.
         24    2    1    2    0    0 -0.11203723629E+02 -0.17893360445E+03  0.15756714901E+03  0.25148153670E+03  0.79201001444E+02 0.  0.
         25    2    1    2    0    0  0.59918193401E+01  0.82981237940E+02 -0.13843242765E+04  0.13924441988E+04  0.12500142622E+03 0.  0.
        -11    1    3    3    0    0  0.38121343902E+02  0.10244034122E+02  0.52814348476E+02  0.65935821076E+02  0.00000000000E+00 0.  1.
         12    1    3    3    0    0 -0.14506245329E+02  0.88811022389E+02  0.13189484405E+03  0.15966865296E+03  0.00000000000E+00 0. -1.
        -11    1    4    4    0    0 -0.31469441620E+02 -0.13662585268E+03  0.14750022969E+03  0.20350249909E+03  0.00000000000E+00 0.  1.
         12    1    4    4    0    0  0.20265717991E+02 -0.42307751771E+02  0.10066919316E+02  0.47979037612E+02  0.00000000000E+00 0. -1.
          5    1    5    5  502    0 -0.10015880587E+02  0.11305939597E+02 -0.17305231666E+02  0.23445749660E+02  0.47000000000E+01 0. -1.
         -5    1    5    5    0  502  0.16007699927E+02  0.71675298343E+02 -0.13670190449E+04  0.13689984492E+04  0.47000000000E+01 0. -1.
          1    1    1    2  503    0 -0.20046674158E+02  0.19864026788E+02 -0.11478739622E+04  0.11482208332E+04  0.00000000000E+00 0. -1.
         -2    1    1    2    0  501  0.16434798738E+01 -0.22966716786E+02  0.48259848155E+02  0.53471338584E+02  0.00000000000E+00 0.  1.
<mgrwt>
<rscale>  0 0.25488107E+02</rscale>
<asrwt>0</asrwt>
<pdfrwt beam="2">  1        2 0.38330032E+00 0.28214161E+02</pdfrwt>
<pdfrwt beam="1">  1       -1 0.68350026E-01 0.23025445E+02</pdfrwt>
<totfact> 0.15158417E+01</totfact>
</mgrwt>
</event>
<event>
13    1  0.1942437E-008  0.7874088E+02  0.7546771E-02  0.1341675E+00
          2   -1    0    0  502    0  0.00000000000E+00  0.00000000000E+00  0.72415610402E+02  0.72415610402E+02  0.00000000000E+00 0. -1.
          2   -1    0    0  503    0 -0.00000000000E+00 -0.00000000000E+00 -0.24688895974E+04  0.24688895974E+04  0.00000000000E+00 0. -1.
         24    2    1    2    0    0  0.56105438089E+02 -0.90131433934E+01 -0.43430753238E+03  0.44550708908E+03  0.81390888936E+02 0.  0.
         24    2    1    2    0    0  0.19494374508E+02  0.86644191293E+01 -0.30228516355E+03  0.31322287376E+03  0.79228440284E+02 0.  0.
         25    2    1    2    0    0 -0.54248462255E+02 -0.15134172886E+02 -0.25857310654E+03  0.29267132497E+03  0.12499805673E+03 0.  0.
        -11    1    4    4    0    0  0.27793395212E+02 -0.28216615959E+02 -0.20618735204E+03  0.20995683931E+03  0.00000000000E+00 0.  1.
         12    1    4    4    0    0 -0.82990207039E+01  0.36881035088E+02 -0.96097811509E+02  0.10326603445E+03  0.00000000000E+00 0. -1.
        -13    1    3    3    0    0 -0.17095130681E+02 -0.18141786526E+02 -0.90168726542E+02  0.93550880047E+02  0.00000000000E+00 0.  1.
         14    1    3    3    0    0  0.73200568770E+02  0.91286431323E+01 -0.34413880584E+03  0.35195620903E+03  0.00000000000E+00 0. -1.
          5    1    5    5  501    0  0.75861552873E+01 -0.49462933983E+02 -0.17984588121E+03  0.18673714837E+03  0.47000000000E+01 0. -1.
         -5    1    5    5    0  501 -0.61834617543E+02  0.34328761097E+02 -0.78727225328E+02  0.10593417660E+03  0.47000000000E+01 0. -1.
          1    1    1    2  502    0  0.52049448238E+02  0.50902932974E+02  0.12397563342E+02  0.73850885060E+02  0.00000000000E+00 0. -1.
          1    1    1    2  503    0 -0.73400798581E+02 -0.35420035824E+02 -0.14137057479E+04  0.14160530350E+04  0.00000000000E+00 0. -1.
<mgrwt>
<rscale>  0 0.75713668E+02</rscale>
<asrwt>0</asrwt>
<pdfrwt beam="1">  1        2 0.10649355E-01 0.72802841E+02</pdfrwt>
<pdfrwt beam="2">  1        2 0.36307198E+00 0.78740877E+02</pdfrwt>
<totfact> 0.47324117E+02</totfact>
</mgrwt>
</event>
<event>
13    1  0.1942437E-008  0.1118335E+03  0.7546771E-02  0.1417724E+00
          2   -1    0    0  502    0  0.00000000000E+00  0.00000000000E+00  0.34764981675E+04  0.34764981675E+04  0.00000000000E+00 0. -1.
          2   -1    0    0  503    0 -0.00000000000E+00 -0.00000000000E+00 -0.41222979628E+03  0.41222979628E+03  0.00000000000E+00 0. -1.
         24    2    1    2    0    0 -0.34417924649E+02 -0.92749088586E+02  0.51120079826E+02  0.13731931646E+03  0.80351385428E+02 0.  0.
         24    2    1    2    0    0  0.81773328516E+02 -0.73328098162E+02  0.39512781933E+03  0.41766202239E+03  0.79067591974E+02 0.  0.
         25    2    1    2    0    0 -0.16328937846E+03  0.13344294737E+03  0.10781255673E+04  0.11056434866E+04  0.12498935721E+03 0.  0.
        -11    1    3    3    0    0  0.17799346292E+02 -0.27217832289E+02 -0.95214121099E+01  0.33886345502E+02  0.00000000000E+00 0.  1.
         12    1    3    3    0    0 -0.52217270941E+02 -0.65531256297E+02  0.60641491936E+02  0.10343297096E+03  0.00000000000E+00 0. -1.
        -13    1    4    4    0    0  0.34985076377E+02 -0.80300436117E+02  0.27223682728E+03  0.28598077861E+03  0.00000000000E+00 0.  1.
         14    1    4    4    0    0  0.46788252139E+02  0.69723379549E+01  0.12289099205E+03  0.13168124378E+03  0.00000000000E+00 0. -1.
          5    1    5    5  501    0 -0.76138158306E+02 -0.10281355544E+02  0.33263820076E+03  0.34142786650E+03  0.47000000000E+01 0.  1.
         -5    1    5    5    0  501 -0.87151220157E+02  0.14372430291E+03  0.74548736652E+03  0.76421562014E+03  0.47000000000E+01 0.  1.
          1    1    1    2  502    0 -0.93108374348E+01 -0.25927303577E+02  0.18700054391E+04  0.18702083464E+04  0.00000000000E+00 0. -1.
          1    1    1    2  503    0  0.12524481203E+03  0.58561542955E+02 -0.33011053426E+03  0.35789479192E+03  0.00000000000E+00 0. -1.
<mgrwt>
<rscale>  0 0.55505296E+02</rscale>
<asrwt>0</asrwt>
<pdfrwt beam="1">  1        2 0.51124971E+00 0.27548444E+02</pdfrwt>
<pdfrwt beam="2">  1        2 0.60622031E-01 0.11183346E+03</pdfrwt>
<totfact> 0.25591753E+01</totfact>
</mgrwt>
</event>
<event>
13    1  0.1942437E-008  0.1389117E+03  0.7546771E-02  0.1313257E+00
          2   -1    0    0  503    0  0.00000000000E+00  0.00000000000E+00  0.13655480992E+04  0.13655480992E+04  0.00000000000E+00 0. -1.
          2   -1    0    0  502    0 -0.00000000000E+00 -0.00000000000E+00 -0.12727666785E+04  0.12727666785E+04  0.00000000000E+00 0. -1.
         24    2    1    2    0    0  0.10128870588E+03 -0.39221599962E+02 -0.13482876317E+03  0.19082176728E+03  0.80227274945E+02 0.  0.
         24    2    1    2    0    0 -0.13990483682E+03 -0.12835594128E+03 -0.18450447891E+03  0.27558446937E+03  0.76526374488E+02 0.  0.
         25    2    1    2    0    0  0.11427151539E+03  0.23408029756E+03  0.56902144225E+03  0.63816795328E+03  0.12498547884E+03 0.  0.
        -11    1    4    4    0    0 -0.24643961011E+02 -0.71479040644E+02 -0.58555948042E+02  0.95631465099E+02  0.00000000000E+00 0.  1.
         12    1    4    4    0    0 -0.11526087581E+03 -0.56876900634E+02 -0.12594853087E+03  0.17995300427E+03  0.00000000000E+00 0. -1.
        -13    1    3    3    0    0  0.34870862723E+02  0.52621240889E+01 -0.14169256015E+01  0.35294117004E+02  0.00000000000E+00 0.  1.
         14    1    3    3    0    0  0.66417843160E+02 -0.44483724051E+02 -0.13341183757E+03  0.15552765027E+03  0.00000000000E+00 0. -1.
          5    1    5    5  501    0  0.15698929630E+02 -0.11576391514E+02  0.75540899756E+02  0.78160007472E+02  0.47000000000E+01 0. -1.
         -5    1    5    5    0  501  0.98572585755E+02  0.24565668907E+03  0.49348054249E+03  0.56000794581E+03  0.47000000000E+01 0. -1.
          1    1    1    2  502    0 -0.10138923057E+03 -0.11288326967E+03 -0.83747470232E+03  0.85110885653E+03  0.00000000000E+00 0. -1.
          1    1    1    2  503    0  0.25733846127E+02  0.46380513352E+02  0.68056792286E+03  0.68263173123E+03  0.00000000000E+00 0. -1.
<mgrwt>
<rscale>  0 0.85837426E+02</rscale>
<asrwt>0</asrwt>
<pdfrwt beam="1">  1        2 0.20081590E+00 0.53041332E+02</pdfrwt>
<pdfrwt beam="2">  1        2 0.18717157E+00 0.13891174E+03</pdfrwt>
<totfact> 0.62296395E+01</totfact>
</mgrwt>
</event>
<event>
13    1  0.1942437E-008  0.1120028E+03  0.7546771E-02  0.1376606E+00
          2   -1    0    0  503    0  0.00000000000E+00  0.00000000000E+00  0.18511532890E+04  0.18511532890E+04  0.00000000000E+00 0. -1.
          2   -1    0    0  502    0 -0.00000000000E+00 -0.00000000000E+00 -0.10434300550E+04  0.10434300550E+04  0.00000000000E+00 0. -1.
         24    2    1    2    0    0  0.80758304889E+02 -0.53401276757E+02 -0.20278686106E+03  0.23863684142E+03  0.80320799903E+02 0.  0.
         24    2    1    2    0    0  0.39203888106E+02  0.35720845606E+01 -0.10474153424E+03  0.13789867949E+03  0.80594988551E+02 0.  0.
         25    2    1    2    0    0 -0.16337795464E+02 -0.10626108006E+03  0.10389075061E+04  0.10519083841E+04  0.12499640671E+03 0.  0.
        -11    1    4    4    0    0  0.20277612802E+02 -0.11825060974E+02  0.62221666486E+01  0.24284336635E+02  0.00000000000E+00 0.  1.
         12    1    4    4    0    0  0.18926275304E+02  0.15397145535E+02 -0.11096370089E+03  0.11361434286E+03  0.00000000000E+00 0. -1.
        -11    1    3    3    0    0  0.46275874309E+02 -0.41671960749E+02 -0.45336590634E+02  0.77028665483E+02  0.00000000000E+00 0.  1.
         12    1    3    3    0    0  0.34482430580E+02 -0.11729316008E+02 -0.15745027043E+03  0.16160817594E+03  0.00000000000E+00 0. -1.
          5    1    5    5  501    0 -0.69917426927E+02 -0.73413071689E+02  0.60663719024E+03  0.61506804198E+03  0.47000000000E+01 0.  1.
         -5    1    5    5    0  501  0.53579631463E+02 -0.32848008371E+02  0.43227031584E+03  0.43684034213E+03  0.47000000000E+01 0.  1.
          1    1    1    2  502    0 -0.10231709425E+03  0.11796612023E+03 -0.68564170521E+03  0.70319936094E+03  0.00000000000E+00 0. -1.
          1    1    1    2  503    0 -0.13073032794E+01  0.38124152024E+02  0.76198582843E+03  0.76294007808E+03  0.00000000000E+00 0. -1.
<mgrwt>
<rscale>  0 0.65364519E+02</rscale>
<asrwt>0</asrwt>
<pdfrwt beam="1">  1        2 0.27222843E+00 0.38146560E+02</pdfrwt>
<pdfrwt beam="2">  1        2 0.15344560E+00 0.11200277E+03</pdfrwt>
<totfact> 0.51193885E+01</totfact>
</mgrwt>
</event>
<event>
13    1  0.1942437E-008  0.6869239E+02  0.7546771E-02  0.1434347E+00
          2   -1    0    0  503    0  0.00000000000E+00  0.00000000000E+00  0.13170448294E+04  0.13170448294E+04  0.00000000000E+00 0. -1.
          2   -1    0    0  502    0 -0.00000000000E+00 -0.00000000000E+00 -0.16423082670E+04  0.16423082670E+04  0.00000000000E+00 0. -1.
         24    2    1    2    0    0 -0.53102372995E+02  0.27075248828E+01 -0.55859393685E+03  0.56693422015E+03  0.80994018212E+02 0.  0.
         24    2    1    2    0    0 -0.65981494478E+01  0.17283294197E+03 -0.35663298081E+03  0.40434252893E+03  0.79943957219E+02 0.  0.
         25    2    1    2    0    0 -0.10681047545E+02 -0.25656262677E+03 -0.16902649877E+03  0.33186327461E+03  0.12499923807E+03 0.  0.
        -13    1    3    3    0    0 -0.73205778103E+02 -0.85208974267E+01 -0.43905556003E+03  0.44519824397E+03  0.00000000000E+00 0.  1.
         14    1    3    3    0    0  0.20103405108E+02  0.11228422310E+02 -0.11953837682E+03  0.12173597619E+03  0.00000000000E+00 0. -1.
        -13    1    4    4    0    0  0.29065779991E+02  0.54046244384E+02 -0.16535044695E+03  0.17637059393E+03  0.00000000000E+00 0.  1.
         14    1    4    4    0    0 -0.35663929438E+02  0.11878669759E+03 -0.19128253386E+03  0.22797193500E+03  0.00000000000E+00 0. -1.
          5    1    5    5  501    0 -0.42908401057E+02 -0.35159810711E+02 -0.63487185451E+02  0.84439658260E+02  0.47000000000E+01 0. -1.
         -5    1    5    5    0  501  0.32227353512E+02 -0.22140281606E+03 -0.10553931332E+03  0.24742361635E+03  0.47000000000E+01 0. -1.
          1    1    1    2  502    0  0.30472834422E+02  0.25150424739E+02 -0.44676298524E+03  0.44850674742E+03  0.00000000000E+00 0. -1.
          1    1    1    2  503    0  0.39908735566E+02  0.55871735175E+02  0.12057529640E+04  0.12077063253E+04  0.00000000000E+00 0. -1.
<mgrwt>
<rscale>  0 0.52097228E+02</rscale>
<asrwt>0</asrwt>
<pdfrwt beam="1">  1        2 0.19368306E+00 0.68692394E+02</pdfrwt>
<pdfrwt beam="2">  1        2 0.24151592E+00 0.39511233E+02</pdfrwt>
<totfact> 0.46866175E+01</totfact>
</mgrwt>
</event>
<event>
13    1  0.1942437E-008  0.5425834E+02  0.7546771E-02  0.1429527E+00
          2   -1    0    0  503    0  0.00000000000E+00  0.00000000000E+00  0.18917991599E+03  0.18917991599E+03  0.00000000000E+00 0. -1.
          2   -1    0    0  502    0 -0.00000000000E+00 -0.00000000000E+00 -0.29170374088E+04  0.29170374088E+04  0.00000000000E+00 0. -1.
         24    2    1    2    0    0 -0.58549331432E+02  0.51543675498E+02 -0.41535046733E+03  0.43051246584E+03  0.82098707859E+02 0.  0.
         24    2    1    2    0    0 -0.11184586194E+02 -0.12194584927E+03 -0.61724900431E+03  0.63424034412E+03  0.79174463532E+02 0.  0.
         25    2    1    2    0    0  0.11875493640E+03  0.13048292878E+03 -0.23191499595E+03  0.31707924931E+03  0.12500462141E+03 0.  0.
        -11    1    3    3    0    0  0.83457623733E+01  0.44497583762E+02 -0.14401129181E+03  0.15096005723E+03  0.00000000000E+00 0.  1.
         12    1    3    3    0    0 -0.66895093806E+02  0.70460917357E+01 -0.27133917553E+03  0.27955240861E+03  0.00000000000E+00 0. -1.
        -11    1    4    4    0    0 -0.14455539186E+02 -0.90794083086E+01 -0.19482563029E+02  0.25903060255E+02  0.00000000000E+00 0.  1.
         12    1    4    4    0    0  0.32709529922E+01 -0.11286644096E+03 -0.59776644128E+03  0.60833728387E+03  0.00000000000E+00 0. -1.
          5    1    5    5  501    0  0.10424794099E+03  0.13719796488E+03 -0.13555739956E+03  0.21929161713E+03  0.47000000000E+01 0. -1.
         -5    1    5    5    0  501  0.14506995418E+02 -0.67150361021E+01 -0.96357596387E+02  0.97787632180E+02  0.47000000000E+01 0. -1.
          1    1    1    2  502    0  0.45670708971E+01 -0.51677051942E+02 -0.15877864555E+04  0.15886337539E+04  0.00000000000E+00 0. -1.
          1    1    1    2  503    0 -0.53588089676E+02 -0.84037030696E+01  0.12444343024E+03  0.13575151163E+03  0.00000000000E+00 0. -1.
<mgrwt>
<rscale>  0 0.53055062E+02</rscale>
<asrwt>0</asrwt>
<pdfrwt beam="1">  1        2 0.27820577E-01 0.54258338E+02</pdfrwt>
<pdfrwt beam="2">  1        2 0.42897608E+00 0.51878472E+02</pdfrwt>
<totfact> 0.10067559E+02</totfact>
</mgrwt>
</event>
<event>
13    1  0.1942437E-008  0.3725275E+02  0.7546771E-02  0.1681521E+00
          2   -1    0    0  503    0  0.00000000000E+00  0.00000000000E+00  0.21399460102E+04  0.21399460102E+04  0.00000000000E+00 0. -1.
          2   -1    0    0  502    0 -0.00000000000E+00 -0.00000000000E+00 -0.11117945177E+04  0.11117945177E+04  0.00000000000E+00 0. -1.
         24    2    1    2    0    0 -0.42156438710E+03 -0.47029258490E+03 -0.41925011076E+03  0.76251334584E+03  0.82245360527E+02 0.  0.
         24    2    1    2    0    0  0.44429819889E+03  0.41841454513E+03  0.30975618371E+03  0.69260926046E+03  0.10624063825E+03 0.  0.
         25    2    1    2    0    0 -0.59452155999E+02  0.48472962092E+02  0.81892582221E+03  0.83195493256E+03  0.12500128248E+03 0.  0.
        -11    1    3    3    0    0 -0.32324895188E+03 -0.34644629253E+03 -0.35394757592E+03  0.59143368605E+03  0.00000000000E+00 0.  1.
         12    1    3    3    0    0 -0.98315435223E+02 -0.12384629237E+03 -0.65302534846E+02  0.17107965979E+03  0.00000000000E+00 0. -1.
        -13    1    4    4    0    0  0.28637405457E+03  0.31927102867E+03  0.17834508815E+03  0.46449010683E+03  0.00000000000E+00 0.  1.
         14    1    4    4    0    0  0.15792414432E+03  0.99143516466E+02  0.13141109557E+03  0.22811915363E+03  0.00000000000E+00 0. -1.
          5    1    5    5  501    0 -0.50028448395E+02  0.53493066681E+02  0.20201342750E+03  0.21493224216E+03  0.47000000000E+01 0.  1.
         -5    1    5    5    0  501 -0.94237076041E+01 -0.50201045896E+01  0.61691239471E+03  0.61702269040E+03  0.47000000000E+01 0.  1.
          1    1    1    2  502    0  0.32703690219E+02  0.17844240860E+02 -0.32180939409E+03  0.32395869244E+03  0.00000000000E+00 0. -1.
          1    1    1    2  503    0  0.40146539978E+01 -0.14439163182E+02  0.64052899144E+03  0.64070429666E+03  0.00000000000E+00 0. -1.
<mgrwt>
<rscale>  0 0.23628433E+02</rscale>
<asrwt>0</asrwt>
<pdfrwt beam="1">  1        2 0.31469794E+00 0.14986890E+02</pdfrwt>
<pdfrwt beam="2">  1        2 0.16349919E+00 0.37252748E+02</pdfrwt>
<totfact> 0.41703994E+01</totfact>
</mgrwt>
</event>
<event>
13    1  0.1942437E-008  0.6398617E+02  0.7546771E-02  0.1504587E+00
          2   -1    0    0  503    0  0.00000000000E+00  0.00000000000E+00  0.47771519136E+03  0.47771519136E+03  0.00000000000E+00 0. -1.
          2   -1    0    0  502    0 -0.00000000000E+00 -0.00000000000E+00 -0.35433540366E+04  0.35433540366E+04  0.00000000000E+00 0. -1.
         24    2    1    2    0    0 -0.65240960879E+02  0.85278218399E+01 -0.35734588308E+03  0.37434142345E+03  0.90035073374E+02 0.  0.
         24    2    1    2    0    0  0.11207456840E+03  0.11525673921E+02 -0.15374513988E+03  0.20658919464E+03  0.79674194450E+02 0.  0.
         25    2    1    2    0    0  0.12479792067E+02  0.28988036971E+02  0.20038985680E+03  0.23828124353E+03  0.12500321922E+03 0.  0.
        -11    1    3    3    0    0  0.19065532851E+02  0.18290571222E+02 -0.95306785237E+02  0.98901076085E+02  0.00000000000E+00 0.  1.
         12    1    3    3    0    0 -0.84306493730E+02 -0.97627493817E+01 -0.26203909784E+03  0.27544034737E+03  0.00000000000E+00 0. -1.
        -13    1    4    4    0    0  0.39545380888E+01  0.26813153020E+02 -0.44664749740E+02  0.52244841044E+02  0.00000000000E+00 0.  1.
         14    1    4    4    0    0  0.10812003032E+03 -0.15287479099E+02 -0.10908039014E+03  0.15434435359E+03  0.00000000000E+00 0. -1.
          5    1    5    5  501    0 -0.43117913353E+02 -0.17267964788E+02  0.37104058070E+02  0.59633364697E+02  0.47000000000E+01 0.  1.
         -5    1    5    5    0  501  0.55597705421E+02  0.46256001759E+02  0.16328579873E+03  0.17864787884E+03  0.47000000000E+01 0.  1.
          1    1    1    2  502    0 -0.59535861086E+02 -0.23412081507E+02 -0.29773178386E+04  0.29780050632E+04  0.00000000000E+00 0. -1.
          1    1    1    2  503    0  0.22246149365E+00 -0.25629451225E+02  0.22238015954E+03  0.22385230313E+03  0.00000000000E+00 0. -1.
<mgrwt>
<rscale>  0 0.40496816E+02</rscale>
<asrwt>0</asrwt>
<pdfrwt beam="1">  1        2 0.70252237E-01 0.25630417E+02</pdfrwt>
<pdfrwt beam="2">  1        2 0.52108145E+00 0.63986166E+02</pdfrwt>
<totfact> 0.17041221E+01</totfact>
</mgrwt>
</event>
<event>
13    1  0.1942437E-008  0.6374239E+02  0.7546771E-02  0.1518735E+00
          2   -1    0    0  503    0  0.00000000000E+00  0.00000000000E+00  0.41616879037E+04  0.41616879037E+04  0.00000000000E+00 0. -1.
          2   -1    0    0  502    0 -0.00000000000E+00 -0.00000000000E+00 -0.21156343464E+04  0.21156343464E+04  0.00000000000E+00 0. -1.
         24    2    1    2    0    0  0.49539322917E+03  0.33742376957E+03 -0.54510113660E+03  0.81468102786E+03  0.85443994853E+02 0.  0.
         24    2    1    2    0    0 -0.18667979953E+03 -0.31791975551E+03  0.19735120390E+02  0.38226708164E+03  0.99077385046E+02 0.  0.
         25    2    1    2    0    0 -0.34661812877E+03 -0.36497074377E+02  0.53697992891E+03  0.65226428469E+03  0.12500035761E+03 0.  0.
        -11    1    4    4    0    0 -0.11164268011E+03 -0.27129351225E+03  0.17688103221E+02  0.29389985847E+03  0.00000000000E+00 0.  1.
         12    1    4    4    0    0 -0.75037119418E+02 -0.46626243264E+02  0.20470171692E+01  0.88367223170E+02  0.00000000000E+00 0. -1.
        -11    1    3    3    0    0  0.24117755724E+03  0.21065919019E+03 -0.26367017648E+03  0.41480823339E+03  0.00000000000E+00 0.  1.
         12    1    3    3    0    0  0.25421567193E+03  0.12676457938E+03 -0.28143096012E+03  0.39987279447E+03  0.00000000000E+00 0. -1.
          5    1    5    5  501    0 -0.13781679798E+03  0.32422037985E+02  0.14443573613E+03  0.20230776115E+03  0.47000000000E+01 0. -1.
         -5    1    5    5    0  501 -0.20880133080E+03 -0.68919112362E+02  0.39254419277E+03  0.44995652354E+03  0.47000000000E+01 0. -1.
          1    1    1    2  502    0 -0.15988998043E+02 -0.17059095713E+02 -0.11964064425E+04  0.11966348802E+04  0.00000000000E+00 0. -1.
          1    1    1    2  503    0  0.53893697180E+02  0.34052156034E+02  0.32308460872E+04  0.32314749757E+04  0.00000000000E+00 0. -1.
<mgrwt>
<rscale>  0 0.38605010E+02</rscale>
<asrwt>0</asrwt>
<pdfrwt beam="1">  1        2 0.61201293E+00 0.63742395E+02</pdfrwt>
<pdfrwt beam="2">  1        2 0.31112270E+00 0.23380779E+02</pdfrwt>
<totfact> 0.94514721E-01</totfact>
</mgrwt>
</event>
<event>
13    1  0.1942437E-008  0.6823469E+02  0.7546771E-02  0.1418537E+00
          2   -1    0    0  502    0  0.00000000000E+00  0.00000000000E+00  0.62505603724E+03  0.62505603724E+03  0.00000000000E+00 0. -1.
          2   -1    0    0  503    0 -0.00000000000E+00 -0.00000000000E+00 -0.37085037754E+04  0.37085037754E+04  0.00000000000E+00 0. -1.
         24    2    1    2    0    0 -0.20685193250E+03  0.17583575518E+03 -0.11895516827E+04  0.12227404962E+04  0.79719385109E+02 0.  0.
         24    2    1    2    0    0  0.47363878303E+02 -0.60708525278E+02 -0.25129725941E+03  0.27492353101E+03  0.80645975160E+02 0.  0.
         25    2    1    2    0    0  0.18349940022E+03 -0.34136447109E+02  0.20192195067E+03  0.30205194324E+03  0.12500230139E+03 0.  0.
        -13    1    3    3    0    0 -0.43722553409E+02  0.54740516628E+01 -0.13042447250E+03  0.13766688035E+03  0.00000000000E+00 0.  1.
         14    1    3    3    0    0 -0.16312937909E+03  0.17036170351E+03 -0.10591272102E+04  0.10850736158E+04  0.00000000000E+00 0. -1.
        -13    1    4    4    0    0  0.11932020634E+02 -0.72512211886E+02 -0.18034523325E+03  0.19474290012E+03  0.00000000000E+00 0.  1.
         14    1    4    4    0    0  0.35431857669E+02  0.11803686608E+02 -0.70952026155E+02  0.80180630896E+02  0.00000000000E+00 0. -1.
          5    1    5    5  501    0  0.13286628535E+03 -0.22766459826E+02  0.20973356887E+03  0.24936323182E+03  0.47000000000E+01 0.  1.
         -5    1    5    5    0  501  0.50633114865E+02 -0.11369987283E+02 -0.78116181987E+01  0.52688711416E+02  0.47000000000E+01 0.  1.
          1    1    1    2  502    0 -0.42203672484E+02 -0.15232743327E+02  0.34266707142E+03  0.34559211257E+03  0.00000000000E+00 0. -1.
          1    1    1    2  503    0  0.18192326468E+02 -0.65758039463E+02 -0.21871878181E+04  0.21882517297E+04  0.00000000000E+00 0. -1.
<mgrwt>
<rscale>  0 0.55331650E+02</rscale>
<asrwt>0</asrwt>
<pdfrwt beam="1">  1        2 0.91920007E-01 0.44868546E+02</pdfrwt>
<pdfrwt beam="2">  1        2 0.54536820E+00 0.68234694E+02</pdfrwt>
<totfact> 0.10071119E+01</totfact>
</mgrwt>
</event>
<event>
13    1  0.1942437E-008  0.6616436E+02  0.7546771E-02  0.1633024E+00
          2   -1    0    0  502    0  0.00000000000E+00  0.00000000000E+00  0.29110574054E+04  0.29110574054E+04  0.00000000000E+00 0. -1.
          2   -1    0    0  503    0 -0.00000000000E+00 -0.00000000000E+00 -0.76260946440E+02  0.76260946440E+02  0.00000000000E+00 0. -1.
         24    2    1    2    0    0  0.67080551678E+02 -0.15235775938E+02  0.11057788255E+02  0.10634811420E+03  0.80347479310E+02 0.  0.
         24    2    1    2    0    0 -0.27693852391E+02  0.60128041486E+01  0.44741659137E+03  0.46182071556E+03  0.11087679566E+03 0.  0.
         25    2    1    2    0    0 -0.19001701379E+02 -0.44780330707E+02  0.62781247133E+03  0.64198095498E+03  0.12499881889E+03 0.  0.
        -11    1    3    3    0    0 -0.57301878274E+01  0.22736534500E+02  0.52319268397E+01  0.24024115219E+02  0.00000000000E+00 0.  1.
         12    1    3    3    0    0  0.72810739505E+02 -0.37972310439E+02  0.58258614150E+01  0.82323998983E+02  0.00000000000E+00 0. -1.
        -11    1    4    4    0    0 -0.95207913013E+01 -0.52113715189E+02  0.18545805625E+03  0.19287606229E+03  0.00000000000E+00 0.  1.
         12    1    4    4    0    0 -0.18173061090E+02  0.58126519338E+02  0.26195853512E+03  0.26894465327E+03  0.00000000000E+00 0. -1.
          5    1    5    5  501    0 -0.11043152482E+02  0.42199300197E+02  0.27557567510E+03  0.27904618769E+03  0.47000000000E+01 0. -1.
         -5    1    5    5    0  501 -0.79585488974E+01 -0.86979630904E+02  0.35223679623E+03  0.36293476729E+03  0.47000000000E+01 0. -1.
          1    1    1    2  502    0 -0.30304634217E+02  0.58916019792E+02  0.17599807858E+04  0.17612273660E+04  0.00000000000E+00 0. -1.
          1    1    1    2  503    0  0.99196363097E+01 -0.49127172952E+01 -0.11471177753E+02  0.15941201171E+02  0.00000000000E+00 0. -1.
<mgrwt>
<rscale>  0 0.27063015E+02</rscale>
<asrwt>0</asrwt>
<pdfrwt beam="1">  1        2 0.42809660E+00 0.66164356E+02</pdfrwt>
<pdfrwt beam="2">  1        2 0.11214847E-01 0.11069507E+02</pdfrwt>
<totfact> 0.23287696E+02</totfact>
</mgrwt>
</event>
<event>
13    1  0.1942437E-008  0.1543803E+03  0.7546771E-02  0.1230223E+00
          2   -1    0    0  503    0  0.00000000000E+00  0.00000000000E+00  0.14023003143E+04  0.14023003143E+04  0.00000000000E+00 0. -1.
          2   -1    0    0  502    0 -0.00000000000E+00 -0.00000000000E+00 -0.21879568729E+04  0.21879568729E+04  0.00000000000E+00 0. -1.
         24    2    1    2    0    0 -0.50624781268E+02  0.19627002208E+02 -0.39186218679E+03  0.40383944494E+03  0.81130981502E+02 0.  0.
         24    2    1    2    0    0 -0.50497151278E+02 -0.12765363063E+03 -0.92078048459E+02  0.18437588080E+03  0.81674272043E+02 0.  0.
         25    2    1    2    0    0  0.10660788760E+03  0.14695066020E+03 -0.11902003935E+03  0.25049643749E+03  0.12499182851E+03 0.  0.
        -11    1    3    3    0    0 -0.57844071499E+02  0.23154039454E+02 -0.39079895454E+03  0.39573459417E+03  0.00000000000E+00 0.  1.
         12    1    3    3    0    0  0.72192902311E+01 -0.35270372463E+01 -0.10632322455E+01  0.81048507689E+01  0.00000000000E+00 0. -1.
        -13    1    4    4    0    0  0.53181679958E+01  0.90461630668E+01 -0.13546259706E+02  0.17135259820E+02  0.00000000000E+00 0.  1.
         14    1    4    4    0    0 -0.55815319274E+02 -0.13669979369E+03 -0.78531788752E+02  0.16724062098E+03  0.00000000000E+00 0. -1.
          5    1    5    5  501    0  0.33098086751E+02 -0.16977920323E+02 -0.54157468465E+01  0.37883419051E+02  0.47000000000E+01 0. -1.
         -5    1    5    5    0  501  0.73509800849E+02  0.16392858053E+03 -0.11360429250E+03  0.21261301844E+03  0.47000000000E+01 0. -1.
          1    1    1    2  502    0  0.65856026807E+02  0.97270635475E+02 -0.14601526511E+04  0.14648700820E+04  0.00000000000E+00 0. -1.
          1    1    1    2  503    0 -0.71341981861E+02 -0.13619466726E+03  0.12774563671E+04  0.12866753420E+04  0.00000000000E+00 0. -1.
<mgrwt>
<rscale>  0 0.12815254E+03</rscale>
<asrwt>0</asrwt>
<pdfrwt beam="1">  1        2 0.20622064E+00 0.15438028E+03</pdfrwt>
<pdfrwt beam="2">  1        2 0.32175836E+00 0.10638065E+03</pdfrwt>
<totfact> 0.19983808E+01</totfact>
</mgrwt>
</event>
<event>
13    1  0.1942437E-008  0.1280414E+03  0.7546771E-02  0.1286807E+00
          2   -1    0    0  503    0  0.00000000000E+00  0.00000000000E+00  0.32100450469E+04  0.32100450469E+04  0.00000000000E+00 0. -1.
          2   -1    0    0  502    0 -0.00000000000E+00 -0.00000000000E+00 -0.29125548306E+03  0.29125548306E+03  0.00000000000E+00 0. -1.
         24    2    1    2    0    0 -0.82187833437E+02 -0.13981982518E+03  0.55236070665E+02  0.18923367269E+03  0.80336392114E+02 0.  0.
         24    2    1    2    0    0 -0.62804086685E+02  0.21634159933E+03  0.95652380952E+02  0.25770067129E+03  0.80698309110E+02 0.  0.
         25    2    1    2    0    0  0.14925154416E+03 -0.22351760705E+03  0.93058102600E+03  0.97664835021E+03  0.12499923965E+03 0.  0.
        -11    1    4    4    0    0 -0.37532848439E+02  0.25891885090E+02  0.70657245364E+01  0.46141401026E+02  0.00000000000E+00 0.  1.
         12    1    4    4    0    0 -0.25271238246E+02  0.19044971424E+03  0.88586656415E+02  0.21155927026E+03  0.00000000000E+00 0. -1.
        -11    1    3    3    0    0 -0.26692437690E+02 -0.12939020345E+02 -0.15781035545E+02  0.33599785121E+02  0.00000000000E+00 0.  1.
         12    1    3    3    0    0 -0.55495395747E+02 -0.12688080483E+03  0.71017106210E+02  0.15563388757E+03  0.00000000000E+00 0. -1.
          5    1    5    5  501    0  0.34456448221E+02 -0.83171628790E+02  0.14775206536E+03  0.17308243550E+03  0.47000000000E+01 0. -1.
         -5    1    5    5    0  501  0.11479509594E+03 -0.14034597826E+03  0.78282896064E+03  0.80356591471E+03  0.47000000000E+01 0. -1.
          1    1    1    2  502    0  0.60696122469E+02  0.11274337951E+03 -0.85197953498E+02  0.15379785495E+03  0.00000000000E+00 0. -1.
          1    1    1    2  503    0 -0.64955746507E+02  0.34252453381E+02  0.19225180397E+04  0.19239199808E+04  0.00000000000E+00 0. -1.
<mgrwt>
<rscale>  0 0.96966654E+02</rscale>
<asrwt>0</asrwt>
<pdfrwt beam="1">  1        2 0.47206543E+00 0.73433504E+02</pdfrwt>
<pdfrwt beam="2">  1        2 0.42831690E-01 0.12804144E+03</pdfrwt>
<totfact> 0.42856562E+01</totfact>
</mgrwt>
</event>
<event>
13    1  0.1942437E-008  0.9400991E+02  0.7546771E-02  0.1389500E+00
          2   -1    0    0  502    0  0.00000000000E+00  0.00000000000E+00  0.88951085202E+03  0.88951085202E+03  0.00000000000E+00 0. -1.
          2   -1    0    0  503    0 -0.00000000000E+00 -0.00000000000E+00 -0.34957347002E+04  0.34957347002E+04  0.00000000000E+00 0. -1.
         24    2    1    2    0    0 -0.19428013335E+03  0.11683785064E+03 -0.10701701827E+03  0.26401562886E+03  0.82799495931E+02 0.  0.
         24    2    1    2    0    0  0.74671267466E+02  0.43092574422E+02  0.49080434395E+02  0.12847048983E+03  0.81627259909E+02 0.  0.
         25    2    1    2    0    0  0.11750111601E+03 -0.29353105899E+03  0.23650247022E+03  0.41415674909E+03  0.12500159815E+03 0.  0.
        -11    1    3    3    0    0 -0.35232434812E+02  0.40706013246E+02  0.66186797228E+01  0.54241228770E+02  0.00000000000E+00 0.  1.
         12    1    3    3    0    0 -0.15904769854E+03  0.76131837396E+02 -0.11363569799E+03  0.20977440009E+03  0.00000000000E+00 0. -1.
        -11    1    4    4    0    0  0.10078354161E+02  0.50752072063E+02  0.10352126775E+02  0.52768480839E+02  0.00000000000E+00 0.  1.
         12    1    4    4    0    0  0.64592913306E+02 -0.76594976412E+01  0.38728307621E+02  0.75702008986E+02  0.00000000000E+00 0. -1.
          5    1    5    5  501    0  0.13838275898E+03 -0.28044555096E+03  0.23003460872E+03  0.38824928364E+03  0.47000000000E+01 0.  1.
         -5    1    5    5    0  501 -0.20881642972E+02 -0.13085508031E+02  0.64678614931E+01  0.25907465448E+02  0.47000000000E+01 0.  1.
          1    1    1    2  502    0  0.90993201245E+01  0.39906244881E+02  0.39515555185E+03  0.39726970204E+03  0.00000000000E+00 0. -1.
          1    1    1    2  503    0 -0.69915702478E+01  0.93694389044E+02 -0.31799452864E+04  0.31813329824E+04  0.00000000000E+00 0. -1.
<mgrwt>
<rscale>  0 0.62031224E+02</rscale>
<asrwt>0</asrwt>
<pdfrwt beam="1">  1        2 0.13081042E+00 0.40930502E+02</pdfrwt>
<pdfrwt beam="2">  1        2 0.51407863E+00 0.94009910E+02</pdfrwt>
<totfact> 0.85345084E+00</totfact>
</mgrwt>
</event>
<event>
13    1  0.1942437E-008  0.2053221E+03  0.7546771E-02  0.1341695E+00
          2   -1    0    0  503    0  0.00000000000E+00  0.00000000000E+00  0.29876024064E+04  0.29876024064E+04  0.00000000000E+00 0. -1.
          2   -1    0    0  502    0 -0.00000000000E+00 -0.00000000000E+00 -0.26958939945E+04  0.26958939945E+04  0.00000000000E+00 0. -1.
         24    2    1    2    0    0  0.15699233312E+03 -0.36252561354E+03 -0.19717786106E+03  0.44861882185E+03  0.79424966449E+02 0.  0.
         24    2    1    2    0    0 -0.10507265419E+03  0.20583248743E+03 -0.82269955476E+02  0.25872778466E+03  0.82246248790E+02 0.  0.
         25    2    1    2    0    0 -0.25423019491E+02 -0.72588089644E+02  0.26584855013E+03  0.30367020553E+03  0.12499912577E+03 0.  0.
        -11    1    4    4    0    0 -0.11002678609E+03  0.20986134477E+03 -0.85059664410E+02  0.25175945701E+03  0.00000000000E+00 0.  1.
         12    1    4    4    0    0  0.49541319039E+01 -0.40288573309E+01  0.27897089339E+01  0.69683276509E+01  0.00000000000E+00 0. -1.
        -13    1    3    3    0    0  0.16446042995E+03 -0.34919181695E+03 -0.18083450481E+03  0.42624321247E+03  0.00000000000E+00 0.  1.
         14    1    3    3    0    0 -0.74680968303E+01 -0.13333796595E+02 -0.16343356254E+02  0.22375609389E+02  0.00000000000E+00 0. -1.
          5    1    5    5  501    0  0.73971584830E+00 -0.64222324603E+02  0.26808729276E+03  0.27571351199E+03  0.47000000000E+01 0.  1.
         -5    1    5    5    0  501 -0.26162735339E+02 -0.83657650410E+01 -0.22387426256E+01  0.27956693540E+02  0.47000000000E+01 0.  1.
          1    1    1    2  502    0 -0.36142656506E+02  0.20308568151E+03 -0.21786357704E+04  0.21883792874E+04  0.00000000000E+00 0. -1.
          1    1    1    2  503    0  0.96459970636E+01  0.26195534238E+02  0.24839434487E+04  0.24841003015E+04  0.00000000000E+00 0. -1.
<mgrwt>
<rscale>  0 0.75707199E+02</rscale>
<asrwt>0</asrwt>
<pdfrwt beam="1">  1        2 0.43935329E+00 0.27915073E+02</pdfrwt>
<pdfrwt beam="2">  1        2 0.39645500E+00 0.20532205E+03</pdfrwt>
<totfact> 0.21468019E+00</totfact>
</mgrwt>
</event>
<event>
13    1  0.1942437E-008  0.7990030E+02  0.7546771E-02  0.1360257E+00
          2   -1    0    0  502    0  0.00000000000E+00  0.00000000000E+00  0.27095909852E+04  0.27095909852E+04  0.00000000000E+00 0. -1.
          4   -1    0    0  503    0 -0.00000000000E+00 -0.00000000000E+00 -0.31898046238E+03  0.31898046238E+03  0.00000000000E+00 0. -1.
         24    2    1    2    0    0  0.13626059919E+02 -0.10713722993E+02 -0.12413989543E+03  0.14890584839E+03  0.80385226755E+02 0.  0.
         24    2    1    2    0    0  0.91562637409E+00  0.12810748719E+01  0.16111034186E+03  0.18055412729E+03  0.81490926509E+02 0.  0.
         25    2    1    2    0    0  0.36072735546E+02  0.46978374828E+02  0.97096069313E+03  0.98076398640E+03  0.12500047786E+03 0.  0.
        -11    1    4    4    0    0 -0.30397270286E+02 -0.14443381549E+02  0.30819170827E+02  0.45633612632E+02  0.00000000000E+00 0.  1.
         12    1    4    4    0    0  0.31312896660E+02  0.15724456421E+02  0.13029117103E+03  0.13492051466E+03  0.00000000000E+00 0. -1.
        -13    1    3    3    0    0  0.46486017226E+02 -0.10549413879E+01 -0.57220746652E+02  0.73731109759E+02  0.00000000000E+00 0.  1.
         14    1    3    3    0    0 -0.32859957307E+02 -0.96587816054E+01 -0.66919148774E+02  0.75174738636E+02  0.00000000000E+00 0. -1.
          5    1    5    5  501    0  0.15802453848E+02  0.28022176450E+02  0.51705166025E+02  0.61077607307E+02  0.47000000000E+01 0. -1.
         -5    1    5    5    0  501  0.20270281699E+02  0.18956198378E+02  0.91925552710E+03  0.91968637909E+03  0.47000000000E+01 0. -1.
          1    1    1    2  502    0 -0.63887679631E+01 -0.79909131593E+02  0.15438519588E+04  0.15459318085E+04  0.00000000000E+00 0. -1.
          3    1    1    2  503    0 -0.44225653876E+02  0.42363404886E+02 -0.16117257562E+03  0.17241567698E+03  0.00000000000E+00 0. -1.
<mgrwt>
<rscale>  0 0.69951725E+02</rscale>
<asrwt>0</asrwt>
<pdfrwt beam="1">  1        2 0.39846925E+00 0.79900301E+02</pdfrwt>
<pdfrwt beam="2">  1        4 0.46908893E-01 0.61241869E+02</pdfrwt>
<totfact> 0.89769035E+00</totfact>
</mgrwt>
</event>
<event>
13    1  0.1942437E-008  0.5431448E+02  0.7546771E-02  0.1449368E+00
          2   -1    0    0  502    0  0.00000000000E+00  0.00000000000E+00  0.23084275185E+04  0.23084275185E+04  0.00000000000E+00 0. -1.
          2   -1    0    0  503    0 -0.00000000000E+00 -0.00000000000E+00 -0.28225239609E+04  0.28225239609E+04  0.00000000000E+00 0. -1.
         24    2    1    2    0    0 -0.22074948040E+03 -0.25087225198E+03 -0.38676043755E+03  0.51712216653E+03  0.78514197136E+02 0.  0.
         24    2    1    2    0    0 -0.65797965398E+03  0.86708702232E+03 -0.13024699449E+04  0.16991926277E+04  0.77784955065E+02 0.  0.
         25    2    1    2    0    0  0.90172338354E+03 -0.63506693774E+03  0.12796066740E+04  0.16939411438E+04  0.12501312995E+03 0.  0.
        -11    1    4    4    0    0 -0.52107378040E+03  0.73022545615E+03 -0.10494709212E+04  0.13806289566E+04  0.00000000000E+00 0.  1.
         12    1    4    4    0    0 -0.13690587358E+03  0.13686156618E+03 -0.25299902377E+03  0.31856367110E+03  0.00000000000E+00 0. -1.
        -13    1    3    3    0    0 -0.21119897561E+03 -0.21441666432E+03 -0.36682184408E+03  0.47448685812E+03  0.00000000000E+00 0.  1.
         14    1    3    3    0    0 -0.95505047908E+01 -0.36455587661E+02 -0.19938593470E+02  0.42635308408E+02  0.00000000000E+00 0. -1.
          5    1    5    5  501    0  0.18438889332E+03 -0.18106795706E+03  0.25155055583E+03  0.36067248467E+03  0.47000000000E+01 0.  1.
         -5    1    5    5    0  501  0.71733449022E+03 -0.45399898068E+03  0.10280561182E+04  0.13332686591E+04  0.47000000000E+01 0.  1.
          1    1    1    2  502    0 -0.27374898391E+02 -0.35309267144E+02  0.55609989326E+03  0.55789176432E+03  0.00000000000E+00 0. -1.
          1    1    1    2  503    0  0.43806492268E+01  0.54161434539E+02 -0.66057262719E+03  0.66280377705E+03  0.00000000000E+00 0. -1.
<mgrwt>
<rscale>  0 0.49261201E+02</rscale>
<asrwt>0</asrwt>
<pdfrwt beam="1">  1        2 0.33947464E+00 0.44678064E+02</pdfrwt>
<pdfrwt beam="2">  1        2 0.41507705E+00 0.54314482E+02</pdfrwt>
<totfact> 0.44047890E+00</totfact>
</mgrwt>
</event>
<event>
13    1  0.1942437E-008  0.6360646E+02  0.7546771E-02  0.1536966E+00
          2   -1    0    0  502    0  0.00000000000E+00  0.00000000000E+00  0.18996799216E+04  0.18996799216E+04  0.00000000000E+00 0. -1.
          2   -1    0    0  503    0 -0.00000000000E+00 -0.00000000000E+00 -0.23203053834E+04  0.23203053834E+04  0.00000000000E+00 0. -1.
         24    2    1    2    0    0 -0.14288484776E+03  0.61847850511E+01 -0.31952572012E+03  0.36427768973E+03  0.10073340128E+03 0.  0.
         24    2    1    2    0    0  0.56139360094E+02 -0.12333410174E+01  0.16831032401E+03  0.19444282585E+03  0.79539288882E+02 0.  0.
         25    2    1    2    0    0  0.15396855158E+03 -0.54405951278E+02  0.15235678504E+04  0.15373841435E+04  0.12499875046E+03 0.  0.
        -11    1    4    4    0    0  0.51899634514E+02  0.26954464462E+02  0.65751691263E+02  0.87996591531E+02  0.00000000000E+00 0.  1.
         12    1    4    4    0    0  0.42397255801E+01 -0.28187805479E+02  0.10255863274E+03  0.10644623432E+03  0.00000000000E+00 0. -1.
        -13    1    3    3    0    0 -0.51814004453E+02 -0.26134835139E+02 -0.45594653222E+02  0.73801037037E+02  0.00000000000E+00 0.  1.
         14    1    3    3    0    0 -0.91070843302E+02  0.32319620191E+02 -0.27393106690E+03  0.29047665269E+03  0.00000000000E+00 0. -1.
          5    1    5    5  501    0  0.40483456854E+02  0.17752821139E+02  0.81125917158E+03  0.81247621898E+03  0.47000000000E+01 0.  1.
         -5    1    5    5    0  501  0.11348509472E+03 -0.72158772417E+02  0.71230867882E+03  0.72490792456E+03  0.47000000000E+01 0.  1.
          1    1    1    2  502    0 -0.13021868696E+02  0.16178820186E+02  0.16428105118E+03  0.16558860789E+03  0.00000000000E+00 0. -1.
          1    1    1    2  503    0 -0.54201195222E+02  0.33275687058E+02 -0.19572589673E+04  0.19582920380E+04  0.00000000000E+00 0. -1.
<mgrwt>
<rscale>  0 0.36345558E+02</rscale>
<asrwt>0</asrwt>
<pdfrwt beam="1">  1        2 0.27936470E+00 0.20768324E+02</pdfrwt>
<pdfrwt beam="2">  1        2 0.34122138E+00 0.63606461E+02</pdfrwt>
<totfact> 0.12819979E+01</totfact>
</mgrwt>
</event>
<event>
13    1  0.1942437E-008  0.2940879E+03  0.7546771E-02  0.1199453E+00
          2   -1    0    0  502    0  0.00000000000E+00  0.00000000000E+00  0.20360542696E+04  0.20360542696E+04  0.00000000000E+00 0. -1.
          2   -1    0    0  503    0 -0.00000000000E+00 -0.00000000000E+00 -0.11229846508E+04  0.11229846508E+04  0.00000000000E+00 0. -1.
         24    2    1    2    0    0  0.47798381422E+02  0.11818171459E+02 -0.34909743124E+03  0.36169379470E+03  0.80802414481E+02 0.  0.
         24    2    1    2    0    0  0.23082088187E+02 -0.96878010772E+01 -0.76832926519E+02  0.10855628418E+03  0.72488150431E+02 0.  0.
         25    2    1    2    0    0  0.13997576341E+02 -0.33726747075E+03  0.15315542488E+03  0.39118388507E+03  0.12499187493E+03 0.  0.
        -11    1    3    3    0    0 -0.47802318906E+01 -0.25005095952E+02 -0.54063543737E+02  0.59757612083E+02  0.00000000000E+00 0.  1.
         12    1    3    3    0    0  0.52578613313E+02  0.36823267410E+02 -0.29503388750E+03  0.30193618262E+03  0.00000000000E+00 0. -1.
        -13    1    4    4    0    0 -0.11680276295E+02  0.11593916141E+02 -0.63611717996E+02  0.65706152012E+02  0.00000000000E+00 0.  1.
         14    1    4    4    0    0  0.34762364481E+02 -0.21281717218E+02 -0.13221208522E+02  0.42850132169E+02  0.00000000000E+00 0. -1.
          5    1    5    5  501    0 -0.30343104097E+02 -0.29849397426E+03  0.11806539358E+03  0.32246067015E+03  0.47000000000E+01 0.  1.
         -5    1    5    5    0  501  0.44340680437E+02 -0.38773496492E+02  0.35090031304E+02  0.68723214919E+02  0.47000000000E+01 0.  1.
          1    1    1    2  502    0 -0.59293087470E+01  0.28962482945E+03  0.17258354494E+04  0.17499787704E+04  0.00000000000E+00 0. -1.
          1    1    1    2  503    0 -0.78948737203E+02  0.45512270922E+02 -0.53999089776E+03  0.54762618598E+03  0.00000000000E+00 0. -1.
<mgrwt>
<rscale>  0 0.15083289E+03</rscale>
<asrwt>0</asrwt>
<pdfrwt beam="1">  1        2 0.29941975E+00 0.29408793E+03</pdfrwt>
<pdfrwt beam="2">  1        2 0.16514480E+00 0.77359727E+02</pdfrwt>
<totfact> 0.31301527E+01</totfact>
</mgrwt>
</event>
<event>
13    1  0.1942437E-008  0.5979304E+02  0.7546771E-02  0.1632992E+00
          4   -1    0    0  503    0 -0.00000000000E+00  0.00000000000E+00  0.47289794825E+03  0.47289794825E+03  0.00000000000E+00 0. -1.
          2   -1    0    0  502    0  0.00000000000E+00 -0.00000000000E+00 -0.31897241056E+04  0.31897241056E+04  0.00000000000E+00 0. -1.
         24    2    1    2    0    0  0.13100023101E+02  0.44981202088E+01 -0.81969993782E+02  0.11529525732E+03  0.79887876354E+02 0.  0.
         24    2    1    2    0    0 -0.24347572119E+02  0.77901045883E+02 -0.71057152399E+03  0.71998069439E+03  0.82455638772E+02 0.  0.
         25    2    1    2    0    0  0.51766301128E+02 -0.10729810442E+03 -0.15998212009E+04  0.16091132804E+04  0.12500016495E+03 0.  0.
        -13    1    3    3    0    0 -0.34904983409E+01 -0.34931758749E+02 -0.21305795409E+02  0.41065170960E+02  0.00000000000E+00 0.  1.
         14    1    3    3    0    0  0.16590521442E+02  0.39429878957E+02 -0.60664198373E+02  0.74230086357E+02  0.00000000000E+00 0. -1.
        -13    1    4    4    0    0 -0.11368540996E+02 -0.77335041487E+01 -0.21725347797E+02  0.25710728261E+02  0.00000000000E+00 0.  1.
         14    1    4    4    0    0 -0.12979031123E+02  0.85634550031E+02 -0.68884617619E+03  0.69426996613E+03  0.00000000000E+00 0. -1.
          5    1    5    5  501    0  0.48782953197E+02 -0.33162584162E+02 -0.12537978534E+04  0.12551934834E+04  0.47000000000E+01 0.  1.
         -5    1    5    5    0  501  0.29833479313E+01 -0.74135520256E+02 -0.34602334752E+03  0.35391979707E+03  0.47000000000E+01 0.  1.
          1    1    1    2  502    0  0.10212529848E+02 -0.67673821167E+01 -0.76929838849E+03  0.76939593432E+03  0.00000000000E+00 0. -1.
          3    1    1    2  503    0 -0.50731281958E+02  0.31666320444E+02  0.44483494986E+03  0.44883688734E+03  0.00000000000E+00 0. -1.
<mgrwt>
<rscale>  0 0.27065472E+02</rscale>
<asrwt>0</asrwt>
<pdfrwt beam="2">  1        2 0.46907709E+00 0.12251254E+02</pdfrwt>
<pdfrwt beam="1">  1        4 0.69543813E-01 0.59793043E+02</pdfrwt>
<totfact> 0.32357318E+00</totfact>
</mgrwt>
</event>
<event>
13    1  0.1942437E-008  0.8973002E+02  0.7546771E-02  0.1347012E+00
          2   -1    0    0  503    0  0.00000000000E+00  0.00000000000E+00  0.11241693760E+04  0.11241693760E+04  0.00000000000E+00 0. -1.
          2   -1    0    0  502    0 -0.00000000000E+00 -0.00000000000E+00 -0.17699249223E+04  0.17699249223E+04  0.00000000000E+00 0. -1.
         24    2    1    2    0    0  0.79438071187E+01  0.97460911065E+02 -0.26759892462E+03  0.29595915598E+03  0.80130545326E+02 0.  0.
         24    2    1    2    0    0  0.29457505974E+01 -0.18303715898E+03 -0.33976057313E+03  0.39426332918E+03  0.80591852361E+02 0.  0.
         25    2    1    2    0    0  0.10727355774E+03  0.38109127814E+02  0.15715478325E+02  0.16980259565E+03  0.12500409361E+03 0.  0.
        -11    1    3    3    0    0  0.15195235025E+02 -0.68052158185E+01 -0.75024993078E+02  0.76850216110E+02  0.00000000000E+00 0.  1.
         12    1    3    3    0    0 -0.72514279067E+01  0.10426612688E+03 -0.19257393154E+03  0.21910893987E+03  0.00000000000E+00 0. -1.
        -13    1    4    4    0    0  0.14767232290E+02 -0.37808764258E+02 -0.25684814744E+02  0.48034191079E+02  0.00000000000E+00 0.  1.
         14    1    4    4    0    0 -0.11821481692E+02 -0.14522839472E+03 -0.31407575839E+03  0.34622913810E+03  0.00000000000E+00 0. -1.
          5    1    5    5  501    0 -0.32926836705E+01  0.19834366938E+02 -0.39660062542E+02  0.44713023141E+02  0.47000000000E+01 0. -1.
         -5    1    5    5    0  501  0.11056624141E+03  0.18274760876E+02  0.55375540866E+02  0.12508957251E+03  0.47000000000E+01 0. -1.
          1    1    1    2  502    0 -0.89155692823E+02 -0.62164047425E+01 -0.10412340414E+04  0.10450625390E+04  0.00000000000E+00 0. -1.
          1    1    1    2  503    0 -0.29007422635E+02  0.53683524839E+02  0.98712251462E+03  0.98900667858E+03  0.00000000000E+00 0. -1.
<mgrwt>
<rscale>  0 0.73995004E+02</rscale>
<asrwt>0</asrwt>
<pdfrwt beam="1">  1        2 0.16531903E+00 0.61019271E+02</pdfrwt>
<pdfrwt beam="2">  1        2 0.26028307E+00 0.89730024E+02</pdfrwt>
<totfact> 0.47870975E+01</totfact>
</mgrwt>
</event>
<event>
13    1  0.1942437E-008  0.1709154E+03  0.7546771E-02  0.1388737E+00
          2   -1    0    0  503    0  0.00000000000E+00  0.00000000000E+00  0.34724123296E+04  0.34724123296E+04  0.00000000000E+00 0. -1.
          2   -1    0    0  502    0 -0.00000000000E+00 -0.00000000000E+00 -0.19238639499E+04  0.19238639499E+04  0.00000000000E+00 0. -1.
         24    2    1    2    0    0  0.53013074555E+03  0.13701583371E+03 -0.23930882122E+03  0.60291786331E+03  0.80182865491E+02 0.  0.
         24    2    1    2    0    0 -0.30857656478E+03 -0.25241520123E+03  0.89430661829E+03  0.98099480080E+03  0.60278864826E+02 0.  0.
         25    2    1    2    0    0 -0.49501381939E+02  0.19186275736E+03  0.33910368953E+03  0.41216287696E+03  0.12500088165E+03 0.  0.
        -13    1    3    3    0    0  0.36667131498E+03  0.64498114040E+02 -0.13578097543E+03  0.39628819467E+03  0.00000000000E+00 0.  1.
         14    1    3    3    0    0  0.16345943057E+03  0.72517719674E+02 -0.10352784579E+03  0.20662966864E+03  0.00000000000E+00 0. -1.
        -13    1    4    4    0    0 -0.13616089853E+02 -0.30863696985E+02  0.90358050375E+02  0.96449691353E+02  0.00000000000E+00 0.  1.
         14    1    4    4    0    0 -0.29496047493E+03 -0.22155150424E+03  0.80394856791E+03  0.88454510945E+03  0.00000000000E+00 0. -1.
          5    1    5    5  501    0 -0.81477972805E+01  0.20999437529E+02 -0.69089597248E+01  0.24024710228E+02  0.47000000000E+01 0. -1.
         -5    1    5    5    0  501 -0.41353584658E+02  0.17086331983E+03  0.34601264925E+03  0.38813816673E+03  0.47000000000E+01 0. -1.
          1    1    1    2  502    0 -0.16122156875E+03 -0.56568834923E+02 -0.14176825250E+04  0.14279412345E+04  0.00000000000E+00 0. -1.
          1    1    1    2  503    0 -0.10831230082E+02 -0.19894554927E+02  0.19721294182E+04  0.19722595039E+04  0.00000000000E+00 0. -1.
<mgrwt>
<rscale>  0 0.62221856E+02</rscale>
<asrwt>0</asrwt>
<pdfrwt beam="1">  1        2 0.51064888E+00 0.22651906E+02</pdfrwt>
<pdfrwt beam="2">  1        2 0.28292117E+00 0.17091539E+03</pdfrwt>
<totfact> 0.31259767E+00</totfact>
</mgrwt>
</event>
<event>
13    1  0.1942437E-008  0.1028325E+03  0.7546771E-02  0.1346127E+00
          2   -1    0    0  502    0  0.00000000000E+00  0.00000000000E+00  0.22288921149E+04  0.22288921149E+04  0.00000000000E+00 0. -1.
          2   -1    0    0  503    0 -0.00000000000E+00 -0.00000000000E+00 -0.15656034102E+03  0.15656034102E+03  0.00000000000E+00 0. -1.
         24    2    1    2    0    0 -0.32383232402E+02 -0.20559404352E+02  0.19173288977E+02  0.91758735735E+02  0.81121438137E+02 0.  0.
         24    2    1    2    0    0 -0.36376993875E+02 -0.15783688913E+02  0.16143618662E+03  0.18269977431E+03  0.75796798515E+02 0.  0.
         25    2    1    2    0    0 -0.27947342406E+02 -0.53334600238E+02  0.75215610596E+03  0.76484645730E+03  0.12500264790E+03 0.  0.
        -11    1    3    3    0    0 -0.17951765219E+02 -0.35565549042E+02  0.44001008891E+02  0.59357079919E+02  0.00000000000E+00 0.  1.
         12    1    3    3    0    0 -0.14431467183E+02  0.15006144690E+02 -0.24827719914E+02  0.32401655816E+02  0.00000000000E+00 0. -1.
        -13    1    4    4    0    0 -0.41626826535E+02  0.96152434466E+01  0.40002568075E+02  0.58527352977E+02  0.00000000000E+00 0.  1.
         14    1    4    4    0    0  0.52498326598E+01 -0.25398932360E+02  0.12143361854E+03  0.12417242134E+03  0.00000000000E+00 0. -1.
          5    1    5    5  501    0  0.39264025530E+02  0.14088732983E+02  0.18206574563E+03  0.18684266598E+03  0.47000000000E+01 0. -1.
         -5    1    5    5    0  501 -0.67211367937E+02 -0.67423333221E+02  0.57009036033E+03  0.57800379132E+03  0.47000000000E+01 0. -1.
          1    1    1    2  502    0  0.97408278118E+02  0.36032512740E+02  0.12335577454E+04  0.12379222213E+04  0.00000000000E+00 0. -1.
          1    1    1    2  503    0 -0.70070943480E+00  0.53645180764E+02 -0.93991553132E+02  0.10822526726E+03  0.00000000000E+00 0. -1.
<mgrwt>
<rscale>  0 0.74276096E+02</rscale>
<asrwt>0</asrwt>
<pdfrwt beam="1">  1        2 0.32777823E+00 0.10283250E+03</pdfrwt>
<pdfrwt beam="2">  1        2 0.23023581E-01 0.53649757E+02</pdfrwt>
<totfact> 0.24577747E+02</totfact>
</mgrwt>
</event>
<event>
13    1  0.1942437E-008  0.4085070E+02  0.7546771E-02  0.1607358E+00
          2   -1    0    0  503    0  0.00000000000E+00  0.00000000000E+00  0.91884056356E+03  0.91884056356E+03  0.00000000000E+00 0. -1.
          2   -1    0    0  502    0 -0.00000000000E+00 -0.00000000000E+00 -0.33413038979E+04  0.33413038979E+04  0.00000000000E+00 0. -1.
         24    2    1    2    0    0  0.26489418459E+03  0.33476318232E+03 -0.15792602322E+04  0.16379324806E+04  0.80775076845E+02 0.  0.
         24    2    1    2    0    0 -0.12790156589E+03 -0.60468277964E+03 -0.45651002882E+03  0.77349360697E+03  0.88830620035E+02 0.  0.
         25    2    1    2    0    0 -0.83738148173E+02  0.29967169671E+03 -0.21589980433E+03  0.39881060089E+03  0.12498786583E+03 0.  0.
        -11    1    3    3    0    0  0.74929558549E+02  0.10179278045E+03 -0.61694268720E+03  0.62975748363E+03  0.00000000000E+00 0.  1.
         12    1    3    3    0    0  0.18996462604E+03  0.23297040187E+03 -0.96231754495E+03  0.10081749970E+04  0.00000000000E+00 0. -1.
        -13    1    4    4    0    0 -0.29334831274E+02 -0.35130761164E+03 -0.25554078361E+03  0.43540631876E+03  0.00000000000E+00 0.  1.
         14    1    4    4    0    0 -0.98566734615E+02 -0.25337516800E+03 -0.20096924521E+03  0.33808728821E+03  0.00000000000E+00 0. -1.
          5    1    5    5  501    0 -0.20181272237E+02  0.24280332735E+03 -0.19165157409E+03  0.31002121762E+03  0.47000000000E+01 0.  1.
         -5    1    5    5    0  501 -0.63556875935E+02  0.56868369353E+02 -0.24248230243E+02  0.88789383270E+02  0.47000000000E+01 0.  1.
          1    1    1    2  502    0 -0.15686275995E+02 -0.13721093643E+02 -0.80956412726E+03  0.80983233067E+03  0.00000000000E+00 0. -1.
          1    1    1    2  503    0 -0.37568194533E+02 -0.16031005745E+02  0.63877085827E+03  0.64007544224E+03  0.00000000000E+00 0. -1.
<mgrwt>
<rscale>  0 0.29177905E+02</rscale>
<asrwt>0</asrwt>
<pdfrwt beam="1">  1        2 0.13512361E+00 0.40850697E+02</pdfrwt>
<pdfrwt beam="2">  1        2 0.49136822E+00 0.20840529E+02</pdfrwt>
<totfact> 0.13485546E+01</totfact>
</mgrwt>
</event>
<event>
13    1  0.1942437E-008  0.6027465E+02  0.7546771E-02  0.1573452E+00
         -1   -1    0    0    0  501 -0.00000000000E+00  0.00000000000E+00  0.97322288053E+03  0.97322288053E+03  0.00000000000E+00 0.  1.
          2   -1    0    0  503    0  0.00000000000E+00 -0.00000000000E+00 -0.12723030614E+04  0.12723030614E+04  0.00000000000E+00 0. -1.
         24    2    1    2    0    0 -0.24002604187E+03  0.40052737718E+03  0.26646614823E+03  0.54687786910E+03  0.10018240818E+03 0.  0.
         24    2    1    2    0    0  0.42517235292E+03 -0.27828746721E+03 -0.27369942249E+02  0.51414843254E+03  0.73376105438E+02 0.  0.
         25    2    1    2    0    0 -0.14302376419E+03 -0.10254380693E+03 -0.88395344493E+02  0.23326009881E+03  0.12500202921E+03 0.  0.
        -11    1    4    4    0    0  0.22970101457E+03 -0.18675672480E+03 -0.35454172648E+02  0.29815705377E+03  0.00000000000E+00 0.  1.
         12    1    4    4    0    0  0.19547133835E+03 -0.91530742405E+02  0.80842303985E+01  0.21599137877E+03  0.00000000000E+00 0. -1.
        -11    1    3    3    0    0 -0.81468241254E+02  0.21971092138E+03  0.10222560178E+03  0.25565609120E+03  0.00000000000E+00 0.  1.
         12    1    3    3    0    0 -0.15855780062E+03  0.18081645580E+03  0.16424054646E+03  0.29122177790E+03  0.00000000000E+00 0. -1.
          5    1    5    5  502    0 -0.90265214879E+02 -0.35716768553E+02  0.15965925504E+02  0.98491102899E+02  0.47000000000E+01 0.  1.
         -5    1    5    5    0  502 -0.52758549309E+02 -0.66827038372E+02 -0.10436127000E+03  0.13476899591E+03  0.47000000000E+01 0.  1.
          1    1    1    2  503    0  0.16517933872E+02 -0.53579430216E+01 -0.69676685485E+03  0.69698321337E+03  0.00000000000E+00 0. -1.
         -2    1    1    2    0  501 -0.58640480731E+02 -0.14338160022E+02  0.24698581249E+03  0.25425632811E+03  0.00000000000E+00 0.  1.
<mgrwt>
<rscale>  0 0.32352441E+02</rscale>
<asrwt>0</asrwt>
<pdfrwt beam="2">  1        2 0.18710339E+00 0.17365186E+02</pdfrwt>
<pdfrwt beam="1">  1       -1 0.14312101E+00 0.60274647E+02</pdfrwt>
<totfact> 0.12786954E+01</totfact>
</mgrwt>
</event>
<event>
13    1  0.1942437E-008  0.1672227E+03  0.7546771E-02  0.1427208E+00
          2   -1    0    0  502    0  0.00000000000E+00  0.00000000000E+00  0.14674162436E+04  0.14674162436E+04  0.00000000000E+00 0. -1.
          2   -1    0    0  503    0 -0.00000000000E+00 -0.00000000000E+00 -0.22110896314E+04  0.22110896314E+04  0.00000000000E+00 0. -1.
         24    2    1    2    0    0 -0.15268161847E+03 -0.73042908626E+02 -0.18996010540E+03  0.26627381232E+03  0.78549082516E+02 0.  0.
         24    2    1    2    0    0  0.12553780548E+03 -0.36426496798E+02 -0.10092310254E+03  0.18326369448E+03  0.79457402528E+02 0.  0.
         25    2    1    2    0    0 -0.59163243702E+02 -0.53536174634E+02  0.46175870101E+03  0.48498768900E+03  0.12500219647E+03 0.  0.
        -11    1    4    4    0    0  0.12545849414E+02 -0.32616872390E+02 -0.45448023540E+02  0.57330459144E+02  0.00000000000E+00 0.  1.
         12    1    4    4    0    0  0.11299195606E+03 -0.38096244084E+01 -0.55475078999E+02  0.12593323534E+03  0.00000000000E+00 0. -1.
        -13    1    3    3    0    0 -0.68048766149E+01 -0.16001612884E+02  0.31033584434E+01  0.17663204530E+02  0.00000000000E+00 0.  1.
         14    1    3    3    0    0 -0.14587674185E+03 -0.57041295742E+02 -0.19306346384E+03  0.24861060779E+03  0.00000000000E+00 0. -1.
          5    1    5    5  501    0  0.81921667744E+01  0.23231595746E+02  0.21556682924E+02  0.33069611671E+02  0.47000000000E+01 0.  1.
         -5    1    5    5    0  501 -0.67355410476E+02 -0.76767770380E+02  0.44020201809E+03  0.45191807733E+03  0.47000000000E+01 0.  1.
          1    1    1    2  502    0  0.83108887271E+02  0.14617465698E+03  0.90694770771E+03  0.92240352449E+03  0.00000000000E+00 0. -1.
          1    1    1    2  503    0  0.31981694215E+01  0.16830923080E+02 -0.18214965886E+04  0.18215771547E+04  0.00000000000E+00 0. -1.
<mgrwt>
<rscale>  0 0.53524506E+02</rscale>
<asrwt>0</asrwt>
<pdfrwt beam="1">  1        2 0.21579651E+00 0.16722268E+03</pdfrwt>
<pdfrwt beam="2">  1        2 0.32516024E+00 0.17132083E+02</pdfrwt>
<totfact> 0.22672526E+01</totfact>
</mgrwt>
</event>
<event>
13    1  0.1942437E-008  0.1266402E+03  0.7546771E-02  0.1347279E+00
         -1   -1    0    0    0  501 -0.00000000000E+00  0.00000000000E+00  0.47705465463E+03  0.47705465463E+03  0.00000000000E+00 0.  1.
          2   -1    0    0  503    0  0.00000000000E+00 -0.00000000000E+00 -0.34800596698E+04  0.34800596698E+04  0.00000000000E+00 0. -1.
         24    2    1    2    0    0  0.23245933217E+03 -0.82111953391E+02  0.11340486865E+03  0.28129427438E+03  0.74068148089E+02 0.  0.
         24    2    1    2    0    0  0.25299406990E+03 -0.11420534230E+03 -0.13623798650E+03  0.31919035557E+03  0.79201227968E+02 0.  0.
         25    2    1    2    0    0 -0.42281606212E+03  0.11066975382E+03 -0.21359547720E+04  0.21837925021E+04  0.12500274914E+03 0.  0.
        -11    1    4    4    0    0  0.15582384570E+03 -0.93777716225E+02 -0.12172018932E+03  0.21884043373E+03  0.00000000000E+00 0.  1.
         12    1    4    4    0    0  0.97170224201E+02 -0.20427626071E+02 -0.14517797180E+02  0.10034992184E+03  0.00000000000E+00 0. -1.
        -11    1    3    3    0    0  0.88913894009E+02 -0.64704768952E+02  0.69872486056E+02  0.13028642286E+03  0.00000000000E+00 0.  1.
         12    1    3    3    0    0  0.14354543816E+03 -0.17407184439E+02  0.43532382597E+02  0.15100785152E+03  0.00000000000E+00 0. -1.
          5    1    5    5  502    0 -0.39266746700E+03  0.13530440983E+03 -0.19568492992E+04  0.20004440239E+04  0.47000000000E+01 0. -1.
         -5    1    5    5    0  502 -0.30148595123E+02 -0.24634656001E+02 -0.17910547275E+03  0.18334847814E+03  0.47000000000E+01 0. -1.
          1    1    1    2  503    0  0.41216700106E+02  0.12723506322E+02 -0.98348188023E+03  0.98442740348E+03  0.00000000000E+00 0. -1.
         -2    1    1    2    0  501 -0.10385404005E+03  0.72924035541E+02  0.13926475492E+03  0.18840978891E+03  0.00000000000E+00 0.  1.
<mgrwt>
<rscale>  0 0.73910334E+02</rscale>
<asrwt>0</asrwt>
<pdfrwt beam="2">  1        2 0.51177349E+00 0.43135878E+02</pdfrwt>
<pdfrwt beam="1">  1       -1 0.70155095E-01 0.12664023E+03</pdfrwt>
<totfact> 0.45905835E+00</totfact>
</mgrwt>
</event>
<event>
13    1  0.1942437E-008  0.9449701E+02  0.7546771E-02  0.1317655E+00
          4   -1    0    0  503    0  0.00000000000E+00  0.00000000000E+00  0.84800708048E+03  0.84800708048E+03  0.00000000000E+00 0. -1.
         -3   -1    0    0    0  501 -0.00000000000E+00 -0.00000000000E+00 -0.45388528939E+03  0.45388528939E+03  0.00000000000E+00 0.  1.
         24    2    1    2    0    0 -0.34012865032E+02 -0.71353690143E+02  0.27085110729E+02  0.11615248984E+03  0.80681928515E+02 0.  0.
         24    2    1    2    0    0 -0.14324127467E+02  0.15625527698E+03  0.29053999764E+02  0.17922224229E+03  0.81581768914E+02 0.  0.
         25    2    1    2    0    0 -0.10900175510E+03 -0.73822525332E+02  0.25392084238E+03  0.31212856567E+03  0.12496919400E+03 0.  0.
        -11    1    3    3    0    0  0.14727140646E+02  0.10219288991E+02  0.43165645279E+01  0.18437875919E+02  0.00000000000E+00 0.  1.
         12    1    3    3    0    0 -0.48740005678E+02 -0.81572979133E+02  0.22768546201E+02  0.97714613924E+02  0.00000000000E+00 0. -1.
        -13    1    4    4    0    0  0.88968881599E+00  0.81993221671E+01  0.29245890248E+02  0.30386551739E+02  0.00000000000E+00 0.  1.
         14    1    4    4    0    0 -0.15213816283E+02  0.14805595481E+03 -0.19189048407E+00  0.14883569055E+03  0.00000000000E+00 0. -1.
          5    1    5    5  502    0 -0.72245851824E+02 -0.81124734345E+02  0.82209559714E+02  0.13631282895E+03  0.47000000000E+01 0. -1.
         -5    1    5    5    0  502 -0.36755903273E+02  0.73022090127E+01  0.17171128267E+03  0.17581573672E+03  0.47000000000E+01 0. -1.
          3    1    1    2  503    0  0.66642058096E+02 -0.34289827727E+02  0.37828120008E+03  0.38563405260E+03  0.00000000000E+00 0. -1.
         -4    1    1    2    0  501  0.90696689500E+02  0.23210766226E+02 -0.29421936186E+03  0.30875501947E+03  0.00000000000E+00 0.  1.
<mgrwt>
<rscale>  0 0.84155848E+02</rscale>
<asrwt>0</asrwt>
<pdfrwt beam="1">  1        4 0.12470692E+00 0.74946355E+02</pdfrwt>
<pdfrwt beam="2">  1       -3 0.66747837E-01 0.94497013E+02</pdfrwt>
<totfact> 0.22103183E+00</totfact>
</mgrwt>
</event>
<event>
13    1  0.1942437E-008  0.7082951E+02  0.7546771E-02  0.1415618E+00
          2   -1    0    0  503    0  0.00000000000E+00  0.00000000000E+00  0.12031419272E+04  0.12031419272E+04  0.00000000000E+00 0. -1.
          2   -1    0    0  502    0 -0.00000000000E+00 -0.00000000000E+00 -0.14401013700E+04  0.14401013700E+04  0.00000000000E+00 0. -1.
         24    2    1    2    0    0  0.34050351542E+02 -0.73309708541E+02 -0.14603573459E+03  0.17848035446E+03  0.63206497627E+02 0.  0.
         24    2    1    2    0    0 -0.80053695553E+02  0.35515761642E+02 -0.42077370949E+02  0.12151984892E+03  0.72983594305E+02 0.  0.
         25    2    1    2    0    0 -0.54786464268E+01  0.12775636018E+03  0.36653327105E+03  0.40783095406E+03  0.12501098020E+03 0.  0.
        -11    1    3    3    0    0  0.36768571273E+02 -0.75952552481E+02 -0.15054939403E+03  0.17258574131E+03  0.00000000000E+00 0.  1.
         12    1    3    3    0    0 -0.27182197307E+01  0.26428439396E+01  0.45136594373E+01  0.58946131433E+01  0.00000000000E+00 0. -1.
        -11    1    4    4    0    0 -0.19682865193E+02  0.59189555439E+01 -0.49768764588E+02  0.53845883274E+02  0.00000000000E+00 0.  1.
         12    1    4    4    0    0 -0.60370830360E+02  0.29596806098E+02  0.76913936384E+01  0.67673965641E+02  0.00000000000E+00 0. -1.
          5    1    5    5  501    0 -0.43666751406E+02  0.65514566881E+02  0.80949010745E+02  0.11302113073E+03  0.47000000000E+01 0.  1.
         -5    1    5    5    0  501  0.38188104980E+02  0.62241793300E+02  0.28558426031E+03  0.29480982333E+03  0.47000000000E+01 0.  1.
          1    1    1    2  502    0  0.12184041468E+02 -0.69708571013E+02 -0.11736863414E+04  0.11758177426E+04  0.00000000000E+00 0. -1.
          1    1    1    2  503    0  0.39297948970E+02 -0.20253842267E+02  0.75830673302E+03  0.75959439721E+03  0.00000000000E+00 0. -1.
<mgrwt>
<rscale>  0 0.55958831E+02</rscale>
<asrwt>0</asrwt>
<pdfrwt beam="1">  1        2 0.17693264E+00 0.44210258E+02</pdfrwt>
<pdfrwt beam="2">  1        2 0.21177961E+00 0.70829508E+02</pdfrwt>
<totfact> 0.65469786E+01</totfact>
</mgrwt>
</event>
<event>
13    1  0.1942437E-008  0.1592720E+03  0.7546771E-02  0.1228077E+00
          2   -1    0    0  503    0  0.00000000000E+00  0.00000000000E+00  0.28999907672E+04  0.28999907672E+04  0.00000000000E+00 0. -1.
          2   -1    0    0  502    0 -0.00000000000E+00 -0.00000000000E+00 -0.25589313096E+04  0.25589313096E+04  0.00000000000E+00 0. -1.
         24    2    1    2    0    0 -0.20065531643E+02 -0.43033734556E+02  0.83283980622E+01  0.93487262376E+02  0.80099801138E+02 0.  0.
         24    2    1    2    0    0 -0.75012820709E+02  0.12555589772E+02 -0.15483153109E+03  0.19025649534E+03  0.80250637972E+02 0.  0.
         25    2    1    2    0    0  0.13764194974E+03 -0.29327018713E+02  0.73170734803E+03  0.75553106443E+03  0.12500466313E+03 0.  0.
        -11    1    4    4    0    0 -0.19916248612E+02 -0.25276743871E+02 -0.15487844284E+02  0.35713359686E+02  0.00000000000E+00 0.  1.
         12    1    4    4    0    0 -0.55096572097E+02  0.37832333643E+02 -0.13934368681E+03  0.15454313566E+03  0.00000000000E+00 0. -1.
        -11    1    3    3    0    0 -0.58151979373E+01  0.22722014525E+02 -0.70087524775E+01  0.24479156080E+02  0.00000000000E+00 0.  1.
         12    1    3    3    0    0 -0.14250333705E+02 -0.65755749081E+02  0.15337150540E+02  0.69008106296E+02  0.00000000000E+00 0. -1.
          5    1    5    5  501    0  0.97519244479E+02  0.10705902748E+02  0.22321531763E+03  0.24386838135E+03  0.47000000000E+01 0.  1.
         -5    1    5    5    0  501  0.40122705263E+02 -0.40032921461E+02  0.50849203040E+03  0.51166268308E+03  0.47000000000E+01 0.  1.
          1    1    1    2  502    0 -0.10361790133E+03  0.13891081067E+03 -0.23274770073E+04  0.23339199006E+04  0.00000000000E+00 0. -1.
          1    1    1    2  503    0  0.61054303940E+02 -0.79105647179E+02  0.20833322499E+04  0.20857273540E+04  0.00000000000E+00 0. -1.
<mgrwt>
<rscale>  0 0.12958198E+03</rscale>
<asrwt>0</asrwt>
<pdfrwt beam="1">  1        2 0.42646923E+00 0.10542648E+03</pdfrwt>
<pdfrwt beam="2">  1        2 0.37631343E+00 0.15927202E+03</pdfrwt>
<totfact> 0.23234606E+00</totfact>
</mgrwt>
</event>
<event>
13    1  0.1942437E-008  0.6549557E+02  0.7546771E-02  0.1486240E+00
          2   -1    0    0  502    0  0.00000000000E+00  0.00000000000E+00  0.12437217378E+04  0.12437217378E+04  0.00000000000E+00 0. -1.
          2   -1    0    0  503    0 -0.00000000000E+00 -0.00000000000E+00 -0.70667570317E+03  0.70667570317E+03  0.00000000000E+00 0. -1.
         24    2    1    2    0    0 -0.10730506058E+03  0.81408271345E+02 -0.10324032159E+03  0.18828525029E+03  0.81554207770E+02 0.  0.
         24    2    1    2    0    0  0.58988818438E+02  0.54878160557E+02  0.35362851290E+02  0.11984702232E+03  0.81372503341E+02 0.  0.
         25    2    1    2    0    0 -0.20265476205E+02 -0.13406359500E+03  0.19372760063E+03  0.26746719504E+03  0.12499832058E+03 0.  0.
        -11    1    4    4    0    0  0.58363709829E+02  0.59841228248E+02  0.54684470774E+02  0.99888370530E+02  0.00000000000E+00 0.  1.
         12    1    4    4    0    0  0.62510860880E+00 -0.49630676913E+01 -0.19321619484E+02  0.19958651787E+02  0.00000000000E+00 0. -1.
        -13    1    3    3    0    0 -0.54683360943E+02  0.17798895014E+02 -0.18502999333E+01  0.57536894578E+02  0.00000000000E+00 0.  1.
         14    1    3    3    0    0 -0.52621699640E+02  0.63609376331E+02 -0.10139002166E+03  0.13074835571E+03  0.00000000000E+00 0. -1.
          5    1    5    5  501    0  0.25697903295E+02 -0.99220268009E+02  0.53379396169E+02  0.11565679294E+03  0.47000000000E+01 0.  1.
         -5    1    5    5    0  501 -0.45963379500E+02 -0.34843326989E+02  0.14034820446E+03  0.15181040210E+03  0.47000000000E+01 0.  1.
          1    1    1    2  502    0  0.60536280803E+02  0.25041694328E+02  0.89137452494E+03  0.89377864791E+03  0.00000000000E+00 0. -1.
          1    1    1    2  503    0  0.80454375478E+01 -0.27264531232E+02 -0.48017862063E+03  0.48101932543E+03  0.00000000000E+00 0. -1.
<mgrwt>
<rscale>  0 0.43148932E+02</rscale>
<asrwt>0</asrwt>
<pdfrwt beam="1">  1        2 0.18290025E+00 0.65495568E+02</pdfrwt>
<pdfrwt beam="2">  1        2 0.10392290E+00 0.28426814E+02</pdfrwt>
<totfact> 0.16133060E+02</totfact>
</mgrwt>
</event>
<event>
13    1  0.1942437E-008  0.2900096E+03  0.7546771E-02  0.1109794E+00
          2   -1    0    0  503    0  0.00000000000E+00  0.00000000000E+00  0.32628808177E+04  0.32628808177E+04  0.00000000000E+00 0. -1.
         -3   -1    0    0    0  501 -0.00000000000E+00 -0.00000000000E+00 -0.18450784440E+04  0.18450784440E+04  0.00000000000E+00 0.  1.
         24    2    1    2    0    0  0.14846336422E+03  0.27454219470E+03 -0.22714141050E+03  0.39424383871E+03  0.80126130634E+02 0.  0.
         24    2    1    2    0    0  0.25819844163E+02 -0.15594680256E+03 -0.16698665076E+03  0.24349190883E+03  0.80110539587E+02 0.  0.
         25    2    1    2    0    0  0.18349705121E+03  0.16044161464E+03  0.51408339023E+03  0.58251035426E+03  0.12499560470E+03 0.  0.
        -11    1    4    4    0    0  0.51447961638E+01 -0.86845347879E+02 -0.36391664557E+02  0.94302368077E+02  0.00000000000E+00 0.  1.
         12    1    4    4    0    0  0.20675047999E+02 -0.69101454682E+02 -0.13059498621E+03  0.14918954076E+03  0.00000000000E+00 0. -1.
        -13    1    3    3    0    0  0.15354748666E+03  0.22819275565E+03 -0.20215521243E+03  0.34134366012E+03  0.00000000000E+00 0.  1.
         14    1    3    3    0    0 -0.50841224366E+01  0.46349439047E+02 -0.24986198076E+02  0.52900178594E+02  0.00000000000E+00 0. -1.
          5    1    5    5  502    0  0.34027564204E+02 -0.19081134954E+02  0.57933845205E+02  0.70002751781E+02  0.47000000000E+01 0.  1.
         -5    1    5    5    0  502  0.14946948701E+03  0.17952274960E+03  0.45614954502E+03  0.51250760247E+03  0.47000000000E+01 0.  1.
          1    1    1    2  503    0 -0.38938346855E+03 -0.10436215167E+03  0.25709151996E+04  0.26023289392E+04  0.00000000000E+00 0. -1.
         -4    1    1    2    0  501  0.31603208952E+02 -0.17467485511E+03 -0.12730681548E+04  0.12853842207E+04  0.00000000000E+00 0.  1.
<mgrwt>
<rscale>  0 0.25563632E+03</rscale>
<asrwt>0</asrwt>
<pdfrwt beam="1">  1        2 0.47983541E+00 0.29000962E+03</pdfrwt>
<pdfrwt beam="2">  1       -3 0.27133507E+00 0.22533711E+03</pdfrwt>
<totfact> 0.68041019E-02</totfact>
</mgrwt>
</event>
<event>
13    1  0.1942437E-008  0.5964406E+02  0.7546771E-02  0.1415554E+00
          2   -1    0    0  502    0  0.00000000000E+00  0.00000000000E+00  0.15628876442E+04  0.15628876442E+04  0.00000000000E+00 0. -1.
          2   -1    0    0  503    0 -0.00000000000E+00 -0.00000000000E+00 -0.10429239951E+04  0.10429239951E+04  0.00000000000E+00 0. -1.
         24    2    1    2    0    0 -0.24438303793E+02  0.49017657227E+02 -0.16691365135E+03  0.19760633684E+03  0.90488319342E+02 0.  0.
         24    2    1    2    0    0 -0.79399026454E+02  0.47517942182E+02  0.11837472722E+03  0.16860472470E+03  0.76503705248E+02 0.  0.
         25    2    1    2    0    0  0.12337260708E+03 -0.21956298786E+01  0.85045185011E+03  0.86839941189E+03  0.12499427287E+03 0.  0.
        -13    1    3    3    0    0  0.10536883446E+02 -0.21520421135E+02 -0.21252874700E+02  0.32028723383E+02  0.00000000000E+00 0.  1.
         14    1    3    3    0    0 -0.34975187238E+02  0.70538078362E+02 -0.14566077665E+03  0.16557761345E+03  0.00000000000E+00 0. -1.
        -13    1    4    4    0    0 -0.53381009883E+02  0.52980544366E+02  0.38640238979E+02  0.84554942882E+02  0.00000000000E+00 0.  1.
         14    1    4    4    0    0 -0.26018016571E+02 -0.54626021847E+01  0.79734488243E+02  0.84049781822E+02  0.00000000000E+00 0. -1.
          5    1    5    5  501    0  0.86539327450E+02 -0.32896697388E+01  0.21459534964E+03  0.23145870304E+03  0.47000000000E+01 0.  1.
         -5    1    5    5    0  501  0.36833279626E+02  0.10940398602E+01  0.63585650047E+03  0.63694070885E+03  0.47000000000E+01 0.  1.
          1    1    1    2  502    0  0.19097045799E+02 -0.48932704777E+02  0.54228026753E+03  0.54481831403E+03  0.00000000000E+00 0. -1.
          1    1    1    2  503    0 -0.38632322627E+02 -0.45407264753E+02 -0.82422954435E+03  0.82638285185E+03  0.00000000000E+00 0. -1.
<mgrwt>
<rscale>  0 0.55972633E+02</rscale>
<asrwt>0</asrwt>
<pdfrwt beam="1">  1        2 0.22983642E+00 0.52527200E+02</pdfrwt>
<pdfrwt beam="2">  1        2 0.15337118E+00 0.59644063E+02</pdfrwt>
<totfact> 0.69848491E+01</totfact>
</mgrwt>
</event>
<event>
13    1  0.1942437E-008  0.9399927E+02  0.7546771E-02  0.1346941E+00
          2   -1    0    0  503    0  0.00000000000E+00  0.00000000000E+00  0.16691071001E+04  0.16691071001E+04  0.00000000000E+00 0. -1.
         -3   -1    0    0    0  501 -0.00000000000E+00 -0.00000000000E+00 -0.48310671524E+03  0.48310671524E+03  0.00000000000E+00 0.  1.
         24    2    1    2    0    0 -0.24802685666E+01  0.56220815500E+02 -0.81760274798E+02  0.12693556296E+03  0.79126245841E+02 0.  0.
         24    2    1    2    0    0 -0.21688852065E+02  0.73182948413E+02  0.27552129331E+03  0.29722856764E+03  0.81281536114E+02 0.  0.
         25    2    1    2    0    0  0.41023268793E+02  0.29131234390E+01  0.43074402582E+03  0.45039759875E+03  0.12500474515E+03 0.  0.
        -13    1    3    3    0    0  0.11253985278E+02  0.24881060493E+02 -0.88012791113E+02  0.92151889592E+02  0.00000000000E+00 0.  1.
         14    1    3    3    0    0 -0.13734253845E+02  0.31339755006E+02  0.62525163156E+01  0.34783673366E+02  0.00000000000E+00 0. -1.
        -13    1    4    4    0    0 -0.34361688912E+01  0.56559773701E+02  0.69219126355E+02  0.89454472840E+02  0.00000000000E+00 0.  1.
         14    1    4    4    0    0 -0.18252683174E+02  0.16623174712E+02  0.20630216695E+03  0.20777409480E+03  0.00000000000E+00 0. -1.
          5    1    5    5  502    0 -0.37229676413E+02 -0.10484948522E-01  0.25749696029E+03  0.26021687777E+03  0.47000000000E+01 0.  1.
         -5    1    5    5    0  502  0.78252945206E+02  0.29236083875E+01  0.17324706553E+03  0.19018072098E+03  0.47000000000E+01 0.  1.
          1    1    1    2  503    0 -0.40759118757E+02 -0.41660650464E+02  0.91249108878E+03  0.91435053599E+03  0.00000000000E+00 0. -1.
         -4    1    1    2    0  501  0.23904970595E+02 -0.90656236888E+02 -0.35099574828E+03  0.36330154998E+03  0.00000000000E+00 0.  1.
<mgrwt>
<rscale>  0 0.74017331E+02</rscale>
<asrwt>0</asrwt>
<pdfrwt beam="1">  1        2 0.24545692E+00 0.58283064E+02</pdfrwt>
<pdfrwt beam="2">  1       -3 0.71045106E-01 0.93999266E+02</pdfrwt>
<totfact> 0.16176148E+01</totfact>
</mgrwt>
</event>
<event>
13    1  0.1942437E-008  0.1393751E+03  0.7546771E-02  0.1259977E+00
          2   -1    0    0  503    0  0.00000000000E+00  0.00000000000E+00  0.18723776343E+04  0.18723776343E+04  0.00000000000E+00 0. -1.
          2   -1    0    0  502    0 -0.00000000000E+00 -0.00000000000E+00 -0.29804471622E+04  0.29804471622E+04  0.00000000000E+00 0. -1.
         24    2    1    2    0    0 -0.15402416087E+03  0.13733195552E+03 -0.15406289771E+03  0.26961011745E+03  0.79816858125E+02 0.  0.
         24    2    1    2    0    0  0.27782833816E+03  0.41060568438E+02 -0.83639441571E+02  0.30384373845E+03  0.80317528884E+02 0.  0.
         25    2    1    2    0    0 -0.10374673792E+03 -0.12585067557E+03  0.10618192931E+04  0.10815207666E+04  0.12500071678E+03 0.  0.
        -13    1    4    4    0    0  0.21283363514E+03 -0.22439657499E+01 -0.49034159375E+02  0.21842055859E+03  0.00000000000E+00 0.  1.
         14    1    4    4    0    0  0.64994703011E+02  0.43304534188E+02 -0.34605282196E+02  0.85423179855E+02  0.00000000000E+00 0. -1.
        -13    1    3    3    0    0 -0.46392150384E+02  0.72392195733E+02 -0.10237808462E+03  0.13369418024E+03  0.00000000000E+00 0.  1.
         14    1    3    3    0    0 -0.10763201048E+03  0.64939759785E+02 -0.51684813089E+02  0.13591593720E+03  0.00000000000E+00 0. -1.
          5    1    5    5  501    0 -0.22393732807E+02 -0.99616858618E+02  0.78880229581E+03  0.79539685042E+03  0.47000000000E+01 0.  1.
         -5    1    5    5    0  501 -0.81353005110E+02 -0.26233816955E+02  0.27301699729E+03  0.28612391616E+03  0.47000000000E+01 0.  1.
          1    1    1    2  502    0 -0.85838303425E+02 -0.10997175053E+03 -0.25600977777E+04  0.25638959869E+04  0.00000000000E+00 0. -1.
          1    1    1    2  503    0  0.65780864055E+02  0.57429902147E+02  0.62791129601E+03  0.63395418714E+03  0.00000000000E+00 0. -1.
<mgrwt>
<rscale>  0 0.11032071E+03</rscale>
<asrwt>0</asrwt>
<pdfrwt beam="1">  1        2 0.27534966E+00 0.87323054E+02</pdfrwt>
<pdfrwt beam="2">  1        2 0.43830105E+00 0.13937510E+03</pdfrwt>
<totfact> 0.46969610E+00</totfact>
</mgrwt>
</event>
<event>
13    1  0.1942437E-008  0.9644906E+02  0.7546771E-02  0.1388484E+00
          2   -1    0    0  503    0  0.00000000000E+00  0.00000000000E+00  0.21154082831E+04  0.21154082831E+04  0.00000000000E+00 0. -1.
         -1   -1    0    0    0  501 -0.00000000000E+00 -0.00000000000E+00 -0.87930967455E+03  0.87930967455E+03  0.00000000000E+00 0.  1.
         24    2    1    2    0    0 -0.27580099930E+03  0.30533679929E+03  0.19271675139E+03  0.46209068205E+03  0.84209856650E+02 0.  0.
         24    2    1    2    0    0 -0.17150857129E+02 -0.33989720740E+03  0.29475881951E+02  0.35111494974E+03  0.81170295168E+02 0.  0.
         25    2    1    2    0    0  0.21527825204E+03  0.11872785071E+03  0.37769631937E+03  0.46767615641E+03  0.12500179708E+03 0.  0.
        -11    1    4    4    0    0  0.40337310583E+01 -0.28066407467E+03 -0.21583268355E+01  0.28070135762E+03  0.00000000000E+00 0.  1.
         12    1    4    4    0    0 -0.21184588187E+02 -0.59233132730E+02  0.31634208787E+02  0.70413592120E+02  0.00000000000E+00 0. -1.
        -13    1    3    3    0    0 -0.11705238822E+03  0.16218548443E+03  0.53680770980E+02  0.20709181085E+03  0.00000000000E+00 0.  1.
         14    1    3    3    0    0 -0.15874861108E+03  0.14315131486E+03  0.13903598041E+03  0.25499887120E+03  0.00000000000E+00 0. -1.
          5    1    5    5  502    0  0.17129672682E+03  0.55351071356E+02  0.33253232883E+03  0.37816153881E+03  0.47000000000E+01 0.  1.
         -5    1    5    5    0  502  0.43981525225E+02  0.63376779357E+02  0.45163990539E+02  0.89514617600E+02  0.47000000000E+01 0.  1.
          1    1    1    2  503    0  0.39965131449E+02  0.45477101588E+01  0.11703631825E+04  0.11710541714E+04  0.00000000000E+00 0. -1.
         -2    1    1    2    0  501  0.37708472937E+02 -0.88715152758E+02 -0.53415352671E+03  0.54278199800E+03  0.00000000000E+00 0.  1.
<mgrwt>
<rscale>  0 0.62285430E+02</rscale>
<asrwt>0</asrwt>
<pdfrwt beam="1">  1        2 0.31108945E+00 0.40223046E+02</pdfrwt>
<pdfrwt beam="2">  1       -1 0.12931025E+00 0.96449057E+02</pdfrwt>
<totfact> 0.60497225E+00</totfact>
</mgrwt>
</event>
<event>
13    1  0.1942437E-008  0.7448536E+02  0.7546771E-02  0.1394517E+00
          2   -1    0    0  502    0  0.00000000000E+00  0.00000000000E+00  0.12281082529E+04  0.12281082529E+04  0.00000000000E+00 0. -1.
          2   -1    0    0  503    0 -0.00000000000E+00 -0.00000000000E+00 -0.15014639761E+04  0.15014639761E+04  0.00000000000E+00 0. -1.
         24    2    1    2    0    0  0.19497495026E+02  0.63449155767E+02 -0.56987189891E+03  0.57991291388E+03  0.84492951437E+02 0.  0.
         24    2    1    2    0    0  0.10761999126E+01 -0.13537989784E+02 -0.86157920875E+02  0.11436208645E+03  0.73966641907E+02 0.  0.
         25    2    1    2    0    0 -0.43007411997E+02 -0.10630867750E+03  0.27793181971E+03  0.32558181483E+03  0.12492497484E+03 0.  0.
        -11    1    3    3    0    0 -0.20860864578E+02 -0.10033192622E+02 -0.10249201541E+03  0.10507356398E+03  0.00000000000E+00 0.  1.
         12    1    3    3    0    0  0.40358359605E+02  0.73482348390E+02 -0.46737988349E+03  0.47483934990E+03  0.00000000000E+00 0. -1.
        -13    1    4    4    0    0 -0.17157036432E+02 -0.26094769347E+01  0.70715662634E+01  0.18739805720E+02  0.00000000000E+00 0.  1.
         14    1    4    4    0    0  0.18233236345E+02 -0.10928512849E+02 -0.93229487138E+02  0.95622280734E+02  0.00000000000E+00 0. -1.
          5    1    5    5  501    0 -0.44125288709E+02 -0.27898942591E+01  0.17094747097E+03  0.17663508271E+03  0.47000000000E+01 0. -1.
         -5    1    5    5    0  501  0.11178767119E+01 -0.10351878324E+03  0.10698434875E+03  0.14894673212E+03  0.47000000000E+01 0. -1.
          1    1    1    2  502    0  0.47650611703E+02 -0.13855804569E+02  0.90481180266E+03  0.90617159653E+03  0.00000000000E+00 0. -1.
          1    1    1    2  503    0 -0.25216894644E+02  0.70253316087E+02 -0.80006952577E+03  0.80354381727E+03  0.00000000000E+00 0. -1.
<mgrwt>
<rscale>  0 0.60797027E+02</rscale>
<asrwt>0</asrwt>
<pdfrwt beam="1">  1        2 0.18060415E+00 0.49624229E+02</pdfrwt>
<pdfrwt beam="2">  1        2 0.22080353E+00 0.74485358E+02</pdfrwt>
<totfact> 0.58663465E+01</totfact>
</mgrwt>
</event>
<event>
13    1  0.1942437E-008  0.1083347E+03  0.7546771E-02  0.1290287E+00
          2   -1    0    0  503    0  0.00000000000E+00  0.00000000000E+00  0.28614031925E+03  0.28614031925E+03  0.00000000000E+00 0. -1.
          2   -1    0    0  502    0 -0.00000000000E+00 -0.00000000000E+00 -0.24984315207E+04  0.24984315207E+04  0.00000000000E+00 0. -1.
         24    2    1    2    0    0 -0.40019966865E+02  0.71788395051E+02 -0.20576563434E+03  0.23552757965E+03  0.79865969529E+02 0.  0.
         24    2    1    2    0    0  0.32430055611E+02  0.15252611262E+02 -0.12674169064E+03  0.15259703835E+03  0.77058739340E+02 0.  0.
         25    2    1    2    0    0 -0.13595360743E+03 -0.20450061500E+03 -0.31260014849E+02  0.27731727398E+03  0.12499518796E+03 0.  0.
        -11    1    3    3    0    0 -0.57890815613E+02  0.72471335223E+02 -0.19101844175E+03  0.21234755956E+03  0.00000000000E+00 0.  1.
         12    1    3    3    0    0  0.17870848748E+02 -0.68294017262E+00 -0.14747192592E+02  0.23180020095E+02  0.00000000000E+00 0. -1.
        -13    1    4    4    0    0  0.20926158520E+02 -0.24604618342E+02 -0.95062949713E+02  0.10040047690E+03  0.00000000000E+00 0.  1.
         14    1    4    4    0    0  0.11503897091E+02  0.39857229603E+02 -0.31678740930E+02  0.52196561447E+02  0.00000000000E+00 0. -1.
          5    1    5    5  501    0 -0.64410056372E+02 -0.56839029080E+02 -0.67338240853E+02  0.10925135821E+03  0.47000000000E+01 0. -1.
         -5    1    5    5    0  501 -0.71543551053E+02 -0.14766158592E+03  0.36078226004E+02  0.16806591577E+03  0.47000000000E+01 0. -1.
          1    1    1    2  502    0  0.58389694415E+02  0.60391250353E+02 -0.19633834498E+04  0.19651796434E+04  0.00000000000E+00 0. -1.
          1    1    1    2  503    0  0.85153824263E+02  0.57068358334E+02  0.11485958818E+03  0.15395030466E+03  0.00000000000E+00 0. -1.
<mgrwt>
<rscale>  0 0.95396066E+02</rscale>
<asrwt>0</asrwt>
<pdfrwt beam="1">  1        2 0.42079457E-01 0.10833468E+03</pdfrwt>
<pdfrwt beam="2">  1        2 0.36741642E+00 0.84002735E+02</pdfrwt>
<totfact> 0.99668342E+01</totfact>
</mgrwt>
</event>
<event>
13    1  0.1942437E-008  0.2790638E+02  0.7546771E-02  0.1803491E+00
          2   -1    0    0  503    0  0.00000000000E+00  0.00000000000E+00  0.10174592081E+04  0.10174592081E+04  0.00000000000E+00 0. -1.
          2   -1    0    0  502    0 -0.00000000000E+00 -0.00000000000E+00 -0.26655606854E+04  0.26655606854E+04  0.00000000000E+00 0. -1.
         24    2    1    2    0    0  0.19280269515E+02  0.96067779187E+01 -0.78944408670E+03  0.79374110075E+03  0.79617523370E+02 0.  0.
         24    2    1    2    0    0 -0.49007957549E+02 -0.69529680704E+02 -0.65676669431E+03  0.66687510389E+03  0.78382121892E+02 0.  0.
         25    2    1    2    0    0  0.67780745413E+02  0.53364325665E+02 -0.30825227575E+03  0.34363123060E+03  0.12498390471E+03 0.  0.
        -13    1    3    3    0    0  0.43891674163E+02 -0.10531944251E+02 -0.31312250177E+03  0.31635913457E+03  0.00000000000E+00 0.  1.
         14    1    3    3    0    0 -0.24611404648E+02  0.20138722170E+02 -0.47632158493E+03  0.47738196619E+03  0.00000000000E+00 0. -1.
        -13    1    4    4    0    0  0.15631131899E+02  0.51071012799E+00 -0.43070540419E+02  0.45822096866E+02  0.00000000000E+00 0.  1.
         14    1    4    4    0    0 -0.64639089448E+02 -0.70040390832E+02 -0.61369615389E+03  0.62105300703E+03  0.00000000000E+00 0. -1.
          5    1    5    5  501    0  0.71531462312E+02 -0.32780044695E+00 -0.73223741273E+02  0.10247274681E+03  0.47000000000E+01 0.  1.
         -5    1    5    5    0  501 -0.37507168986E+01  0.53692126112E+02 -0.23502853447E+03  0.24115848378E+03  0.47000000000E+01 0.  1.
          1    1    1    2  502    0 -0.27436935190E+02  0.45552758294E+01 -0.88595781266E+03  0.88639425865E+03  0.00000000000E+00 0. -1.
          1    1    1    2  503    0 -0.10616122189E+02  0.20033012907E+01  0.99231939204E+03  0.99237819962E+03  0.00000000000E+00 0. -1.
<mgrwt>
<rscale>  0 0.17363356E+02</rscale>
<asrwt>0</asrwt>
<pdfrwt beam="1">  1        2 0.14962636E+00 0.10803484E+02</pdfrwt>
<pdfrwt beam="2">  1        2 0.39199421E+00 0.27906380E+02</pdfrwt>
<totfact> 0.26244015E+01</totfact>
</mgrwt>
</event>
<event>
13    1  0.1942437E-008  0.1558628E+03  0.7546771E-02  0.1218125E+00
          2   -1    0    0  503    0  0.00000000000E+00  0.00000000000E+00  0.94777986432E+03  0.94777986432E+03  0.00000000000E+00 0. -1.
         -1   -1    0    0    0  501 -0.00000000000E+00 -0.00000000000E+00 -0.26069313768E+04  0.26069313768E+04  0.00000000000E+00 0.  1.
         24    2    1    2    0    0 -0.18033784750E+03  0.10664829477E+03 -0.76920848142E+03  0.80130586185E+03  0.80708105713E+02 0.  0.
         24    2    1    2    0    0  0.28138077328E+03 -0.22820899085E+03  0.78632080892E+02  0.37908224095E+03  0.79157173919E+02 0.  0.
         25    2    1    2    0    0  0.99555796877E+02  0.91661654882E+01  0.14519110119E+03  0.21610288788E+03  0.12499850800E+03 0.  0.
        -11    1    4    4    0    0  0.13879862941E+03 -0.62521068837E+02  0.30540341780E+02  0.15526318318E+03  0.00000000000E+00 0.  1.
         12    1    4    4    0    0  0.14258214387E+03 -0.16568792202E+03  0.48091739112E+02  0.22381905778E+03  0.00000000000E+00 0. -1.
        -13    1    3    3    0    0 -0.13753369397E+03  0.10749879967E+03 -0.52190282819E+03  0.55032178857E+03  0.00000000000E+00 0.  1.
         14    1    3    3    0    0 -0.42804153533E+02 -0.85050490217E+00 -0.24730565324E+03  0.25098407328E+03  0.00000000000E+00 0. -1.
          5    1    5    5  502    0 -0.29009878469E+02  0.88679649144E+01  0.36427084454E+02  0.47636502100E+02  0.47000000000E+01 0. -1.
         -5    1    5    5    0  502  0.12856567535E+03  0.29820057382E+00  0.10876401674E+03  0.16846638578E+03  0.47000000000E+01 0. -1.
          1    1    1    2  503    0 -0.45148901465E+02  0.11067904331E+03  0.51162930280E+03  0.52540728717E+03  0.00000000000E+00 0. -1.
         -2    1    1    2    0  501 -0.15544982119E+03  0.17154872960E+01 -0.16253955159E+04  0.16328129633E+04  0.00000000000E+00 0.  1.
<mgrwt>
<rscale>  0 0.13649482E+03</rscale>
<asrwt>0</asrwt>
<pdfrwt beam="1">  1        2 0.13937939E+00 0.11953357E+03</pdfrwt>
<pdfrwt beam="2">  1       -1 0.38337226E+00 0.15586280E+03</pdfrwt>
<totfact> 0.44379472E-01</totfact>
</mgrwt>
</event>
<event>
13    1  0.1942437E-008  0.9910436E+02  0.7546771E-02  0.1390999E+00
          2   -1    0    0  502    0  0.00000000000E+00  0.00000000000E+00  0.20792273579E+04  0.20792273579E+04  0.00000000000E+00 0. -1.
          2   -1    0    0  503    0 -0.00000000000E+00 -0.00000000000E+00 -0.24132555085E+04  0.24132555085E+04  0.00000000000E+00 0. -1.
         24    2    1    2    0    0 -0.43995864204E+03  0.19666046393E+03 -0.48757603021E+03  0.69037697746E+03  0.81553914658E+02 0.  0.
         24    2    1    2    0    0  0.72988181637E+03 -0.40609526074E+02 -0.66437270585E+03  0.99172036224E+03  0.87986278035E+02 0.  0.
         25    2    1    2    0    0 -0.29041346232E+03 -0.49140927389E+02  0.41059678514E+03  0.52054471796E+03  0.12498909387E+03 0.  0.
        -11    1    4    4    0    0  0.60833934058E+03 -0.40074164874E+02 -0.50732916406E+03  0.79313654102E+03  0.00000000000E+00 0.  1.
         12    1    4    4    0    0  0.12154247579E+03 -0.53536120040E+00 -0.15704354180E+03  0.19858382122E+03  0.00000000000E+00 0. -1.
        -13    1    3    3    0    0 -0.28671144014E+03  0.16874926721E+03 -0.32052035953E+03  0.46196652040E+03  0.00000000000E+00 0.  1.
         14    1    3    3    0    0 -0.15324720190E+03  0.27911196722E+02 -0.16705567067E+03  0.22841045706E+03  0.00000000000E+00 0. -1.
          5    1    5    5  501    0  0.68970493714E+01  0.13678726544E+02  0.19064620471E+02  0.24904349090E+02  0.47000000000E+01 0. -1.
         -5    1    5    5    0  501 -0.29731051169E+03 -0.62819653933E+02  0.39153216467E+03  0.49564036887E+03  0.47000000000E+01 0. -1.
          1    1    1    2  502    0  0.35978254048E+02 -0.92342127459E+02  0.13463694443E+04  0.13500119199E+04  0.00000000000E+00 0. -1.
          1    1    1    2  503    0 -0.35487966055E+02 -0.14567883009E+02 -0.93904564394E+03  0.93982888887E+03  0.00000000000E+00 0. -1.
<mgrwt>
<rscale>  0 0.61658823E+02</rscale>
<asrwt>0</asrwt>
<pdfrwt beam="1">  1        2 0.30576873E+00 0.99104362E+02</pdfrwt>
<pdfrwt beam="2">  1        2 0.35489051E+00 0.38361686E+02</pdfrwt>
<totfact> 0.85742117E+00</totfact>
</mgrwt>
</event>
<event>
13    1  0.1942437E-008  0.3832801E+02  0.7546771E-02  0.1680939E+00
          2   -1    0    0  502    0  0.00000000000E+00  0.00000000000E+00  0.83197754481E+03  0.83197754481E+03  0.00000000000E+00 0. -1.
          2   -1    0    0  503    0 -0.00000000000E+00 -0.00000000000E+00 -0.60329963637E+03  0.60329963637E+03  0.00000000000E+00 0. -1.
         24    2    1    2    0    0 -0.13918079644E+02  0.69608688961E+02 -0.20483821942E+03  0.23125848496E+03  0.80515266932E+02 0.  0.
         24    2    1    2    0    0  0.81078397963E+01 -0.41123665268E+02 -0.81819896297E+02  0.12185556181E+03  0.79983683349E+02 0.  0.
         25    2    1    2    0    0 -0.18630658276E+02 -0.15466250677E+02  0.14687471356E+03  0.19438009263E+03  0.12500053036E+03 0.  0.
        -11    1    3    3    0    0 -0.10144139738E+02 -0.17031133492E+02 -0.50039923254E+02  0.53823387095E+02  0.00000000000E+00 0.  1.
         12    1    3    3    0    0 -0.37739399054E+01  0.86639822453E+02 -0.15479829617E+03  0.17743509786E+03  0.00000000000E+00 0. -1.
        -13    1    4    4    0    0 -0.32672928037E+02 -0.56150685562E+01 -0.16417198983E+02  0.36994237981E+02  0.00000000000E+00 0.  1.
         14    1    4    4    0    0  0.40780767833E+02 -0.35508596712E+02 -0.65402697315E+02  0.84861323826E+02  0.00000000000E+00 0. -1.
          5    1    5    5  501    0 -0.32160887342E+02 -0.61998330236E+02  0.50209788936E+02  0.86146552639E+02  0.47000000000E+01 0.  1.
         -5    1    5    5    0  501  0.13530229066E+02  0.46532079559E+02  0.96664924627E+02  0.10823353999E+03  0.47000000000E+01 0.  1.
          1    1    1    2  502    0 -0.13323594644E+02 -0.60007805151E+01  0.62661601539E+03  0.62678637372E+03  0.00000000000E+00 0. -1.
          1    1    1    2  503    0  0.37764492768E+02 -0.70179925008E+01 -0.25815470479E+03  0.26099666806E+03  0.00000000000E+00 0. -1.
<mgrwt>
<rscale>  0 0.23665823E+02</rscale>
<asrwt>0</asrwt>
<pdfrwt beam="1">  1        2 0.12234964E+00 0.14612582E+02</pdfrwt>
<pdfrwt beam="2">  1        2 0.88720535E-01 0.38328010E+02</pdfrwt>
<totfact> 0.34126964E+02</totfact>
</mgrwt>
</event>
<event>
13    1  0.1942437E-008  0.1267981E+03  0.7546771E-02  0.1352779E+00
          2   -1    0    0  503    0  0.00000000000E+00  0.00000000000E+00  0.29968255881E+04  0.29968255881E+04  0.00000000000E+00 0. -1.
          2   -1    0    0  502    0 -0.00000000000E+00 -0.00000000000E+00 -0.10700451161E+04  0.10700451161E+04  0.00000000000E+00 0. -1.
         24    2    1    2    0    0 -0.51864788071E+02  0.20878985539E+02 -0.36970449242E+02  0.10572286530E+03  0.81759536757E+02 0.  0.
         24    2    1    2    0    0  0.62030244073E+02  0.43057594718E+02  0.10932534927E+03  0.15764597336E+03  0.84844052714E+02 0.  0.
         25    2    1    2    0    0  0.66033902167E+02  0.11397384686E+03  0.75777024354E+03  0.77922445598E+03  0.12499798717E+03 0.  0.
        -13    1    3    3    0    0  0.83003306675E+01  0.18874604454E+02 -0.40472988063E+02  0.45422559871E+02  0.00000000000E+00 0.  1.
         14    1    3    3    0    0 -0.60165118738E+02  0.20043810856E+01  0.35025388206E+01  0.60300305427E+02  0.00000000000E+00 0. -1.
        -13    1    4    4    0    0  0.36585178894E+01 -0.18293656571E+02  0.52363876117E+02  0.55587931657E+02  0.00000000000E+00 0.  1.
         14    1    4    4    0    0  0.58371726184E+02  0.61351251289E+02  0.56961473152E+02  0.10205804170E+03  0.00000000000E+00 0. -1.
          5    1    5    5  501    0  0.65910763387E+02  0.85247211083E+02  0.73331970764E+03  0.74120928174E+03  0.47000000000E+01 0.  1.
         -5    1    5    5    0  501  0.12313877985E+00  0.28726635780E+02  0.24450535899E+02  0.38015174236E+02  0.47000000000E+01 0.  1.
          1    1    1    2  502    0 -0.42315135376E+02 -0.15463659405E+03 -0.95693688911E+03  0.97027380498E+03  0.00000000000E+00 0. -1.
          1    1    1    2  503    0 -0.33884222793E+02 -0.23273833066E+02  0.20535922175E+04  0.20540036046E+04  0.00000000000E+00 0. -1.
<mgrwt>
<rscale>  0 0.72196472E+02</rscale>
<asrwt>0</asrwt>
<pdfrwt beam="1">  1        2 0.44070964E+00 0.41107321E+02</pdfrwt>
<pdfrwt beam="2">  1        2 0.15735958E+00 0.12679811E+03</pdfrwt>
<totfact> 0.13856309E+01</totfact>
</mgrwt>
</event>
<event>
13    1  0.1942437E-008  0.3757699E+02  0.7546771E-02  0.1615502E+00
          2   -1    0    0  503    0  0.00000000000E+00  0.00000000000E+00  0.70939323023E+03  0.70939323023E+03  0.00000000000E+00 0. -1.
          2   -1    0    0  502    0 -0.00000000000E+00 -0.00000000000E+00 -0.29376563448E+04  0.29376563448E+04  0.00000000000E+00 0. -1.
         24    2    1    2    0    0  0.15242738672E+02  0.71681627183E+02 -0.19395162008E+03  0.22237273461E+03  0.80385355681E+02 0.  0.
         24    2    1    2    0    0 -0.90609016704E+01 -0.87588774311E+02 -0.27914692553E+03  0.30378789114E+03  0.81303034666E+02 0.  0.
         25    2    1    2    0    0 -0.44253541910E+02  0.29438745090E+02  0.29864128485E+03  0.32807997237E+03  0.12499934229E+03 0.  0.
        -11    1    3    3    0    0 -0.19858901446E+02  0.29320785014E+02 -0.21662158341E+02  0.41513052218E+02  0.00000000000E+00 0.  1.
         12    1    3    3    0    0  0.35101640118E+02  0.42360842169E+02 -0.17228946174E+03  0.18085968239E+03  0.00000000000E+00 0. -1.
        -11    1    4    4    0    0 -0.40894483849E+02 -0.74126707199E+02 -0.21171823400E+03  0.22801696897E+03  0.00000000000E+00 0.  1.
         12    1    4    4    0    0  0.31833582179E+02 -0.13462067112E+02 -0.67428691534E+02  0.75770922175E+02  0.00000000000E+00 0. -1.
          5    1    5    5  501    0 -0.48804213422E+02  0.45368396151E+01  0.28861973728E+02  0.57074842872E+02  0.47000000000E+01 0.  1.
         -5    1    5    5    0  501  0.45506715118E+01  0.24901905475E+02  0.26977931112E+03  0.27100512950E+03  0.47000000000E+01 0.  1.
          1    1    1    2  502    0  0.23420734762E+02 -0.29387148314E+02 -0.24228462663E+04  0.24231376695E+04  0.00000000000E+00 0. -1.
          1    1    1    2  503    0  0.14650970146E+02  0.15855550352E+02  0.36904041253E+03  0.36967130735E+03  0.00000000000E+00 0. -1.
<mgrwt>
<rscale>  0 0.28481902E+02</rscale>
<asrwt>0</asrwt>
<pdfrwt beam="1">  1        2 0.10432254E+00 0.21588177E+02</pdfrwt>
<pdfrwt beam="2">  1        2 0.43200828E+00 0.37576990E+02</pdfrwt>
<totfact> 0.26669417E+01</totfact>
</mgrwt>
</event>
<event>
13    1  0.1942437E-008  0.6644749E+02  0.7546771E-02  0.1381997E+00
          2   -1    0    0  503    0  0.00000000000E+00  0.00000000000E+00  0.16355516417E+04  0.16355516417E+04  0.00000000000E+00 0. -1.
          2   -1    0    0  502    0 -0.00000000000E+00 -0.00000000000E+00 -0.11728258213E+04  0.11728258213E+04  0.00000000000E+00 0. -1.
         24    2    1    2    0    0  0.62075483671E+02  0.26121214444E+02  0.38302053938E+02  0.10658838793E+03  0.73200775869E+02 0.  0.
         24    2    1    2    0    0 -0.65118863522E+01 -0.62541626453E+02  0.68739318360E+02  0.11972135744E+03  0.75194746067E+02 0.  0.
         25    2    1    2    0    0 -0.30382164751E+02 -0.41545413066E+02  0.76373531959E+03  0.77560669755E+03  0.12500005443E+03 0.  0.
        -11    1    4    4    0    0  0.33335056412E+02 -0.17272703837E+02  0.22987113298E+02  0.44022490407E+02  0.00000000000E+00 0.  1.
         12    1    4    4    0    0 -0.39846942764E+02 -0.45268922616E+02  0.45752205061E+02  0.75698867035E+02  0.00000000000E+00 0. -1.
        -13    1    3    3    0    0  0.52450603613E+02  0.41080042157E+02  0.25687919708E+01  0.66672590884E+02  0.00000000000E+00 0.  1.
         14    1    3    3    0    0  0.96248800573E+01 -0.14958827713E+02  0.35733261967E+02  0.39915797042E+02  0.00000000000E+00 0. -1.
          5    1    5    5  501    0  0.38433208111E+02 -0.21202147931E+02  0.11991175970E+03  0.12777935153E+03  0.47000000000E+01 0. -1.
         -5    1    5    5    0  501 -0.68815372863E+02 -0.20343265135E+02  0.64382355989E+03  0.64782734602E+03  0.47000000000E+01 0. -1.
          1    1    1    2  502    0 -0.58188666775E+02  0.20002312745E+02 -0.11048071223E+04  0.11065192230E+04  0.00000000000E+00 0. -1.
          1    1    1    2  503    0  0.33007234208E+02  0.57963512329E+02  0.69675625074E+03  0.69994179703E+03  0.00000000000E+00 0. -1.
<mgrwt>
<rscale>  0 0.63941798E+02</rscale>
<asrwt>0</asrwt>
<pdfrwt beam="1">  1        2 0.24052230E+00 0.66447495E+02</pdfrwt>
<pdfrwt beam="2">  1        2 0.17247438E+00 0.61530590E+02</pdfrwt>
<totfact> 0.53753768E+01</totfact>
</mgrwt>
</event>
<event>
13    1  0.1942437E-008  0.1693391E+03  0.7546771E-02  0.1276119E+00
         -3   -1    0    0    0  501 -0.00000000000E+00  0.00000000000E+00  0.13545036104E+04  0.13545036104E+04  0.00000000000E+00 0.  1.
          2   -1    0    0  503    0  0.00000000000E+00 -0.00000000000E+00 -0.33819589525E+04  0.33819589525E+04  0.00000000000E+00 0. -1.
         24    2    1    2    0    0 -0.70158587060E+02 -0.51395282972E+02 -0.34056476338E+02  0.12235442092E+03  0.79038334299E+02 0.  0.
         24    2    1    2    0    0  0.58768617258E+01 -0.21757790903E+02 -0.15265482474E+02  0.85283280229E+02  0.80822422400E+02 0.  0.
         25    2    1    2    0    0 -0.53006512363E+02  0.54863375735E+02 -0.26576406457E+03  0.30343832794E+03  0.12499840197E+03 0.  0.
        -11    1    4    4    0    0 -0.23686121533E+02 -0.13053288888E+02 -0.38244951686E+02  0.46841189498E+02  0.00000000000E+00 0.  1.
         12    1    4    4    0    0  0.29562983259E+02 -0.87045020152E+01  0.22979469212E+02  0.38442090731E+02  0.00000000000E+00 0. -1.
        -13    1    3    3    0    0 -0.55063789279E+02 -0.61146401115E+02 -0.51692935796E+02  0.97175423180E+02  0.00000000000E+00 0.  1.
         14    1    3    3    0    0 -0.15094797781E+02  0.97511181429E+01  0.17636459458E+02  0.25178997742E+02  0.00000000000E+00 0. -1.
          5    1    5    5  502    0  0.23425250493E+02  0.30911425107E+02 -0.18016849631E+02  0.43022731589E+02  0.47000000000E+01 0.  1.
         -5    1    5    5    0  502 -0.76431762855E+02  0.23951950628E+02 -0.24774721494E+03  0.26041559635E+03  0.47000000000E+01 0.  1.
          1    1    1    2  503    0 -0.54021303085E+02  0.29297338552E+02 -0.29626946939E+04  0.29633319903E+04  0.00000000000E+00 0. -1.
         -4    1    1    2    0  501  0.17130954078E+03 -0.11007640412E+02  0.12503253753E+04  0.12620545436E+04  0.00000000000E+00 0.  1.
<mgrwt>
<rscale>  0 0.10201286E+03</rscale>
<asrwt>0</asrwt>
<pdfrwt beam="2">  1        2 0.49734690E+00 0.61454335E+02</pdfrwt>
<pdfrwt beam="1">  1       -3 0.19919171E+00 0.16933913E+03</pdfrwt>
<totfact> 0.19534680E-01</totfact>
</mgrwt>
</event>
<event>
13    1  0.1942437E-008  0.1134161E+03  0.7546771E-02  0.1355430E+00
          2   -1    0    0  502    0  0.00000000000E+00  0.00000000000E+00  0.31062800747E+03  0.31062800747E+03  0.00000000000E+00 0. -1.
          2   -1    0    0  503    0 -0.00000000000E+00 -0.00000000000E+00 -0.15847593041E+04  0.15847593041E+04  0.00000000000E+00 0. -1.
         24    2    1    2    0    0 -0.19740301369E+03  0.38915608469E+02 -0.57886861048E+03  0.61880150358E+03  0.85697480952E+02 0.  0.
         24    2    1    2    0    0  0.49530623746E+02 -0.17324076106E+02 -0.11797330771E+02  0.96776276956E+02  0.80455356979E+02 0.  0.
         25    2    1    2    0    0  0.33439856398E+02  0.65215623374E+02  0.63973889596E+02  0.15839607654E+03  0.12500142793E+03 0.  0.
        -11    1    3    3    0    0 -0.26778507179E+02  0.28648206960E+02 -0.19028368739E+03  0.19428250023E+03  0.00000000000E+00 0.  1.
         12    1    3    3    0    0 -0.17062450651E+03  0.10267401509E+02 -0.38858492310E+03  0.42451900336E+03  0.00000000000E+00 0. -1.
        -13    1    4    4    0    0 -0.12181297573E+02  0.76780086925E+01  0.18649176972E+02  0.23561146615E+02  0.00000000000E+00 0.  1.
         14    1    4    4    0    0  0.61711921319E+02 -0.25002084799E+02 -0.30446507743E+02  0.73215130341E+02  0.00000000000E+00 0. -1.
          5    1    5    5  501    0  0.63357548186E+01 -0.49374437855E+01 -0.33740969914E+02  0.35000902717E+02  0.47000000000E+01 0.  1.
         -5    1    5    5    0  501  0.27104101580E+02  0.70153067159E+02  0.97714859510E+02  0.12339517383E+03  0.47000000000E+01 0.  1.
          1    1    1    2  502    0  0.11965505808E+02 -0.43313840797E+02  0.12968720853E+03  0.13725171835E+03  0.00000000000E+00 0. -1.
          1    1    1    2  503    0  0.10246702774E+03 -0.43493314940E+02 -0.87712645355E+03  0.88416173619E+03  0.00000000000E+00 0. -1.
<mgrwt>
<rscale>  0 0.71389702E+02</rscale>
<asrwt>0</asrwt>
<pdfrwt beam="1">  1        2 0.45680589E-01 0.44936201E+02</pdfrwt>
<pdfrwt beam="2">  1        2 0.23305284E+00 0.11341612E+03</pdfrwt>
<totfact> 0.24370410E+02</totfact>
</mgrwt>
</event>
<event>
13    1  0.1942437E-008  0.3052539E+02  0.7546771E-02  0.1671884E+00
          2   -1    0    0  503    0  0.00000000000E+00  0.00000000000E+00  0.72940615270E+03  0.72940615270E+03  0.00000000000E+00 0. -1.
          2   -1    0    0  502    0 -0.00000000000E+00 -0.00000000000E+00 -0.24574858956E+04  0.24574858956E+04  0.00000000000E+00 0. -1.
         24    2    1    2    0    0 -0.26870112887E+03  0.11155470222E+03 -0.55694144882E+03  0.63634481320E+03  0.10052957591E+03 0.  0.
         24    2    1    2    0    0  0.52735014281E+03 -0.21304988596E+03 -0.62313080395E+03  0.84758947240E+03  0.81409384378E+02 0.  0.
         25    2    1    2    0    0 -0.21808849914E+03  0.12776806994E+03 -0.13281916547E+03  0.31169335260E+03  0.12499816872E+03 0.  0.
        -11    1    3    3    0    0 -0.23673750941E+03  0.72278290642E+02 -0.51176779643E+03  0.56848489613E+03  0.00000000000E+00 0.  1.
         12    1    3    3    0    0 -0.31963619462E+02  0.39276411576E+02 -0.45173652386E+02  0.67859917074E+02  0.00000000000E+00 0. -1.
        -13    1    4    4    0    0  0.24061211234E+03 -0.13694122465E+03 -0.32628974767E+03  0.42791598130E+03  0.00000000000E+00 0.  1.
         14    1    4    4    0    0  0.28673803047E+03 -0.76108661315E+02 -0.29684105627E+03  0.41967349110E+03  0.00000000000E+00 0. -1.
          5    1    5    5  501    0 -0.13167033325E+03  0.19615084261E+02 -0.23566064466E+02  0.13527482243E+03  0.47000000000E+01 0.  1.
         -5    1    5    5    0  501 -0.86418165891E+02  0.10815298568E+03 -0.10925310100E+03  0.17641853017E+03  0.47000000000E+01 0.  1.
          1    1    1    2  502    0 -0.21970898847E+02 -0.21165461686E+02 -0.90277822446E+03  0.90329354017E+03  0.00000000000E+00 0. -1.
          1    1    1    2  503    0 -0.18589615955E+02 -0.51074245108E+01  0.48758989975E+03  0.48797086997E+03  0.00000000000E+00 0. -1.
<mgrwt>
<rscale>  0 0.24258666E+02</rscale>
<asrwt>0</asrwt>
<pdfrwt beam="1">  1        2 0.10726561E+00 0.19278475E+02</pdfrwt>
<pdfrwt beam="2">  1        2 0.36139498E+00 0.30525386E+02</pdfrwt>
<totfact> 0.45853483E+01</totfact>
</mgrwt>
</event>
<event>
13    1  0.1942437E-008  0.7616433E+02  0.7546771E-02  0.1506108E+00
          2   -1    0    0  503    0  0.00000000000E+00  0.00000000000E+00  0.20375940588E+04  0.20375940588E+04  0.00000000000E+00 0. -1.
         -1   -1    0    0    0  501 -0.00000000000E+00 -0.00000000000E+00 -0.19049518993E+03  0.19049518993E+03  0.00000000000E+00 0.  1.
         24    2    1    2    0    0 -0.48807883593E+02 -0.41193774618E+02 -0.12958748633E+02  0.10374450488E+03  0.80720855787E+02 0.  0.
         24    2    1    2    0    0  0.27768760625E+02 -0.15593364283E+02  0.21845732389E+03  0.24010195362E+03  0.94398562985E+02 0.  0.
         25    2    1    2    0    0 -0.44110067269E+02  0.16299601064E+02  0.69634363159E+03  0.70903488450E+03  0.12499855660E+03 0.  0.
        -11    1    4    4    0    0  0.45637198071E+02  0.60993567814E+01  0.20273723118E+03  0.20789983383E+03  0.00000000000E+00 0.  1.
         12    1    4    4    0    0 -0.17868437446E+02 -0.21692721064E+02  0.15720092712E+02  0.32202119788E+02  0.00000000000E+00 0. -1.
        -13    1    3    3    0    0 -0.46903242127E+02 -0.38970399665E+02  0.24830564562E+02  0.65841955534E+02  0.00000000000E+00 0.  1.
         14    1    3    3    0    0 -0.19046414660E+01 -0.22233749532E+01 -0.37789313195E+02  0.37902549348E+02  0.00000000000E+00 0. -1.
          5    1    5    5  502    0 -0.84095279831E+02  0.12038790860E+02  0.57129363805E+03  0.57759454590E+03  0.47000000000E+01 0. -1.
         -5    1    5    5    0  502  0.39985212562E+02  0.42608102039E+01  0.12504999354E+03  0.13144033860E+03  0.47000000000E+01 0. -1.
          1    1    1    2  503    0 -0.81525749778E+01  0.19688890614E+02  0.10474881692E+04  0.10477049114E+04  0.00000000000E+00 0. -1.
         -2    1    1    2    0  501  0.73301765214E+02  0.20798647222E+02 -0.10223150713E+03  0.12750299431E+03  0.00000000000E+00 0.  1.
<mgrwt>
<rscale>  0 0.40287259E+02</rscale>
<asrwt>0</asrwt>
<pdfrwt beam="1">  1        2 0.29964617E+00 0.21310019E+02</pdfrwt>
<pdfrwt beam="2">  1       -1 0.28014000E-01 0.76164329E+02</pdfrwt>
<totfact> 0.13533414E+02</totfact>
</mgrwt>
</event>
<event>
13    1  0.1942437E-008  0.2322897E+03  0.7546771E-02  0.1300158E+00
          2   -1    0    0  503    0  0.00000000000E+00  0.00000000000E+00  0.13548643716E+04  0.13548643716E+04  0.00000000000E+00 0. -1.
         -1   -1    0    0    0  501 -0.00000000000E+00 -0.00000000000E+00 -0.18824225659E+04  0.18824225659E+04  0.00000000000E+00 0.  1.
         24    2    1    2    0    0  0.34885599561E+03  0.29650423373E+03 -0.15278770452E+03  0.48929028865E+03  0.80284728436E+02 0.  0.
         24    2    1    2    0    0 -0.53452701341E+03  0.17214592871E+03 -0.13988188641E+03  0.58127143277E+03  0.54370833892E+02 0.  0.
         25    2    1    2    0    0  0.40432525678E+02 -0.33305942871E+03  0.53142952806E+03  0.64078727741E+03  0.12501047718E+03 0.  0.
        -11    1    3    3    0    0  0.27807514023E+03  0.24745275187E+03 -0.90698580617E+02  0.38312514998E+03  0.00000000000E+00 0.  1.
         12    1    3    3    0    0  0.70780855381E+02  0.49051481858E+02 -0.62089123905E+02  0.10616513867E+03  0.00000000000E+00 0. -1.
        -13    1    4    4    0    0 -0.39480090043E+03  0.11616168619E+03 -0.79809785526E+02  0.41920268390E+03  0.00000000000E+00 0.  1.
         14    1    4    4    0    0 -0.13972611298E+03  0.55984242515E+02 -0.60072100883E+02  0.16206874888E+03  0.00000000000E+00 0. -1.
          5    1    5    5  502    0 -0.43127715730E+02 -0.15299669319E+03  0.22050759238E+03  0.27187069773E+03  0.47000000000E+01 0. -1.
         -5    1    5    5    0  502  0.83560241408E+02 -0.18006273552E+03  0.31092193569E+03  0.36891657968E+03  0.47000000000E+01 0. -1.
          1    1    1    2  503    0  0.16652446499E+03 -0.16430663581E+03  0.34347217213E+03  0.41557213699E+03  0.00000000000E+00 0. -1.
         -2    1    1    2    0  501 -0.21285972866E+02  0.28715902082E+02 -0.11097903035E+04  0.11103658016E+04  0.00000000000E+00 0.  1.
<mgrwt>
<rscale>  0 0.91121701E+02</rscale>
<asrwt>0</asrwt>
<pdfrwt beam="1">  1        2 0.19924476E+00 0.23228968E+03</pdfrwt>
<pdfrwt beam="2">  1       -1 0.27682685E+00 0.35744869E+02</pdfrwt>
<totfact> 0.14157049E+00</totfact>
</mgrwt>
</event>
<event>
13    1  0.1942437E-008  0.9668387E+02  0.7546771E-02  0.1391615E+00
         -1   -1    0    0    0  501 -0.00000000000E+00  0.00000000000E+00  0.71428530501E+03  0.71428530501E+03  0.00000000000E+00 0.  1.
          2   -1    0    0  503    0  0.00000000000E+00 -0.00000000000E+00 -0.21337715195E+04  0.21337715195E+04  0.00000000000E+00 0. -1.
         24    2    1    2    0    0 -0.37876221363E+02 -0.10113275924E+03  0.19782435750E+02  0.12945191201E+03  0.68585782940E+02 0.  0.
         24    2    1    2    0    0  0.12156919107E+03 -0.69083910025E+02  0.46576470010E+01  0.16046445375E+03  0.78584301221E+02 0.  0.
         25    2    1    2    0    0 -0.16652795082E+03 -0.69469249197E+01 -0.50553526661E+03  0.54678652833E+03  0.12501913296E+03 0.  0.
        -11    1    3    3    0    0 -0.48718731039E+02 -0.94285271791E+02  0.30115266436E+00  0.10612877990E+03  0.00000000000E+00 0.  1.
         12    1    3    3    0    0  0.10842509676E+02 -0.68474874492E+01  0.19481283086E+02  0.23323132103E+02  0.00000000000E+00 0. -1.
        -13    1    4    4    0    0 -0.65722395482E+01 -0.16143866852E+02 -0.11495941164E+02  0.20880024733E+02  0.00000000000E+00 0.  1.
         14    1    4    4    0    0  0.12814143062E+03 -0.52940043173E+02  0.16153588165E+02  0.13958442901E+03  0.00000000000E+00 0. -1.
          5    1    5    5  502    0 -0.73308116346E+02 -0.61522012345E+02 -0.18230782170E+03  0.20595453328E+03  0.47000000000E+01 0.  1.
         -5    1    5    5    0  502 -0.93219834476E+02  0.54575087426E+02 -0.32322744491E+03  0.34083199505E+03  0.47000000000E+01 0.  1.
          1    1    1    2  503    0  0.24595243546E+01  0.39051195163E+02 -0.14627056320E+04  0.14632288991E+04  0.00000000000E+00 0. -1.
         -2    1    1    2    0  501  0.80375456757E+02  0.13811239902E+03  0.52431460137E+03  0.54812503138E+03  0.00000000000E+00 0.  1.
<mgrwt>
<rscale>  0 0.61506924E+02</rscale>
<asrwt>0</asrwt>
<pdfrwt beam="2">  1        2 0.31378993E+00 0.39128571E+02</pdfrwt>
<pdfrwt beam="1">  1       -1 0.10504196E+00 0.96683870E+02</pdfrwt>
<totfact> 0.96138144E+00</totfact>
</mgrwt>
</event>
<event>
13    1  0.1942437E-008  0.8847142E+02  0.7546771E-02  0.1435086E+00
          2   -1    0    0  502    0  0.00000000000E+00  0.00000000000E+00  0.31041408352E+04  0.31041408352E+04  0.00000000000E+00 0. -1.
          2   -1    0    0  503    0 -0.00000000000E+00 -0.00000000000E+00 -0.24702548116E+04  0.24702548116E+04  0.00000000000E+00 0. -1.
         24    2    1    2    0    0  0.90971940223E+02  0.43265366562E+02 -0.73023917663E+03  0.74170447198E+03  0.82027329724E+02 0.  0.
         24    2    1    2    0    0 -0.33521713629E+02 -0.92297057778E+02 -0.63575439479E+03  0.64834636407E+03  0.80789263893E+02 0.  0.
         25    2    1    2    0    0 -0.17588124016E+02  0.91523747475E+02  0.56907341950E+03  0.59004250391E+03  0.12497864288E+03 0.  0.
        -11    1    3    3    0    0  0.49489586376E+02  0.64435710441E+02 -0.52484429339E+03  0.53109576560E+03  0.00000000000E+00 0.  1.
         12    1    3    3    0    0  0.41482353847E+02 -0.21170343880E+02 -0.20539488324E+03  0.21060870638E+03  0.00000000000E+00 0. -1.
        -13    1    4    4    0    0  0.13864205129E+02 -0.17867575404E+02 -0.38828153274E+02  0.44934306730E+02  0.00000000000E+00 0.  1.
         14    1    4    4    0    0 -0.47385918759E+02 -0.74429482374E+02 -0.59692624151E+03  0.60341205734E+03  0.00000000000E+00 0. -1.
          5    1    5    5  501    0 -0.45458888767E+02  0.33956385311E+02  0.46001700412E+03  0.46352700110E+03  0.47000000000E+01 0. -1.
         -5    1    5    5    0  501  0.27870764751E+02  0.57567362164E+02  0.10905641538E+03  0.12651550280E+03  0.47000000000E+01 0. -1.
          1    1    1    2  502    0  0.23841659025E+02  0.19033959428E+02  0.25106486937E+04  0.25108340406E+04  0.00000000000E+00 0. -1.
          1    1    1    2  503    0 -0.63703761602E+02 -0.61526015687E+02 -0.10798425182E+04  0.10834682662E+04  0.00000000000E+00 0. -1.
<mgrwt>
<rscale>  0 0.51952427E+02</rscale>
<asrwt>0</asrwt>
<pdfrwt beam="1">  1        2 0.45649130E+00 0.30507644E+02</pdfrwt>
<pdfrwt beam="2">  1        2 0.36327277E+00 0.88471425E+02</pdfrwt>
<totfact> 0.26738087E+00</totfact>
</mgrwt>
</event>
<event>
13    1  0.1942437E-008  0.1111715E+03  0.7546771E-02  0.1275196E+00
          2   -1    0    0  503    0  0.00000000000E+00  0.00000000000E+00  0.28281334025E+04  0.28281334025E+04  0.00000000000E+00 0. -1.
          2   -1    0    0  502    0 -0.00000000000E+00 -0.00000000000E+00 -0.32683260039E+04  0.32683260039E+04  0.00000000000E+00 0. -1.
         24    2    1    2    0    0  0.25303540497E+02 -0.81134929700E+01 -0.53302787724E+03  0.53951146747E+03  0.79043074883E+02 0.  0.
         24    2    1    2    0    0 -0.25620066389E+02 -0.22021584709E+02 -0.30522217842E+02  0.91659742355E+02  0.79552275843E+02 0.  0.
         25    2    1    2    0    0  0.21015303520E+02 -0.49544819148E+02  0.26128667802E+02  0.13857608650E+03  0.12499716949E+03 0.  0.
        -11    1    4    4    0    0 -0.68120452394E+01 -0.51230489534E+02 -0.18812082653E+02  0.54998740640E+02  0.00000000000E+00 0.  1.
         12    1    4    4    0    0 -0.18808021149E+02  0.29208904825E+02 -0.11710135189E+02  0.36661001715E+02  0.00000000000E+00 0. -1.
        -13    1    3    3    0    0  0.42788954298E+02 -0.33268858704E+01 -0.49997274074E+03  0.50181142301E+03  0.00000000000E+00 0.  1.
         14    1    3    3    0    0 -0.17485413801E+02 -0.47866070997E+01 -0.33055136500E+02  0.37700044461E+02  0.00000000000E+00 0. -1.
          5    1    5    5  501    0  0.66893174935E+02  0.11032590986E+01  0.68506657600E+01  0.67416137941E+02  0.47000000000E+01 0.  1.
         -5    1    5    5    0  501 -0.45877871416E+02 -0.50648078247E+02  0.19278002042E+02  0.71159948556E+02  0.47000000000E+01 0.  1.
          1    1    1    2  502    0  0.12342268935E+03  0.21520151980E+02 -0.26110118115E+04  0.26140158677E+04  0.00000000000E+00 0. -1.
          1    1    1    2  503    0 -0.14412146698E+03  0.58159744848E+02  0.27082406374E+04  0.27126962423E+04  0.00000000000E+00 0. -1.
<mgrwt>
<rscale>  0 0.10246504E+03</rscale>
<asrwt>0</asrwt>
<pdfrwt beam="1">  1        2 0.41590197E+00 0.94440427E+02</pdfrwt>
<pdfrwt beam="2">  1        2 0.48063617E+00 0.11117151E+03</pdfrwt>
<totfact> 0.11350026E+00</totfact>
</mgrwt>
</event>
<event>
13    1  0.1942437E-008  0.1653663E+03  0.7546771E-02  0.1229926E+00
          2   -1    0    0  502    0  0.00000000000E+00  0.00000000000E+00  0.90745142659E+03  0.90745142659E+03  0.00000000000E+00 0. -1.
          2   -1    0    0  503    0 -0.00000000000E+00 -0.00000000000E+00 -0.98408508234E+03  0.98408508234E+03  0.00000000000E+00 0. -1.
         24    2    1    2    0    0 -0.25381832032E+01 -0.29478797954E+02 -0.16198690341E+03  0.18356770571E+03  0.81128933173E+02 0.  0.
         24    2    1    2    0    0 -0.16048374111E+03  0.12275881969E+03  0.24396771111E+03  0.32706316506E+03  0.81396012808E+02 0.  0.
         25    2    1    2    0    0  0.12925358829E+03  0.11721692573E+03  0.40562007430E+02  0.21844024565E+03  0.12499826683E+03 0.  0.
        -11    1    3    3    0    0 -0.21979723420E+02  0.19901787319E+02 -0.34591986629E+02  0.45560892430E+02  0.00000000000E+00 0.  1.
         12    1    3    3    0    0  0.19441540217E+02 -0.49380585273E+02 -0.12739491678E+03  0.13800681327E+03  0.00000000000E+00 0. -1.
        -11    1    4    4    0    0 -0.25302322502E+02  0.51404253214E+02  0.31681189436E+02  0.65469859757E+02  0.00000000000E+00 0.  1.
         12    1    4    4    0    0 -0.13518141861E+03  0.71354566477E+02  0.21228652168E+03  0.26159330531E+03  0.00000000000E+00 0. -1.
          5    1    5    5  501    0  0.97655190363E+01 -0.25386021337E+02 -0.14918798638E+01  0.27642922185E+02  0.47000000000E+01 0. -1.
         -5    1    5    5    0  501  0.11948806925E+03  0.14260294707E+03  0.42053887294E+02  0.19079732347E+03  0.47000000000E+01 0. -1.
          1    1    1    2  502    0 -0.48175354093E+02 -0.15211073657E+03  0.46453357808E+03  0.49117205344E+03  0.00000000000E+00 0. -1.
          1    1    1    2  503    0  0.81943690120E+02 -0.58386210896E+02 -0.66371004897E+03  0.67129333907E+03  0.00000000000E+00 0. -1.
<mgrwt>
<rscale>  0 0.12834940E+03</rscale>
<asrwt>0</asrwt>
<pdfrwt beam="1">  1        2 0.13344874E+00 0.16536627E+03</pdfrwt>
<pdfrwt beam="2">  1        2 0.14471839E+00 0.99618674E+02</pdfrwt>
<totfact> 0.15239100E+02</totfact>
</mgrwt>
</event>
<event>
13    1  0.1942437E-008  0.9298623E+02  0.7546771E-02  0.1322289E+00
          2   -1    0    0  503    0  0.00000000000E+00  0.00000000000E+00  0.12369512297E+04  0.12369512297E+04  0.00000000000E+00 0. -1.
          2   -1    0    0  502    0 -0.00000000000E+00 -0.00000000000E+00 -0.12055692321E+04  0.12055692321E+04  0.00000000000E+00 0. -1.
         24    2    1    2    0    0  0.42393773952E+02  0.10382202657E+02 -0.19382287960E+03  0.21862032943E+03  0.91227833374E+02 0.  0.
         24    2    1    2    0    0  0.79065058904E+02 -0.62876407257E+02  0.28539719966E+00  0.12803563466E+03  0.78665851306E+02 0.  0.
         25    2    1    2    0    0 -0.42001179169E+02  0.15069057727E+03  0.19915422376E+03  0.28241662518E+03  0.12499998482E+03 0.  0.
        -11    1    4    4    0    0  0.49494447205E+02 -0.18669022104E+02  0.35986648856E+02  0.63978680717E+02  0.00000000000E+00 0.  1.
         12    1    4    4    0    0  0.29570611700E+02 -0.44207385153E+02 -0.35701251657E+02  0.64056953941E+02  0.00000000000E+00 0. -1.
        -13    1    3    3    0    0  0.59651858636E+02  0.23267274862E+01 -0.64436583384E+02  0.87839804063E+02  0.00000000000E+00 0.  1.
         14    1    3    3    0    0 -0.17258084684E+02  0.80554751709E+01 -0.12938629621E+03  0.13078052537E+03  0.00000000000E+00 0. -1.
          5    1    5    5  501    0 -0.78847684022E+02  0.10131763804E+03  0.17260904234E+03  0.21517014791E+03  0.47000000000E+01 0. -1.
         -5    1    5    5    0  501  0.36846504854E+02  0.49372939233E+02  0.26545181423E+02  0.67246477270E+02  0.47000000000E+01 0. -1.
          1    1    1    2  502    0 -0.89255015036E+02 -0.25781109229E+02 -0.88996779345E+03  0.89480377552E+03  0.00000000000E+00 0. -1.
          1    1    1    2  503    0  0.97973613482E+01 -0.72415263444E+02  0.91573304968E+03  0.91864409699E+03  0.00000000000E+00 0. -1.
<mgrwt>
<rscale>  0 0.82431611E+02</rscale>
<asrwt>0</asrwt>
<pdfrwt beam="1">  1        2 0.18190459E+00 0.73075021E+02</pdfrwt>
<pdfrwt beam="2">  1        2 0.17728959E+00 0.92986228E+02</pdfrwt>
<totfact> 0.78657866E+01</totfact>
</mgrwt>
</event>
<event>
13    1  0.1942437E-008  0.5498323E+02  0.7546771E-02  0.1465484E+00
         -3   -1    0    0    0  501 -0.00000000000E+00  0.00000000000E+00  0.74909075678E+03  0.74909075678E+03  0.00000000000E+00 0.  1.
          2   -1    0    0  503    0  0.00000000000E+00 -0.00000000000E+00 -0.75541197210E+03  0.75541197210E+03  0.00000000000E+00 0. -1.
         24    2    1    2    0    0  0.64489899862E+02  0.61715118616E+01  0.33453288692E+03  0.35033498568E+03  0.81396038090E+02 0.  0.
         24    2    1    2    0    0  0.51365015927E+02 -0.26677876681E+02  0.50195935109E+02  0.11094790091E+03  0.80247933614E+02 0.  0.
         25    2    1    2    0    0 -0.12006868305E+03  0.36333476768E+02 -0.21085791841E+03  0.27535924983E+03  0.12500017812E+03 0.  0.
        -11    1    4    4    0    0  0.57674923366E+02 -0.23484936784E+01  0.33921397940E+01  0.57822303830E+02  0.00000000000E+00 0.  1.
         12    1    4    4    0    0 -0.63099074386E+01 -0.24329383003E+02  0.46803795315E+02  0.53125597079E+02  0.00000000000E+00 0. -1.
        -13    1    3    3    0    0  0.57125817045E+02  0.36592586708E+02  0.17356597760E+03  0.18635322631E+03  0.00000000000E+00 0.  1.
         14    1    3    3    0    0  0.73640828165E+01 -0.30421074846E+02  0.16096690931E+03  0.16398175936E+03  0.00000000000E+00 0. -1.
          5    1    5    5  502    0  0.45508952014E+01  0.49187314100E+02 -0.41747408088E+02  0.64846268957E+02  0.47000000000E+01 0. -1.
         -5    1    5    5    0  502 -0.12461957825E+03 -0.12853837333E+02 -0.16911051032E+03  0.21051298088E+03  0.47000000000E+01 0. -1.
          1    1    1    2  503    0 -0.16132791902E+01  0.39208844686E+02 -0.47059644758E+03  0.47222976679E+03  0.00000000000E+00 0. -1.
         -4    1    1    2    0  501  0.58270464480E+01 -0.55035956634E+02  0.29040432864E+03  0.29563082567E+03  0.00000000000E+00 0.  1.
<mgrwt>
<rscale>  0 0.46450546E+02</rscale>
<asrwt>0</asrwt>
<pdfrwt beam="2">  1        2 0.11108999E+00 0.39242020E+02</pdfrwt>
<pdfrwt beam="1">  1       -3 0.11016041E+00 0.54983235E+02</pdfrwt>
<totfact> 0.18900981E+01</totfact>
</mgrwt>
</event>
<event>
13    1  0.2376403E-008  0.1154502E+03  0.7546771E-02  0.1274846E+00
          2   -1    0    0  502    0  0.00000000000E+00  0.00000000000E+00  0.30969585182E+04  0.30969585182E+04  0.00000000000E+00 0. -1.
          2   -1    0    0  503    0 -0.00000000000E+00 -0.00000000000E+00 -0.70683492690E+03  0.70683492690E+03  0.00000000000E+00 0. -1.
         24    2    1    2    0    0  0.53915427439E+02 -0.44259685369E+02 -0.10867858201E+03  0.15307439905E+03  0.82188468740E+02 0.  0.
         24    2    1    2    0    0 -0.67426730661E+02  0.15732793500E+02  0.72636865458E+02  0.12648608197E+03  0.76998246152E+02 0.  0.
         25    2    1    2    0    0  0.19153224334E+03  0.89393299577E+02  0.33564618256E+03  0.41588007784E+03  0.12498846761E+03 0.  0.
        -11    1    4    4    0    0 -0.33446858960E+01 -0.20807502654E+02 -0.24610987212E+01  0.21217824991E+02  0.00000000000E+00 0.  1.
         12    1    4    4    0    0 -0.64082044765E+02  0.36540296154E+02  0.75097964180E+02  0.10526825698E+03  0.00000000000E+00 0. -1.
        -13    1    3    3    0    0  0.68645731961E+02 -0.30819868806E+02 -0.48120459439E+02  0.89317856257E+02  0.00000000000E+00 0.  1.
         14    1    3    3    0    0 -0.14730304522E+02 -0.13439816564E+02 -0.60558122568E+02  0.63756542797E+02  0.00000000000E+00 0. -1.
          5    1    5    5  501    0  0.13628229265E+02  0.62581946680E+02  0.10843236430E+03  0.12602339589E+03  0.47000000000E+01 0.  1.
         -5    1    5    5    0  501  0.17790401408E+03  0.26811352897E+02  0.22721381825E+03  0.28985668196E+03  0.47000000000E+01 0.  1.
          1    1    1    2  502    0 -0.89569678171E+02  0.17413061159E+02  0.25917688835E+04  0.25933746138E+04  0.00000000000E+00 0. -1.
          1    1    1    2  503    0 -0.88451261948E+02 -0.78279468867E+02 -0.50124975821E+03  0.51497827245E+03  0.00000000000E+00 0. -1.
<mgrwt>
<rscale>  0 0.10263742E+03</rscale>
<asrwt>0</asrwt>
<pdfrwt beam="1">  1        2 0.45543507E+00 0.91246600E+02</pdfrwt>
<pdfrwt beam="2">  1        2 0.10394631E+00 0.11545022E+03</pdfrwt>
<totfact> 0.18195941E+01</totfact>
</mgrwt>
</event>
<event>
13    1  0.1942437E-008  0.6927329E+02  0.7546771E-02  0.1407208E+00
          2   -1    0    0  503    0  0.00000000000E+00  0.00000000000E+00  0.31513167172E+03  0.31513167172E+03  0.00000000000E+00 0. -1.
          2   -1    0    0  502    0 -0.00000000000E+00 -0.00000000000E+00 -0.37612466344E+04  0.37612466344E+04  0.00000000000E+00 0. -1.
         24    2    1    2    0    0 -0.35579703252E+02  0.72601778183E+01 -0.14033763596E+04  0.14061681385E+04  0.80777481945E+02 0.  0.
         24    2    1    2    0    0  0.56555207460E+02 -0.10724243902E+03 -0.12750144134E+03  0.19207261505E+03  0.77044400769E+02 0.  0.
         25    2    1    2    0    0  0.54823078861E+02  0.25992789129E+02  0.34949787648E+02  0.14326461908E+03  0.12498827289E+03 0.  0.
        -11    1    4    4    0    0  0.66103392400E+02 -0.10298534126E+03 -0.86756173435E+02  0.15000757525E+03  0.00000000000E+00 0.  1.
         12    1    4    4    0    0 -0.95481849400E+01 -0.42570977584E+01 -0.40745267907E+02  0.42065039805E+02  0.00000000000E+00 0. -1.
        -13    1    3    3    0    0  0.73718366857E+01 -0.29351855728E+02 -0.63569563994E+03  0.63641560482E+03  0.00000000000E+00 0.  1.
         14    1    3    3    0    0 -0.42951539937E+02  0.36612033546E+02 -0.76768071962E+03  0.76975253365E+03  0.00000000000E+00 0. -1.
          5    1    5    5  501    0 -0.99104287966E+01  0.59926412884E+02  0.34523584225E+02  0.70023991801E+02  0.47000000000E+01 0.  1.
         -5    1    5    5    0  501  0.64733507657E+02 -0.33933623755E+02  0.42620342317E+00  0.73240627278E+02  0.47000000000E+01 0.  1.
          1    1    1    2  502    0 -0.63513370651E+02  0.27316283965E+02 -0.21389350146E+04  0.21400521312E+04  0.00000000000E+00 0. -1.
          1    1    1    2  503    0 -0.12285212419E+02  0.46673188109E+02  0.18874806514E+03  0.19482080235E+03  0.00000000000E+00 0. -1.
<mgrwt>
<rscale>  0 0.57821569E+02</rscale>
<asrwt>0</asrwt>
<pdfrwt beam="1">  1        2 0.46342898E-01 0.48262956E+02</pdfrwt>
<pdfrwt beam="2">  1        2 0.55312445E+00 0.69273291E+02</pdfrwt>
<totfact> 0.18939789E+01</totfact>
</mgrwt>
</event>
<event>
13    1  0.1942437E-008  0.9700856E+02  0.7546771E-02  0.1313962E+00
          2   -1    0    0  502    0  0.00000000000E+00  0.00000000000E+00  0.11370694724E+04  0.11370694724E+04  0.00000000000E+00 0. -1.
          2   -1    0    0  503    0 -0.00000000000E+00 -0.00000000000E+00 -0.23133288768E+04  0.23133288768E+04  0.00000000000E+00 0. -1.
         24    2    1    2    0    0  0.30713368535E+02 -0.80299391133E+02 -0.10733126075E+03  0.15856493782E+03  0.78940083275E+02 0.  0.
         24    2    1    2    0    0 -0.12836898969E+03 -0.54105471737E+02 -0.63752710860E+02  0.17290827819E+03  0.80167730034E+02 0.  0.
         25    2    1    2    0    0  0.13026648599E+03  0.13463440231E+03  0.77101268077E+03  0.80323207139E+03  0.12500170780E+03 0.  0.
        -11    1    4    4    0    0 -0.10673340391E+03 -0.75066985077E+02 -0.49226814795E+02  0.13946451540E+03  0.00000000000E+00 0.  1.
         12    1    4    4    0    0 -0.21635585778E+02  0.20961513340E+02 -0.14525896065E+02  0.33443762796E+02  0.00000000000E+00 0. -1.
        -13    1    3    3    0    0  0.38068398569E+02 -0.30725711728E+02 -0.11248970502E+02  0.50197725727E+02  0.00000000000E+00 0.  1.
         14    1    3    3    0    0 -0.73550300342E+01 -0.49573679406E+02 -0.96082290251E+02  0.10836721209E+03  0.00000000000E+00 0. -1.
          5    1    5    5  501    0  0.91976324264E+02  0.15499676070E+03  0.58387433314E+03  0.61107689119E+03  0.47000000000E+01 0.  1.
         -5    1    5    5    0  501  0.38290161721E+02 -0.20362358391E+02  0.18713834763E+03  0.19215518020E+03  0.47000000000E+01 0.  1.
          1    1    1    2  502    0  0.41380176999E+02 -0.63115788232E+02  0.26329573326E+03  0.27389882243E+03  0.00000000000E+00 0. -1.
          1    1    1    2  503    0 -0.73991041828E+02  0.62886248792E+02 -0.20394838468E+04  0.20417942394E+04  0.00000000000E+00 0. -1.
<mgrwt>
<rscale>  0 0.85564975E+02</rscale>
<asrwt>0</asrwt>
<pdfrwt beam="1">  1        2 0.16721610E+00 0.75471331E+02</pdfrwt>
<pdfrwt beam="2">  1        2 0.34019542E+00 0.97008559E+02</pdfrwt>
<totfact> 0.25267066E+01</totfact>
</mgrwt>
</event>
<event>
13    1  0.1942437E-008  0.5383216E+02  0.7546771E-02  0.1468241E+00
          2   -1    0    0  503    0  0.00000000000E+00  0.00000000000E+00  0.21635118404E+03  0.21635118404E+03  0.00000000000E+00 0. -1.
         -1   -1    0    0    0  501 -0.00000000000E+00 -0.00000000000E+00 -0.10497913528E+04  0.10497913528E+04  0.00000000000E+00 0.  1.
         24    2    1    2    0    0  0.48895320158E+02  0.32696836128E+02 -0.13136073110E+03  0.16667931143E+03  0.84062570502E+02 0.  0.
         24    2    1    2    0    0  0.95844751498E+02  0.19535698600E+03 -0.49470477024E+03  0.54665154418E+03  0.82125103856E+02 0.  0.
         25    2    1    2    0    0 -0.11257810922E+03 -0.20573723923E+03 -0.68548805365E+02  0.27445423938E+03  0.12499819403E+03 0.  0.
        -13    1    4    4    0    0  0.84747621109E+02  0.79605737458E+02 -0.25168222200E+03  0.27724208481E+03  0.00000000000E+00 0.  1.
         14    1    4    4    0    0  0.11097130389E+02  0.11575124855E+03 -0.24302254824E+03  0.26940945937E+03  0.00000000000E+00 0. -1.
        -13    1    3    3    0    0  0.31904271519E+02  0.58364788911E+02 -0.11215877586E+03  0.13039908791E+03  0.00000000000E+00 0.  1.
         14    1    3    3    0    0  0.16991048638E+02 -0.25667952783E+02 -0.19201955239E+02  0.36280223523E+02  0.00000000000E+00 0. -1.
          5    1    5    5  502    0  0.23594362779E+02 -0.20980415665E+02  0.71842573738E+01  0.32719647774E+02  0.47000000000E+01 0.  1.
         -5    1    5    5    0  502 -0.13617247200E+03 -0.18475682357E+03 -0.75733062739E+02  0.24173459160E+03  0.47000000000E+01 0.  1.
          1    1    1    2  503    0  0.21266640221E+02 -0.33041539362E+02  0.60264807626E+02  0.71943452432E+02  0.00000000000E+00 0. -1.
         -2    1    1    2    0  501 -0.53428602657E+02  0.10724956461E+02 -0.19909066965E+03  0.20641398939E+03  0.00000000000E+00 0.  1.
<mgrwt>
<rscale>  0 0.45992147E+02</rscale>
<asrwt>0</asrwt>
<pdfrwt beam="1">  1        2 0.31816351E-01 0.39293935E+02</pdfrwt>
<pdfrwt beam="2">  1       -1 0.15438108E+00 0.53832165E+02</pdfrwt>
<totfact> 0.70786724E+01</totfact>
</mgrwt>
</event>
<event>
13    1  0.1942437E-008  0.8326300E+02  0.7546771E-02  0.1415875E+00
          2   -1    0    0  503    0  0.00000000000E+00  0.00000000000E+00  0.19462784332E+04  0.19462784332E+04  0.00000000000E+00 0. -1.
          2   -1    0    0  502    0 -0.00000000000E+00 -0.00000000000E+00 -0.15514825683E+04  0.15514825683E+04  0.00000000000E+00 0. -1.
         24    2    1    2    0    0  0.95338945383E+02  0.70993706966E+02 -0.30610676114E+03  0.33807019896E+03  0.80377168872E+02 0.  0.
         24    2    1    2    0    0 -0.13011907884E+03 -0.32024366291E+01 -0.24544555836E+03  0.28850613671E+03  0.77788421505E+02 0.  0.
         25    2    1    2    0    0  0.10041472763E+03  0.17678929641E+02  0.93751062677E+03  0.95128813030E+03  0.12500907755E+03 0.  0.
        -11    1    4    4    0    0 -0.13892000435E+03  0.57077327242E+01 -0.22749995722E+03  0.26662253535E+03  0.00000000000E+00 0.  1.
         12    1    4    4    0    0  0.88009255180E+01 -0.89101693533E+01 -0.17945601139E+02  0.21883601351E+02  0.00000000000E+00 0. -1.
        -11    1    3    3    0    0  0.77728079243E+01 -0.13072501382E+02 -0.80067499229E+02  0.81499148881E+02  0.00000000000E+00 0.  1.
         12    1    3    3    0    0  0.87566137459E+02  0.84066208348E+02 -0.22603926191E+03  0.25657105008E+03  0.00000000000E+00 0. -1.
          5    1    5    5  501    0  0.36997535558E+02 -0.42662180841E+02  0.59666609024E+03  0.59935080925E+03  0.47000000000E+01 0.  1.
         -5    1    5    5    0  501  0.63417192072E+02  0.60341110482E+02  0.34084453653E+03  0.35193732105E+03  0.47000000000E+01 0.  1.
          1    1    1    2  502    0 -0.67983281031E+02 -0.48009946796E+02 -0.95335063397E+03  0.95697654767E+03  0.00000000000E+00 0. -1.
          1    1    1    2  503    0  0.23486868537E+01 -0.37460253182E+02  0.96218819158E+03  0.96291998781E+03  0.00000000000E+00 0. -1.
<mgrwt>
<rscale>  0 0.55903287E+02</rscale>
<asrwt>0</asrwt>
<pdfrwt beam="1">  1        2 0.28621742E+00 0.37533810E+02</pdfrwt>
<pdfrwt beam="2">  1        2 0.22815920E+00 0.83262997E+02</pdfrwt>
<totfact> 0.25789351E+01</totfact>
</mgrwt>
</event>
<event>
13    1  0.1942437E-008  0.9939409E+02  0.7546771E-02  0.1286924E+00
          2   -1    0    0  502    0  0.00000000000E+00  0.00000000000E+00  0.24102272208E+03  0.24102272208E+03  0.00000000000E+00 0. -1.
          2   -1    0    0  503    0 -0.00000000000E+00 -0.00000000000E+00 -0.15148030585E+04  0.15148030585E+04  0.00000000000E+00 0. -1.
         24    2    1    2    0    0  0.16934060522E+02 -0.11026483679E+03 -0.60054420453E+03  0.61590338724E+03  0.78984455326E+02 0.  0.
         24    2    1    2    0    0  0.46722996091E+02  0.64185182076E+02 -0.12289129305E+03  0.16633962301E+03  0.79144325856E+02 0.  0.
         25    2    1    2    0    0 -0.11562429321E+03  0.37894074955E+02 -0.22095627354E+02  0.17582969582E+03  0.12499170807E+03 0.  0.
        -11    1    4    4    0    0 -0.16686719105E+02  0.92892341513E+00 -0.34804988986E+01  0.17071126670E+02  0.00000000000E+00 0.  1.
         12    1    4    4    0    0  0.63409715196E+02  0.63256258661E+02 -0.11941079415E+03  0.14926849634E+03  0.00000000000E+00 0. -1.
        -13    1    3    3    0    0  0.33512236589E+02 -0.41230693739E+02 -0.13679671280E+03  0.14675278785E+03  0.00000000000E+00 0.  1.
         14    1    3    3    0    0 -0.16578176067E+02 -0.69034143052E+02 -0.46374749173E+03  0.46915059940E+03  0.00000000000E+00 0. -1.
          5    1    5    5  501    0 -0.96529772447E+01 -0.36695899749E+02 -0.25760357759E+02  0.46102657840E+02  0.47000000000E+01 0. -1.
         -5    1    5    5    0  501 -0.10597131596E+03  0.74589974704E+02  0.36647304054E+01  0.12972703798E+03  0.47000000000E+01 0. -1.
          1    1    1    2  502    0  0.26026235046E+02 -0.90839212326E+02  0.11361622127E+03  0.14777609124E+03  0.00000000000E+00 0. -1.
          1    1    1    2  503    0  0.25941001549E+02  0.99024792086E+02 -0.64186543278E+03  0.64997698329E+03  0.00000000000E+00 0. -1.
<mgrwt>
<rscale>  0 0.96913113E+02</rscale>
<asrwt>0</asrwt>
<pdfrwt beam="1">  1        2 0.35444516E-01 0.94494060E+02</pdfrwt>
<pdfrwt beam="2">  1        2 0.22276517E+00 0.99394094E+02</pdfrwt>
<totfact> 0.35067283E+02</totfact>
</mgrwt>
</event>
<event>
13    1  0.1942437E-008  0.7609495E+02  0.7546771E-02  0.1527784E+00
          2   -1    0    0  502    0  0.00000000000E+00  0.00000000000E+00  0.38685345870E+04  0.38685345870E+04  0.00000000000E+00 0. -1.
          2   -1    0    0  503    0 -0.00000000000E+00 -0.00000000000E+00 -0.21924104052E+04  0.21924104052E+04  0.00000000000E+00 0. -1.
         24    2    1    2    0    0 -0.20680502123E+02  0.26322951738E+02 -0.52860154145E+03  0.53576827814E+03  0.80668936270E+02 0.  0.
         24    2    1    2    0    0  0.28066927992E+02 -0.85980555969E+02 -0.57707799296E+03  0.58965076029E+03  0.80551851027E+02 0.  0.
         25    2    1    2    0    0 -0.73080418698E+02  0.12195859207E+03  0.20053180201E+04  0.20142333705E+04  0.12498425238E+03 0.  0.
        -11    1    4    4    0    0 -0.24640476668E+02 -0.10775561573E+02 -0.87718093503E+02  0.91748186605E+02  0.00000000000E+00 0.  1.
         12    1    4    4    0    0  0.52707404659E+02 -0.75204994396E+02 -0.48935989946E+03  0.49790257369E+03  0.00000000000E+00 0. -1.
        -11    1    3    3    0    0 -0.47161236928E+02  0.16059791173E+01 -0.37478066290E+03  0.37773973411E+03  0.00000000000E+00 0.  1.
         12    1    3    3    0    0  0.26480734805E+02  0.24716972620E+02 -0.15382087855E+03  0.15802854403E+03  0.00000000000E+00 0. -1.
          5    1    5    5  501    0 -0.17921598664E+02  0.10163161465E+03  0.17081071515E+04  0.17112283015E+04  0.47000000000E+01 0. -1.
         -5    1    5    5    0  501 -0.55158820034E+02  0.20326977416E+02  0.29721086858E+03  0.30300506900E+03  0.47000000000E+01 0. -1.
          1    1    1    2  502    0  0.18219966063E+02 -0.28427923487E+01  0.18474935153E+04  0.18475855428E+04  0.00000000000E+00 0. -1.
          1    1    1    2  503    0  0.47474026765E+02 -0.59458195490E+02 -0.10710078192E+04  0.10737070406E+04  0.00000000000E+00 0. -1.
<mgrwt>
<rscale>  0 0.37459603E+02</rscale>
<asrwt>0</asrwt>
<pdfrwt beam="1">  1        2 0.56890215E+00 0.18440408E+02</pdfrwt>
<pdfrwt beam="2">  1        2 0.32241329E+00 0.76094950E+02</pdfrwt>
<totfact> 0.15731289E+00</totfact>
</mgrwt>
</event>
<event>
13    1  0.1942437E-008  0.3216480E+03  0.7546771E-02  0.1184788E+00
          2   -1    0    0  503    0  0.00000000000E+00  0.00000000000E+00  0.12045344446E+04  0.12045344446E+04  0.00000000000E+00 0. -1.
          2   -1    0    0  502    0 -0.00000000000E+00 -0.00000000000E+00 -0.20462955748E+04  0.20462955748E+04  0.00000000000E+00 0. -1.
         24    2    1    2    0    0 -0.19112212854E+03  0.27123000405E+03 -0.36663773229E+03  0.50094458142E+03  0.80180195813E+02 0.  0.
         24    2    1    2    0    0  0.55127921799E+01 -0.48399688643E+02 -0.62895530691E+02  0.11319836747E+03  0.80530130258E+02 0.  0.
         25    2    1    2    0    0  0.38758924502E+02  0.26885176745E+02  0.99730954991E+02  0.16672020591E+03  0.12499718684E+03 0.  0.
        -11    1    3    3    0    0 -0.10936868673E+03  0.17190713314E+03 -0.16697152191E+03  0.26342562743E+03  0.00000000000E+00 0.  1.
         12    1    3    3    0    0 -0.81753441809E+02  0.99322870914E+02 -0.19966621038E+03  0.23751895399E+03  0.00000000000E+00 0. -1.
        -13    1    4    4    0    0 -0.37082895792E+02 -0.25623694879E+02 -0.23298508710E+02  0.50739879855E+02  0.00000000000E+00 0.  1.
         14    1    4    4    0    0  0.42595687972E+02 -0.22775993764E+02 -0.39597021981E+02  0.62458487618E+02  0.00000000000E+00 0. -1.
          5    1    5    5  501    0  0.11366805962E+02  0.38320311607E+02 -0.18813067285E+02  0.44426029083E+02  0.47000000000E+01 0.  1.
         -5    1    5    5    0  501  0.27392118540E+02 -0.11435134862E+02  0.11854402228E+03  0.12229417682E+03  0.47000000000E+01 0.  1.
          1    1    1    2  502    0  0.22653945661E+03 -0.22607398809E+03 -0.14719711542E+04  0.15063627227E+04  0.00000000000E+00 0. -1.
          1    1    1    2  503    0 -0.79689044746E+02 -0.23641504060E+02  0.96001233200E+03  0.96360414183E+03  0.00000000000E+00 0. -1.
<mgrwt>
<rscale>  0 0.16351152E+03</rscale>
<asrwt>0</asrwt>
<pdfrwt beam="1">  1        2 0.17713742E+00 0.83121986E+02</pdfrwt>
<pdfrwt beam="2">  1        2 0.30092581E+00 0.32164796E+03</pdfrwt>
<totfact> 0.27642318E+01</totfact>
</mgrwt>
</event>
<event>
13    1  0.1942437E-008  0.1332897E+03  0.7546771E-02  0.1347398E+00
          2   -1    0    0  502    0  0.00000000000E+00  0.00000000000E+00  0.62612257852E+03  0.62612257852E+03  0.00000000000E+00 0. -1.
          2   -1    0    0  503    0 -0.00000000000E+00 -0.00000000000E+00 -0.18810820727E+04  0.18810820727E+04  0.00000000000E+00 0. -1.
         24    2    1    2    0    0  0.53986564887E+02  0.45543548606E+02 -0.40635112098E+03  0.42012771027E+03  0.79983094502E+02 0.  0.
         24    2    1    2    0    0 -0.23205140093E+03  0.12661194774E+03 -0.92237799119E+03  0.96309406718E+03  0.83009551326E+02 0.  0.
         25    2    1    2    0    0  0.13524057860E+03 -0.72794498701E+02 -0.56605034788E+02  0.20596436967E+03  0.12501255325E+03 0.  0.
        -11    1    4    4    0    0 -0.64784224512E+02  0.73344274781E+02 -0.25861884888E+03  0.27651417212E+03  0.00000000000E+00 0.  1.
         12    1    4    4    0    0 -0.16726717642E+03  0.53267672958E+02 -0.66375914231E+03  0.68657989505E+03  0.00000000000E+00 0. -1.
        -13    1    3    3    0    0  0.73156308172E+02  0.35445639364E+02 -0.26695309552E+03  0.27905589759E+03  0.00000000000E+00 0.  1.
         14    1    3    3    0    0 -0.19169743285E+02  0.10097909242E+02 -0.13939802546E+03  0.14107181268E+03  0.00000000000E+00 0. -1.
          5    1    5    5  501    0  0.74948374140E+01  0.24879854268E+02  0.14442767597E+02  0.30097562561E+02  0.47000000000E+01 0. -1.
         -5    1    5    5    0  501  0.12774574119E+03 -0.97674352969E+02 -0.71047802385E+02  0.17586680711E+03  0.47000000000E+01 0. -1.
          1    1    1    2  502    0  0.83476558000E+02 -0.10422491292E+03  0.51458721342E+03  0.53163066919E+03  0.00000000000E+00 0. -1.
          1    1    1    2  503    0 -0.40652300564E+02  0.48639152802E+01 -0.38421256066E+03  0.38638783493E+03  0.00000000000E+00 0. -1.
<mgrwt>
<rscale>  0 0.73872726E+02</rscale>
<asrwt>0</asrwt>
<pdfrwt beam="1">  1        2 0.92076850E-01 0.13328971E+03</pdfrwt>
<pdfrwt beam="2">  1        2 0.27662972E+00 0.40942242E+02</pdfrwt>
<totfact> 0.91728640E+01</totfact>
</mgrwt>
</event>
<event>
13    1  0.1942437E-008  0.1046056E+03  0.7546771E-02  0.1321986E+00
          2   -1    0    0  502    0  0.00000000000E+00  0.00000000000E+00  0.24068265875E+04  0.24068265875E+04  0.00000000000E+00 0. -1.
          2   -1    0    0  503    0 -0.00000000000E+00 -0.00000000000E+00 -0.73400862158E+03  0.73400862158E+03  0.00000000000E+00 0. -1.
         24    2    1    2    0    0 -0.51845297293E+02  0.58526257710E+02 -0.29748368587E+03  0.32608499938E+03  0.10826645728E+03 0.  0.
         24    2    1    2    0    0  0.23177197134E+02 -0.84601304690E+02  0.84949951925E+02  0.14661115436E+03  0.81140452487E+02 0.  0.
         25    2    1    2    0    0  0.38239368836E+02 -0.24548394278E+02  0.71328434960E+03  0.72556982529E+03  0.12494852941E+03 0.  0.
        -11    1    3    3    0    0  0.17309967514E+02  0.58731200991E+02 -0.10491152960E+03  0.12147188147E+03  0.00000000000E+00 0.  1.
         12    1    3    3    0    0 -0.69155264807E+02 -0.20494328096E+00 -0.19257215626E+03  0.20461311791E+03  0.00000000000E+00 0. -1.
        -11    1    4    4    0    0 -0.16949552493E+02 -0.14643666929E+02 -0.77843713250E+01  0.23713303182E+02  0.00000000000E+00 0.  1.
         12    1    4    4    0    0  0.40126749628E+02 -0.69957637760E+02  0.92734323250E+02  0.12289785118E+03  0.00000000000E+00 0. -1.
          5    1    5    5  501    0 -0.10568469289E+02 -0.51957818481E+02  0.14404573716E+03  0.15356618065E+03  0.47000000000E+01 0.  1.
         -5    1    5    5    0  501  0.48807838125E+02  0.27409424203E+02  0.56923861243E+03  0.57200364464E+03  0.47000000000E+01 0.  1.
          1    1    1    2  502    0  0.33621917936E+02  0.99374991720E+02  0.15527826617E+04  0.15563225298E+04  0.00000000000E+00 0. -1.
          1    1    1    2  503    0 -0.43193186614E+02 -0.48751550462E+02 -0.38071531146E+03  0.38624670021E+03  0.00000000000E+00 0. -1.
<mgrwt>
<rscale>  0 0.82542869E+02</rscale>
<asrwt>0</asrwt>
<pdfrwt beam="1">  1        2 0.35394508E+00 0.10460564E+03</pdfrwt>
<pdfrwt beam="2">  1        2 0.10794245E+00 0.65133440E+02</pdfrwt>
<totfact> 0.39316867E+01</totfact>
</mgrwt>
</event>
<event>
13    1  0.1942437E-008  0.1359731E+03  0.7546771E-02  0.1250935E+00
          2   -1    0    0  503    0  0.00000000000E+00  0.00000000000E+00  0.26433432316E+04  0.26433432316E+04  0.00000000000E+00 0. -1.
          2   -1    0    0  502    0 -0.00000000000E+00 -0.00000000000E+00 -0.32587904250E+04  0.32587904250E+04  0.00000000000E+00 0. -1.
         24    2    1    2    0    0 -0.93551249339E+02  0.92240770412E+01 -0.60702769747E+01  0.12395462420E+03  0.80566623035E+02 0.  0.
         24    2    1    2    0    0  0.33841563759E+01 -0.20086514796E+02  0.40856891221E+02  0.92686674029E+02  0.80663581568E+02 0.  0.
         25    2    1    2    0    0 -0.13681597254E+03  0.46894733015E+02  0.13043848497E+03  0.23142308288E+03  0.12499887440E+03 0.  0.
        -11    1    3    3    0    0 -0.69684444790E+02 -0.29326682007E+02  0.90852007411E+01  0.76147994037E+02  0.00000000000E+00 0.  1.
         12    1    3    3    0    0 -0.23866804549E+02  0.38550759048E+02 -0.15155477716E+02  0.47806630161E+02  0.00000000000E+00 0. -1.
        -11    1    4    4    0    0  0.26048561973E+02  0.75904196829E+00 -0.14145407730E+02  0.29651244248E+02  0.00000000000E+00 0.  1.
         12    1    4    4    0    0 -0.22664405597E+02 -0.20845556764E+02  0.55002298951E+02  0.63035429782E+02  0.00000000000E+00 0. -1.
          5    1    5    5  501    0 -0.85938593000E+02  0.56253103970E+02  0.14474278693E+03  0.17754553737E+03  0.47000000000E+01 0. -1.
         -5    1    5    5    0  501 -0.50877379536E+02 -0.93583709548E+01 -0.14304301954E+02  0.53877545506E+02  0.47000000000E+01 0. -1.
          1    1    1    2  502    0  0.13551024938E+03  0.11556018904E+02 -0.31147486784E+04  0.31177164558E+04  0.00000000000E+00 0. -1.
          1    1    1    2  503    0  0.91472816121E+02 -0.47588314164E+02  0.23340763858E+04  0.23363528197E+04  0.00000000000E+00 0. -1.
<mgrwt>
<rscale>  0 0.11537098E+03</rscale>
<asrwt>0</asrwt>
<pdfrwt beam="1">  1        2 0.38872695E+00 0.97890410E+02</pdfrwt>
<pdfrwt beam="2">  1        2 0.47923389E+00 0.13597310E+03</pdfrwt>
<totfact> 0.13752741E+00</totfact>
</mgrwt>
</event>
<event>
13    1  0.1942437E-008  0.4729451E+02  0.7546771E-02  0.1698727E+00
          2   -1    0    0  502    0  0.00000000000E+00  0.00000000000E+00  0.18282324082E+04  0.18282324082E+04  0.00000000000E+00 0. -1.
          2   -1    0    0  503    0 -0.00000000000E+00 -0.00000000000E+00 -0.18754690777E+04  0.18754690777E+04  0.00000000000E+00 0. -1.
         24    2    1    2    0    0 -0.68366613749E+01  0.24649060082E+03 -0.26912904890E+03  0.37397834023E+03  0.81394089272E+02 0.  0.
         24    2    1    2    0    0  0.35874072144E+03  0.23041121810E+03 -0.31979188361E+03  0.54165150756E+03  0.96619212200E+02 0.  0.
         25    2    1    2    0    0 -0.38974735137E+03 -0.46871017694E+03  0.14466408850E+04  0.15747975751E+04  0.12500129787E+03 0.  0.
        -11    1    3    3    0    0 -0.22504621281E+02  0.12618510704E+03 -0.86167169793E+02  0.15444714425E+03  0.00000000000E+00 0.  1.
         12    1    3    3    0    0  0.15667959906E+02  0.12030549378E+03 -0.18296187910E+03  0.21953119598E+03  0.00000000000E+00 0. -1.
        -13    1    4    4    0    0  0.12065947117E+03  0.26886173431E+02 -0.81035863396E+02  0.14781199363E+03  0.00000000000E+00 0.  1.
         14    1    4    4    0    0  0.23808125027E+03  0.20352504467E+03 -0.23875602022E+03  0.39383951392E+03  0.00000000000E+00 0. -1.
          5    1    5    5  501    0 -0.38461441548E+03 -0.45810870799E+03  0.14422497786E+04  0.15613770688E+04  0.47000000000E+01 0. -1.
         -5    1    5    5    0  501 -0.51329358818E+01 -0.10601468956E+02  0.43911063897E+01  0.13420506328E+02  0.47000000000E+01 0.  1.
          1    1    1    2  502    0 -0.93657094248E+01 -0.53019761865E+01  0.15344209830E+03  0.15381906577E+03  0.00000000000E+00 0. -1.
          1    1    1    2  503    0  0.47209000725E+02 -0.28896657922E+01 -0.10583987203E+04  0.10594549972E+04  0.00000000000E+00 0. -1.
<mgrwt>
<rscale>  0 0.22560995E+02</rscale>
<asrwt>0</asrwt>
<pdfrwt beam="1">  1        2 0.26885771E+00 0.10762317E+02</pdfrwt>
<pdfrwt beam="2">  1        2 0.27580427E+00 0.47294510E+02</pdfrwt>
<totfact> 0.24983527E+01</totfact>
</mgrwt>
</event>
<event>
13    1  0.1942437E-008  0.3391846E+02  0.7546771E-02  0.1645345E+00
          2   -1    0    0  503    0  0.00000000000E+00  0.00000000000E+00  0.34086005958E+04  0.34086005958E+04  0.00000000000E+00 0. -1.
          2   -1    0    0  502    0 -0.00000000000E+00 -0.00000000000E+00 -0.33870559064E+04  0.33870559064E+04  0.00000000000E+00 0. -1.
         24    2    1    2    0    0  0.61593207926E+03  0.13040819334E+03 -0.23088251304E+03  0.67529011157E+03  0.79569949145E+02 0.  0.
         24    2    1    2    0    0 -0.89066246561E+03 -0.37733141023E+02 -0.56168492926E+02  0.89588780281E+03  0.68968384328E+02 0.  0.
         25    2    1    2    0    0  0.25067371829E+03 -0.13917649593E+03  0.21977642273E+04  0.22199071783E+04  0.12495147607E+03 0.  0.
        -11    1    3    3    0    0  0.33391831773E+03  0.42067982121E+02 -0.92935913912E+02  0.34915360822E+03  0.00000000000E+00 0.  1.
         12    1    3    3    0    0  0.28201376153E+03  0.88340211216E+02 -0.13794659912E+03  0.32613650335E+03  0.00000000000E+00 0. -1.
        -11    1    4    4    0    0 -0.75235901728E+03 -0.27813867247E+02 -0.22544106441E+02  0.75321042135E+03  0.00000000000E+00 0.  1.
         12    1    4    4    0    0 -0.13830344833E+03 -0.99192737761E+01 -0.33624386485E+02  0.14267738145E+03  0.00000000000E+00 0. -1.
          5    1    5    5  501    0  0.18466980243E+03 -0.15762365919E+03  0.17900175043E+04  0.18064143792E+04  0.47000000000E+01 0.  1.
         -5    1    5    5    0  501  0.66003915853E+02  0.18447163261E+02  0.40774672301E+03  0.41349279905E+03  0.47000000000E+01 0.  1.
          1    1    1    2  502    0  0.95636313986E+01  0.32541508157E+02 -0.24465708681E+04  0.24468059640E+04  0.00000000000E+00 0. -1.
          1    1    1    2  503    0  0.14493036672E+02  0.13959935459E+02  0.55740233613E+03  0.55776544554E+03  0.00000000000E+00 0. -1.
<mgrwt>
<rscale>  0 0.26125371E+02</rscale>
<asrwt>0</asrwt>
<pdfrwt beam="1">  1        2 0.50126480E+00 0.20122821E+02</pdfrwt>
<pdfrwt beam="2">  1        2 0.49809645E+00 0.33918456E+02</pdfrwt>
<totfact> 0.79539750E-01</totfact>
</mgrwt>
</event>
<event>
13    1  0.1942437E-008  0.1599952E+03  0.7546771E-02  0.1358523E+00
          2   -1    0    0  503    0  0.00000000000E+00  0.00000000000E+00  0.10804392077E+04  0.10804392077E+04  0.00000000000E+00 0. -1.
         -3   -1    0    0    0  501 -0.00000000000E+00 -0.00000000000E+00 -0.17266427319E+04  0.17266427319E+04  0.00000000000E+00 0.  1.
         24    2    1    2    0    0  0.29374214554E+02  0.13132564335E+02  0.96175525149E+01  0.81929860675E+02  0.74730823808E+02 0.  0.
         24    2    1    2    0    0 -0.53342369780E+02  0.34899544926E+02  0.10334247262E+03  0.14594512575E+03  0.80974850618E+02 0.  0.
         25    2    1    2    0    0  0.11237011133E+03  0.10470707122E+03  0.27601344931E+03  0.33969799923E+03  0.12498277399E+03 0.  0.
        -11    1    3    3    0    0  0.42426824159E+02  0.31749753730E+02  0.20378859134E+02  0.56774819856E+02  0.00000000000E+00 0.  1.
         12    1    3    3    0    0 -0.13052609605E+02 -0.18617189394E+02 -0.10761306619E+02  0.25155040818E+02  0.00000000000E+00 0. -1.
        -11    1    4    4    0    0 -0.51959912463E+02 -0.12090778415E+02  0.38214432462E+02  0.65622879198E+02  0.00000000000E+00 0.  1.
         12    1    4    4    0    0 -0.13824573172E+01  0.46990323342E+02  0.65128040158E+02  0.80322246550E+02  0.00000000000E+00 0. -1.
          5    1    5    5  502    0 -0.39402502925E+01  0.57533026872E+02  0.15433123844E+03  0.16482049603E+03  0.47000000000E+01 0. -1.
         -5    1    5    5    0  502  0.11631036163E+03  0.47174044344E+02  0.12168221087E+03  0.17487750319E+03  0.47000000000E+01 0. -1.
          1    1    1    2  503    0 -0.10329180804E+03 -0.12551162926E+03  0.59104552481E+03  0.61299035807E+03  0.00000000000E+00 0. -1.
         -4    1    1    2    0  501  0.14889851936E+02 -0.27227551216E+02 -0.16262225234E+04  0.16265185959E+04  0.00000000000E+00 0.  1.
<mgrwt>
<rscale>  0 0.70463678E+02</rscale>
<asrwt>0</asrwt>
<pdfrwt beam="1">  1        2 0.15888812E+00 0.15999515E+03</pdfrwt>
<pdfrwt beam="2">  1       -3 0.25391805E+00 0.31033002E+02</pdfrwt>
<totfact> 0.13963609E+00</totfact>
</mgrwt>
</event>
<event>
13    1  0.1942437E-008  0.9336090E+02  0.7546771E-02  0.1296575E+00
          2   -1    0    0  503    0  0.00000000000E+00  0.00000000000E+00  0.16932413481E+04  0.16932413481E+04  0.00000000000E+00 0. -1.
          2   -1    0    0  502    0 -0.00000000000E+00 -0.00000000000E+00 -0.18525886254E+04  0.18525886254E+04  0.00000000000E+00 0. -1.
         24    2    1    2    0    0 -0.13249781398E+01  0.16201344829E+02 -0.43375550766E+03  0.44225414370E+03  0.84738704529E+02 0.  0.
         24    2    1    2    0    0  0.11542411930E+03  0.18706710836E+02 -0.31652144570E+03  0.34754455329E+03  0.83238948728E+02 0.  0.
         25    2    1    2    0    0 -0.48010362301E+02 -0.16936467873E+03  0.39031135462E+03  0.44604733238E+03  0.12500351952E+03 0.  0.
        -11    1    3    3    0    0  0.81398709615E-01 -0.23027954019E+02 -0.33774119501E+03  0.33852534336E+03  0.00000000000E+00 0.  1.
         12    1    3    3    0    0 -0.14063768495E+01  0.39229298848E+02 -0.96014312656E+02  0.10372880033E+03  0.00000000000E+00 0. -1.
        -13    1    4    4    0    0  0.81488256290E+02 -0.16153212822E+02 -0.12608743046E+03  0.15099437843E+03  0.00000000000E+00 0.  1.
         14    1    4    4    0    0  0.33935863006E+02  0.34859923658E+02 -0.19043401524E+03  0.19655017486E+03  0.00000000000E+00 0. -1.
          5    1    5    5  501    0  0.31065834747E+02 -0.11359976179E+03  0.23705801173E+03  0.26474248411E+03  0.47000000000E+01 0. -1.
         -5    1    5    5    0  501 -0.79076197048E+02 -0.55764916933E+02  0.15325334289E+03  0.18130484828E+03  0.47000000000E+01 0. -1.
          1    1    1    2  502    0 -0.82465730495E+02  0.44015716631E+02 -0.10509230600E+04  0.10550721577E+04  0.00000000000E+00 0. -1.
          1    1    1    2  503    0  0.16376951639E+02  0.90440906430E+02  0.12515413814E+04  0.12549117863E+04  0.00000000000E+00 0. -1.
<mgrwt>
<rscale>  0 0.92642900E+02</rscale>
<asrwt>0</asrwt>
<pdfrwt beam="1">  1        2 0.24900608E+00 0.91930419E+02</pdfrwt>
<pdfrwt beam="2">  1        2 0.27243950E+00 0.93360903E+02</pdfrwt>
<totfact> 0.21947382E+01</totfact>
</mgrwt>
</event>
<event>
13    1  0.1942437E-008  0.1312478E+03  0.7546771E-02  0.1309760E+00
          2   -1    0    0  503    0  0.00000000000E+00  0.00000000000E+00  0.19085682121E+04  0.19085682121E+04  0.00000000000E+00 0. -1.
          2   -1    0    0  502    0 -0.00000000000E+00 -0.00000000000E+00 -0.35330439153E+04  0.35330439153E+04  0.00000000000E+00 0. -1.
         24    2    1    2    0    0 -0.81139434656E+03  0.34886686460E+03 -0.40340640276E+03  0.97679401639E+03  0.10639995224E+03 0.  0.
         24    2    1    2    0    0  0.42211980009E+03 -0.48850598109E+03  0.15461818861E+03  0.66884517056E+03  0.81387091990E+02 0.  0.
         25    2    1    2    0    0  0.47655968371E+03  0.12277526291E+03  0.30664693629E+03  0.59316157552E+03  0.12500165527E+03 0.  0.
        -11    1    4    4    0    0  0.68658293188E+02 -0.94202275573E+02  0.59345543985E+02  0.13080490640E+03  0.00000000000E+00 0.  1.
         12    1    4    4    0    0  0.35346150691E+03 -0.39430370552E+03  0.95272644624E+02  0.53804026417E+03  0.00000000000E+00 0. -1.
        -11    1    3    3    0    0 -0.43724265698E+03  0.13242255206E+03 -0.19094068002E+03  0.49515171075E+03  0.00000000000E+00 0.  1.
         12    1    3    3    0    0 -0.37415168958E+03  0.21644431253E+03 -0.21246572274E+03  0.48164230564E+03  0.00000000000E+00 0. -1.
          5    1    5    5  501    0  0.32566424394E+03  0.55528444611E+02  0.26281836972E+03  0.42218028543E+03  0.47000000000E+01 0. -1.
         -5    1    5    5    0  501  0.15089543977E+03  0.67246818295E+02  0.43828566562E+02  0.17098129009E+03  0.47000000000E+01 0. -1.
          1    1    1    2  502    0 -0.11138771920E+03  0.69557504271E+02 -0.24397003192E+04  0.24432321048E+04  0.00000000000E+00 0. -1.
          1    1    1    2  503    0  0.24102581945E+02 -0.52693650681E+02  0.75736589389E+03  0.75957926019E+03  0.00000000000E+00 0. -1.
<mgrwt>
<rscale>  0 0.87207085E+02</rscale>
<asrwt>0</asrwt>
<pdfrwt beam="1">  1        2 0.28067180E+00 0.57944415E+02</pdfrwt>
<pdfrwt beam="2">  1        2 0.51956528E+00 0.13124777E+03</pdfrwt>
<totfact> 0.23116914E+00</totfact>
</mgrwt>
</event>
<event>
13    1  0.1942437E-008  0.4371678E+02  0.7546771E-02  0.1549306E+00
          2   -1    0    0  502    0  0.00000000000E+00  0.00000000000E+00  0.36730045130E+03  0.36730045130E+03  0.00000000000E+00 0. -1.
          2   -1    0    0  503    0 -0.00000000000E+00 -0.00000000000E+00 -0.23950546160E+04  0.23950546160E+04  0.00000000000E+00 0. -1.
         24    2    1    2    0    0 -0.76859276756E+01  0.57469179931E+02 -0.51985766442E+03  0.52868452162E+03  0.76769473171E+02 0.  0.
         24    2    1    2    0    0  0.28296914242E+02 -0.21970123293E+01 -0.45572832732E+02  0.98849194049E+02  0.82998420840E+02 0.  0.
         25    2    1    2    0    0  0.35311832543E+02 -0.83658187983E+02  0.19566969279E+03  0.24932720246E+03  0.12502722614E+03 0.  0.
        -11    1    3    3    0    0 -0.79864000957E+01 -0.62816781346E+01 -0.81627198842E+01  0.13033497711E+02  0.00000000000E+00 0.  1.
         12    1    3    3    0    0  0.30047242006E+00  0.63750858065E+02 -0.51169494454E+03  0.51565102390E+03  0.00000000000E+00 0. -1.
        -11    1    4    4    0    0  0.13836466818E+02  0.20243855360E+02 -0.62568599936E+02  0.67201868961E+02  0.00000000000E+00 0.  1.
         12    1    4    4    0    0  0.14460447424E+02 -0.22440867689E+02  0.16995767204E+02  0.31647325088E+02  0.00000000000E+00 0. -1.
          5    1    5    5  501    0 -0.11388632755E+02  0.28403235792E+02  0.57758740917E+02  0.65533250429E+02  0.47000000000E+01 0.  1.
         -5    1    5    5    0  501  0.46700465298E+02 -0.11206142377E+03  0.13791095187E+03  0.18379395203E+03  0.47000000000E+01 0.  1.
          1    1    1    2  502    0 -0.12351734361E+02  0.25010650075E+02  0.11176648416E+03  0.11519481299E+03  0.00000000000E+00 0. -1.
          1    1    1    2  503    0 -0.43571084748E+02  0.33753703064E+01 -0.17697598445E+04  0.17702993362E+04  0.00000000000E+00 0. -1.
<mgrwt>
<rscale>  0 0.34920676E+02</rscale>
<asrwt>0</asrwt>
<pdfrwt beam="1">  1        2 0.54014771E-01 0.27894407E+02</pdfrwt>
<pdfrwt beam="2">  1        2 0.35221392E+00 0.43716779E+02</pdfrwt>
<totfact> 0.93338229E+01</totfact>
</mgrwt>
</event>
<event>
13    1  0.1942437E-008  0.9770053E+02  0.7546771E-02  0.1447927E+00
          2   -1    0    0  503    0  0.00000000000E+00  0.00000000000E+00  0.26679438339E+04  0.26679438339E+04  0.00000000000E+00 0. -1.
         -1   -1    0    0    0  501 -0.00000000000E+00 -0.00000000000E+00 -0.63484078411E+03  0.63484078411E+03  0.00000000000E+00 0.  1.
         24    2    1    2    0    0 -0.19316726730E+02 -0.31706230584E+02  0.11330191423E+03  0.14367978789E+03  0.80175661459E+02 0.  0.
         24    2    1    2    0    0  0.11191273937E+02 -0.12777220854E+03  0.34710238697E+03  0.37850388270E+03  0.79587312352E+02 0.  0.
         25    2    1    2    0    0  0.78732956803E+02  0.80958382313E+02  0.14960270912E+04  0.15054818336E+04  0.12500142313E+03 0.  0.
        -13    1    3    3    0    0 -0.17181558989E+02  0.25529932847E+02  0.34021221548E+02  0.45874033571E+02  0.00000000000E+00 0.  1.
         14    1    3    3    0    0 -0.21351677416E+01 -0.57236163431E+02  0.79280692678E+02  0.97805754315E+02  0.00000000000E+00 0. -1.
        -13    1    4    4    0    0  0.18504698371E+01 -0.13006878553E+03  0.34492881730E+03  0.36864237712E+03  0.00000000000E+00 0.  1.
         14    1    4    4    0    0  0.93408041002E+01  0.22965769857E+01  0.21735696733E+01  0.98615055754E+01  0.00000000000E+00 0. -1.
          5    1    5    5  502    0  0.88254153950E+02  0.19653737951E+02  0.54920359941E+03  0.55661633888E+03  0.47000000000E+01 0. -1.
         -5    1    5    5    0  502 -0.95211971473E+01  0.61304644363E+02  0.94682349175E+03  0.94886549476E+03  0.47000000000E+01 0. -1.
          1    1    1    2  503    0  0.98418250154E+01  0.23093690465E+02  0.67167746218E+03  0.67214640760E+03  0.00000000000E+00 0. -1.
         -2    1    1    2    0  501 -0.80449329025E+02  0.55426366346E+02 -0.59500580478E+03  0.60297270614E+03  0.00000000000E+00 0.  1.
<mgrwt>
<rscale>  0 0.49523874E+02</rscale>
<asrwt>0</asrwt>
<pdfrwt beam="1">  1        2 0.39234468E+00 0.25103387E+02</pdfrwt>
<pdfrwt beam="2">  1       -1 0.93358940E-01 0.97700526E+02</pdfrwt>
<totfact> 0.74734271E+00</totfact>
</mgrwt>
</event>
<event>
13    1  0.1942437E-008  0.4618398E+02  0.7546771E-02  0.1521093E+00
          2   -1    0    0  502    0  0.00000000000E+00  0.00000000000E+00  0.28136010748E+04  0.28136010748E+04  0.00000000000E+00 0. -1.
          2   -1    0    0  503    0 -0.00000000000E+00 -0.00000000000E+00 -0.14290043676E+04  0.14290043676E+04  0.00000000000E+00 0. -1.
         24    2    1    2    0    0 -0.57234867375E+03 -0.26906547496E+02 -0.82763085856E+03  0.10100479066E+04  0.83168316603E+02 0.  0.
         24    2    1    2    0    0  0.55866161837E+03 -0.17611831621E+02  0.53551500865E+03  0.77693724385E+03  0.66649650704E+02 0.  0.
         25    2    1    2    0    0  0.57925799114E+01  0.56655634123E+02  0.60819836704E+03  0.62351740073E+03  0.12500112192E+03 0.  0.
        -11    1    3    3    0    0 -0.32966824671E+03 -0.10670154201E+02 -0.54632272690E+03  0.63817201992E+03  0.00000000000E+00 0.  1.
         12    1    3    3    0    0 -0.24268042704E+03 -0.16236393295E+02 -0.28130813166E+03  0.37187588665E+03  0.00000000000E+00 0. -1.
        -13    1    4    4    0    0  0.20990055639E+03  0.17645184256E+02  0.23080203063E+03  0.31247267631E+03  0.00000000000E+00 0.  1.
         14    1    4    4    0    0  0.34876106199E+03 -0.35257015877E+02  0.30471297802E+03  0.46446456754E+03  0.00000000000E+00 0. -1.
          5    1    5    5  501    0  0.52624514727E+02  0.15171986383E+02  0.44980104895E+03  0.45314743998E+03  0.47000000000E+01 0. -1.
         -5    1    5    5    0  501 -0.46831934815E+02  0.41483647740E+02  0.15839731809E+03  0.17036996075E+03  0.47000000000E+01 0. -1.
          1    1    1    2  502    0  0.27757229352E+02 -0.36925967273E+02  0.14492791821E+04  0.14500152201E+04  0.00000000000E+00 0. -1.
          1    1    1    2  503    0 -0.19862753889E+02  0.24788712267E+02 -0.38076499202E+03  0.38208767109E+03  0.00000000000E+00 0. -1.
<mgrwt>
<rscale>  0 0.38301827E+02</rscale>
<asrwt>0</asrwt>
<pdfrwt beam="1">  1        2 0.41376487E+00 0.46183985E+02</pdfrwt>
<pdfrwt beam="2">  1        2 0.21014770E+00 0.31764906E+02</pdfrwt>
<totfact> 0.12063129E+01</totfact>
</mgrwt>
</event>
<event>
13    1  0.1942437E-008  0.4773382E+02  0.7546771E-02  0.1639614E+00
          2   -1    0    0  502    0  0.00000000000E+00  0.00000000000E+00  0.79680915533E+03  0.79680915533E+03  0.00000000000E+00 0. -1.
          2   -1    0    0  503    0 -0.00000000000E+00 -0.00000000000E+00 -0.11880334785E+04  0.11880334785E+04  0.00000000000E+00 0. -1.
         24    2    1    2    0    0  0.26470025392E+02  0.30747380194E+02 -0.27167682862E+03  0.28576684667E+03  0.78792942659E+02 0.  0.
         24    2    1    2    0    0 -0.77459834724E+02  0.41731856184E+02 -0.18505213987E+03  0.21974995822E+03  0.79398840353E+02 0.  0.
         25    2    1    2    0    0  0.10124787481E+03 -0.35710313134E+02  0.57008161874E+02  0.17435809936E+03  0.12499783067E+03 0.  0.
        -11    1    3    3    0    0 -0.25879560962E+02  0.10351783697E+02 -0.13760037002E+03  0.14039506021E+03  0.00000000000E+00 0.  1.
         12    1    3    3    0    0  0.52349586354E+02  0.20395596497E+02 -0.13407645860E+03  0.14537178646E+03  0.00000000000E+00 0. -1.
        -11    1    4    4    0    0 -0.40106456131E+02  0.27630994472E+02 -0.24906387801E+02  0.54702173925E+02  0.00000000000E+00 0.  1.
         12    1    4    4    0    0 -0.37353378593E+02  0.14100861712E+02 -0.16014575207E+03  0.16504778429E+03  0.00000000000E+00 0. -1.
          5    1    5    5  501    0 -0.57927870763E+01  0.69520280228E+01 -0.28839119975E+02  0.30588754742E+02  0.47000000000E+01 0.  1.
         -5    1    5    5    0  501  0.10704066188E+03 -0.42662341157E+02  0.85847281849E+02  0.14376934461E+03  0.47000000000E+01 0.  1.
          1    1    1    2  502    0 -0.12898714520E+02 -0.72027962766E+01  0.65577339288E+03  0.65593978376E+03  0.00000000000E+00 0. -1.
          1    1    1    2  503    0 -0.37359350955E+02 -0.29566126967E+02 -0.64727690941E+03  0.64902794580E+03  0.00000000000E+00 0. -1.
<mgrwt>
<rscale>  0 0.26555543E+02</rscale>
<asrwt>0</asrwt>
<pdfrwt beam="1">  1        2 0.11717782E+00 0.14773527E+02</pdfrwt>
<pdfrwt beam="2">  1        2 0.17471080E+00 0.47733818E+02</pdfrwt>
<totfact> 0.15741334E+02</totfact>
</mgrwt>
</event>
<event>
13    1  0.1942437E-008  0.1560846E+03  0.7546771E-02  0.1322153E+00
          2   -1    0    0  503    0  0.00000000000E+00  0.00000000000E+00  0.41767042242E+04  0.41767042242E+04  0.00000000000E+00 0. -1.
         -3   -1    0    0    0  501 -0.00000000000E+00 -0.00000000000E+00 -0.42842200319E+03  0.42842200319E+03  0.00000000000E+00 0.  1.
         24    2    1    2    0    0 -0.96273254576E+02 -0.14866414075E+03 -0.12754995063E+02  0.19522669111E+03  0.81124624687E+02 0.  0.
         24    2    1    2    0    0  0.41905442271E+02 -0.32347940648E+02  0.23861890343E+03  0.25772014317E+03  0.81720473339E+02 0.  0.
         25    2    1    2    0    0 -0.19105764414E+02  0.27233184466E+03  0.89665652277E+03  0.94559316785E+03  0.12499542151E+03 0.  0.
        -11    1    4    4    0    0  0.41485438156E+02  0.12210535368E+02  0.17354286438E+03  0.17884983794E+03  0.00000000000E+00 0.  1.
         12    1    4    4    0    0  0.42000411469E+00 -0.44558476016E+02  0.65076039052E+02  0.78870305230E+02  0.00000000000E+00 0. -1.
        -13    1    3    3    0    0 -0.49635068589E+02 -0.63917419100E+02  0.34010991721E+02  0.87782823241E+02  0.00000000000E+00 0.  1.
         14    1    3    3    0    0 -0.46638185987E+02 -0.84746721647E+02 -0.46765986784E+02  0.10744386787E+03  0.00000000000E+00 0. -1.
          5    1    5    5  502    0  0.11852890239E+02  0.54122765899E+02  0.37749101290E+03  0.38156430600E+03  0.47000000000E+01 0. -1.
         -5    1    5    5    0  502 -0.30958654652E+02  0.21820907876E+03  0.51916550987E+03  0.56402886184E+03  0.47000000000E+01 0. -1.
          1    1    1    2  503    0 -0.41221838618E+02  0.14162008335E+02  0.28950955833E+04  0.28954236717E+04  0.00000000000E+00 0. -1.
         -4    1    1    2    0  501  0.11469541534E+03 -0.10548177160E+03 -0.26933379343E+03  0.31116255353E+03  0.00000000000E+00 0.  1.
<mgrwt>
<rscale>  0 0.82481616E+02</rscale>
<asrwt>0</asrwt>
<pdfrwt beam="1">  1        2 0.61422119E+00 0.43586723E+02</pdfrwt>
<pdfrwt beam="2">  1       -3 0.63003238E-01 0.15608462E+03</pdfrwt>
<totfact> 0.10288015E+00</totfact>
</mgrwt>
</event>
<event>
13    1  0.1942437E-008  0.1133323E+03  0.7546771E-02  0.1282554E+00
          2   -1    0    0  503    0  0.00000000000E+00  0.00000000000E+00  0.12584859745E+04  0.12584859745E+04  0.00000000000E+00 0. -1.
         -1   -1    0    0    0  501 -0.00000000000E+00 -0.00000000000E+00 -0.13870101373E+04  0.13870101373E+04  0.00000000000E+00 0.  1.
         24    2    1    2    0    0 -0.11006837370E+03  0.67773179547E+02 -0.44567644050E+03  0.47029189147E+03  0.76411535893E+02 0.  0.
         24    2    1    2    0    0  0.38624678219E+02 -0.25912685095E+02 -0.49883068969E+02  0.10665433085E+03  0.81996906661E+02 0.  0.
         25    2    1    2    0    0 -0.95692571422E+02  0.69053850393E+02  0.13993819340E+03  0.22166027863E+03  0.12500031468E+03 0.  0.
        -13    1    4    4    0    0 -0.49181296730E+01  0.12501589841E+02  0.14627165174E+02  0.19860304858E+02  0.00000000000E+00 0.  1.
         14    1    4    4    0    0  0.43542807892E+02 -0.38414274936E+02 -0.64510234143E+02  0.86794025988E+02  0.00000000000E+00 0. -1.
        -13    1    3    3    0    0 -0.92335514411E+02  0.84939530106E+02 -0.36997703127E+03  0.39067067290E+03  0.00000000000E+00 0.  1.
         14    1    3    3    0    0 -0.17732859286E+02 -0.17166350559E+02 -0.75699409230E+02  0.79621218577E+02  0.00000000000E+00 0. -1.
          5    1    5    5  502    0 -0.41010903380E+02 -0.14179783796E+02  0.10877281932E+03  0.11720314282E+03  0.47000000000E+01 0.  1.
         -5    1    5    5    0  502 -0.54681668043E+02  0.83233634189E+02  0.31165374080E+02  0.10445713581E+03  0.47000000000E+01 0.  1.
          1    1    1    2  503    0 -0.11515100789E+02 -0.85593429711E+02  0.10251050883E+04  0.10287367374E+04  0.00000000000E+00 0. -1.
         -2    1    1    2    0  501  0.17865136769E+03 -0.25320915134E+02 -0.79800793508E+03  0.81815287347E+03  0.00000000000E+00 0.  1.
<mgrwt>
<rscale>  0 0.98933793E+02</rscale>
<asrwt>0</asrwt>
<pdfrwt beam="1">  1        2 0.18507147E+00 0.86364534E+02</pdfrwt>
<pdfrwt beam="2">  1       -1 0.20397208E+00 0.11333235E+03</pdfrwt>
<totfact> 0.41921630E+00</totfact>
</mgrwt>
</event>
<event>
13    1  0.1942437E-008  0.5689643E+02  0.7546771E-02  0.1479416E+00
          2   -1    0    0  502    0  0.00000000000E+00  0.00000000000E+00  0.11270436354E+04  0.11270436354E+04  0.00000000000E+00 0. -1.
          2   -1    0    0  503    0 -0.00000000000E+00 -0.00000000000E+00 -0.13533827950E+03  0.13533827950E+03  0.00000000000E+00 0. -1.
         24    2    1    2    0    0 -0.57984176318E+01 -0.11751651154E+03  0.29415619842E+02  0.14471135255E+03  0.78945200846E+02 0.  0.
         24    2    1    2    0    0  0.42427578302E+02  0.50239396185E+02  0.10189606147E+03  0.14452887809E+03  0.78623742777E+02 0.  0.
         25    2    1    2    0    0 -0.79553123071E+02  0.18094878309E+02  0.30454082901E+03  0.33915542773E+03  0.12500065443E+03 0.  0.
        -11    1    3    3    0    0 -0.36160072667E+02 -0.91486955725E+02  0.34822815970E+02  0.10435536611E+03  0.00000000000E+00 0.  1.
         12    1    3    3    0    0  0.30361655035E+02 -0.26029555810E+02 -0.54071961281E+01  0.40355986447E+02  0.00000000000E+00 0. -1.
        -11    1    4    4    0    0  0.70184292357E+00 -0.11903445367E+02  0.54825274425E+02  0.56106998769E+02  0.00000000000E+00 0.  1.
         12    1    4    4    0    0  0.41725735378E+02  0.62142841552E+02  0.47070787045E+02  0.88421879318E+02  0.00000000000E+00 0. -1.
          5    1    5    5  501    0  0.31558739295E+02 -0.21114163699E+01  0.10572455526E+03  0.11045444169E+03  0.47000000000E+01 0.  1.
         -5    1    5    5    0  501 -0.11111186237E+03  0.20206294679E+02  0.19881627376E+03  0.22870098604E+03  0.47000000000E+01 0.  1.
          1    1    1    2  502    0 -0.11468709584E+02  0.32360323886E+02  0.57338618755E+03  0.57441312828E+03  0.00000000000E+00 0. -1.
          1    1    1    2  503    0  0.54392671985E+02  0.16821913155E+02 -0.17533341986E+02  0.59573128247E+02  0.00000000000E+00 0. -1.
<mgrwt>
<rscale>  0 0.44197258E+02</rscale>
<asrwt>0</asrwt>
<pdfrwt beam="1">  1        2 0.16574171E+00 0.34332519E+02</pdfrwt>
<pdfrwt beam="2">  1        2 0.19902689E-01 0.56896426E+02</pdfrwt>
<totfact> 0.10819792E+03</totfact>
</mgrwt>
</event>
<event>
13    1  0.1942437E-008  0.1089625E+03  0.7546771E-02  0.1303366E+00
          2   -1    0    0  502    0  0.00000000000E+00  0.00000000000E+00  0.23161384856E+04  0.23161384856E+04  0.00000000000E+00 0. -1.
          2   -1    0    0  503    0 -0.00000000000E+00 -0.00000000000E+00 -0.11311376384E+04  0.11311376384E+04  0.00000000000E+00 0. -1.
         24    2    1    2    0    0  0.20753637219E+03 -0.27715688102E+03 -0.37000607885E+03  0.51294099581E+03  0.79477571148E+02 0.  0.
         24    2    1    2    0    0 -0.20500285284E+03  0.85058422372E+02 -0.29751237171E+02  0.24868985358E+03  0.10816839775E+03 0.  0.
         25    2    1    2    0    0 -0.16606224354E+02  0.35601481130E+02  0.73162854649E+03  0.74326851096E+03  0.12499806876E+03 0.  0.
        -11    1    3    3    0    0  0.13368681866E+02 -0.58131940056E+01 -0.44413081276E+02  0.46744375788E+02  0.00000000000E+00 0.  1.
         12    1    3    3    0    0  0.19416769032E+03 -0.27134368702E+03 -0.32559299757E+03  0.46619662002E+03  0.00000000000E+00 0. -1.
        -13    1    4    4    0    0 -0.44596169841E+02 -0.37242421840E+01 -0.46564658766E+02  0.64582937300E+02  0.00000000000E+00 0.  1.
         14    1    4    4    0    0 -0.16040668300E+03  0.88782664556E+02  0.16813421595E+02  0.18410691628E+03  0.00000000000E+00 0. -1.
          5    1    5    5  501    0  0.50205765624E+02  0.30295084669E+02  0.44496814560E+03  0.44883978394E+03  0.47000000000E+01 0. -1.
         -5    1    5    5    0  501 -0.66811989979E+02  0.53063964607E+01  0.28666040090E+03  0.29442872702E+03  0.47000000000E+01 0. -1.
          1    1    1    2  502    0  0.50543964363E+02  0.54032392879E+02  0.13913304784E+04  0.13932963403E+04  0.00000000000E+00 0. -1.
          1    1    1    2  503    0 -0.36471259357E+02  0.10246458464E+03 -0.53820086161E+03  0.54908042335E+03  0.00000000000E+00 0. -1.
<mgrwt>
<rscale>  0 0.89788046E+02</rscale>
<asrwt>0</asrwt>
<pdfrwt beam="1">  1        2 0.34060860E+00 0.73987782E+02</pdfrwt>
<pdfrwt beam="2">  1        2 0.16634377E+00 0.10896249E+03</pdfrwt>
<totfact> 0.25689373E+01</totfact>
</mgrwt>
</event>
<event>
13    1  0.1942437E-008  0.1178722E+03  0.7546771E-02  0.1529069E+00
          2   -1    0    0  502    0  0.00000000000E+00  0.00000000000E+00  0.17663830929E+04  0.17663830929E+04  0.00000000000E+00 0. -1.
          2   -1    0    0  503    0 -0.00000000000E+00 -0.00000000000E+00 -0.60259880795E+03  0.60259880795E+03  0.00000000000E+00 0. -1.
         24    2    1    2    0    0  0.92008964477E+02 -0.13112093383E+02 -0.11545432807E+03  0.16783966572E+03  0.78758332780E+02 0.  0.
         24    2    1    2    0    0  0.59529447882E+02  0.18730757050E+03  0.69080530402E+02  0.22473736215E+03  0.84302319854E+02 0.  0.
         25    2    1    2    0    0 -0.89658733800E+02 -0.30838884145E+03  0.35394342275E+03  0.49400848743E+03  0.12500429221E+03 0.  0.
        -13    1    3    3    0    0  0.47940591527E+02  0.32746666431E+02 -0.50762543791E+02  0.77119908781E+02  0.00000000000E+00 0.  1.
         14    1    3    3    0    0  0.44068372950E+02 -0.45858759814E+02 -0.64691784276E+02  0.90719756938E+02  0.00000000000E+00 0. -1.
        -13    1    4    4    0    0  0.48332989278E+02  0.17001976758E+03  0.28241364580E+02  0.17899825109E+03  0.00000000000E+00 0.  1.
         14    1    4    4    0    0  0.11196458605E+02  0.17287802918E+02  0.40839165822E+02  0.45739111054E+02  0.00000000000E+00 0. -1.
          5    1    5    5  501    0 -0.86385220510E+02 -0.16801996029E+03  0.12905351497E+03  0.22884495429E+03  0.47000000000E+01 0.  1.
         -5    1    5    5    0  501 -0.32735132903E+01 -0.14036888116E+03  0.22488990778E+03  0.26516353315E+03  0.47000000000E+01 0.  1.
          1    1    1    2  502    0 -0.85705413771E+00  0.11772751371E+02  0.11543337022E+04  0.11543940524E+04  0.00000000000E+00 0. -1.
          1    1    1    2  503    0 -0.61022624422E+02  0.12242061297E+03 -0.29811904231E+03  0.32800233316E+03  0.00000000000E+00 0. -1.
<mgrwt>
<rscale>  0 0.37300830E+02</rscale>
<asrwt>0</asrwt>
<pdfrwt beam="1">  1        2 0.25976222E+00 0.11803907E+02</pdfrwt>
<pdfrwt beam="2">  1        2 0.88617473E-01 0.11787215E+03</pdfrwt>
<totfact> 0.12432666E+02</totfact>
</mgrwt>
</event>
<event>
13    1  0.1942437E-008  0.6454081E+02  0.7546771E-02  0.1447211E+00
          2   -1    0    0  502    0  0.00000000000E+00  0.00000000000E+00  0.20270532005E+04  0.20270532005E+04  0.00000000000E+00 0. -1.
          2   -1    0    0  503    0 -0.00000000000E+00 -0.00000000000E+00 -0.31321872394E+04  0.31321872394E+04  0.00000000000E+00 0. -1.
         24    2    1    2    0    0 -0.40412161232E+02  0.39167272105E+02 -0.18306296029E+04  0.18333201289E+04  0.81796908280E+02 0.  0.
         24    2    1    2    0    0 -0.33110533706E+02  0.67311979417E+01 -0.36860902526E+03  0.37852145418E+03  0.79147086508E+02 0.  0.
         25    2    1    2    0    0  0.37330435422E+02 -0.69251464476E+02  0.30175709606E+03  0.33596079913E+03  0.12499194689E+03 0.  0.
        -11    1    3    3    0    0 -0.91357397299E+01  0.39984884566E+01 -0.22890534141E+02  0.24968504233E+02  0.00000000000E+00 0.  1.
         12    1    3    3    0    0 -0.31276421502E+02  0.35168783649E+02 -0.18077390687E+04  0.18083516247E+04  0.00000000000E+00 0. -1.
        -13    1    4    4    0    0  0.17180582297E+02  0.19752982361E+02 -0.58491291249E+02  0.64082633156E+02  0.00000000000E+00 0.  1.
         14    1    4    4    0    0 -0.50291116003E+02 -0.13021784419E+02 -0.31011773401E+03  0.31443882102E+03  0.00000000000E+00 0. -1.
          5    1    5    5  501    0 -0.19523825427E+01  0.29787014161E+02  0.24510079745E+02  0.38909022338E+02  0.47000000000E+01 0.  1.
         -5    1    5    5    0  501  0.39282817965E+02 -0.99038478637E+02  0.27724701632E+03  0.29705177679E+03  0.47000000000E+01 0.  1.
          1    1    1    2  502    0  0.64508162426E+02 -0.22916437693E+01  0.17008791688E+04  0.17021035519E+04  0.00000000000E+00 0. -1.
          1    1    1    2  503    0 -0.28315902910E+02  0.25644638199E+02 -0.90853167559E+03  0.90933450577E+03  0.00000000000E+00 0. -1.
<mgrwt>
<rscale>  0 0.49655072E+02</rscale>
<asrwt>0</asrwt>
<pdfrwt beam="1">  1        2 0.29809606E+00 0.64540812E+02</pdfrwt>
<pdfrwt beam="2">  1        2 0.46061577E+00 0.38202589E+02</pdfrwt>
<totfact> 0.42075195E+00</totfact>
</mgrwt>
</event>
<event>
13    1  0.1942437E-008  0.8036664E+02  0.7546771E-02  0.1400265E+00
          2   -1    0    0  503    0  0.00000000000E+00  0.00000000000E+00  0.74252270063E+03  0.74252270063E+03  0.00000000000E+00 0. -1.
          2   -1    0    0  502    0 -0.00000000000E+00 -0.00000000000E+00 -0.70736088877E+03  0.70736088877E+03  0.00000000000E+00 0. -1.
         24    2    1    2    0    0  0.10634284731E+03 -0.38821495975E+02 -0.48714129415E+02  0.14707213053E+03  0.80257307759E+02 0.  0.
         24    2    1    2    0    0 -0.12991983186E+03  0.49257647271E+02  0.10791415361E+03  0.19458266427E+03  0.83135252218E+02 0.  0.
         25    2    1    2    0    0  0.15594144457E+03 -0.80227097695E+02  0.38024670005E+03  0.43699720636E+03  0.12499953649E+03 0.  0.
        -11    1    3    3    0    0  0.22135779540E+02 -0.23729139674E+02  0.19321672184E+02  0.37767602803E+02  0.00000000000E+00 0.  1.
         12    1    3    3    0    0  0.84207067774E+02 -0.15092356301E+02 -0.68035801599E+02  0.10930452772E+03  0.00000000000E+00 0. -1.
        -13    1    4    4    0    0 -0.56329690530E+02  0.56269064801E+02  0.24893520308E+02  0.83420195649E+02  0.00000000000E+00 0.  1.
         14    1    4    4    0    0 -0.73590141327E+02 -0.70114175308E+01  0.83020633304E+02  0.11116246862E+03  0.00000000000E+00 0. -1.
          5    1    5    5  501    0  0.25570745403E+02 -0.62379925978E+02  0.21692809102E+03  0.22721136604E+03  0.47000000000E+01 0.  1.
         -5    1    5    5    0  501  0.13037069917E+03 -0.17847171717E+02  0.16331860903E+03  0.20978584031E+03  0.47000000000E+01 0.  1.
          1    1    1    2  502    0 -0.14034570813E+03  0.26583084034E+02 -0.52430863422E+03  0.54341799939E+03  0.00000000000E+00 0. -1.
          1    1    1    2  503    0  0.79812480967E+01  0.43207862366E+02  0.12002372184E+03  0.12781358885E+03  0.00000000000E+00 0. -1.
<mgrwt>
<rscale>  0 0.59424027E+02</rscale>
<asrwt>0</asrwt>
<pdfrwt beam="1">  1        2 0.10919452E+00 0.43938818E+02</pdfrwt>
<pdfrwt beam="2">  1        2 0.10402366E+00 0.80366637E+02</pdfrwt>
<totfact> 0.30771464E+02</totfact>
</mgrwt>
</event>
<event>
13    1  0.1942437E-008  0.7327091E+02  0.7546771E-02  0.1523875E+00
          2   -1    0    0  503    0  0.00000000000E+00  0.00000000000E+00  0.17759176618E+04  0.17759176618E+04  0.00000000000E+00 0. -1.
          2   -1    0    0  502    0 -0.00000000000E+00 -0.00000000000E+00 -0.27682423989E+04  0.27682423989E+04  0.00000000000E+00 0. -1.
         24    2    1    2    0    0  0.16079997533E+03 -0.39030651181E+03 -0.12039688305E+04  0.12782977890E+04  0.79425985766E+02 0.  0.
         24    2    1    2    0    0 -0.67654195196E+03 -0.17443129275E+03  0.15823716609E+03  0.72141394621E+03  0.85227885157E+02 0.  0.
         25    2    1    2    0    0  0.45637880115E+03  0.53908296923E+03  0.64345067690E+03  0.96361092700E+03  0.12500074872E+03 0.  0.
        -11    1    3    3    0    0  0.14024944146E+03 -0.25841257329E+03 -0.76825216045E+03  0.82259245432E+03  0.00000000000E+00 0.  1.
         12    1    3    3    0    0  0.20550533865E+02 -0.13189393852E+03 -0.43571667005E+03  0.45570533464E+03  0.00000000000E+00 0. -1.
        -11    1    4    4    0    0 -0.37414247372E+03 -0.13816527245E+03  0.10236009755E+03  0.41176428053E+03  0.00000000000E+00 0.  1.
         12    1    4    4    0    0 -0.30239947824E+03 -0.36266020303E+02  0.55877068535E+02  0.30964966568E+03  0.00000000000E+00 0. -1.
          5    1    5    5  501    0  0.66293228514E+02  0.12694582853E+03  0.18544521156E+03  0.23435454341E+03  0.47000000000E+01 0.  1.
         -5    1    5    5    0  501  0.39008557263E+03  0.41213714070E+03  0.45800546535E+03  0.72925638359E+03  0.47000000000E+01 0.  1.
          1    1    1    2  502    0  0.17010756860E+01 -0.19580556882E+02 -0.10826403586E+04  0.10828187466E+04  0.00000000000E+00 0. -1.
          1    1    1    2  503    0  0.57662099793E+02  0.45235392214E+02  0.49259660897E+03  0.49801865189E+03  0.00000000000E+00 0. -1.
<mgrwt>
<rscale>  0 0.37948505E+02</rscale>
<asrwt>0</asrwt>
<pdfrwt beam="1">  1        2 0.26116437E+00 0.73270906E+02</pdfrwt>
<pdfrwt beam="2">  1        2 0.40709446E+00 0.19654309E+02</pdfrwt>
<totfact> 0.93507909E+00</totfact>
</mgrwt>
</event>
<event>
13    1  0.1942437E-008  0.1623026E+03  0.7546771E-02  0.1274691E+00
          2   -1    0    0  503    0  0.00000000000E+00  0.00000000000E+00  0.16283600393E+04  0.16283600393E+04  0.00000000000E+00 0. -1.
          2   -1    0    0  502    0 -0.00000000000E+00 -0.00000000000E+00 -0.33223959212E+04  0.33223959212E+04  0.00000000000E+00 0. -1.
         24    2    1    2    0    0 -0.86625157926E+01  0.27537147145E+03 -0.29820750343E+03  0.41691061267E+03  0.94774771918E+02 0.  0.
         24    2    1    2    0    0 -0.40277792447E+02 -0.58373106098E+03 -0.14523484556E+04  0.15678407314E+04  0.80276212702E+02 0.  0.
         25    2    1    2    0    0  0.14769526709E+03  0.25518239369E+03  0.24016652740E+03  0.40029684622E+03  0.12500263293E+03 0.  0.
        -11    1    4    4    0    0 -0.17294153438E+02 -0.26206151676E+03 -0.75924200537E+03  0.80338269152E+03  0.00000000000E+00 0.  1.
         12    1    4    4    0    0 -0.22983639010E+02 -0.32166954421E+03 -0.69310645027E+03  0.76445803989E+03  0.00000000000E+00 0. -1.
        -11    1    3    3    0    0 -0.36409330755E+02  0.22396116213E+03 -0.26796745020E+03  0.35112789105E+03  0.00000000000E+00 0.  1.
         12    1    3    3    0    0  0.27746814963E+02  0.51410309314E+02 -0.30240053229E+02  0.65782721619E+02  0.00000000000E+00 0. -1.
          5    1    5    5  501    0  0.88735228474E+02  0.11991621921E+03  0.19568918962E+03  0.24611011628E+03  0.47000000000E+01 0.  1.
         -5    1    5    5    0  501  0.58960038620E+02  0.13526617449E+03  0.44477337779E+02  0.15418672994E+03  0.47000000000E+01 0.  1.
          1    1    1    2  502    0  0.14411288128E+02 -0.63384779623E+02 -0.13683619768E+04  0.13699050387E+04  0.00000000000E+00 0. -1.
          1    1    1    2  503    0 -0.11316624698E+03  0.11656197546E+03  0.11847155266E+04  0.11958027314E+04  0.00000000000E+00 0. -1.
<mgrwt>
<rscale>  0 0.10271350E+03</rscale>
<asrwt>0</asrwt>
<pdfrwt beam="1">  1        2 0.23946472E+00 0.16230260E+03</pdfrwt>
<pdfrwt beam="2">  1        2 0.48858763E+00 0.65002427E+02</pdfrwt>
<totfact> 0.43042853E+00</totfact>
</mgrwt>
</event>
<event>
13    1  0.1942437E-008  0.8120490E+02  0.7546771E-02  0.1362486E+00
          2   -1    0    0  502    0  0.00000000000E+00  0.00000000000E+00  0.78022383999E+03  0.78022383999E+03  0.00000000000E+00 0. -1.
          2   -1    0    0  503    0 -0.00000000000E+00 -0.00000000000E+00 -0.17903631839E+04  0.17903631839E+04  0.00000000000E+00 0. -1.
         24    2    1    2    0    0 -0.59440904019E+02  0.87720280989E+02 -0.42121374520E+03  0.44136647754E+03  0.78455589925E+02 0.  0.
         24    2    1    2    0    0 -0.18853365626E+02 -0.59162048954E+02 -0.18290448647E+02  0.96522552185E+02  0.71599337543E+02 0.  0.
         25    2    1    2    0    0  0.79325355010E+02 -0.46742163747E+01  0.13449389222E+03  0.20007308437E+03  0.12500508709E+03 0.  0.
        -11    1    3    3    0    0 -0.40786646642E+02  0.37648090814E+00 -0.10085581548E+03  0.10879148771E+03  0.00000000000E+00 0.  1.
         12    1    3    3    0    0 -0.18654257377E+02  0.87343800081E+02 -0.32035792971E+03  0.33257498983E+03  0.00000000000E+00 0. -1.
        -13    1    4    4    0    0  0.22963031238E+01  0.15247216862E+02 -0.10755606294E+02  0.18799832361E+02  0.00000000000E+00 0.  1.
         14    1    4    4    0    0 -0.21149668750E+02 -0.74409265816E+02 -0.75348423539E+01  0.77722719824E+02  0.00000000000E+00 0. -1.
          5    1    5    5  501    0  0.14503621945E+01  0.46665071758E+02  0.77691676356E+02  0.90762431918E+02  0.47000000000E+01 0. -1.
         -5    1    5    5    0  501  0.77874992816E+02 -0.51339288133E+02  0.56802215861E+02  0.10931065245E+03  0.47000000000E+01 0. -1.
          1    1    1    2  502    0  0.20887473176E+02 -0.78814501239E+02  0.56010542958E+03  0.56600892607E+03  0.00000000000E+00 0. -1.
          1    1    1    2  503    0 -0.21918558541E+02  0.54930485579E+02 -0.12652344719E+04  0.12666159838E+04  0.00000000000E+00 0. -1.
<mgrwt>
<rscale>  0 0.69300964E+02</rscale>
<asrwt>0</asrwt>
<pdfrwt beam="1">  1        2 0.11473880E+00 0.81204895E+02</pdfrwt>
<pdfrwt beam="2">  1        2 0.26328870E+00 0.59142045E+02</pdfrwt>
<totfact> 0.76458615E+01</totfact>
</mgrwt>
</event>
<event>
13    1  0.1942437E-008  0.4695379E+02  0.7546771E-02  0.1497121E+00
         -1   -1    0    0    0  501 -0.00000000000E+00  0.00000000000E+00  0.29652076775E+03  0.29652076775E+03  0.00000000000E+00 0.  1.
          2   -1    0    0  503    0  0.00000000000E+00 -0.00000000000E+00 -0.32713733326E+04  0.32713733326E+04  0.00000000000E+00 0. -1.
         24    2    1    2    0    0 -0.21548510430E+02 -0.38384623900E+02  0.83092266051E+02  0.12265764251E+03  0.78758205513E+02 0.  0.
         24    2    1    2    0    0 -0.50653386925E+02 -0.98613445263E+02 -0.19472684080E+03  0.23823445651E+03  0.80911906107E+02 0.  0.
         25    2    1    2    0    0  0.12939481123E+03  0.16499660578E+03 -0.11123685659E+04  0.11388396938E+04  0.12500049865E+03 0.  0.
        -11    1    4    4    0    0 -0.47705536323E+02 -0.11217147838E+03 -0.18392551675E+03  0.22065097886E+03  0.00000000000E+00 0.  1.
         12    1    4    4    0    0 -0.29478506026E+01  0.13558033122E+02 -0.10801324044E+02  0.17583477654E+02  0.00000000000E+00 0. -1.
        -13    1    3    3    0    0 -0.11096368429E+02 -0.58115219019E+02  0.32839695974E+02  0.67667966613E+02  0.00000000000E+00 0.  1.
         14    1    3    3    0    0 -0.10452142000E+02  0.19730595119E+02  0.50252570078E+02  0.54989675900E+02  0.00000000000E+00 0. -1.
          5    1    5    5  502    0  0.14159825413E+03  0.89952579603E+02 -0.74836296221E+03  0.76694898485E+03  0.47000000000E+01 0. -1.
         -5    1    5    5    0  502 -0.12203442896E+02  0.75044026173E+02 -0.36400560369E+03  0.37189070895E+03  0.47000000000E+01 0. -1.
          1    1    1    2  503    0 -0.22814311117E+02 -0.41025778387E+02 -0.19070833990E+04  0.19076610543E+04  0.00000000000E+00 0. -1.
         -2    1    1    2    0  501 -0.34378602757E+02  0.13027241775E+02  0.15623397489E+03  0.16050125316E+03  0.00000000000E+00 0.  1.
<mgrwt>
<rscale>  0 0.41547715E+02</rscale>
<asrwt>0</asrwt>
<pdfrwt beam="2">  1        2 0.48108430E+00 0.46953785E+02</pdfrwt>
<pdfrwt beam="1">  1       -1 0.43605996E-01 0.36764077E+02</pdfrwt>
<totfact> 0.14242348E+01</totfact>
</mgrwt>
</event>
<event>
13    1  0.1942437E-008  0.5084093E+02  0.7546771E-02  0.1447205E+00
          2   -1    0    0  503    0  0.00000000000E+00  0.00000000000E+00  0.12424988792E+04  0.12424988792E+04  0.00000000000E+00 0. -1.
          2   -1    0    0  502    0 -0.00000000000E+00 -0.00000000000E+00 -0.12442444326E+04  0.12442444326E+04  0.00000000000E+00 0. -1.
         24    2    1    2    0    0 -0.32640839137E+03  0.24565296915E+02 -0.92668461555E+03  0.98609004664E+03  0.80519014007E+02 0.  0.
         24    2    1    2    0    0 -0.27021641466E+02  0.63801902353E+02 -0.29539726932E+01  0.10643646959E+03  0.80741217801E+02 0.  0.
         25    2    1    2    0    0  0.35272885111E+03 -0.85721285959E+02  0.38759619498E+03  0.54554527425E+03  0.12499221825E+03 0.  0.
        -11    1    3    3    0    0 -0.42509976509E+02  0.28339075894E+02 -0.10576937672E+03  0.11746217424E+03  0.00000000000E+00 0.  1.
         12    1    3    3    0    0 -0.28389841486E+03 -0.37737789789E+01 -0.82091523882E+03  0.86862787240E+03  0.00000000000E+00 0. -1.
        -13    1    4    4    0    0 -0.48198469006E+02  0.11124720139E+02  0.14919886415E+01  0.49488158611E+02  0.00000000000E+00 0.  1.
         14    1    4    4    0    0  0.21176827540E+02  0.52677182214E+02 -0.44459613346E+01  0.56948310975E+02  0.00000000000E+00 0. -1.
          5    1    5    5  501    0  0.41214656400E+02 -0.54751044966E+02  0.93277913105E+02  0.11584120122E+03  0.47000000000E+01 0. -1.
         -5    1    5    5    0  501  0.31151419471E+03 -0.30970240993E+02  0.29431828187E+03  0.42970407303E+03  0.47000000000E+01 0. -1.
          1    1    1    2  502    0  0.18809356937E+02 -0.47637547694E+02 -0.14905858525E+03  0.15761214958E+03  0.00000000000E+00 0. -1.
          1    1    1    2  503    0 -0.18108175217E+02  0.44991634384E+02  0.68935542508E+03  0.69105937173E+03  0.00000000000E+00 0. -1.
<mgrwt>
<rscale>  0 0.49656160E+02</rscale>
<asrwt>0</asrwt>
<pdfrwt beam="1">  1        2 0.18272042E+00 0.48499002E+02</pdfrwt>
<pdfrwt beam="2">  1        2 0.18297712E+00 0.50840927E+02</pdfrwt>
<totfact> 0.79651406E+01</totfact>
</mgrwt>
</event>
<event>
13    1  0.1942437E-008  0.1088231E+03  0.7546771E-02  0.1293683E+00
          2   -1    0    0  502    0  0.00000000000E+00  0.00000000000E+00  0.34287547739E+04  0.34287547739E+04  0.00000000000E+00 0. -1.
          2   -1    0    0  503    0 -0.00000000000E+00 -0.00000000000E+00 -0.14591786336E+04  0.14591786336E+04  0.00000000000E+00 0. -1.
         24    2    1    2    0    0  0.35669303358E+02 -0.11642394127E+03 -0.38002563081E+03  0.40875276452E+03  0.88501463997E+02 0.  0.
         24    2    1    2    0    0  0.13451692565E+03  0.26627109154E+03  0.99527671712E+01  0.30883804799E+03  0.79289247910E+02 0.  0.
         25    2    1    2    0    0 -0.11641232385E+03 -0.38140475511E+02  0.20405100982E+03  0.26882688408E+03  0.12499821590E+03 0.  0.
        -13    1    4    4    0    0  0.13836859319E+02  0.12834932958E+02 -0.18835171044E+02  0.26663792830E+02  0.00000000000E+00 0.  1.
         14    1    4    4    0    0  0.12068006633E+03  0.25343615859E+03  0.28787938215E+02  0.28217425516E+03  0.00000000000E+00 0. -1.
        -13    1    3    3    0    0  0.52691857825E+02 -0.26960521895E+02 -0.16186868156E+03  0.17235072292E+03  0.00000000000E+00 0.  1.
         14    1    3    3    0    0 -0.17022554468E+02 -0.89463419371E+02 -0.21815694925E+03  0.23640204160E+03  0.00000000000E+00 0. -1.
          5    1    5    5  501    0 -0.85945582271E+01 -0.56151655396E+02  0.33256393590E+02  0.65992064291E+02  0.47000000000E+01 0.  1.
         -5    1    5    5    0  501 -0.10781776563E+03  0.18011179885E+02  0.17079461623E+03  0.20283481979E+03  0.47000000000E+01 0.  1.
          1    1    1    2  502    0 -0.80780580081E+02 -0.61720192538E+01  0.30146505826E+04  0.30157390025E+04  0.00000000000E+00 0. -1.
          1    1    1    2  503    0  0.27006674929E+02 -0.10553465551E+03 -0.87905258839E+03  0.88577670841E+03  0.00000000000E+00 0. -1.
<mgrwt>
<rscale>  0 0.93895785E+02</rscale>
<asrwt>0</asrwt>
<pdfrwt beam="1">  1        2 0.50422864E+00 0.81016023E+02</pdfrwt>
<pdfrwt beam="2">  1        2 0.21458509E+00 0.10882315E+03</pdfrwt>
<totfact> 0.45115619E+00</totfact>
</mgrwt>
</event>
<event>
13    1  0.1942437E-008  0.2759550E+02  0.7546771E-02  0.1664123E+00
          2   -1    0    0  502    0  0.00000000000E+00  0.00000000000E+00  0.77875226064E+03  0.77875226064E+03  0.00000000000E+00 0. -1.
          2   -1    0    0  503    0 -0.00000000000E+00 -0.00000000000E+00 -0.33992389090E+04  0.33992389090E+04  0.00000000000E+00 0. -1.
         24    2    1    2    0    0  0.65387301552E+03  0.48945784606E+03 -0.16917647886E+04  0.18817012956E+04  0.10776252815E+03 0.  0.
         24    2    1    2    0    0 -0.63367627735E+03 -0.51467548114E+03 -0.11833848785E+04  0.14398972261E+04  0.80422482348E+02 0.  0.
         25    2    1    2    0    0  0.47051368719E+01  0.29485505293E+02 -0.99767787117E+02  0.16269487086E+03  0.12499790527E+03 0.  0.
        -11    1    4    4    0    0 -0.34694458431E+03 -0.29201038009E+03 -0.58786890379E+03  0.74244895765E+03  0.00000000000E+00 0.  1.
         12    1    4    4    0    0 -0.28673169303E+03 -0.22266510105E+03 -0.59551597472E+03  0.69744826844E+03  0.00000000000E+00 0. -1.
        -13    1    3    3    0    0  0.47278689521E+03  0.31096437232E+03 -0.12468316138E+04  0.13692389719E+04  0.00000000000E+00 0.  1.
         14    1    3    3    0    0  0.18108612032E+03  0.17849347374E+03 -0.44493317475E+03  0.51246232362E+03  0.00000000000E+00 0. -1.
          5    1    5    5  501    0  0.20846133602E+02 -0.45901728433E+02 -0.47562047007E+02  0.69467749890E+02  0.47000000000E+01 0. -1.
         -5    1    5    5    0  501 -0.16140996730E+02  0.75387233725E+02 -0.52205740110E+02  0.93227120972E+02  0.47000000000E+01 0. -1.
          1    1    1    2  502    0 -0.14093469578E+02 -0.23726685067E+02  0.52296870628E+03  0.52369633302E+03  0.00000000000E+00 0. -1.
          1    1    1    2  503    0 -0.10808405469E+02  0.19458814861E+02 -0.16853790042E+03  0.17000144406E+03  0.00000000000E+00 0. -1.
<mgrwt>
<rscale>  0 0.24784083E+02</rscale>
<asrwt>0</asrwt>
<pdfrwt beam="1">  1        2 0.11452239E+00 0.27595503E+02</pdfrwt>
<pdfrwt beam="2">  1        2 0.49988807E+00 0.22259090E+02</pdfrwt>
<totfact> 0.15245817E+01</totfact>
</mgrwt>
</event>
<event>
13    1  0.1942437E-008  0.1447217E+03  0.7546771E-02  0.1436302E+00
          2   -1    0    0  503    0  0.00000000000E+00  0.00000000000E+00  0.20512323288E+04  0.20512323288E+04  0.00000000000E+00 0. -1.
          2   -1    0    0  502    0 -0.00000000000E+00 -0.00000000000E+00 -0.43304937560E+03  0.43304937560E+03  0.00000000000E+00 0. -1.
         24    2    1    2    0    0  0.56424684192E+02 -0.44029873194E+02 -0.64958713917E+01  0.10618488718E+03  0.78170705509E+02 0.  0.
         24    2    1    2    0    0 -0.43239088223E+02  0.80790129290E+02  0.19196998410E+02  0.12342331894E+03  0.80424667663E+02 0.  0.
         25    2    1    2    0    0 -0.14216420576E+03 -0.41445480751E+02  0.40871692481E+02  0.19805505370E+03  0.12500767887E+03 0.  0.
        -11    1    4    4    0    0 -0.84837965387E+01 -0.15471125091E+02 -0.48375373739E+01  0.18295690289E+02  0.00000000000E+00 0.  1.
         12    1    4    4    0    0 -0.34755291684E+02  0.96261254381E+02  0.24034535784E+02  0.10512762865E+03  0.00000000000E+00 0. -1.
        -13    1    3    3    0    0  0.70389746618E+02 -0.44117953119E+02  0.11000857082E+02  0.83798144806E+02  0.00000000000E+00 0.  1.
         14    1    3    3    0    0 -0.13965062426E+02  0.88079924882E-01 -0.17496728474E+02  0.22386742370E+02  0.00000000000E+00 0. -1.
          5    1    5    5  501    0 -0.12682458897E+03  0.21235105573E+02  0.33280066457E+02  0.13290996539E+03  0.47000000000E+01 0. -1.
         -5    1    5    5    0  501 -0.15339616783E+02 -0.62680586324E+02  0.75916260232E+01  0.65145088308E+02  0.47000000000E+01 0. -1.
          1    1    1    2  502    0 -0.14846388426E+02 -0.11004920664E+02 -0.24276224384E+03  0.24346463924E+03  0.00000000000E+00 0. -1.
          1    1    1    2  503    0  0.14382499821E+03  0.15690145320E+02  0.18073723775E+04  0.18131538054E+04  0.00000000000E+00 0. -1.
<mgrwt>
<rscale>  0 0.51715652E+02</rscale>
<asrwt>0</asrwt>
<pdfrwt beam="1">  1        2 0.30165181E+00 0.14472171E+03</pdfrwt>
<pdfrwt beam="2">  1        2 0.63683732E-01 0.18480355E+02</pdfrwt>
<totfact> 0.10037375E+02</totfact>
</mgrwt>
</event>
<event>
13    1  0.1942437E-008  0.1322417E+03  0.7546771E-02  0.1437463E+00
          2   -1    0    0  502    0  0.00000000000E+00  0.00000000000E+00  0.53266059669E+03  0.53266059669E+03  0.00000000000E+00 0. -1.
          2   -1    0    0  503    0 -0.00000000000E+00 -0.00000000000E+00 -0.27455686393E+04  0.27455686393E+04  0.00000000000E+00 0. -1.
         24    2    1    2    0    0  0.20910681727E+02 -0.99294040570E+02 -0.12986900476E+04  0.13050633076E+04  0.79358894131E+02 0.  0.
         24    2    1    2    0    0 -0.60478637489E+02  0.54891146230E+02 -0.70754191709E+03  0.71675666607E+03  0.80335859982E+02 0.  0.
         25    2    1    2    0    0 -0.12083323934E+03  0.18906865653E+02  0.24783793273E+03  0.30332596122E+03  0.12499942621E+03 0.  0.
        -11    1    3    3    0    0 -0.28084453868E+02 -0.28438701317E+02 -0.29728152834E+03  0.29995633578E+03  0.00000000000E+00 0.  1.
         12    1    3    3    0    0  0.48995135595E+02 -0.70855339253E+02 -0.10014085193E+04  0.10051069719E+04  0.00000000000E+00 0. -1.
        -13    1    4    4    0    0 -0.65622495561E+02  0.70831913477E+02 -0.55958119108E+03  0.56785084424E+03  0.00000000000E+00 0.  1.
         14    1    4    4    0    0  0.51438580719E+01 -0.15940767247E+02 -0.14796072601E+03  0.14890582184E+03  0.00000000000E+00 0. -1.
          5    1    5    5  501    0 -0.24085405710E+02  0.26671325026E+01  0.18520025590E+03  0.18683801848E+03  0.47000000000E+01 0.  1.
         -5    1    5    5    0  501 -0.96747833632E+02  0.16239733151E+02  0.62637676827E+02  0.11648794274E+03  0.47000000000E+01 0.  1.
          1    1    1    2  502    0  0.14035494269E+03  0.25175129372E+02  0.22873392021E+03  0.26954128317E+03  0.00000000000E+00 0. -1.
          1    1    1    2  503    0  0.20046252416E+02  0.32089931497E+00 -0.68324793083E+03  0.68354201787E+03  0.00000000000E+00 0. -1.
<mgrwt>
<rscale>  0 0.51490688E+02</rscale>
<asrwt>0</asrwt>
<pdfrwt beam="1">  1        2 0.78332442E-01 0.13224174E+03</pdfrwt>
<pdfrwt beam="2">  1        2 0.40376009E+00 0.20048821E+02</pdfrwt>
<totfact> 0.48622591E+01</totfact>
</mgrwt>
</event>
<event>
13    1  0.1942437E-008  0.1078969E+03  0.7546771E-02  0.1332801E+00
          2   -1    0    0  503    0  0.00000000000E+00  0.00000000000E+00  0.34881489930E+04  0.34881489930E+04  0.00000000000E+00 0. -1.
         -3   -1    0    0    0  501 -0.00000000000E+00 -0.00000000000E+00 -0.19321256205E+04  0.19321256205E+04  0.00000000000E+00 0.  1.
         24    2    1    2    0    0 -0.80576506374E+02  0.38986273589E+01 -0.28210721238E+03  0.30474131075E+03  0.82310476389E+02 0.  0.
         24    2    1    2    0    0  0.81116384868E+02  0.73544625580E+02 -0.41490816022E+02  0.14116815558E+03  0.78856074521E+02 0.  0.
         25    2    1    2    0    0 -0.67867993589E+01 -0.89087186153E+01  0.14486838927E+03  0.19166996237E+03  0.12500039342E+03 0.  0.
        -11    1    3    3    0    0 -0.89508840872E+02 -0.15794970855E+02 -0.19744603487E+03  0.21736202609E+03  0.00000000000E+00 0.  1.
         12    1    3    3    0    0  0.89323344974E+01  0.19693598214E+02 -0.84661177507E+02  0.87379284656E+02  0.00000000000E+00 0. -1.
        -11    1    4    4    0    0 -0.82844558446E+00 -0.13068347086E+02  0.37797751498E+01  0.13629186250E+02  0.00000000000E+00 0.  1.
         12    1    4    4    0    0  0.81944830452E+02  0.86612972665E+02 -0.45270591171E+02  0.12753896933E+03  0.00000000000E+00 0. -1.
          5    1    5    5  502    0  0.43152178834E+02 -0.41578402280E+02  0.10071131149E+03  0.11728483422E+03  0.47000000000E+01 0.  1.
         -5    1    5    5    0  502 -0.49938978193E+02  0.32669683665E+02  0.44157077773E+02  0.74385128158E+02  0.47000000000E+01 0.  1.
          1    1    1    2  503    0  0.48072930119E+02  0.31353586983E+02  0.32565471538E+04  0.32570528732E+04  0.00000000000E+00 0. -1.
         -4    1    1    2    0  501 -0.41826009253E+02 -0.99888121306E+02 -0.15217941422E+04  0.15256423116E+04  0.00000000000E+00 0.  1.
<mgrwt>
<rscale>  0 0.78693191E+02</rscale>
<asrwt>0</asrwt>
<pdfrwt beam="1">  1        2 0.51296309E+00 0.57393850E+02</pdfrwt>
<pdfrwt beam="2">  1       -3 0.28413612E+00 0.10789690E+03</pdfrwt>
<totfact> 0.59899376E-02</totfact>
</mgrwt>
</event>
<event>
13    1  0.1942437E-008  0.8194163E+02  0.7546771E-02  0.1503137E+00
          2   -1    0    0  503    0  0.00000000000E+00  0.00000000000E+00  0.36042126684E+04  0.36042126684E+04  0.00000000000E+00 0. -1.
          2   -1    0    0  502    0 -0.00000000000E+00 -0.00000000000E+00 -0.11961917016E+04  0.11961917016E+04  0.00000000000E+00 0. -1.
         24    2    1    2    0    0  0.30782769899E+03  0.19933259911E+03 -0.21317070460E+03  0.43288452445E+03  0.86347465938E+02 0.  0.
         24    2    1    2    0    0 -0.44154162403E+03 -0.10088413768E+04  0.83492768477E+03  0.13843440849E+04  0.81144175466E+02 0.  0.
         25    2    1    2    0    0  0.11553102285E+03  0.90678750801E+03  0.71521304870E+03  0.11673765794E+04  0.12500948400E+03 0.  0.
        -11    1    4    4    0    0 -0.19776057810E+03 -0.52527682288E+03  0.45989954123E+03  0.72562564379E+03  0.00000000000E+00 0.  1.
         12    1    4    4    0    0 -0.24378104593E+03 -0.48356455393E+03  0.37502814354E+03  0.65871844108E+03  0.00000000000E+00 0. -1.
        -13    1    3    3    0    0  0.12728222744E+03  0.11141408341E+03 -0.13854794792E+03  0.21865360111E+03  0.00000000000E+00 0.  1.
         14    1    3    3    0    0  0.18054547156E+03  0.87918515692E+02 -0.74622756677E+02  0.21423092334E+03  0.00000000000E+00 0. -1.
          5    1    5    5  501    0  0.31688177507E+02  0.51809607672E+02  0.71162709512E+02  0.93672820316E+02  0.47000000000E+01 0. -1.
         -5    1    5    5    0  501  0.83842845338E+02  0.85497790034E+03  0.64405033919E+03  0.10737037590E+04  0.47000000000E+01 0. -1.
          1    1    1    2  502    0 -0.64582439394E+01 -0.19153994439E+02 -0.37093644988E+03  0.37148678882E+03  0.00000000000E+00 0. -1.
          1    1    1    2  503    0  0.24641146132E+02 -0.78124735869E+02  0.14419873878E+04  0.14443123925E+04  0.00000000000E+00 0. -1.
<mgrwt>
<rscale>  0 0.40697969E+02</rscale>
<asrwt>0</asrwt>
<pdfrwt beam="1">  1        2 0.53003127E+00 0.81941626E+02</pdfrwt>
<pdfrwt beam="2">  1        2 0.17591054E+00 0.20213471E+02</pdfrwt>
<totfact> 0.54007400E+00</totfact>
</mgrwt>
</event>
<event>
13    1  0.1942437E-008  0.1316456E+03  0.7546771E-02  0.1355705E+00
          2   -1    0    0  502    0  0.00000000000E+00  0.00000000000E+00  0.75323096064E+03  0.75323096064E+03  0.00000000000E+00 0. -1.
          2   -1    0    0  503    0 -0.00000000000E+00 -0.00000000000E+00 -0.26740975056E+04  0.26740975056E+04  0.00000000000E+00 0. -1.
         24    2    1    2    0    0 -0.12498244379E+03 -0.16530005259E+02 -0.22469356055E+03  0.26975539763E+03  0.79918246141E+02 0.  0.
         24    2    1    2    0    0  0.20118593556E+03  0.98532663720E+01 -0.13262810580E+03  0.25367437625E+03  0.78661344990E+02 0.  0.
         25    2    1    2    0    0 -0.40668365501E+02  0.10658953480E+03  0.43187302260E+03  0.46384568296E+03  0.12499306009E+03 0.  0.
        -13    1    3    3    0    0 -0.12497383977E+03 -0.12550027635E+01 -0.15863197281E+03  0.20195083178E+03  0.00000000000E+00 0.  1.
         14    1    3    3    0    0 -0.86040243097E-02 -0.15275002496E+02 -0.66061587739E+02  0.67804565848E+02  0.00000000000E+00 0. -1.
        -13    1    4    4    0    0  0.46277722247E+02 -0.61329362997E+00 -0.74865608759E+02  0.88016265998E+02  0.00000000000E+00 0.  1.
         14    1    4    4    0    0  0.15490821331E+03  0.10466560002E+02 -0.57762497041E+02  0.16565811025E+03  0.00000000000E+00 0. -1.
          5    1    5    5  501    0  0.12289875134E+02  0.46329252038E+02  0.36610778328E+02  0.60496939716E+02  0.47000000000E+01 0.  1.
         -5    1    5    5    0  501 -0.52958240634E+02  0.60260282766E+02  0.39526224427E+03  0.40334874325E+03  0.47000000000E+01 0.  1.
          1    1    1    2  502    0 -0.22744581254E+02  0.31216518584E+02  0.21866682951E+03  0.22205172672E+03  0.00000000000E+00 0. -1.
          1    1    1    2  503    0 -0.12790545008E+02 -0.13112931450E+03 -0.22140847307E+04  0.22180012827E+04  0.00000000000E+00 0. -1.
<mgrwt>
<rscale>  0 0.71306628E+02</rscale>
<asrwt>0</asrwt>
<pdfrwt beam="1">  1        2 0.11076926E+00 0.38623659E+02</pdfrwt>
<pdfrwt beam="2">  1        2 0.39324963E+00 0.13164561E+03</pdfrwt>
<totfact> 0.27631925E+01</totfact>
</mgrwt>
</event>
<event>
13    1  0.1942437E-008  0.1081150E+03  0.7546771E-02  0.1330720E+00
         -1   -1    0    0    0  501 -0.00000000000E+00  0.00000000000E+00  0.47163972333E+03  0.47163972333E+03  0.00000000000E+00 0.  1.
          2   -1    0    0  503    0  0.00000000000E+00 -0.00000000000E+00 -0.22187283293E+04  0.22187283293E+04  0.00000000000E+00 0. -1.
         24    2    1    2    0    0  0.17625733808E+03  0.41188500260E+02  0.31765673050E+03  0.37436631272E+03  0.80505874892E+02 0.  0.
         24    2    1    2    0    0 -0.29485267979E+02 -0.99874832636E+00 -0.17580287826E+03  0.19529130676E+03  0.79760039904E+02 0.  0.
         25    2    1    2    0    0 -0.90861098694E+02  0.91470716094E+02 -0.14368278877E+04  0.14480058163E+04  0.12499533576E+03 0.  0.
        -11    1    4    4    0    0 -0.40845877587E+02 -0.15718695025E+02 -0.17039626978E+03  0.17592712083E+03  0.00000000000E+00 0.  1.
         12    1    4    4    0    0  0.11360609608E+02  0.14719946699E+02 -0.54066084826E+01  0.19364185931E+02  0.00000000000E+00 0. -1.
        -13    1    3    3    0    0  0.15564515506E+03  0.21530913826E+02  0.30521217827E+03  0.34328336445E+03  0.00000000000E+00 0.  1.
         14    1    3    3    0    0  0.20612183020E+02  0.19657586434E+02  0.12444552226E+02  0.31082948273E+02  0.00000000000E+00 0. -1.
          5    1    5    5  502    0 -0.11452572743E+03  0.39901331802E+02 -0.89413753523E+03  0.90233712128E+03  0.47000000000E+01 0. -1.
         -5    1    5    5    0  502  0.23664628734E+02  0.51569384292E+02 -0.54269035251E+03  0.54566869505E+03  0.47000000000E+01 0. -1.
          1    1    1    2  503    0 -0.96600893112E+02 -0.89861748099E+02 -0.54625173894E+03  0.56195892075E+03  0.00000000000E+00 0. -1.
         -2    1    1    2    0  501  0.40689921708E+02 -0.41798719928E+02  0.94137168460E+02  0.11074569609E+03  0.00000000000E+00 0.  1.
<mgrwt>
<rscale>  0 0.79414924E+02</rscale>
<asrwt>0</asrwt>
<pdfrwt beam="2">  1        2 0.32628358E+00 0.10811498E+03</pdfrwt>
<pdfrwt beam="1">  1       -1 0.69358782E-01 0.58333547E+02</pdfrwt>
<totfact> 0.18560387E+01</totfact>
</mgrwt>
</event>
<event>
13    1  0.1942437E-008  0.5732856E+02  0.7546771E-02  0.1436320E+00
          2   -1    0    0  502    0  0.00000000000E+00  0.00000000000E+00  0.11698202634E+04  0.11698202634E+04  0.00000000000E+00 0. -1.
          2   -1    0    0  503    0 -0.00000000000E+00 -0.00000000000E+00 -0.63330043116E+03  0.63330043116E+03  0.00000000000E+00 0. -1.
         24    2    1    2    0    0  0.13426219158E+03 -0.12868513250E+03 -0.78874853497E+02  0.21778503701E+03  0.81381081434E+02 0.  0.
         24    2    1    2    0    0 -0.15231126590E+03 -0.66977467881E+02  0.14649001052E+03  0.23785983450E+03  0.86216441364E+02 0.  0.
         25    2    1    2    0    0  0.92107406094E+02  0.21126610500E+03  0.29085499333E+03  0.39158988392E+03  0.12501547368E+03 0.  0.
        -11    1    4    4    0    0 -0.55679531899E+02  0.17176669427E+02  0.57409325789E+02  0.81799015475E+02  0.00000000000E+00 0.  1.
         12    1    4    4    0    0 -0.96631734001E+02 -0.84154137308E+02  0.89080684727E+02  0.15606081902E+03  0.00000000000E+00 0. -1.
        -11    1    3    3    0    0  0.68166857753E+02 -0.44804711715E+02 -0.75173496656E+02  0.11092897407E+03  0.00000000000E+00 0.  1.
         12    1    3    3    0    0  0.66095333827E+02 -0.83880420783E+02 -0.37013568404E+01  0.10685606294E+03  0.00000000000E+00 0. -1.
          5    1    5    5  501    0 -0.24456684676E+02  0.13160876208E+02  0.13198424214E+02  0.31106695255E+02  0.47000000000E+01 0.  1.
         -5    1    5    5    0  501  0.11656409077E+03  0.19810522879E+03  0.27765656912E+03  0.36048318866E+03  0.47000000000E+01 0.  1.
          1    1    1    2  502    0 -0.22580824159E+02 -0.40816000770E+02  0.56388753724E+03  0.56581356841E+03  0.00000000000E+00 0. -1.
          1    1    1    2  503    0 -0.51477507615E+02  0.25212496147E+02 -0.38583785537E+03  0.39007237071E+03  0.00000000000E+00 0. -1.
<mgrwt>
<rscale>  0 0.51712106E+02</rscale>
<asrwt>0</asrwt>
<pdfrwt beam="1">  1        2 0.17203239E+00 0.46645895E+02</pdfrwt>
<pdfrwt beam="2">  1        2 0.93132416E-01 0.57328559E+02</pdfrwt>
<totfact> 0.19935728E+02</totfact>
</mgrwt>
</event>
<event>
13    1  0.1942437E-008  0.4175577E+03  0.7546771E-02  0.1128227E+00
          2   -1    0    0  502    0  0.00000000000E+00  0.00000000000E+00  0.17033037426E+04  0.17033037426E+04  0.00000000000E+00 0. -1.
          2   -1    0    0  503    0 -0.00000000000E+00 -0.00000000000E+00 -0.17725366334E+04  0.17725366334E+04  0.00000000000E+00 0. -1.
         24    2    1    2    0    0 -0.37395351009E+03  0.11943620468E+03 -0.70361227083E+02  0.40684214741E+03  0.80396492105E+02 0.  0.
         24    2    1    2    0    0  0.41189890929E+03 -0.40002886659E+03 -0.22611347025E+03  0.62203085800E+03  0.78174684483E+02 0.  0.
         25    2    1    2    0    0  0.37615397288E+01 -0.33851124551E+02  0.30340647619E+03  0.32991112090E+03  0.12500324030E+03 0.  0.
        -13    1    4    4    0    0  0.32776038429E+02 -0.59849088548E+02 -0.11065768002E+02  0.69127659562E+02  0.00000000000E+00 0.  1.
         14    1    4    4    0    0  0.37912287086E+03 -0.34017977804E+03 -0.21504770225E+03  0.55290319843E+03  0.00000000000E+00 0. -1.
        -13    1    3    3    0    0 -0.64372499536E+02 -0.99795545683E+01 -0.96807824732E+01  0.65856873257E+02  0.00000000000E+00 0.  1.
         14    1    3    3    0    0 -0.30958101055E+03  0.12941575924E+03 -0.60680444609E+02  0.34098527416E+03  0.00000000000E+00 0. -1.
          5    1    5    5  501    0 -0.30315936948E+02  0.12078784773E+02  0.15663398769E+02  0.36501851126E+02  0.47000000000E+01 0.  1.
         -5    1    5    5    0  501  0.34077476677E+02 -0.45929909324E+02  0.28774307742E+03  0.29340926977E+03  0.47000000000E+01 0.  1.
          1    1    1    2  502    0 -0.14775324278E+03  0.37915790275E+03  0.97607733511E+03  0.10575058866E+04  0.00000000000E+00 0. -1.
          1    1    1    2  503    0  0.10604630385E+03 -0.64714116286E+02 -0.10522420048E+04  0.10595503632E+04  0.00000000000E+00 0. -1.
<mgrwt>
<rscale>  0 0.22775925E+03</rscale>
<asrwt>0</asrwt>
<pdfrwt beam="1">  1        2 0.25048585E+00 0.41755774E+03</pdfrwt>
<pdfrwt beam="2">  1        2 0.26066715E+00 0.12423259E+03</pdfrwt>
<totfact> 0.20385978E+01</totfact>
</mgrwt>
</event>
<event>
13    1  0.1942437E-008  0.9283079E+02  0.7546771E-02  0.1434656E+00
          2   -1    0    0  503    0  0.00000000000E+00  0.00000000000E+00  0.11870637445E+04  0.11870637445E+04  0.00000000000E+00 0. -1.
          2   -1    0    0  502    0 -0.00000000000E+00 -0.00000000000E+00 -0.20751629769E+04  0.20751629769E+04  0.00000000000E+00 0. -1.
         24    2    1    2    0    0 -0.12577315218E+02 -0.33596666916E+01 -0.23260661890E+02  0.83830440577E+02  0.79479608437E+02 0.  0.
         24    2    1    2    0    0 -0.89135225412E+02 -0.31909668516E+02 -0.63079963754E+01  0.12434432181E+03  0.80364197221E+02 0.  0.
         25    2    1    2    0    0 -0.42011051741E+01  0.95402025949E+02  0.34411556402E+03  0.37836268373E+03  0.12499441268E+03 0.  0.
        -11    1    4    4    0    0 -0.67075684998E+01  0.63837085991E+01  0.26222729125E+02  0.27809615845E+02  0.00000000000E+00 0.  1.
         12    1    4    4    0    0 -0.82427656913E+02 -0.38293377115E+02 -0.32530725501E+02  0.96534705969E+02  0.00000000000E+00 0. -1.
        -13    1    3    3    0    0  0.21732035676E+02 -0.30011839276E+02 -0.93946633432E+01  0.38226320391E+02  0.00000000000E+00 0.  1.
         14    1    3    3    0    0 -0.34309350893E+02  0.26652172584E+02 -0.13865998547E+02  0.45604120185E+02  0.00000000000E+00 0. -1.
          5    1    5    5  501    0  0.24297021517E+02  0.96706275893E+01  0.45547268434E+01  0.26957407686E+02  0.47000000000E+01 0.  1.
         -5    1    5    5    0  501 -0.28498126691E+02  0.85731398360E+02  0.33956083717E+03  0.35140527604E+03  0.47000000000E+01 0.  1.
          1    1    1    2  502    0  0.79359299713E+02 -0.48061458819E+02 -0.19377685702E+04  0.19399883592E+04  0.00000000000E+00 0. -1.
          1    1    1    2  503    0  0.26554346091E+02 -0.12071231923E+02  0.73512243203E+03  0.73570091614E+03  0.00000000000E+00 0. -1.
<mgrwt>
<rscale>  0 0.52036612E+02</rscale>
<asrwt>0</asrwt>
<pdfrwt beam="1">  1        2 0.17456820E+00 0.29169298E+02</pdfrwt>
<pdfrwt beam="2">  1        2 0.30517102E+00 0.92830790E+02</pdfrwt>
<totfact> 0.33076100E+01</totfact>
</mgrwt>
</event>
<event>
13    1  0.1942437E-008  0.5320501E+02  0.7546771E-02  0.1517927E+00
          2   -1    0    0  502    0  0.00000000000E+00  0.00000000000E+00  0.60476599129E+03  0.60476599129E+03  0.00000000000E+00 0. -1.
          2   -1    0    0  503    0 -0.00000000000E+00 -0.00000000000E+00 -0.11186806322E+04  0.11186806322E+04  0.00000000000E+00 0. -1.
         24    2    1    2    0    0  0.66653356297E+02  0.66430221450E+02 -0.18376986864E+03  0.22163283838E+03  0.80586017410E+02 0.  0.
         24    2    1    2    0    0 -0.10247893674E+03 -0.15326472159E+03  0.12214838770E+03  0.23474786863E+03  0.78704039584E+02 0.  0.
         25    2    1    2    0    0  0.18082678849E+02  0.13288384125E+03  0.33537407819E+03  0.38221265925E+03  0.12500258409E+03 0.  0.
        -11    1    3    3    0    0  0.55754950723E+02  0.84665275680E+02 -0.13860354984E+03  0.17172002639E+03  0.00000000000E+00 0.  1.
         12    1    3    3    0    0  0.10898405574E+02 -0.18235054230E+02 -0.45166318796E+02  0.49912811986E+02  0.00000000000E+00 0. -1.
        -11    1    4    4    0    0  0.12571124555E+01 -0.12894497465E+02  0.39608034962E+02  0.41673070803E+02  0.00000000000E+00 0.  1.
         12    1    4    4    0    0 -0.10373604920E+03 -0.14037022413E+03  0.82540352741E+02  0.19307479783E+03  0.00000000000E+00 0. -1.
          5    1    5    5  501    0  0.35930411309E+02  0.12013721358E+03  0.33711830988E+03  0.35971487237E+03  0.47000000000E+01 0. -1.
         -5    1    5    5    0  501 -0.17847732459E+02  0.12746627661E+02 -0.17442316854E+01  0.22497786888E+02  0.47000000000E+01 0. -1.
          1    1    1    2  502    0 -0.24569949106E+02 -0.13766023456E+02  0.43588477053E+02  0.51895482777E+02  0.00000000000E+00 0. -1.
          1    1    1    2  503    0  0.42312850703E+02 -0.32283317646E+02 -0.83125571522E+03  0.83295777445E+03  0.00000000000E+00 0. -1.
<mgrwt>
<rscale>  0 0.38709717E+02</rscale>
<asrwt>0</asrwt>
<pdfrwt beam="1">  1        2 0.88936177E-01 0.28163554E+02</pdfrwt>
<pdfrwt beam="2">  1        2 0.16451185E+00 0.53205010E+02</pdfrwt>
<totfact> 0.22409587E+02</totfact>
</mgrwt>
</event>
<event>
13    1  0.1942437E-008  0.7840623E+02  0.7546771E-02  0.1401905E+00
          2   -1    0    0  502    0  0.00000000000E+00  0.00000000000E+00  0.11630140770E+04  0.11630140770E+04  0.00000000000E+00 0. -1.
          2   -1    0    0  503    0 -0.00000000000E+00 -0.00000000000E+00 -0.33650295201E+03  0.33650295201E+03  0.00000000000E+00 0. -1.
         24    2    1    2    0    0 -0.21308759613E+02 -0.24216226517E+02 -0.38247796703E+02  0.95999722035E+02  0.81930237491E+02 0.  0.
         24    2    1    2    0    0 -0.41436470765E+01  0.72514956949E+02  0.10263437468E+03  0.14767931979E+03  0.77458232849E+02 0.  0.
         25    2    1    2    0    0 -0.79949166189E+02  0.24939346542E+01  0.39099137292E+03  0.41820685726E+03  0.12499853149E+03 0.  0.
        -13    1    4    4    0    0 -0.24820010384E+02  0.45818847945E+02  0.10126369730E+03  0.11388474934E+03  0.00000000000E+00 0.  1.
         14    1    4    4    0    0  0.20676363307E+02  0.26696109004E+02  0.13706773853E+01  0.33794570452E+02  0.00000000000E+00 0. -1.
        -13    1    3    3    0    0  0.13243004812E+02 -0.23866822459E+02 -0.52065178496E+02  0.58785926909E+02  0.00000000000E+00 0.  1.
         14    1    3    3    0    0 -0.34551764425E+02 -0.34940405825E+00  0.13817381793E+02  0.37213795126E+02  0.00000000000E+00 0. -1.
          5    1    5    5  501    0  0.10445759837E+02 -0.11950386438E+01  0.25222057100E+03  0.25248336273E+03  0.47000000000E+01 0. -1.
         -5    1    5    5    0  501 -0.90394926025E+02  0.36889732979E+01  0.13877080192E+03  0.16572349453E+03  0.47000000000E+01 0. -1.
          1    1    1    2  502    0  0.44402654491E+02 -0.22002342709E+01  0.59701359611E+03  0.59866657723E+03  0.00000000000E+00 0. -1.
          1    1    1    2  503    0  0.60998918387E+02 -0.48592430815E+02 -0.22588042203E+03  0.23896455267E+03  0.00000000000E+00 0. -1.
<mgrwt>
<rscale>  0 0.59039953E+02</rscale>
<asrwt>0</asrwt>
<pdfrwt beam="1">  1        2 0.17103148E+00 0.44457134E+02</pdfrwt>
<pdfrwt beam="2">  1        2 0.49485729E-01 0.78406225E+02</pdfrwt>
<totfact> 0.39207242E+02</totfact>
</mgrwt>
</event>
<event>
13    1  0.1942437E-008  0.1287486E+03  0.7546771E-02  0.1231095E+00
          2   -1    0    0  502    0  0.00000000000E+00  0.00000000000E+00  0.13380489166E+04  0.13380489166E+04  0.00000000000E+00 0. -1.
          2   -1    0    0  503    0 -0.00000000000E+00 -0.00000000000E+00 -0.26604044122E+04  0.26604044122E+04  0.00000000000E+00 0. -1.
         24    2    1    2    0    0  0.15142229444E+03 -0.11389470772E+03 -0.30621189041E+03  0.36643599679E+03  0.67888896155E+02 0.  0.
         24    2    1    2    0    0 -0.15823442788E+03  0.61970771628E+03 -0.10336747408E+04  0.12182413147E+04  0.80948398655E+02 0.  0.
         25    2    1    2    0    0  0.74629701241E+02 -0.54599587881E+03  0.19764560630E+03  0.59863774771E+03  0.12498910079E+03 0.  0.
        -13    1    3    3    0    0  0.32285174971E+02 -0.12194972467E+02 -0.11046355099E+03  0.11572919240E+03  0.00000000000E+00 0.  1.
         14    1    3    3    0    0  0.11913711947E+03 -0.10169973525E+03 -0.19574833942E+03  0.25070680440E+03  0.00000000000E+00 0. -1.
        -13    1    4    4    0    0 -0.76676249396E+02  0.31904561170E+03 -0.45409095904E+03  0.56023918879E+03  0.00000000000E+00 0.  1.
         14    1    4    4    0    0 -0.81558178483E+02  0.30066210458E+03 -0.57958378174E+03  0.65800212588E+03  0.00000000000E+00 0. -1.
          5    1    5    5  501    0  0.18985807248E+02 -0.43374793273E+03  0.11738597298E+03  0.44977692991E+03  0.47000000000E+01 0. -1.
         -5    1    5    5    0  501  0.55643893993E+02 -0.11224794607E+03  0.80259633319E+02  0.14886081780E+03  0.47000000000E+01 0. -1.
          1    1    1    2  502    0  0.32524911794E+02  0.12216160589E+03  0.80837121860E+03  0.81819640362E+03  0.00000000000E+00 0. -1.
          1    1    1    2  503    0 -0.10034247959E+03 -0.81978735652E+02 -0.98848568926E+03  0.99694186600E+03  0.00000000000E+00 0. -1.
<mgrwt>
<rscale>  0 0.12757760E+03</rscale>
<asrwt>0</asrwt>
<pdfrwt beam="1">  1        2 0.19677190E+00 0.12641728E+03</pdfrwt>
<pdfrwt beam="2">  1        2 0.39123594E+00 0.12874857E+03</pdfrwt>
<totfact> 0.12426337E+01</totfact>
</mgrwt>
</event>
<event>
13    1  0.1942437E-008  0.2319215E+02  0.7546771E-02  0.1737641E+00
         -1   -1    0    0    0  501 -0.00000000000E+00  0.00000000000E+00  0.31583738232E+04  0.31583738232E+04  0.00000000000E+00 0.  1.
          2   -1    0    0  503    0  0.00000000000E+00 -0.00000000000E+00 -0.25232085472E+04  0.25232085472E+04  0.00000000000E+00 0. -1.
         24    2    1    2    0    0 -0.37838111439E+03  0.10912995508E+04  0.24249972442E+04  0.26873088746E+04  0.83128671279E+02 0.  0.
         24    2    1    2    0    0  0.54500427463E+03 -0.10901317852E+04 -0.40055080558E+03  0.12867818584E+04  0.99747855474E+02 0.  0.
         25    2    1    2    0    0 -0.18159580043E+03 -0.25135499488E+02 -0.35328149701E+03  0.41718729216E+03  0.12501436934E+03 0.  0.
        -11    1    4    4    0    0  0.38736046418E+03 -0.71541052985E+03 -0.30761714009E+03  0.86976356575E+03  0.00000000000E+00 0.  1.
         12    1    4    4    0    0  0.15764381046E+03 -0.37472125537E+03 -0.92933665490E+02  0.41701829263E+03  0.00000000000E+00 0. -1.
        -13    1    3    3    0    0 -0.13731151008E+03  0.37205085076E+03  0.74462780862E+03  0.84365091106E+03  0.00000000000E+00 0.  1.
         14    1    3    3    0    0 -0.24106960431E+03  0.71924870006E+03  0.16803694356E+04  0.18436579636E+04  0.00000000000E+00 0. -1.
          5    1    5    5  502    0 -0.37704393880E+02  0.28793465055E+02 -0.17689158733E+03  0.18320318942E+03  0.47000000000E+01 0.  1.
         -5    1    5    5    0  502 -0.14389140655E+03 -0.53928964542E+02 -0.17638990968E+03  0.23398410274E+03  0.47000000000E+01 0.  1.
          1    1    1    2  503    0  0.21961156232E+02  0.74555779925E+01 -0.11624036617E+04  0.11626350033E+04  0.00000000000E+00 0. -1.
         -2    1    1    2    0  501 -0.69885160386E+01  0.16512155899E+02  0.12640399612E+03  0.12766934199E+03  0.00000000000E+00 0.  1.
<mgrwt>
<rscale>  0 0.20392129E+02</rscale>
<asrwt>0</asrwt>
<pdfrwt beam="2">  1        2 0.37106008E+00 0.23192148E+02</pdfrwt>
<pdfrwt beam="1">  1       -1 0.46446674E+00 0.17930160E+02</pdfrwt>
<totfact> 0.38798604E-02</totfact>
</mgrwt>
</event>
<event>
13    1  0.1942437E-008  0.1378013E+03  0.7546771E-02  0.1255358E+00
          2   -1    0    0  502    0  0.00000000000E+00  0.00000000000E+00  0.24259203142E+04  0.24259203142E+04  0.00000000000E+00 0. -1.
          2   -1    0    0  503    0 -0.00000000000E+00 -0.00000000000E+00 -0.39648289457E+04  0.39648289457E+04  0.00000000000E+00 0. -1.
         24    2    1    2    0    0 -0.13645601487E+03 -0.16687337058E+03 -0.14721151659E+04  0.14899495859E+04  0.79747984003E+02 0.  0.
         24    2    1    2    0    0  0.60718662117E+02  0.28629458665E+02 -0.44886356028E+03  0.46109096521E+03  0.81363263353E+02 0.  0.
         25    2    1    2    0    0  0.77745823617E+02  0.60855298463E+02  0.81403039660E+03  0.82946967843E+03  0.12500672148E+03 0.  0.
        -11    1    3    3    0    0 -0.87939996434E+02 -0.12090347503E+03 -0.75050475878E+03  0.76525060353E+03  0.00000000000E+00 0.  1.
         12    1    3    3    0    0 -0.48516018434E+02 -0.45969895551E+02 -0.72161040714E+03  0.72469898236E+03  0.00000000000E+00 0. -1.
        -13    1    4    4    0    0  0.63331240926E+02 -0.11303988757E+02 -0.24284911057E+03  0.25122562916E+03  0.00000000000E+00 0.  1.
         14    1    4    4    0    0 -0.26125788084E+01  0.39933447422E+02 -0.20601444971E+03  0.20986533606E+03  0.00000000000E+00 0. -1.
          5    1    5    5  501    0  0.80876657326E+02 -0.83141998668E+01  0.30319989898E+03  0.31394653743E+03  0.47000000000E+01 0.  1.
         -5    1    5    5    0  501 -0.31308337096E+01  0.69169498329E+02  0.51083049762E+03  0.51552314101E+03  0.47000000000E+01 0.  1.
          1    1    1    2  502    0 -0.86474126766E+02 -0.32665692404E+02  0.15854108222E+04  0.15881033648E+04  0.00000000000E+00 0. -1.
          1    1    1    2  503    0  0.84465655900E+02  0.11005430586E+03 -0.20173711242E+04  0.20221356655E+04  0.00000000000E+00 0. -1.
<mgrwt>
<rscale>  0 0.11286321E+03</rscale>
<asrwt>0</asrwt>
<pdfrwt beam="1">  1        2 0.35675299E+00 0.92438207E+02</pdfrwt>
<pdfrwt beam="2">  1        2 0.58306307E+00 0.13780128E+03</pdfrwt>
<totfact> 0.65404470E-01</totfact>
</mgrwt>
</event>
<event>
13    1  0.1942437E-008  0.1058515E+03  0.7546771E-02  0.1538759E+00
          2   -1    0    0  502    0  0.00000000000E+00  0.00000000000E+00  0.12556818694E+04  0.12556818694E+04  0.00000000000E+00 0. -1.
          2   -1    0    0  503    0 -0.00000000000E+00 -0.00000000000E+00 -0.13636573663E+04  0.13636573663E+04  0.00000000000E+00 0. -1.
         24    2    1    2    0    0 -0.57199989587E+02  0.78899509607E+00 -0.70305837331E+02  0.12230947018E+03  0.82123287880E+02 0.  0.
         24    2    1    2    0    0  0.30319960842E+03 -0.13414456313E+03 -0.88541798660E+02  0.35249863785E+03  0.80565955657E+02 0.  0.
         25    2    1    2    0    0 -0.25827109694E+03  0.23255836276E+03  0.61864120647E+03  0.72049745158E+03  0.12494912479E+03 0.  0.
        -11    1    3    3    0    0  0.59773231622E+01  0.11691737729E+02 -0.54798058362E+02  0.56349377313E+02  0.00000000000E+00 0.  1.
         12    1    3    3    0    0 -0.63177312749E+02 -0.10902742633E+02 -0.15507778968E+02  0.65960092871E+02  0.00000000000E+00 0. -1.
        -13    1    4    4    0    0  0.15134422475E+03 -0.72147472337E+02 -0.34045810964E+01  0.16769592513E+03  0.00000000000E+00 0.  1.
         14    1    4    4    0    0  0.15185538367E+03 -0.61997090793E+02 -0.85137217564E+02  0.18480271272E+03  0.00000000000E+00 0. -1.
          5    1    5    5  501    0 -0.19787236724E+03  0.21487349301E+03  0.57110326188E+03  0.64148664635E+03  0.47000000000E+01 0. -1.
         -5    1    5    5    0  501 -0.60398729696E+02  0.17684869749E+02  0.47537944589E+02  0.79010805227E+02  0.47000000000E+01 0. -1.
          1    1    1    2  502    0  0.11325122669E+02  0.48870073197E+01  0.42532260793E+03  0.42550142427E+03  0.00000000000E+00 0. -1.
          1    1    1    2  503    0  0.94635543579E+00 -0.10408980205E+03 -0.99309167527E+03  0.99853225184E+03  0.00000000000E+00 0. -1.
<mgrwt>
<rscale>  0 0.36133517E+02</rscale>
<asrwt>0</asrwt>
<pdfrwt beam="1">  1        2 0.18465910E+00 0.12334555E+02</pdfrwt>
<pdfrwt beam="2">  1        2 0.20053785E+00 0.10585149E+03</pdfrwt>
<totfact> 0.71620136E+01</totfact>
</mgrwt>
</event>
<event>
13    1  0.1942437E-008  0.6138158E+02  0.7546771E-02  0.1526200E+00
          2   -1    0    0  503    0  0.00000000000E+00  0.00000000000E+00  0.86874425406E+03  0.86874425406E+03  0.00000000000E+00 0. -1.
          2   -1    0    0  502    0 -0.00000000000E+00 -0.00000000000E+00 -0.12880514071E+04  0.12880514071E+04  0.00000000000E+00 0. -1.
         24    2    1    2    0    0 -0.64768055711E+01  0.27509231224E+02 -0.17815809439E+03  0.19227300303E+03  0.66557451021E+02 0.  0.
         24    2    1    2    0    0 -0.98941874615E+00  0.43805277730E+02 -0.60799818650E+02  0.11052259831E+03  0.81232662655E+02 0.  0.
         25    2    1    2    0    0  0.82949001766E+02 -0.99724959357E+02  0.36687987687E+03  0.40871970540E+03  0.12500139646E+03 0.  0.
        -13    1    4    4    0    0  0.23200589986E+02  0.16652608310E+02  0.10546218516E+02  0.30443381287E+02  0.00000000000E+00 0.  1.
         14    1    4    4    0    0 -0.24190008732E+02  0.27152669420E+02 -0.71346037166E+02  0.80079217019E+02  0.00000000000E+00 0. -1.
        -13    1    3    3    0    0 -0.18323738221E+02  0.36215303060E+02 -0.17131381987E+03  0.17605604913E+03  0.00000000000E+00 0.  1.
         14    1    3    3    0    0  0.11846932650E+02 -0.87060718366E+01 -0.68442745156E+01  0.16216953897E+02  0.00000000000E+00 0. -1.
          5    1    5    5  501    0  0.11444354843E+03 -0.65225684363E+02  0.29148454595E+03  0.31990161958E+03  0.47000000000E+01 0. -1.
         -5    1    5    5    0  501 -0.31494546667E+02 -0.34499274994E+02  0.75395330914E+02  0.88818085819E+02  0.47000000000E+01 0. -1.
          1    1    1    2  502    0 -0.60355890488E+02  0.10950059866E+02 -0.99501246966E+03  0.99690147563E+03  0.00000000000E+00 0. -1.
          1    1    1    2  503    0 -0.15126886961E+02  0.17460390537E+02  0.44778335277E+03  0.44837887881E+03  0.00000000000E+00 0. -1.
<mgrwt>
<rscale>  0 0.37656581E+02</rscale>
<asrwt>0</asrwt>
<pdfrwt beam="1">  1        2 0.12775651E+00 0.23101687E+02</pdfrwt>
<pdfrwt beam="2">  1        2 0.18941932E+00 0.61381581E+02</pdfrwt>
<totfact> 0.12302991E+02</totfact>
</mgrwt>
</event>
<event>
13    1  0.1942437E-008  0.6496177E+02  0.7546771E-02  0.1475572E+00
          2   -1    0    0  503    0  0.00000000000E+00  0.00000000000E+00  0.14906209015E+04  0.14906209015E+04  0.00000000000E+00 0. -1.
          2   -1    0    0  502    0 -0.00000000000E+00 -0.00000000000E+00 -0.57137276708E+03  0.57137276708E+03  0.00000000000E+00 0. -1.
         24    2    1    2    0    0  0.78861743707E+02  0.56080651402E+02 -0.19818135633E+03  0.23536071389E+03  0.82186383088E+02 0.  0.
         24    2    1    2    0    0 -0.59972695524E+02  0.84332247063E+02  0.15878063073E+03  0.20599502904E+03  0.80709424416E+02 0.  0.
         25    2    1    2    0    0 -0.27868800161E+02 -0.51707438802E+02  0.62168853745E+03  0.63684534304E+03  0.12500009643E+03 0.  0.
        -11    1    4    4    0    0 -0.64734974312E+02  0.92304487419E+02  0.11426731735E+03  0.16052337870E+03  0.00000000000E+00 0.  1.
         12    1    4    4    0    0  0.47622787874E+01 -0.79722403563E+01  0.44513313386E+02  0.45471650335E+02  0.00000000000E+00 0. -1.
        -13    1    3    3    0    0  0.42087951321E+01  0.71712731835E+01  0.74704677220E+01  0.11178059023E+02  0.00000000000E+00 0.  1.
         14    1    3    3    0    0  0.74652948575E+02  0.48909378218E+02 -0.20565182405E+03  0.22418265487E+03  0.00000000000E+00 0. -1.
          5    1    5    5  501    0 -0.34811460700E+02 -0.19320213228E+02  0.49583660167E+02  0.63763138182E+02  0.47000000000E+01 0. -1.
         -5    1    5    5    0  501  0.69426605384E+01 -0.32387225574E+02  0.57210487728E+03  0.57308220486E+03  0.47000000000E+01 0. -1.
          1    1    1    2  502    0 -0.97639517917E+01 -0.64138885676E+02 -0.31979555287E+03  0.32631017000E+03  0.00000000000E+00 0. -1.
          1    1    1    2  503    0  0.18743703770E+02 -0.24566573987E+02  0.65675587539E+03  0.65748241258E+03  0.00000000000E+00 0. -1.
<mgrwt>
<rscale>  0 0.44803496E+02</rscale>
<asrwt>0</asrwt>
<pdfrwt beam="1">  1        2 0.21920896E+00 0.30900534E+02</pdfrwt>
<pdfrwt beam="2">  1        2 0.84025407E-01 0.64961765E+02</pdfrwt>
<totfact> 0.16007505E+02</totfact>
</mgrwt>
</event>
<event>
13    1  0.1942437E-008  0.1133297E+03  0.7546771E-02  0.1531340E+00
          2   -1    0    0  502    0  0.00000000000E+00  0.00000000000E+00  0.68627058394E+03  0.68627058394E+03  0.00000000000E+00 0. -1.
          2   -1    0    0  503    0 -0.00000000000E+00 -0.00000000000E+00 -0.24021834586E+04  0.24021834586E+04  0.00000000000E+00 0. -1.
         24    2    1    2    0    0  0.25664890174E+01 -0.54903103768E+02 -0.11654630815E+04  0.11695641310E+04  0.80963723614E+02 0.  0.
         24    2    1    2    0    0  0.83115206996E+02  0.12932268503E+03 -0.28888242555E+03  0.34040783215E+03  0.93765355562E+02 0.  0.
         25    2    1    2    0    0 -0.20993022907E+03 -0.88546718106E+02  0.33487222807E+03  0.42388225184E+03  0.12500212768E+03 0.  0.
        -11    1    3    3    0    0 -0.37667737570E+02 -0.38810870806E+02 -0.59142831869E+03  0.59389611743E+03  0.00000000000E+00 0.  1.
         12    1    3    3    0    0  0.40234226587E+02 -0.16092232962E+02 -0.57403476282E+03  0.57566801360E+03  0.00000000000E+00 0. -1.
        -13    1    4    4    0    0  0.64055503181E+02  0.76903809146E+02 -0.25781934737E+03  0.27656485537E+03  0.00000000000E+00 0.  1.
         14    1    4    4    0    0  0.19059703815E+02  0.52418875883E+02 -0.31063078178E+02  0.63842976781E+02  0.00000000000E+00 0. -1.
          5    1    5    5  501    0 -0.16282909361E+03 -0.75807607489E+01  0.24259636246E+03  0.29231124977E+03  0.47000000000E+01 0. -1.
         -5    1    5    5    0  501 -0.47101135458E+02 -0.80965957357E+02  0.92275865607E+02  0.13157100207E+03  0.47000000000E+01 0. -1.
          1    1    1    2  502    0  0.11246123656E+03  0.11418285750E+02  0.26758960689E+03  0.29048598021E+03  0.00000000000E+00 0. -1.
          1    1    1    2  503    0  0.11787296491E+02  0.27088510954E+01 -0.86402920255E+03  0.86411384730E+03  0.00000000000E+00 0. -1.
<mgrwt>
<rscale>  0 0.37022585E+02</rscale>
<asrwt>0</asrwt>
<pdfrwt beam="1">  1        2 0.10092215E+00 0.11332967E+03</pdfrwt>
<pdfrwt beam="2">  1        2 0.35326227E+00 0.12094554E+02</pdfrwt>
<totfact> 0.57339785E+01</totfact>
</mgrwt>
</event>
<event>
13    1  0.1942437E-008  0.4523072E+02  0.7546771E-02  0.1564118E+00
         -1   -1    0    0    0  501 -0.00000000000E+00  0.00000000000E+00  0.12542992405E+04  0.12542992405E+04  0.00000000000E+00 0.  1.
          2   -1    0    0  503    0  0.00000000000E+00 -0.00000000000E+00 -0.17842395490E+04  0.17842395490E+04  0.00000000000E+00 0. -1.
         24    2    1    2    0    0  0.76366055410E+03  0.79579393425E+02  0.12591791561E+03  0.78227402016E+03  0.81160331468E+02 0.  0.
         24    2    1    2    0    0 -0.54471669938E+03  0.33184859800E+03 -0.38779779914E+03  0.75040096607E+03  0.76646606454E+02 0.  0.
         25    2    1    2    0    0 -0.23034315878E+03 -0.34318217184E+03 -0.75790575789E+02  0.43840838576E+03  0.12500290980E+03 0.  0.
        -11    1    4    4    0    0 -0.27337993414E+03  0.19935871669E+03 -0.23527787416E+03  0.41211183480E+03  0.00000000000E+00 0.  1.
         12    1    4    4    0    0 -0.27133676523E+03  0.13248988130E+03 -0.15251992498E+03  0.33828913126E+03  0.00000000000E+00 0. -1.
        -13    1    3    3    0    0  0.53703609318E+03  0.51463405564E+02  0.12554704838E+03  0.55391182407E+03  0.00000000000E+00 0.  1.
         14    1    3    3    0    0  0.22662446091E+03  0.28115987861E+02  0.37086722768E+00  0.22836219608E+03  0.00000000000E+00 0. -1.
          5    1    5    5  502    0 -0.16871671569E+03 -0.18113383746E+03  0.37352369393E+01  0.24761025670E+03  0.47000000000E+01 0. -1.
         -5    1    5    5    0  502 -0.61626443089E+02 -0.16204833438E+03 -0.79525812728E+02  0.19079812906E+03  0.47000000000E+01 0. -1.
          1    1    1    2  503    0  0.11532487411E+02 -0.43711472794E+02 -0.62870648536E+03  0.63032970408E+03  0.00000000000E+00 0. -1.
         -2    1    1    2    0  501 -0.13318334555E+00 -0.24534346789E+02  0.43643663624E+03  0.43712571345E+03  0.00000000000E+00 0.  1.
<mgrwt>
<rscale>  0 0.33312498E+02</rscale>
<asrwt>0</asrwt>
<pdfrwt beam="2">  1        2 0.26238817E+00 0.45230720E+02</pdfrwt>
<pdfrwt beam="1">  1       -1 0.18445577E+00 0.24534708E+02</pdfrwt>
<totfact> 0.37626819E+00</totfact>
</mgrwt>
</event>
<event>
13    1  0.1942437E-008  0.6758367E+02  0.7546771E-02  0.1392841E+00
          2   -1    0    0  503    0  0.00000000000E+00  0.00000000000E+00  0.41353629047E+03  0.41353629047E+03  0.00000000000E+00 0. -1.
          2   -1    0    0  502    0 -0.00000000000E+00 -0.00000000000E+00 -0.34756988232E+04  0.34756988232E+04  0.00000000000E+00 0. -1.
         24    2    1    2    0    0  0.77702124041E+01  0.14362052466E+03 -0.12277155062E+04  0.12387480889E+04  0.80772719329E+02 0.  0.
         24    2    1    2    0    0 -0.10273127034E+03  0.34984812625E+02 -0.15578659747E+04  0.15641000293E+04  0.87663309116E+02 0.  0.
         25    2    1    2    0    0  0.18271685985E+03 -0.12647382518E+03  0.32717527765E+02  0.25705308398E+03  0.12499908813E+03 0.  0.
        -11    1    4    4    0    0  0.10573790037E+02 -0.11270555924E+02 -0.26656373619E+03  0.26701134043E+03  0.00000000000E+00 0.  1.
         12    1    4    4    0    0 -0.11330506038E+03  0.46255368549E+02 -0.12913022385E+04  0.12970886889E+04  0.00000000000E+00 0. -1.
        -13    1    3    3    0    0  0.40811515763E+02  0.70070118836E+02 -0.49339331277E+03  0.50001236230E+03  0.00000000000E+00 0.  1.
         14    1    3    3    0    0 -0.33041303359E+02  0.73550405820E+02 -0.73432219345E+03  0.73873572657E+03  0.00000000000E+00 0. -1.
          5    1    5    5  501    0  0.15523338380E+03 -0.95917615784E+02  0.75507570864E+02  0.19753752991E+03  0.47000000000E+01 0. -1.
         -5    1    5    5    0  501  0.27483476043E+02 -0.30556209394E+02 -0.42790043099E+02  0.59515554071E+02  0.47000000000E+01 0. -1.
          1    1    1    2  502    0 -0.54992714242E+02  0.69439318642E+01 -0.56354596063E+03  0.56626536761E+03  0.00000000000E+00 0. -1.
          1    1    1    2  503    0 -0.32763087666E+02 -0.59075443968E+02  0.25424738104E+03  0.26306854384E+03  0.00000000000E+00 0. -1.
<mgrwt>
<rscale>  0 0.61205565E+02</rscale>
<asrwt>0</asrwt>
<pdfrwt beam="1">  1        2 0.60814162E-01 0.67583667E+02</pdfrwt>
<pdfrwt beam="2">  1        2 0.51113217E+00 0.55429386E+02</pdfrwt>
<totfact> 0.22166118E+01</totfact>
</mgrwt>
</event>
<event>
13    1  0.1942437E-008  0.7600837E+02  0.7546771E-02  0.1602624E+00
          2   -1    0    0  502    0  0.00000000000E+00  0.00000000000E+00  0.13477453068E+04  0.13477453068E+04  0.00000000000E+00 0. -1.
          2   -1    0    0  503    0 -0.00000000000E+00 -0.00000000000E+00 -0.27951381746E+04  0.27951381746E+04  0.00000000000E+00 0. -1.
         24    2    1    2    0    0 -0.29209446703E+03 -0.39359131662E+03 -0.71280412813E+03  0.86906446149E+03  0.83366725763E+02 0.  0.
         24    2    1    2    0    0 -0.22379618513E+03  0.13429958958E+04 -0.31004529258E+03  0.13975912621E+04  0.58399861353E+02 0.  0.
         25    2    1    2    0    0  0.50160190848E+03 -0.10124437672E+04 -0.16945622953E+03  0.11493420155E+04  0.12499919363E+03 0.  0.
        -11    1    4    4    0    0 -0.97989380676E+02  0.52307166547E+03 -0.14831937019E+03  0.55245318491E+03  0.00000000000E+00 0.  1.
         12    1    4    4    0    0 -0.12580680446E+03  0.81992423029E+03 -0.16172592239E+03  0.84513807714E+03  0.00000000000E+00 0. -1.
        -11    1    3    3    0    0 -0.23329148107E+03 -0.32194038995E+03 -0.62892778495E+03  0.74405691214E+03  0.00000000000E+00 0.  1.
         12    1    3    3    0    0 -0.58802985959E+02 -0.71650926666E+02 -0.83876343180E+02  0.12500754935E+03  0.00000000000E+00 0. -1.
          5    1    5    5  501    0  0.44510177730E+03 -0.79473080553E+03 -0.15413957912E+03  0.92384725213E+03  0.47000000000E+01 0. -1.
         -5    1    5    5    0  501  0.56500131182E+02 -0.21771296169E+03 -0.15316650405E+02  0.22549476334E+03  0.47000000000E+01 0. -1.
          1    1    1    2  502    0 -0.42837429590E+01 -0.10696292798E+02  0.23281193161E+03  0.23309688251E+03  0.00000000000E+00 0. -1.
          1    1    1    2  503    0  0.18572486635E+02  0.73735480878E+02 -0.48789914920E+03  0.49378885993E+03  0.00000000000E+00 0. -1.
<mgrwt>
<rscale>  0 0.29593644E+02</rscale>
<asrwt>0</asrwt>
<pdfrwt beam="1">  1        2 0.19819784E+00 0.11522202E+02</pdfrwt>
<pdfrwt beam="2">  1        2 0.41104973E+00 0.76008369E+02</pdfrwt>
<totfact> 0.13523564E+01</totfact>
</mgrwt>
</event>
<event>
13    1  0.1942437E-008  0.1326257E+03  0.7546771E-02  0.1321297E+00
          2   -1    0    0  502    0  0.00000000000E+00  0.00000000000E+00  0.13268443049E+04  0.13268443049E+04  0.00000000000E+00 0. -1.
          2   -1    0    0  503    0 -0.00000000000E+00 -0.00000000000E+00 -0.28779348422E+04  0.28779348422E+04  0.00000000000E+00 0. -1.
         24    2    1    2    0    0 -0.16579129178E+03  0.36100314611E+02 -0.49873320236E+03  0.53296590789E+03  0.80795214530E+02 0.  0.
         24    2    1    2    0    0 -0.15419359421E+02 -0.79809273241E+01 -0.26386296267E+03  0.27690755902E+03  0.82174700040E+02 0.  0.
         25    2    1    2    0    0 -0.93543765424E+01  0.96105521830E+01  0.98326824557E+02  0.15959760720E+03  0.12499345873E+03 0.  0.
        -11    1    3    3    0    0 -0.17228655509E+03  0.31985215946E+02 -0.43806046555E+03  0.47180788736E+03  0.00000000000E+00 0.  1.
         12    1    3    3    0    0  0.64952633036E+01  0.41150986653E+01 -0.60672736815E+02  0.61158020529E+02  0.00000000000E+00 0. -1.
        -13    1    4    4    0    0 -0.49110807573E+02 -0.10138551533E+02 -0.16364549411E+03  0.17115638869E+03  0.00000000000E+00 0.  1.
         14    1    4    4    0    0  0.33691448152E+02  0.21576242088E+01 -0.10021746856E+03  0.10575117032E+03  0.00000000000E+00 0. -1.
          5    1    5    5  501    0 -0.42087322357E+01  0.64332153999E+02  0.28591486389E+02  0.70681698898E+02  0.47000000000E+01 0. -1.
         -5    1    5    5    0  501 -0.51456443067E+01 -0.54721601816E+02  0.69735338168E+02  0.88915908307E+02  0.47000000000E+01 0. -1.
          1    1    1    2  502    0 -0.38662707989E+02  0.34306794465E+02  0.11666662409E+04  0.11678107205E+04  0.00000000000E+00 0. -1.
          1    1    1    2  503    0  0.22922773574E+03 -0.72036733935E+02 -0.20534874377E+04  0.20674973525E+04  0.00000000000E+00 0. -1.
<mgrwt>
<rscale>  0 0.82796734E+02</rscale>
<asrwt>0</asrwt>
<pdfrwt beam="1">  1        2 0.19512417E+00 0.51689081E+02</pdfrwt>
<pdfrwt beam="2">  1        2 0.42322570E+00 0.13262567E+03</pdfrwt>
<totfact> 0.10277070E+01</totfact>
</mgrwt>
</event>
<event>
13    1  0.1942437E-008  0.7427437E+02  0.7546771E-02  0.1352914E+00
          2   -1    0    0  503    0  0.00000000000E+00  0.00000000000E+00  0.15159882079E+04  0.15159882079E+04  0.00000000000E+00 0. -1.
          2   -1    0    0  502    0 -0.00000000000E+00 -0.00000000000E+00 -0.13727373062E+04  0.13727373062E+04  0.00000000000E+00 0. -1.
         24    2    1    2    0    0 -0.10106567200E+03 -0.32026009789E+01 -0.39665283119E+02  0.13676601073E+03  0.83108846075E+02 0.  0.
         24    2    1    2    0    0  0.11383877269E+03 -0.28941333187E+03  0.14728614857E+03  0.35110738615E+03  0.69741266228E+02 0.  0.
         25    2    1    2    0    0  0.19679522276E+02  0.24041289256E+03  0.25563813868E+03  0.37304402150E+03  0.12500136608E+03 0.  0.
        -11    1    4    4    0    0  0.91022265047E+02 -0.27208611916E+03  0.14718255456E+03  0.32245714962E+03  0.00000000000E+00 0.  1.
         12    1    4    4    0    0  0.22816507648E+02 -0.17327212718E+02  0.10359400831E+00  0.28650236535E+02  0.00000000000E+00 0. -1.
        -13    1    3    3    0    0 -0.79211052914E+02  0.34988337247E+02 -0.21958983769E+02  0.89335164495E+02  0.00000000000E+00 0.  1.
         14    1    3    3    0    0 -0.21854619088E+02 -0.38190938225E+02 -0.17706299350E+02  0.47430846236E+02  0.00000000000E+00 0. -1.
          5    1    5    5  501    0  0.98830449387E+01  0.20982849657E+03  0.13889305682E+03  0.25187108564E+03  0.47000000000E+01 0.  1.
         -5    1    5    5    0  501  0.97964773377E+01  0.30584395997E+02  0.11674508186E+03  0.12117293586E+03  0.47000000000E+01 0.  1.
          1    1    1    2  502    0 -0.74253045210E+02 -0.40658833807E+01 -0.11213156975E+04  0.11237788660E+04  0.00000000000E+00 0. -1.
          1    1    1    2  503    0  0.41800422241E+02  0.56268923669E+02  0.90130759518E+03  0.90402922972E+03  0.00000000000E+00 0. -1.
<mgrwt>
<rscale>  0 0.72155011E+02</rscale>
<asrwt>0</asrwt>
<pdfrwt beam="1">  1        2 0.22293944E+00 0.70096127E+02</pdfrwt>
<pdfrwt beam="2">  1        2 0.20187313E+00 0.74274369E+02</pdfrwt>
<totfact> 0.47720862E+01</totfact>
</mgrwt>
</event>
<event>
13    1  0.1942437E-008  0.6243858E+02  0.7546771E-02  0.1443546E+00
          2   -1    0    0  502    0  0.00000000000E+00  0.00000000000E+00  0.38281313877E+04  0.38281313877E+04  0.00000000000E+00 0. -1.
          2   -1    0    0  503    0 -0.00000000000E+00 -0.00000000000E+00 -0.12540355978E+04  0.12540355978E+04  0.00000000000E+00 0. -1.
         24    2    1    2    0    0  0.34603313841E+02 -0.47202214840E+02 -0.31387150646E+03  0.32935088560E+03  0.80816117599E+02 0.  0.
         24    2    1    2    0    0  0.79466002430E+01  0.11880203055E+03 -0.40371073261E+03  0.42827814728E+03  0.79137506245E+02 0.  0.
         25    2    1    2    0    0 -0.13220045122E+03 -0.21582331484E+02  0.13294069546E+04  0.13419726858E+04  0.12500032829E+03 0.  0.
        -11    1    4    4    0    0  0.82037317582E+01  0.13058424935E+03 -0.36136388365E+03  0.38432200535E+03  0.00000000000E+00 0.  1.
         12    1    4    4    0    0 -0.25713151519E+00 -0.11782218793E+02 -0.42346848962E+02  0.43956141929E+02  0.00000000000E+00 0. -1.
        -13    1    3    3    0    0 -0.14044240667E+02 -0.45786465561E+02 -0.11423988146E+03  0.12387248137E+03  0.00000000000E+00 0.  1.
         14    1    3    3    0    0  0.48647554508E+02 -0.14157492794E+01 -0.19963162500E+03  0.20547840423E+03  0.00000000000E+00 0. -1.
          5    1    5    5  501    0 -0.14927776236E+03  0.69354839199E+01  0.11047495637E+04  0.11148209003E+04  0.47000000000E+01 0. -1.
         -5    1    5    5    0  501  0.17077311136E+02 -0.28517815403E+02  0.22465739093E+03  0.22715178549E+03  0.47000000000E+01 0. -1.
          1    1    1    2  502    0  0.37144378334E+02 -0.16332923661E+02  0.24703438646E+04  0.24706770891E+04  0.00000000000E+00 0. -1.
          1    1    1    2  503    0  0.52506158803E+02 -0.33684560566E+02 -0.50807279027E+03  0.51188817777E+03  0.00000000000E+00 0. -1.
<mgrwt>
<rscale>  0 0.50334404E+02</rscale>
<asrwt>0</asrwt>
<pdfrwt beam="1">  1        2 0.56296049E+00 0.40576708E+02</pdfrwt>
<pdfrwt beam="2">  1        2 0.18441700E+00 0.62438584E+02</pdfrwt>
<totfact> 0.39633054E+00</totfact>
</mgrwt>
</event>
<event>
13    1  0.1942437E-008  0.8160394E+02  0.7546771E-02  0.1396420E+00
          2   -1    0    0  503    0  0.00000000000E+00  0.00000000000E+00  0.76585995074E+03  0.76585995074E+03  0.00000000000E+00 0. -1.
          2   -1    0    0  502    0 -0.00000000000E+00 -0.00000000000E+00 -0.13565593098E+04  0.13565593098E+04  0.00000000000E+00 0. -1.
         24    2    1    2    0    0  0.25354333922E+02 -0.92447911066E+02 -0.28470156418E+02  0.12882779054E+03  0.81219402242E+02 0.  0.
         24    2    1    2    0    0 -0.10583878900E+03  0.13946694852E+03  0.90136443754E+00  0.19264167062E+03  0.80356218262E+02 0.  0.
         25    2    1    2    0    0 -0.36548591328E+01  0.24187976180E+02  0.29483093497E+03  0.32117021938E+03  0.12500645350E+03 0.  0.
        -11    1    3    3    0    0 -0.59639222074E+01  0.42938484637E+01  0.16180819499E+02  0.17771449642E+02  0.00000000000E+00 0.  1.
         12    1    3    3    0    0  0.31318256129E+02 -0.96741759530E+02 -0.44650975917E+02  0.11105634090E+03  0.00000000000E+00 0. -1.
        -13    1    4    4    0    0  0.62220313838E+01 -0.45889791498E+01 -0.63253182991E+01  0.99890968443E+01  0.00000000000E+00 0.  1.
         14    1    4    4    0    0 -0.11206082039E+03  0.14405592767E+03  0.72266827367E+01  0.18265257377E+03  0.00000000000E+00 0. -1.
          5    1    5    5  501    0  0.26511630245E+02  0.68261163834E+02  0.15792424918E+03  0.17413963221E+03  0.47000000000E+01 0. -1.
         -5    1    5    5    0  501 -0.30166489377E+02 -0.44073187654E+02  0.13690668579E+03  0.14703058717E+03  0.47000000000E+01 0. -1.
          1    1    1    2  502    0  0.39526034078E+02 -0.71315643414E+02 -0.11658388517E+04  0.11686866374E+04  0.00000000000E+00 0. -1.
          1    1    1    2  503    0  0.44613280134E+02  0.10862977776E+00  0.30787734959E+03  0.31109294264E+03  0.00000000000E+00 0. -1.
<mgrwt>
<rscale>  0 0.60337635E+02</rscale>
<asrwt>0</asrwt>
<pdfrwt beam="1">  1        2 0.11262646E+00 0.44613412E+02</pdfrwt>
<pdfrwt beam="2">  1        2 0.19949402E+00 0.81603940E+02</pdfrwt>
<totfact> 0.12567886E+02</totfact>
</mgrwt>
</event>
<event>
13    1  0.1942437E-008  0.7364758E+02  0.7546771E-02  0.1410471E+00
          2   -1    0    0  503    0  0.00000000000E+00  0.00000000000E+00  0.19876748261E+04  0.19876748261E+04  0.00000000000E+00 0. -1.
          2   -1    0    0  502    0 -0.00000000000E+00 -0.00000000000E+00 -0.35422243403E+04  0.35422243403E+04  0.00000000000E+00 0. -1.
         24    2    1    2    0    0 -0.15994145151E+03  0.58690195361E+02 -0.31569092316E+03  0.37409510628E+03  0.10611589247E+03 0.  0.
         24    2    1    2    0    0  0.27628746297E+02 -0.64573937189E+02  0.10734248759E+03  0.15084082878E+03  0.79356190686E+02 0.  0.
         25    2    1    2    0    0  0.16560781471E+03  0.90987353219E+02  0.97259960668E+03  0.99863899438E+03  0.12500079780E+03 0.  0.
        -11    1    4    4    0    0 -0.27393459951E+01 -0.64574905260E+02  0.37601667694E+02  0.74775048106E+02  0.00000000000E+00 0.  1.
         12    1    4    4    0    0  0.30368092292E+02  0.96807115683E-03  0.69740819895E+02  0.76065780677E+02  0.00000000000E+00 0. -1.
        -11    1    3    3    0    0 -0.70416176255E+01 -0.11779147305E+02 -0.97705938365E+02  0.98665004342E+02  0.00000000000E+00 0.  1.
         12    1    3    3    0    0 -0.15289983389E+03  0.70469342666E+02 -0.21798498479E+03  0.27543010194E+03  0.00000000000E+00 0. -1.
          5    1    5    5  501    0 -0.16143548478E+02  0.16077998437E+02  0.47745964243E+02  0.53111988220E+02  0.47000000000E+01 0.  1.
         -5    1    5    5    0  501  0.18175136319E+03  0.74909354782E+02  0.92485364243E+03  0.94552700616E+03  0.47000000000E+01 0.  1.
          1    1    1    2  502    0  0.92867307416E+01 -0.73057227652E+02 -0.31615531153E+04  0.31624107422E+04  0.00000000000E+00 0. -1.
          1    1    1    2  503    0 -0.42581840240E+02 -0.12046383739E+02  0.84275242998E+03  0.84391349481E+03  0.00000000000E+00 0. -1.
<mgrwt>
<rscale>  0 0.57088760E+02</rscale>
<asrwt>0</asrwt>
<pdfrwt beam="1">  1        2 0.29230512E+00 0.44253005E+02</pdfrwt>
<pdfrwt beam="2">  1        2 0.52091534E+00 0.73647575E+02</pdfrwt>
<totfact> 0.24002027E+00</totfact>
</mgrwt>
</event>
<event>
13    1  0.1942437E-008  0.1621903E+03  0.7546771E-02  0.1228031E+00
          2   -1    0    0  503    0  0.00000000000E+00  0.00000000000E+00  0.21063764631E+04  0.21063764631E+04  0.00000000000E+00 0. -1.
          2   -1    0    0  502    0 -0.00000000000E+00 -0.00000000000E+00 -0.18652235574E+04  0.18652235574E+04  0.00000000000E+00 0. -1.
         24    2    1    2    0    0 -0.33657335475E+01  0.11151025094E+03 -0.96556633307E+02  0.16538065720E+03  0.74710870114E+02 0.  0.
         24    2    1    2    0    0 -0.13611633509E+03  0.27988553607E+02 -0.60094678873E+02  0.17048934174E+03  0.78385135112E+02 0.  0.
         25    2    1    2    0    0  0.37811548525E+03 -0.25302966333E+03 -0.84640821679E+02  0.47935862074E+03  0.12500115148E+03 0.  0.
        -13    1    4    4    0    0 -0.72838061144E+02 -0.24957601190E+02 -0.31023597387E+02  0.83010412619E+02  0.00000000000E+00 0.  1.
         14    1    4    4    0    0 -0.63278273950E+02  0.52946154797E+02 -0.29071081486E+02  0.87478929124E+02  0.00000000000E+00 0. -1.
        -13    1    3    3    0    0  0.21357391121E+02  0.10563317238E+03 -0.69370505784E+02  0.12816697053E+03  0.00000000000E+00 0.  1.
         14    1    3    3    0    0 -0.24723124668E+02  0.58770785612E+01 -0.27186127523E+02  0.37213686668E+02  0.00000000000E+00 0. -1.
          5    1    5    5  501    0  0.83914011045E+02 -0.11901274214E+03 -0.50670702355E+02  0.15425694188E+03  0.47000000000E+01 0.  1.
         -5    1    5    5    0  501  0.29420147421E+03 -0.13401692119E+03 -0.33970119324E+02  0.32510167886E+03  0.47000000000E+01 0.  1.
          1    1    1    2  502    0 -0.95100520482E+02  0.41043916094E+02 -0.13313949148E+04  0.13354179613E+04  0.00000000000E+00 0. -1.
          1    1    1    2  503    0 -0.14353289613E+03  0.72486942683E+02  0.18138399543E+04  0.18209534396E+04  0.00000000000E+00 0. -1.
<mgrwt>
<rscale>  0 0.12961323E+03</rscale>
<asrwt>0</asrwt>
<pdfrwt beam="1">  1        2 0.30976124E+00 0.16219030E+03</pdfrwt>
<pdfrwt beam="2">  1        2 0.27429758E+00 0.10357950E+03</pdfrwt>
<totfact> 0.12769878E+01</totfact>
</mgrwt>
</event>
<event>
13    1  0.1942437E-008  0.2038113E+03  0.7546771E-02  0.1252998E+00
          2   -1    0    0  502    0  0.00000000000E+00  0.00000000000E+00  0.29411254510E+04  0.29411254510E+04  0.00000000000E+00 0. -1.
          2   -1    0    0  503    0 -0.00000000000E+00 -0.00000000000E+00 -0.27063961362E+04  0.27063961362E+04  0.00000000000E+00 0. -1.
         24    2    1    2    0    0  0.12621298161E+03  0.33168576464E+02 -0.56507375670E+03  0.58531277635E+03  0.79074802945E+02 0.  0.
         24    2    1    2    0    0 -0.15818264711E+03  0.52829863027E+01  0.72799121760E+02  0.18539271006E+03  0.63412025850E+02 0.  0.
         25    2    1    2    0    0 -0.16673937386E+03  0.99825369051E+02  0.70231889305E+03  0.73935385951E+03  0.12500071576E+03 0.  0.
        -11    1    4    4    0    0 -0.16312028212E+03  0.12166117791E+01  0.73574275171E+02  0.17894937986E+03  0.00000000000E+00 0.  1.
         12    1    4    4    0    0  0.49376350123E+01  0.40663745236E+01 -0.77515341032E+00  0.64433302019E+01  0.00000000000E+00 0. -1.
        -13    1    3    3    0    0  0.10913860587E+03  0.36835033715E+01 -0.50078936844E+03  0.51255711392E+03  0.00000000000E+00 0.  1.
         14    1    3    3    0    0  0.17074375735E+02  0.29485073093E+02 -0.64284388262E+02  0.72755662434E+02  0.00000000000E+00 0. -1.
          5    1    5    5  501    0 -0.96502442298E+02  0.10882962598E+03  0.33503943682E+03  0.36528088245E+03  0.47000000000E+01 0.  1.
         -5    1    5    5    0  501 -0.70236931561E+02 -0.90042569326E+01  0.36727945623E+03  0.37407297706E+03  0.47000000000E+01 0.  1.
          1    1    1    2  502    0  0.60039322039E+02 -0.22107072151E+02  0.20766015850E+04  0.20775869622E+04  0.00000000000E+00 0. -1.
          1    1    1    2  503    0  0.13866971732E+03 -0.11616985967E+03 -0.20519165282E+04  0.20598752792E+04  0.00000000000E+00 0. -1.
<mgrwt>
<rscale>  0 0.11419216E+03</rscale>
<asrwt>0</asrwt>
<pdfrwt beam="1">  1        2 0.43251845E+00 0.63980019E+02</pdfrwt>
<pdfrwt beam="2">  1        2 0.39799943E+00 0.20381127E+03</pdfrwt>
<totfact> 0.19423435E+00</totfact>
</mgrwt>
</event>
<event>
13    1  0.1942437E-008  0.5450434E+02  0.7546771E-02  0.1525283E+00
          2   -1    0    0  503    0  0.00000000000E+00  0.00000000000E+00  0.13293877259E+04  0.13293877259E+04  0.00000000000E+00 0. -1.
          2   -1    0    0  502    0 -0.00000000000E+00 -0.00000000000E+00 -0.49486200995E+03  0.49486200995E+03  0.00000000000E+00 0. -1.
         24    2    1    2    0    0 -0.11735080258E+03  0.79299334068E+02  0.22165454231E+03  0.27509982618E+03  0.80557948018E+02 0.  0.
         24    2    1    2    0    0 -0.22322223986E+03 -0.36121248127E+03  0.19216265353E+03  0.47690428379E+03  0.10103754496E+03 0.  0.
         25    2    1    2    0    0  0.31989146823E+03  0.31794612494E+03  0.53220362799E+03  0.70872195045E+03  0.12500324634E+03 0.  0.
        -11    1    4    4    0    0 -0.18273737086E+03 -0.27002324306E+03  0.18946105345E+03  0.37709546441E+03  0.00000000000E+00 0.  1.
         12    1    4    4    0    0 -0.40484869002E+02 -0.91189238209E+02  0.27016000751E+01  0.99808819381E+02  0.00000000000E+00 0. -1.
        -13    1    3    3    0    0 -0.34114550082E+02  0.53865123724E+02  0.14774884822E+03  0.16091916055E+03  0.00000000000E+00 0.  1.
         14    1    3    3    0    0 -0.83236252493E+02  0.25434210343E+02  0.73905694083E+02  0.11418066563E+03  0.00000000000E+00 0. -1.
          5    1    5    5  501    0  0.23479589792E+03  0.29773139649E+03  0.45155171710E+03  0.58965595168E+03  0.47000000000E+01 0.  1.
         -5    1    5    5    0  501  0.85095570314E+02  0.20214728446E+02  0.80651910886E+02  0.11906599877E+03  0.47000000000E+01 0.  1.
          1    1    1    2  502    0  0.45987294775E+02 -0.29341781258E+02 -0.23296449878E+03  0.23926602161E+03  0.00000000000E+00 0. -1.
          1    1    1    2  503    0 -0.25305720570E+02 -0.66911964801E+01  0.12146939087E+03  0.12425765378E+03  0.00000000000E+00 0. -1.
<mgrwt>
<rscale>  0 0.37771325E+02</rscale>
<asrwt>0</asrwt>
<pdfrwt beam="1">  1        2 0.19549819E+00 0.26175401E+02</pdfrwt>
<pdfrwt beam="2">  1        2 0.72773825E-01 0.54504343E+02</pdfrwt>
<totfact> 0.22554662E+02</totfact>
</mgrwt>
</event>
<event>
13    1  0.1942437E-008  0.1054122E+03  0.7546771E-02  0.1369387E+00
          2   -1    0    0  502    0  0.00000000000E+00  0.00000000000E+00  0.59257088810E+03  0.59257088810E+03  0.00000000000E+00 0. -1.
          2   -1    0    0  503    0 -0.00000000000E+00 -0.00000000000E+00 -0.11613009713E+04  0.11613009713E+04  0.00000000000E+00 0. -1.
         24    2    1    2    0    0  0.78506272499E+02 -0.43968482316E+02 -0.25604582139E+02  0.12158720647E+03  0.77662036366E+02 0.  0.
         24    2    1    2    0    0 -0.23864995773E+02  0.12091514098E+02  0.65297827558E+02  0.10662179360E+03  0.79929080126E+02 0.  0.
         25    2    1    2    0    0  0.87894764992E+02  0.11256459502E+02  0.16362452756E+03  0.22416500876E+03  0.12499907015E+03 0.  0.
        -13    1    3    3    0    0  0.74728325478E+02 -0.62723009587E+02 -0.12414064983E+02  0.98349415706E+02  0.00000000000E+00 0.  1.
         14    1    3    3    0    0  0.37779470207E+01  0.18754527271E+02 -0.13190517156E+02  0.23237790766E+02  0.00000000000E+00 0. -1.
        -13    1    4    4    0    0  0.18168887487E+02  0.19902884437E+02 -0.18568935622E+01  0.27012614371E+02  0.00000000000E+00 0.  1.
         14    1    4    4    0    0 -0.42033883260E+02 -0.78113703397E+01  0.67154721121E+02  0.79609179228E+02  0.00000000000E+00 0. -1.
          5    1    5    5  501    0  0.17470846525E+01 -0.43517933683E+02  0.20667235160E+02  0.48436427057E+02  0.47000000000E+01 0.  1.
         -5    1    5    5    0  501  0.86147680339E+02  0.54774393185E+02  0.14295729240E+03  0.17572858170E+03  0.47000000000E+01 0.  1.
          1    1    1    2  502    0 -0.42077187454E+02 -0.89379610282E+01  0.26031118822E+03  0.26384141366E+03  0.00000000000E+00 0. -1.
          1    1    1    2  503    0 -0.10045885426E+03  0.29558469745E+02 -0.10323590444E+04  0.10376564369E+04  0.00000000000E+00 0. -1.
<mgrwt>
<rscale>  0 0.67338027E+02</rscale>
<asrwt>0</asrwt>
<pdfrwt beam="1">  1        2 0.87142779E-01 0.43016007E+02</pdfrwt>
<pdfrwt beam="2">  1        2 0.17077955E+00 0.10541215E+03</pdfrwt>
<totfact> 0.20735505E+02</totfact>
</mgrwt>
</event>
<event>
13    1  0.1942437E-008  0.1618838E+03  0.7546771E-02  0.1212661E+00
          2   -1    0    0  502    0  0.00000000000E+00  0.00000000000E+00  0.20800291638E+04  0.20800291638E+04  0.00000000000E+00 0. -1.
          2   -1    0    0  503    0 -0.00000000000E+00 -0.00000000000E+00 -0.21599846773E+03  0.21599846773E+03  0.00000000000E+00 0. -1.
         24    2    1    2    0    0 -0.11565011289E+03 -0.33318135095E+02  0.14009902704E+02  0.14705182676E+03  0.83324160020E+02 0.  0.
         24    2    1    2    0    0  0.13099258139E+03 -0.43615421609E+02  0.25520208887E+03  0.30101699171E+03  0.80135895545E+02 0.  0.
         25    2    1    2    0    0 -0.12503144407E+03  0.77627768358E+01  0.26554001119E+03  0.31910792368E+03  0.12500098681E+03 0.  0.
        -13    1    4    4    0    0  0.44534721032E+02 -0.25630184586E+01  0.23706202180E+02  0.50516279186E+02  0.00000000000E+00 0.  1.
         14    1    4    4    0    0  0.86457860362E+02 -0.41052403151E+02  0.23149588669E+03  0.25050071253E+03  0.00000000000E+00 0. -1.
        -13    1    3    3    0    0 -0.27362566267E+02 -0.23346003002E+02 -0.30971331626E+02  0.47465453454E+02  0.00000000000E+00 0.  1.
         14    1    3    3    0    0 -0.88287546623E+02 -0.99721320934E+01  0.44981234330E+02  0.99586373310E+02  0.00000000000E+00 0. -1.
          5    1    5    5  501    0 -0.13563633208E+03  0.39290735200E+02  0.19323842227E+03  0.23938286132E+03  0.47000000000E+01 0.  1.
         -5    1    5    5    0  501  0.10604888009E+02 -0.31527958364E+02  0.72301588925E+02  0.79725062366E+02  0.47000000000E+01 0.  1.
          1    1    1    2  502    0  0.16451750389E+03 -0.39743322662E+02  0.13846327756E+04  0.13949385162E+04  0.00000000000E+00 0. -1.
          1    1    1    2  503    0 -0.54828528328E+02  0.10891410253E+03 -0.55354082309E+02  0.13391237313E+03  0.00000000000E+00 0. -1.
<mgrwt>
<rscale>  0 0.14049733E+03</rscale>
<asrwt>0</asrwt>
<pdfrwt beam="1">  1        2 0.30588663E+00 0.16188378E+03</pdfrwt>
<pdfrwt beam="2">  1        2 0.31764482E-01 0.12193625E+03</pdfrwt>
<totfact> 0.20025471E+02</totfact>
</mgrwt>
</event>
<event>
13    1  0.1942437E-008  0.9373877E+02  0.7546771E-02  0.1342100E+00
          2   -1    0    0  503    0  0.00000000000E+00  0.00000000000E+00  0.46515144926E+03  0.46515144926E+03  0.00000000000E+00 0. -1.
          2   -1    0    0  502    0 -0.00000000000E+00 -0.00000000000E+00 -0.40787496974E+04  0.40787496974E+04  0.00000000000E+00 0. -1.
         24    2    1    2    0    0 -0.43669461706E+02  0.37230600465E+01 -0.32589345324E+03  0.33848026799E+03  0.80258743390E+02 0.  0.
         24    2    1    2    0    0  0.12331189138E+03  0.12464637746E+03 -0.13206511415E+03  0.23405722898E+03  0.81234537567E+02 0.  0.
         25    2    1    2    0    0 -0.86862736511E+02 -0.80497732155E+02 -0.14212174447E+03  0.22326739227E+03  0.12499887329E+03 0.  0.
        -11    1    4    4    0    0 -0.69760980704E+01  0.32642477985E+02 -0.28441113956E+02  0.43853098823E+02  0.00000000000E+00 0.  1.
         12    1    4    4    0    0  0.13028798945E+03  0.92003899471E+02 -0.10362400020E+03  0.19020413016E+03  0.00000000000E+00 0. -1.
        -13    1    3    3    0    0  0.22385119660E+02 -0.82194053358E+01 -0.71068428444E+02  0.74962482134E+02  0.00000000000E+00 0.  1.
         14    1    3    3    0    0 -0.66054581366E+02  0.11942465382E+02 -0.25482502480E+03  0.26351778586E+03  0.00000000000E+00 0. -1.
          5    1    5    5  501    0 -0.10006954790E+02 -0.18678303725E+02 -0.12016676017E+03  0.12211125429E+03  0.47000000000E+01 0.  1.
         -5    1    5    5    0  501 -0.76855781721E+02 -0.61819428430E+02 -0.21954984301E+02  0.10115613798E+03  0.47000000000E+01 0.  1.
          1    1    1    2  502    0  0.35782853314E+02 -0.10169275028E+03 -0.33774141478E+04  0.33791342314E+04  0.00000000000E+00 0. -1.
          1    1    1    2  503    0 -0.28562546474E+02  0.53821044931E+02  0.36389621149E+03  0.36896202606E+03  0.00000000000E+00 0. -1.
<mgrwt>
<rscale>  0 0.75574787E+02</rscale>
<asrwt>0</asrwt>
<pdfrwt beam="1">  1        2 0.68404626E-01 0.60930484E+02</pdfrwt>
<pdfrwt beam="2">  1        2 0.59981613E+00 0.93738766E+02</pdfrwt>
<totfact> 0.74085974E+00</totfact>
</mgrwt>
</event>
<event>
13    1  0.1942437E-008  0.8140813E+02  0.7546771E-02  0.1569440E+00
          2   -1    0    0  503    0  0.00000000000E+00  0.00000000000E+00  0.12380442929E+04  0.12380442929E+04  0.00000000000E+00 0. -1.
         -1   -1    0    0    0  501 -0.00000000000E+00 -0.00000000000E+00 -0.11875907620E+04  0.11875907620E+04  0.00000000000E+00 0.  1.
         24    2    1    2    0    0 -0.12837658175E+03 -0.26939755614E+03 -0.35102663291E+03  0.46592865030E+03  0.69384581610E+02 0.  0.
         24    2    1    2    0    0  0.18828385085E+03  0.40454082482E+03 -0.30116385404E+03  0.54449013731E+03  0.81644076392E+02 0.  0.
         25    2    1    2    0    0  0.15993560381E+02 -0.19123233767E+03  0.57793359447E+03  0.62165750519E+03  0.12500085277E+03 0.  0.
        -11    1    4    4    0    0  0.83232168836E+02  0.24606037354E+03 -0.20791175760E+03  0.33271699731E+03  0.00000000000E+00 0.  1.
         12    1    4    4    0    0  0.10505168201E+03  0.15848045128E+03 -0.93252096444E+02  0.21177314000E+03  0.00000000000E+00 0. -1.
        -11    1    3    3    0    0 -0.12566723344E+03 -0.23345529876E+03 -0.27611422084E+03  0.38279588952E+03  0.00000000000E+00 0.  1.
         12    1    3    3    0    0 -0.27093483046E+01 -0.35942257378E+02 -0.74912412070E+02  0.83132760785E+02  0.00000000000E+00 0. -1.
          5    1    5    5  502    0 -0.47184294255E+02 -0.10165513146E+03  0.36894383504E+03  0.38561868055E+03  0.47000000000E+01 0.  1.
         -5    1    5    5    0  502  0.63177854636E+02 -0.89577206210E+02  0.20898975943E+03  0.23603882464E+03  0.47000000000E+01 0.  1.
          1    1    1    2  503    0 -0.94808923593E+01  0.91604237813E+01  0.45409326329E+03  0.45428459412E+03  0.00000000000E+00 0. -1.
         -2    1    1    2    0  501 -0.66419937124E+02  0.46928645208E+02 -0.32938283996E+03  0.33927416797E+03  0.00000000000E+00 0.  1.
<mgrwt>
<rscale>  0 0.32760216E+02</rscale>
<asrwt>0</asrwt>
<pdfrwt beam="1">  1        2 0.18206534E+00 0.13183349E+02</pdfrwt>
<pdfrwt beam="2">  1       -1 0.17464570E+00 0.81408130E+02</pdfrwt>
<totfact> 0.78771154E+00</totfact>
</mgrwt>
</event>
<event>
13    1  0.1942437E-008  0.5866536E+02  0.7546771E-02  0.1509794E+00
          2   -1    0    0  502    0  0.00000000000E+00  0.00000000000E+00  0.34108517703E+04  0.34108517703E+04  0.00000000000E+00 0. -1.
          2   -1    0    0  503    0 -0.00000000000E+00 -0.00000000000E+00 -0.21250070952E+04  0.21250070952E+04  0.00000000000E+00 0. -1.
         24    2    1    2    0    0 -0.67843574207E+03  0.32838988595E+03 -0.73524285983E+03  0.10585491730E+04  0.10876265622E+03 0.  0.
         24    2    1    2    0    0  0.59265013666E+03 -0.46411305820E+03  0.25820436483E+04  0.26908819552E+04  0.85212556301E+02 0.  0.
         25    2    1    2    0    0  0.27537359179E+02  0.75378315018E+02  0.98139461398E+02  0.17803527766E+03  0.12500003874E+03 0.  0.
        -11    1    3    3    0    0 -0.16038803735E+02 -0.11451025990E+01 -0.40783783483E+02  0.43839154650E+02  0.00000000000E+00 0.  1.
         12    1    3    3    0    0 -0.66239693833E+03  0.32953498855E+03 -0.69445907635E+03  0.10147100183E+04  0.00000000000E+00 0. -1.
        -11    1    4    4    0    0  0.17542251568E+03 -0.91051781277E+02  0.70294623044E+03  0.73020332016E+03  0.00000000000E+00 0.  1.
         12    1    4    4    0    0  0.41722762098E+03 -0.37306127693E+03  0.18790974179E+04  0.19606786350E+04  0.00000000000E+00 0. -1.
          5    1    5    5  501    0  0.20986001152E+02 -0.33190307398E+02  0.29449654469E+02  0.49309034647E+02  0.47000000000E+01 0.  1.
         -5    1    5    5    0  501  0.65513580268E+01  0.10856862242E+03  0.68689806929E+02  0.12872624302E+03  0.47000000000E+01 0.  1.
          1    1    1    2  502    0  0.12122347424E+02  0.24105573331E+02  0.47350537008E+03  0.47427351335E+03  0.00000000000E+00 0. -1.
          1    1    1    2  503    0  0.46125898803E+02  0.36239283907E+02 -0.11326009448E+04  0.11341189464E+04  0.00000000000E+00 0. -1.
<mgrwt>
<rscale>  0 0.39785809E+02</rscale>
<asrwt>0</asrwt>
<pdfrwt beam="1">  1        2 0.50159585E+00 0.26982031E+02</pdfrwt>
<pdfrwt beam="2">  1        2 0.31250104E+00 0.58665363E+02</pdfrwt>
<totfact> 0.29109535E+00</totfact>
</mgrwt>
</event>
<event>
13    1  0.1942437E-008  0.1803276E+03  0.7546771E-02  0.1300590E+00
          2   -1    0    0  502    0  0.00000000000E+00  0.00000000000E+00  0.20195783318E+04  0.20195783318E+04  0.00000000000E+00 0. -1.
          2   -1    0    0  503    0 -0.00000000000E+00 -0.00000000000E+00 -0.16752281187E+04  0.16752281187E+04  0.00000000000E+00 0. -1.
         24    2    1    2    0    0  0.37160993123E+03 -0.15198563990E+02 -0.28959314072E+02  0.38176344784E+03  0.81115663711E+02 0.  0.
         24    2    1    2    0    0 -0.89280170789E+02 -0.41650587013E+02 -0.21190334016E+02  0.13056673177E+03  0.83023616485E+02 0.  0.
         25    2    1    2    0    0 -0.86404862855E+02  0.93934616164E+02  0.32802458797E+03  0.37351601779E+03  0.12499829118E+03 0.  0.
        -13    1    3    3    0    0  0.35988555720E+03 -0.15839272789E+01 -0.17219282698E+02  0.36030074493E+03  0.00000000000E+00 0.  1.
         14    1    3    3    0    0  0.11724374030E+02 -0.13614636712E+02 -0.11740031374E+02  0.21462702901E+02  0.00000000000E+00 0. -1.
        -13    1    4    4    0    0 -0.25723362859E+02  0.25523328387E+02 -0.85363385847E+01  0.37229031214E+02  0.00000000000E+00 0.  1.
         14    1    4    4    0    0 -0.63556807931E+02 -0.67173915400E+02 -0.12653995431E+02  0.93337700555E+02  0.00000000000E+00 0. -1.
          5    1    5    5  501    0  0.94567258736E+01 -0.10921574633E+01  0.14839988052E+03  0.14877915516E+03  0.47000000000E+01 0.  1.
         -5    1    5    5    0  501 -0.95861588729E+02  0.95026773628E+02  0.17962470745E+03  0.22473686263E+03  0.47000000000E+01 0.  1.
          1    1    1    2  502    0 -0.16822974680E+02 -0.42665125832E+02  0.14314950287E+04  0.14322295007E+04  0.00000000000E+00 0. -1.
          1    1    1    2  503    0 -0.17910192290E+03  0.55796606716E+01 -0.13650197556E+04  0.13767307524E+04  0.00000000000E+00 0. -1.
<mgrwt>
<rscale>  0 0.90940569E+02</rscale>
<asrwt>0</asrwt>
<pdfrwt beam="1">  1        2 0.29699681E+00 0.45862026E+02</pdfrwt>
<pdfrwt beam="2">  1        2 0.24635708E+00 0.18032755E+03</pdfrwt>
<totfact> 0.19025842E+01</totfact>
</mgrwt>
</event>
<event>
13    1  0.1942437E-008  0.9591801E+02  0.7546771E-02  0.1336738E+00
          2   -1    0    0  503    0  0.00000000000E+00  0.00000000000E+00  0.14965245131E+04  0.14965245131E+04  0.00000000000E+00 0. -1.
          2   -1    0    0  502    0 -0.00000000000E+00 -0.00000000000E+00 -0.25924959371E+04  0.25924959371E+04  0.00000000000E+00 0. -1.
         24    2    1    2    0    0 -0.30960844782E+03  0.16847230844E+03 -0.19753968767E+04  0.20081979958E+04  0.80162710329E+02 0.  0.
         24    2    1    2    0    0  0.99605060396E+02 -0.27484094447E+01 -0.89013023386E+02  0.15665738373E+03  0.81789337529E+02 0.  0.
         25    2    1    2    0    0  0.14560722649E+03 -0.16127821555E+03  0.44929280024E+03  0.51448997196E+03  0.12499513464E+03 0.  0.
        -11    1    4    4    0    0  0.10210254203E+03 -0.23137289889E+02 -0.86805171988E+02  0.13599779835E+03  0.00000000000E+00 0.  1.
         12    1    4    4    0    0 -0.24974816309E+01  0.20388880445E+02 -0.22078513980E+01  0.20659585380E+02  0.00000000000E+00 0. -1.
        -11    1    3    3    0    0 -0.18300437773E+02  0.22912558614E+02 -0.83993794241E+02  0.88965436187E+02  0.00000000000E+00 0.  1.
         12    1    3    3    0    0 -0.29130801005E+03  0.14555974982E+03 -0.18914030825E+04  0.19192325596E+04  0.00000000000E+00 0. -1.
          5    1    5    5  501    0  0.13225689691E+03 -0.57928100517E+02  0.29150138417E+03  0.32533474850E+03  0.47000000000E+01 0.  1.
         -5    1    5    5    0  501  0.13350329583E+02 -0.10335011503E+03  0.15779141607E+03  0.18915522346E+03  0.47000000000E+01 0.  1.
          1    1    1    2  502    0  0.78144447370E+02  0.56400356115E+02 -0.43902397099E+03  0.44947703160E+03  0.00000000000E+00 0. -1.
          1    1    1    2  503    0 -0.13748286432E+02 -0.60846039559E+02  0.95816964684E+03  0.96019806709E+03  0.00000000000E+00 0. -1.
<mgrwt>
<rscale>  0 0.77352175E+02</rscale>
<asrwt>0</asrwt>
<pdfrwt beam="1">  1        2 0.22007714E+00 0.62379932E+02</pdfrwt>
<pdfrwt beam="2">  1        2 0.38124940E+00 0.95918009E+02</pdfrwt>
<totfact> 0.12281456E+01</totfact>
</mgrwt>
</event>
<event>
13    1  0.1942437E-008  0.2544042E+02  0.7546771E-02  0.1709917E+00
          2   -1    0    0  503    0  0.00000000000E+00  0.00000000000E+00  0.26762042501E+03  0.26762042501E+03  0.00000000000E+00 0. -1.
          2   -1    0    0  502    0 -0.00000000000E+00 -0.00000000000E+00 -0.19911686503E+04  0.19911686503E+04  0.00000000000E+00 0. -1.
         24    2    1    2    0    0  0.12011654932E+03  0.15843896194E+03 -0.14182378803E+04  0.14349118985E+04  0.89680439458E+02 0.  0.
         24    2    1    2    0    0 -0.15178091021E+03  0.79137409147E+02 -0.19861365038E+03  0.27426439471E+03  0.80457453688E+02 0.  0.
         25    2    1    2    0    0  0.27756161423E+02 -0.26216259473E+03 -0.84581923524E+02  0.30377469608E+03  0.12500133446E+03 0.  0.
        -11    1    4    4    0    0 -0.89908621996E+02  0.83613319899E+02 -0.15808743532E+03  0.20016589315E+03  0.00000000000E+00 0.  1.
         12    1    4    4    0    0 -0.61872288212E+02 -0.44759107522E+01 -0.40526215067E+02  0.74098501559E+02  0.00000000000E+00 0. -1.
        -11    1    3    3    0    0  0.23482581556E+02 -0.85380323286E+01 -0.14387213002E+03  0.14602574920E+03  0.00000000000E+00 0.  1.
         12    1    3    3    0    0  0.96633967766E+02  0.16697699427E+03 -0.12743657503E+04  0.12888861493E+04  0.00000000000E+00 0. -1.
          5    1    5    5  501    0  0.55254366878E+01 -0.53823563628E+01 -0.41431322831E+02  0.42404536575E+02  0.47000000000E+01 0.  1.
         -5    1    5    5    0  501  0.22230724735E+02 -0.25678023837E+03 -0.43150600693E+02  0.26137015950E+03  0.47000000000E+01 0.  1.
          1    1    1    2  502    0 -0.14589739639E+02  0.20912556930E+02 -0.13195218572E+03  0.13439335868E+03  0.00000000000E+00 0. -1.
          1    1    1    2  503    0  0.18497939102E+02  0.36736667124E+01  0.10983741469E+03  0.11144472730E+03  0.00000000000E+00 0. -1.
<mgrwt>
<rscale>  0 0.21904019E+02</rscale>
<asrwt>0</asrwt>
<pdfrwt beam="1">  1        2 0.39355945E-01 0.18859204E+02</pdfrwt>
<pdfrwt beam="2">  1        2 0.29281892E+00 0.25440418E+02</pdfrwt>
<totfact> 0.20802896E+02</totfact>
</mgrwt>
</event>
<event>
13    1  0.1942437E-008  0.2292365E+03  0.7546771E-02  0.1378167E+00
          2   -1    0    0  502    0  0.00000000000E+00  0.00000000000E+00  0.14156500537E+04  0.14156500537E+04  0.00000000000E+00 0. -1.
          2   -1    0    0  503    0 -0.00000000000E+00 -0.00000000000E+00 -0.25029817795E+04  0.25029817795E+04  0.00000000000E+00 0. -1.
         24    2    1    2    0    0  0.18834183423E+03  0.62475914178E+02 -0.49856425044E+03  0.54304499891E+03  0.83400675358E+02 0.  0.
         24    2    1    2    0    0 -0.49015538501E+02  0.80660683786E+02 -0.16367573368E+03  0.20553221908E+03  0.80901658586E+02 0.  0.
         25    2    1    2    0    0  0.17326619079E+03  0.15409159894E+03  0.12667514964E+04  0.12938490516E+04  0.12498248267E+03 0.  0.
        -13    1    3    3    0    0  0.23734989847E+02 -0.20087659631E+02 -0.72509630170E+02  0.78895565654E+02  0.00000000000E+00 0.  1.
         14    1    3    3    0    0  0.16460684439E+03  0.82563573809E+02 -0.42605462027E+03  0.46414943326E+03  0.00000000000E+00 0. -1.
        -13    1    4    4    0    0  0.12799831251E+02 -0.13303056877E+01 -0.53081624985E+02  0.54619266787E+02  0.00000000000E+00 0.  1.
         14    1    4    4    0    0 -0.61815369753E+02  0.81990989474E+02 -0.11059410869E+03  0.15091295229E+03  0.00000000000E+00 0. -1.
          5    1    5    5  501    0  0.97546263537E+01  0.84457209322E+02  0.37449643567E+03  0.38405447956E+03  0.47000000000E+01 0. -1.
         -5    1    5    5    0  501  0.16351156444E+03  0.69634389614E+02  0.89225506073E+03  0.90979457205E+03  0.47000000000E+01 0. -1.
          1    1    1    2  502    0 -0.46759191574E+01  0.17797239216E+02  0.63665073130E+02  0.66271015386E+02  0.00000000000E+00 0. -1.
          1    1    1    2  503    0 -0.30791656737E+03 -0.31502543612E+03 -0.17555083113E+04  0.18099345482E+04  0.00000000000E+00 0. -1.
<mgrwt>
<rscale>  0 0.64947962E+02</rscale>
<asrwt>0</asrwt>
<pdfrwt beam="1">  1        2 0.20818384E+00 0.18401248E+02</pdfrwt>
<pdfrwt beam="2">  1        2 0.36808555E+00 0.22923650E+03</pdfrwt>
<totfact> 0.14768187E+01</totfact>
</mgrwt>
</event>
<event>
13    1  0.1942437E-008  0.7992120E+02  0.7546771E-02  0.1358271E+00
          2   -1    0    0  503    0  0.00000000000E+00  0.00000000000E+00  0.12741550485E+04  0.12741550485E+04  0.00000000000E+00 0. -1.
          2   -1    0    0  502    0 -0.00000000000E+00 -0.00000000000E+00 -0.35969870360E+04  0.35969870360E+04  0.00000000000E+00 0. -1.
         24    2    1    2    0    0  0.45399648223E+03  0.17572419325E+03 -0.71220969640E+03  0.86704271846E+03  0.86767655461E+02 0.  0.
         24    2    1    2    0    0 -0.69334418710E+03 -0.28866355558E+02  0.13486613779E+03  0.71174300539E+03  0.82642618157E+02 0.  0.
         25    2    1    2    0    0  0.18994234698E+03 -0.14910874132E+02  0.37587217914E+03  0.43953714690E+03  0.12495030656E+03 0.  0.
        -11    1    4    4    0    0 -0.38220011046E+03 -0.25307273389E+01  0.11373664774E+03  0.39877230854E+03  0.00000000000E+00 0.  1.
         12    1    4    4    0    0 -0.31114407664E+03 -0.26335628220E+02  0.21129490055E+02  0.31297069685E+03  0.00000000000E+00 0. -1.
        -11    1    3    3    0    0  0.16228399045E+03  0.87945161311E+02 -0.33183744759E+03  0.37971902320E+03  0.00000000000E+00 0.  1.
         12    1    3    3    0    0  0.29171249178E+03  0.87779031935E+02 -0.38037224881E+03  0.48732369527E+03  0.00000000000E+00 0. -1.
          5    1    5    5  501    0  0.19336269114E+03  0.11921679417E+02  0.35705326112E+03  0.40625161912E+03  0.47000000000E+01 0. -1.
         -5    1    5    5    0  501 -0.34203441515E+01 -0.26832553549E+02  0.18818918018E+02  0.33285527778E+02  0.47000000000E+01 0. -1.
          1    1    1    2  502    0  0.19106008941E+02 -0.77560174636E+02 -0.24837937098E+04  0.24850778283E+04  0.00000000000E+00 0. -1.
          1    1    1    2  503    0  0.30299348943E+02 -0.54386788920E+02  0.36243310173E+03  0.36774138546E+03  0.00000000000E+00 0. -1.
<mgrwt>
<rscale>  0 0.70538496E+02</rscale>
<asrwt>0</asrwt>
<pdfrwt beam="1">  1        2 0.18737574E+00 0.62257316E+02</pdfrwt>
<pdfrwt beam="2">  1        2 0.52896868E+00 0.79921202E+02</pdfrwt>
<totfact> 0.46460794E+00</totfact>
</mgrwt>
</event>
<event>
13    1  0.1942437E-008  0.8109400E+02  0.7546771E-02  0.1449535E+00
          2   -1    0    0  503    0  0.00000000000E+00  0.00000000000E+00  0.42590709110E+03  0.42590709110E+03  0.00000000000E+00 0. -1.
          2   -1    0    0  502    0 -0.00000000000E+00 -0.00000000000E+00 -0.30007301572E+04  0.30007301572E+04  0.00000000000E+00 0. -1.
         24    2    1    2    0    0  0.47671297921E+02  0.12188773478E+03 -0.78815140528E+03  0.80335172017E+03  0.84036754621E+02 0.  0.
         24    2    1    2    0    0 -0.76846991448E+02  0.29262070171E+02 -0.29114795265E+03  0.31333287938E+03  0.81539156972E+02 0.  0.
         25    2    1    2    0    0  0.47478799138E+02 -0.20230378152E+03  0.98822805186E+02  0.26186295861E+03  0.12500082352E+03 0.  0.
        -11    1    4    4    0    0 -0.94193808751E+02  0.28613745253E+02 -0.24771160248E+03  0.26655629429E+03  0.00000000000E+00 0.  1.
         12    1    4    4    0    0  0.17346817303E+02  0.64832491792E+00 -0.43436350176E+02  0.46776585086E+02  0.00000000000E+00 0. -1.
        -13    1    3    3    0    0  0.98847604281E+01  0.54220971939E+02 -0.13802565852E+03  0.14862269240E+03  0.00000000000E+00 0.  1.
         14    1    3    3    0    0  0.37786537493E+02  0.67666762846E+02 -0.65012574676E+03  0.65472902777E+03  0.00000000000E+00 0. -1.
          5    1    5    5  501    0  0.92076470318E+01 -0.56027094930E+01  0.55575601137E+02  0.56805884900E+02  0.47000000000E+01 0. -1.
         -5    1    5    5    0  501  0.38271152107E+02 -0.19670107203E+03  0.43247204049E+02  0.20505707371E+03  0.47000000000E+01 0. -1.
          1    1    1    2  502    0 -0.41778245312E+02  0.69651720792E+02 -0.18193238069E+04  0.18211358813E+04  0.00000000000E+00 0. -1.
          1    1    1    2  503    0  0.23475139700E+02 -0.18497744228E+02  0.22497729354E+03  0.22695380881E+03  0.00000000000E+00 0. -1.
<mgrwt>
<rscale>  0 0.49230865E+02</rscale>
<asrwt>0</asrwt>
<pdfrwt beam="1">  1        2 0.62633398E-01 0.29887267E+02</pdfrwt>
<pdfrwt beam="2">  1        2 0.44128383E+00 0.81094001E+02</pdfrwt>
<totfact> 0.36664835E+01</totfact>
</mgrwt>
</event>
<event>
13    1  0.1942437E-008  0.2296715E+03  0.7546771E-02  0.1297698E+00
          2   -1    0    0  502    0  0.00000000000E+00  0.00000000000E+00  0.20460024324E+04  0.20460024324E+04  0.00000000000E+00 0. -1.
          4   -1    0    0  503    0 -0.00000000000E+00 -0.00000000000E+00 -0.56323707920E+03  0.56323707920E+03  0.00000000000E+00 0. -1.
         24    2    1    2    0    0 -0.27422307718E+02 -0.13066970320E+03  0.50991750638E+02  0.16341796318E+03  0.79238360420E+02 0.  0.
         24    2    1    2    0    0  0.17874513700E+03  0.45410261149E+03  0.26788070507E+03  0.56238457736E+03  0.79732897431E+02 0.  0.
         25    2    1    2    0    0 -0.23143333660E+03 -0.95392345754E+02  0.10809252394E+04  0.11165510026E+04  0.12500271755E+03 0.  0.
        -13    1    3    3    0    0 -0.24191735352E+02 -0.14037141511E+03  0.39050193413E+02  0.14769662097E+03  0.00000000000E+00 0.  1.
         14    1    3    3    0    0 -0.32305723662E+01  0.97017119157E+01  0.11941557225E+02  0.15721342209E+02  0.00000000000E+00 0. -1.
        -13    1    4    4    0    0  0.41603027951E+02  0.38714195634E+02  0.36174568868E+02  0.67366165923E+02  0.00000000000E+00 0.  1.
         14    1    4    4    0    0  0.13714210905E+03  0.41538841586E+03  0.23170613620E+03  0.49501841143E+03  0.00000000000E+00 0. -1.
          5    1    5    5  501    0 -0.19853140123E+03 -0.10817788626E+03  0.10292103469E+04  0.10537614533E+04  0.47000000000E+01 0.  1.
         -5    1    5    5    0  501 -0.32901935373E+02  0.12785540502E+02  0.51714892555E+02  0.62789549363E+02  0.47000000000E+01 0.  1.
          1    1    1    2  502    0 -0.34923104501E+02 -0.12170063835E+02  0.38017177619E+03  0.38196637692E+03  0.00000000000E+00 0. -1.
          3    1    1    2  503    0  0.11503361182E+03 -0.21587049871E+03 -0.29720411814E+03  0.38491959147E+03  0.00000000000E+00 0. -1.
<mgrwt>
<rscale>  0 0.92162429E+02</rscale>
<asrwt>0</asrwt>
<pdfrwt beam="1">  1        2 0.30088271E+00 0.36982884E+02</pdfrwt>
<pdfrwt beam="2">  1        4 0.82828983E-01 0.22967147E+03</pdfrwt>
<totfact> 0.67578946E+00</totfact>
</mgrwt>
</event>
<event>
13    1  0.1942437E-008  0.3447449E+03  0.7546771E-02  0.1336642E+00
          2   -1    0    0  503    0  0.00000000000E+00  0.00000000000E+00  0.19743704969E+04  0.19743704969E+04  0.00000000000E+00 0. -1.
          2   -1    0    0  502    0 -0.00000000000E+00 -0.00000000000E+00 -0.29113119479E+04  0.29113119479E+04  0.00000000000E+00 0. -1.
         24    2    1    2    0    0 -0.67142221569E+02  0.18670968103E+02 -0.38831065129E+03  0.40344082096E+03  0.84395800499E+02 0.  0.
         24    2    1    2    0    0 -0.13524001980E+03 -0.35088955323E+02 -0.64700494690E+03  0.66690734163E+03  0.81418076994E+02 0.  0.
         25    2    1    2    0    0 -0.14781135386E+03  0.55266043745E+02 -0.19881886480E+03  0.28294362438E+03  0.12500248661E+03 0.  0.
        -11    1    4    4    0    0 -0.27571512589E+02  0.20655446387E+02 -0.23235897465E+03  0.23489897588E+03  0.00000000000E+00 0.  1.
         12    1    4    4    0    0 -0.10766850721E+03 -0.55744401709E+02 -0.41464597225E+03  0.43200836574E+03  0.00000000000E+00 0. -1.
        -11    1    3    3    0    0  0.14638443810E+02 -0.10337499956E+02 -0.12304836364E+03  0.12434648260E+03  0.00000000000E+00 0.  1.
         12    1    3    3    0    0 -0.81780665379E+02  0.29008468059E+02 -0.26526228766E+03  0.27909433835E+03  0.00000000000E+00 0. -1.
          5    1    5    5  501    0 -0.31488896399E+02  0.76005506437E+02 -0.70491590600E+02  0.10844142175E+03  0.47000000000E+01 0.  1.
         -5    1    5    5    0  501 -0.11632245746E+03 -0.20739462692E+02 -0.12832727420E+03  0.17450220263E+03  0.47000000000E+01 0.  1.
          1    1    1    2  502    0 -0.72640061456E+01 -0.15778730934E+02 -0.16007990600E+04  0.16008933020E+04  0.00000000000E+00 0. -1.
          1    1    1    2  503    0  0.35745760137E+03 -0.23069325592E+02  0.18979920719E+04  0.19314973558E+04  0.00000000000E+00 0. -1.
<mgrwt>
<rscale>  0 0.77384688E+02</rscale>
<asrwt>0</asrwt>
<pdfrwt beam="1">  1        2 0.29034860E+00 0.34474490E+03</pdfrwt>
<pdfrwt beam="2">  1        2 0.42813411E+00 0.17370496E+02</pdfrwt>
<totfact> 0.56597779E+00</totfact>
</mgrwt>
</event>
<event>
13    1  0.1942437E-008  0.8051820E+02  0.7546771E-02  0.1474934E+00
          2   -1    0    0  503    0  0.00000000000E+00  0.00000000000E+00  0.31630241170E+04  0.31630241170E+04  0.00000000000E+00 0. -1.
          2   -1    0    0  502    0 -0.00000000000E+00 -0.00000000000E+00 -0.25337503052E+04  0.25337503052E+04  0.00000000000E+00 0. -1.
         24    2    1    2    0    0  0.65842221414E+02 -0.23329358807E+02 -0.87739406827E+03  0.88382532074E+03  0.80295637757E+02 0.  0.
         24    2    1    2    0    0  0.40104954447E+03  0.42692059765E+03  0.33787941854E-01  0.58966549091E+03  0.67848774501E+02 0.  0.
         25    2    1    2    0    0 -0.45353288330E+03 -0.31326461490E+03  0.97806261336E+03  0.11296269243E+04  0.12499486907E+03 0.  0.
        -13    1    3    3    0    0  0.29329949804E+00  0.23647998311E+02 -0.28282257168E+03  0.28380965611E+03  0.00000000000E+00 0.  1.
         14    1    3    3    0    0  0.65548921916E+02 -0.46977357117E+02 -0.59457149659E+03  0.60001566463E+03  0.00000000000E+00 0. -1.
        -13    1    4    4    0    0  0.92080774714E+02  0.13869351221E+03 -0.12477473237E+02  0.16694444207E+03  0.00000000000E+00 0.  1.
         14    1    4    4    0    0  0.30896876976E+03  0.28822708545E+03  0.12511261179E+02  0.42272104884E+03  0.00000000000E+00 0. -1.
          5    1    5    5  501    0 -0.14307677119E+03 -0.12566628671E+03  0.23309566506E+03  0.30102932937E+03  0.47000000000E+01 0. -1.
         -5    1    5    5    0  501 -0.31045611211E+03 -0.18759832819E+03  0.74496694830E+03  0.82859759494E+03  0.47000000000E+01 0. -1.
          1    1    1    2  502    0 -0.22796409389E+02 -0.10368907979E+02 -0.12815254076E+04  0.12817700890E+04  0.00000000000E+00 0. -1.
          1    1    1    2  503    0  0.94375267984E+01 -0.79957715967E+02  0.18100968864E+04  0.18118865973E+04  0.00000000000E+00 0. -1.
<mgrwt>
<rscale>  0 0.44905229E+02</rscale>
<asrwt>0</asrwt>
<pdfrwt beam="1">  1        2 0.46515060E+00 0.80518204E+02</pdfrwt>
<pdfrwt beam="2">  1        2 0.37261034E+00 0.25043772E+02</pdfrwt>
<totfact> 0.23395933E+00</totfact>
</mgrwt>
</event>
<event>
13    1  0.1942437E-008  0.4599797E+02  0.7546771E-02  0.1549406E+00
          2   -1    0    0  503    0  0.00000000000E+00  0.00000000000E+00  0.14801119722E+04  0.14801119722E+04  0.00000000000E+00 0. -1.
         -3   -1    0    0    0  501 -0.00000000000E+00 -0.00000000000E+00 -0.35930654893E+03  0.35930654893E+03  0.00000000000E+00 0.  1.
         24    2    1    2    0    0  0.41830388681E+02  0.77473332250E+02 -0.11138780484E+03  0.17089021974E+03  0.95101658812E+02 0.  0.
         24    2    1    2    0    0 -0.93035932315E+02  0.50151340375E+02  0.34098860318E+02  0.13852869175E+03  0.82804737296E+02 0.  0.
         25    2    1    2    0    0 -0.82152016346E+01 -0.10726395839E+03  0.86014676585E+03  0.87581533415E+03  0.12500797743E+03 0.  0.
        -13    1    3    3    0    0  0.25060953069E+02 -0.18913590090E+02 -0.32751784592E+02  0.45370195644E+02  0.00000000000E+00 0.  1.
         14    1    3    3    0    0  0.16769435612E+02  0.96386922340E+02 -0.78636020252E+02  0.12552002410E+03  0.00000000000E+00 0. -1.
        -13    1    4    4    0    0 -0.36289033092E+02  0.38308375165E+02 -0.22634035612E+02  0.57417115032E+02  0.00000000000E+00 0.  1.
         14    1    4    4    0    0 -0.56746899224E+02  0.11842965209E+02  0.56732895930E+02  0.81111576714E+02  0.00000000000E+00 0. -1.
          5    1    5    5  502    0  0.28331724718E+02 -0.12191538146E+03  0.65881722818E+03  0.67061783231E+03  0.47000000000E+01 0. -1.
         -5    1    5    5    0  502 -0.36546926353E+02  0.14651423071E+02  0.20132953767E+03  0.20519750184E+03  0.47000000000E+01 0. -1.
          1    1    1    2  503    0  0.13528281827E+02 -0.22779786310E+02  0.49236302370E+03  0.49307532911E+03  0.00000000000E+00 0. -1.
         -4    1    1    2    0  501  0.45892463442E+02  0.24190720729E+01 -0.15441542178E+03  0.16110894635E+03  0.00000000000E+00 0.  1.
<mgrwt>
<rscale>  0 0.34909471E+02</rscale>
<asrwt>0</asrwt>
<pdfrwt beam="1">  1        2 0.21766352E+00 0.26494020E+02</pdfrwt>
<pdfrwt beam="2">  1       -3 0.52839199E-01 0.45997971E+02</pdfrwt>
<totfact> 0.37382970E+01</totfact>
</mgrwt>
</event>
<event>
13    1  0.1942437E-008  0.4268473E+02  0.7546771E-02  0.1513658E+00
          2   -1    0    0  503    0  0.00000000000E+00  0.00000000000E+00  0.13346665179E+04  0.13346665179E+04  0.00000000000E+00 0. -1.
          2   -1    0    0  502    0 -0.00000000000E+00 -0.00000000000E+00 -0.10202081679E+04  0.10202081679E+04  0.00000000000E+00 0. -1.
         24    2    1    2    0    0 -0.38445779038E+02 -0.32959123938E+01 -0.48961308621E+03  0.49759813703E+03  0.79962433837E+02 0.  0.
         24    2    1    2    0    0 -0.26343927078E+02  0.54793972059E+02  0.17467808659E+03  0.20501953066E+03  0.88454463694E+02 0.  0.
         25    2    1    2    0    0  0.47749178981E+02 -0.12823433589E+03  0.92058319167E+03  0.93905418225E+03  0.12500126173E+03 0.  0.
        -13    1    4    4    0    0 -0.45856990525E+02  0.67224103906E+02  0.11386524513E+03  0.13995441320E+03  0.00000000000E+00 0.  1.
         14    1    4    4    0    0  0.19513063447E+02 -0.12430131847E+02  0.60812841464E+02  0.65065117458E+02  0.00000000000E+00 0. -1.
        -13    1    3    3    0    0 -0.19234334681E+02  0.27710036037E+02 -0.39105358070E+03  0.39250567984E+03  0.00000000000E+00 0.  1.
         14    1    3    3    0    0 -0.19211444356E+02 -0.31005948430E+02 -0.98559505502E+02  0.10509245718E+03  0.00000000000E+00 0. -1.
          5    1    5    5  501    0  0.52788332380E+02 -0.11685467604E+03  0.91606056452E+03  0.92500306552E+03  0.47000000000E+01 0. -1.
         -5    1    5    5    0  501 -0.50391533986E+01 -0.11379659847E+02  0.45226271459E+01  0.14051116735E+02  0.47000000000E+01 0. -1.
          1    1    1    2  502    0  0.63622808364E+01  0.35562606620E+02 -0.49939351086E+03  0.50069856830E+03  0.00000000000E+00 0. -1.
          1    1    1    2  503    0  0.10678246298E+02  0.41173669606E+02  0.20820366882E+03  0.21250426754E+03  0.00000000000E+00 0. -1.
<mgrwt>
<rscale>  0 0.39269346E+02</rscale>
<asrwt>0</asrwt>
<pdfrwt beam="1">  1        2 0.19627449E+00 0.42684729E+02</pdfrwt>
<pdfrwt beam="2">  1        2 0.15003061E+00 0.36127242E+02</pdfrwt>
<totfact> 0.96555075E+01</totfact>
</mgrwt>
</event>
<event>
13    1  0.1942437E-008  0.6350694E+02  0.7546771E-02  0.1387717E+00
          2   -1    0    0  503    0  0.00000000000E+00  0.00000000000E+00  0.60921621919E+03  0.60921621919E+03  0.00000000000E+00 0. -1.
         -3   -1    0    0    0  501 -0.00000000000E+00 -0.00000000000E+00 -0.64463147553E+03  0.64463147553E+03  0.00000000000E+00 0.  1.
         24    2    1    2    0    0 -0.14667611702E+03 -0.74927554621E+02 -0.24151276986E+03  0.30371083485E+03  0.82364017942E+02 0.  0.
         24    2    1    2    0    0  0.14999134187E+03 -0.93687708372E+02  0.90054276095E+02  0.21565617796E+03  0.84398016048E+02 0.  0.
         25    2    1    2    0    0 -0.76217579475E+02  0.15433750020E+03  0.17381987437E+03  0.27471644377E+03  0.12500636929E+03 0.  0.
        -13    1    3    3    0    0 -0.10091272579E+03 -0.74675671177E+01 -0.11467442462E+03  0.15293582461E+03  0.00000000000E+00 0.  1.
         14    1    3    3    0    0 -0.45763391234E+02 -0.67459987504E+02 -0.12683834524E+03  0.15077501024E+03  0.00000000000E+00 0. -1.
        -13    1    4    4    0    0  0.71108484774E+02 -0.89165697121E+02  0.71122472154E+02  0.13440738148E+03  0.00000000000E+00 0.  1.
         14    1    4    4    0    0  0.78882857097E+02 -0.45220112511E+01  0.18931803941E+02  0.81248796484E+02  0.00000000000E+00 0. -1.
          5    1    5    5  502    0 -0.36628492800E+01  0.13513210620E+01  0.81651080449E+02  0.81879371468E+02  0.47000000000E+01 0. -1.
         -5    1    5    5    0  502 -0.72554730195E+02  0.15298617914E+03  0.92168793920E+02  0.19283707230E+03  0.47000000000E+01 0. -1.
          1    1    1    2  503    0  0.24946717022E+02  0.56175826491E+02  0.19220764949E+03  0.20179653787E+03  0.00000000000E+00 0. -1.
         -4    1    1    2    0  501  0.47955637605E+02 -0.41898063697E+02 -0.24998428644E+03  0.25796770028E+03  0.00000000000E+00 0.  1.
<mgrwt>
<rscale>  0 0.62478107E+02</rscale>
<asrwt>0</asrwt>
<pdfrwt beam="1">  1        2 0.89590621E-01 0.61465943E+02</pdfrwt>
<pdfrwt beam="2">  1       -3 0.94798746E-01 0.63506938E+02</pdfrwt>
<totfact> 0.33310229E+01</totfact>
</mgrwt>
</event>
<event>
13    1  0.1942437E-008  0.7423002E+02  0.7546771E-02  0.1425152E+00
          2   -1    0    0  503    0  0.00000000000E+00  0.00000000000E+00  0.32290155800E+03  0.32290155800E+03  0.00000000000E+00 0. -1.
          2   -1    0    0  502    0 -0.00000000000E+00 -0.00000000000E+00 -0.18796607363E+04  0.18796607363E+04  0.00000000000E+00 0. -1.
         24    2    1    2    0    0 -0.98165777290E+02 -0.30555930101E+02 -0.16961523954E+03  0.21351227493E+03  0.79044148193E+02 0.  0.
         24    2    1    2    0    0  0.73749243219E+02  0.72425362282E+02 -0.24383999816E+03  0.27713324300E+03  0.81611921291E+02 0.  0.
         25    2    1    2    0    0 -0.68059382320E+02  0.21411875853E+02  0.14839531043E+03  0.20672908617E+03  0.12500079584E+03 0.  0.
        -11    1    4    4    0    0  0.65007597535E+02  0.88476380126E+02 -0.18106113498E+03  0.21174794492E+03  0.00000000000E+00 0.  1.
         12    1    4    4    0    0  0.87416456836E+01 -0.16051017844E+02 -0.62778863178E+02  0.65385298080E+02  0.00000000000E+00 0. -1.
        -13    1    3    3    0    0 -0.50269586388E+01 -0.14250899134E+02 -0.85912730043E+02  0.87231620544E+02  0.00000000000E+00 0.  1.
         14    1    3    3    0    0 -0.93138818651E+02 -0.16305030968E+02 -0.83702509500E+02  0.12628065438E+03  0.00000000000E+00 0. -1.
          5    1    5    5  501    0  0.80071340475E-01 -0.41909172819E+02  0.16546511289E+02  0.45301900772E+02  0.47000000000E+01 0. -1.
         -5    1    5    5    0  501 -0.68139453660E+02  0.63321048672E+02  0.13184879914E+03  0.16142718540E+03  0.47000000000E+01 0. -1.
          1    1    1    2  502    0  0.65207513031E+02 -0.35113921254E+02 -0.13938272495E+04  0.13957934692E+04  0.00000000000E+00 0. -1.
          1    1    1    2  503    0  0.27268403360E+02 -0.28167386780E+02  0.10212799851E+03  0.10939422096E+03  0.00000000000E+00 0. -1.
<mgrwt>
<rscale>  0 0.53945591E+02</rscale>
<asrwt>0</asrwt>
<pdfrwt beam="1">  1        2 0.47485521E-01 0.39204177E+02</pdfrwt>
<pdfrwt beam="2">  1        2 0.27642071E+00 0.74230018E+02</pdfrwt>
<totfact> 0.17516308E+02</totfact>
</mgrwt>
</event>
<event>
13    1  0.1942437E-008  0.8271558E+02  0.7546771E-02  0.1442600E+00
          2   -1    0    0  502    0  0.00000000000E+00  0.00000000000E+00  0.15001559650E+04  0.15001559650E+04  0.00000000000E+00 0. -1.
          2   -1    0    0  503    0 -0.00000000000E+00 -0.00000000000E+00 -0.44434224216E+03  0.44434224216E+03  0.00000000000E+00 0. -1.
         24    2    1    2    0    0 -0.50688006088E+01 -0.43609254541E+02 -0.79036247226E+02  0.12236336176E+03  0.82453648220E+02 0.  0.
         24    2    1    2    0    0 -0.81211245437E+02  0.67440993123E+02  0.10043777725E+03  0.16754718185E+03  0.82708869584E+02 0.  0.
         25    2    1    2    0    0  0.94330198748E+02  0.27649068766E+02  0.63312968029E+03  0.65280071897E+03  0.12503171290E+03 0.  0.
        -11    1    3    3    0    0  0.18610334223E+02  0.19290602780E+01 -0.67109797516E+02  0.69669151969E+02  0.00000000000E+00 0.  1.
         12    1    3    3    0    0 -0.23679134832E+02 -0.45538314819E+02 -0.11926449710E+02  0.52694209792E+02  0.00000000000E+00 0. -1.
        -13    1    4    4    0    0 -0.15420792826E+02  0.62875061589E+01 -0.14217647171E+02  0.21896919330E+02  0.00000000000E+00 0.  1.
         14    1    4    4    0    0 -0.65790452611E+02  0.61153486964E+02  0.11465542442E+03  0.14565026252E+03  0.00000000000E+00 0. -1.
          5    1    5    5  501    0  0.48480928442E+02  0.24226047466E+02  0.57931770365E+03  0.58186630214E+03  0.47000000000E+01 0. -1.
         -5    1    5    5    0  501  0.45849270306E+02  0.34230213005E+01  0.53811976633E+02  0.70934416834E+02  0.47000000000E+01 0. -1.
          1    1    1    2  502    0  0.60386547149E+01  0.30249134543E+02  0.69545925369E+03  0.69614298031E+03  0.00000000000E+00 0. -1.
          1    1    1    2  503    0 -0.14088807417E+02 -0.81729941891E+02 -0.29417674112E+03  0.30564396430E+03  0.00000000000E+00 0. -1.
<mgrwt>
<rscale>  0 0.50511826E+02</rscale>
<asrwt>0</asrwt>
<pdfrwt beam="1">  1        2 0.22061117E+00 0.30845996E+02</pdfrwt>
<pdfrwt beam="2">  1        2 0.65344448E-01 0.82715584E+02</pdfrwt>
<totfact> 0.20661459E+02</totfact>
</mgrwt>
</event>
<event>
13    1  0.1942437E-008  0.1251314E+03  0.7546771E-02  0.1270024E+00
          2   -1    0    0  503    0  0.00000000000E+00  0.00000000000E+00  0.30994421639E+04  0.30994421639E+04  0.00000000000E+00 0. -1.
          2   -1    0    0  502    0 -0.00000000000E+00 -0.00000000000E+00 -0.12745671809E+04  0.12745671809E+04  0.00000000000E+00 0. -1.
         24    2    1    2    0    0 -0.30658065234E+02 -0.69285662897E+02 -0.28205433834E+02  0.11403871919E+03  0.80429241757E+02 0.  0.
         24    2    1    2    0    0  0.11997023898E+03 -0.72290919741E+02  0.17760646951E+03  0.23992259213E+03  0.79999730527E+02 0.  0.
         25    2    1    2    0    0  0.87869528869E+02  0.29217569107E+02  0.60641570003E+03  0.62605121740E+03  0.12500162048E+03 0.  0.
        -13    1    3    3    0    0  0.94433709159E+01  0.55596240510E+01  0.15151026811E+02  0.18698670735E+02  0.00000000000E+00 0.  1.
         14    1    3    3    0    0 -0.40101436150E+02 -0.74845286948E+02 -0.43356460645E+02  0.95340048454E+02  0.00000000000E+00 0. -1.
        -13    1    4    4    0    0  0.39000206966E+02  0.15000123159E+02  0.38471499643E+02  0.56798557403E+02  0.00000000000E+00 0.  1.
         14    1    4    4    0    0  0.80970032013E+02 -0.87291042900E+02  0.13913496986E+03  0.18312403472E+03  0.00000000000E+00 0. -1.
          5    1    5    5  501    0  0.61296000003E+02  0.74857561282E+02  0.46594113077E+03  0.47590343710E+03  0.47000000000E+01 0. -1.
         -5    1    5    5    0  501  0.26573528866E+02 -0.45639992175E+02  0.14047456925E+03  0.15014778030E+03  0.47000000000E+01 0. -1.
          1    1    1    2  502    0 -0.71062788961E+02  0.52224344803E+02 -0.11591263182E+04  0.11624762895E+04  0.00000000000E+00 0. -1.
          1    1    1    2  503    0 -0.10611891365E+03  0.60134668729E+02  0.22281845655E+04  0.22315205265E+04  0.00000000000E+00 0. -1.
<mgrwt>
<rscale>  0 0.10504861E+03</rscale>
<asrwt>0</asrwt>
<pdfrwt beam="1">  1        2 0.45580032E+00 0.12513135E+03</pdfrwt>
<pdfrwt beam="2">  1        2 0.18743635E+00 0.88189014E+02</pdfrwt>
<totfact> 0.80756858E+00</totfact>
</mgrwt>
</event>
<event>
13    1  0.1942437E-008  0.4136960E+02  0.7546771E-02  0.1512070E+00
          2   -1    0    0  502    0  0.00000000000E+00  0.00000000000E+00  0.21146528918E+04  0.21146528918E+04  0.00000000000E+00 0. -1.
          2   -1    0    0  503    0 -0.00000000000E+00 -0.00000000000E+00 -0.15149456320E+03  0.15149456320E+03  0.00000000000E+00 0. -1.
         24    2    1    2    0    0 -0.60040804010E+02  0.40877304450E+02  0.21108371591E+02  0.10727201228E+03  0.76064900591E+02 0.  0.
         24    2    1    2    0    0 -0.11186066957E+03 -0.46603301690E+02  0.25937325471E+03  0.29742524567E+03  0.80638789534E+02 0.  0.
         25    2    1    2    0    0  0.17939690407E+03  0.83081690087E+02  0.13145632813E+04  0.13352109585E+04  0.12500346768E+03 0.  0.
        -11    1    4    4    0    0 -0.11497457667E+03 -0.17745424179E+02  0.20117954637E+03  0.23239462825E+03  0.00000000000E+00 0.  1.
         12    1    4    4    0    0  0.31139071043E+01 -0.28857877511E+02  0.58193708338E+02  0.65030617420E+02  0.00000000000E+00 0. -1.
        -13    1    3    3    0    0  0.63569884186E+01  0.21443843592E+02  0.30107230707E+02  0.37505933805E+02  0.00000000000E+00 0.  1.
         14    1    3    3    0    0 -0.66397792428E+02  0.19433460859E+02 -0.89988591157E+01  0.69766078474E+02  0.00000000000E+00 0. -1.
          5    1    5    5  501    0  0.69223336708E+02  0.64391017731E+01  0.18491095300E+03  0.19760435956E+03  0.47000000000E+01 0. -1.
         -5    1    5    5    0  501  0.11017356736E+03  0.76642588314E+02  0.11296523283E+04  0.11376065990E+04  0.47000000000E+01 0. -1.
          1    1    1    2  502    0 -0.10428713522E+02 -0.36205487932E+02  0.44093605819E+03  0.44254288248E+03  0.00000000000E+00 0. -1.
          1    1    1    2  503    0  0.29332830313E+01 -0.41150204915E+02 -0.72822637213E+02  0.83696355981E+02  0.00000000000E+00 0. -1.
<mgrwt>
<rscale>  0 0.39480423E+02</rscale>
<asrwt>0</asrwt>
<pdfrwt beam="1">  1        2 0.31097835E+00 0.37677519E+02</pdfrwt>
<pdfrwt beam="2">  1        2 0.22278614E-01 0.41369597E+02</pdfrwt>
<totfact> 0.32162629E+02</totfact>
</mgrwt>
</event>
<event>
13    1  0.1942437E-008  0.8294495E+02  0.7546771E-02  0.1341276E+00
          2   -1    0    0  503    0  0.00000000000E+00  0.00000000000E+00  0.18592807836E+04  0.18592807836E+04  0.00000000000E+00 0. -1.
         -3   -1    0    0    0  501 -0.00000000000E+00 -0.00000000000E+00 -0.14231782127E+04  0.14231782127E+04  0.00000000000E+00 0.  1.
         24    2    1    2    0    0  0.10676592525E+03  0.19937876193E+02 -0.61783920817E+02  0.14911850912E+03  0.81379329007E+02 0.  0.
         24    2    1    2    0    0 -0.24938127925E+03 -0.11820216263E+02 -0.27219744942E+03  0.37780516005E+03  0.79464127369E+02 0.  0.
         25    2    1    2    0    0  0.19872222937E+03  0.10747046104E+03  0.17891265060E+03  0.31412648330E+03  0.12500114609E+03 0.  0.
        -11    1    3    3    0    0 -0.12137004650E+02 -0.46815553917E+01 -0.12600754181E+02  0.18110848922E+02  0.00000000000E+00 0.  1.
         12    1    3    3    0    0  0.11890292990E+03  0.24619431585E+02 -0.49183166636E+02  0.13100766020E+03  0.00000000000E+00 0. -1.
        -13    1    4    4    0    0 -0.25474840322E+03 -0.14634931569E+02 -0.26961189615E+03  0.37121625061E+03  0.00000000000E+00 0.  1.
         14    1    4    4    0    0  0.53671239723E+01  0.28147153061E+01 -0.25855532640E+01  0.65889094446E+01  0.00000000000E+00 0. -1.
          5    1    5    5  502    0  0.33516541873E+02  0.82237824446E+02  0.81519715543E+02  0.12063984570E+03  0.47000000000E+01 0. -1.
         -5    1    5    5    0  502  0.16520568749E+03  0.25232636593E+02  0.97392935057E+02  0.19348663760E+03  0.47000000000E+01 0. -1.
          1    1    1    2  503    0  0.11865457449E+02 -0.68328816610E+02  0.15136424067E+04  0.15152303296E+04  0.00000000000E+00 0. -1.
         -4    1    1    2    0  501 -0.67972332817E+02 -0.47259304359E+02 -0.92247111627E+03  0.92617851423E+03  0.00000000000E+00 0.  1.
<mgrwt>
<rscale>  0 0.75844236E+02</rscale>
<asrwt>0</asrwt>
<pdfrwt beam="1">  1        2 0.27342364E+00 0.69351397E+02</pdfrwt>
<pdfrwt beam="2">  1       -3 0.20929091E+00 0.82944949E+02</pdfrwt>
<totfact> 0.10006530E+00</totfact>
</mgrwt>
</event>
<event>
13    1  0.1942437E-008  0.7171361E+02  0.7546771E-02  0.1435640E+00
          2   -1    0    0  502    0  0.00000000000E+00  0.00000000000E+00  0.14098468541E+04  0.14098468541E+04  0.00000000000E+00 0. -1.
          2   -1    0    0  503    0 -0.00000000000E+00 -0.00000000000E+00 -0.36760049655E+03  0.36760049655E+03  0.00000000000E+00 0. -1.
         24    2    1    2    0    0  0.13701486055E+02  0.83242243157E+02  0.96803769704E+02  0.15121780290E+03  0.79867717635E+02 0.  0.
         24    2    1    2    0    0 -0.32741837606E+01 -0.14052910925E+03  0.23122072893E+03  0.28232180638E+03  0.80519724565E+02 0.  0.
         25    2    1    2    0    0 -0.33049163384E+02  0.15638796531E+03  0.43482837554E+03  0.47984189570E+03  0.12499234297E+03 0.  0.
        -11    1    4    4    0    0 -0.23117479944E+02 -0.12320124233E+03  0.14257132780E+03  0.18984084782E+03  0.00000000000E+00 0.  1.
         12    1    4    4    0    0  0.19843296184E+02 -0.17327866925E+02  0.88649401131E+02  0.92480958562E+02  0.00000000000E+00 0. -1.
        -13    1    3    3    0    0  0.15053281800E+02 -0.10506298763E+02  0.30169344926E+01  0.18603373361E+02  0.00000000000E+00 0.  1.
         14    1    3    3    0    0 -0.13517957456E+01  0.93748541921E+02  0.93786835212E+02  0.13261442954E+03  0.00000000000E+00 0. -1.
          5    1    5    5  501    0 -0.56093541228E+02  0.14834776306E+03  0.42402712273E+03  0.45274124507E+03  0.47000000000E+01 0.  1.
         -5    1    5    5    0  501  0.23044377844E+02  0.80402022478E+01  0.10801252803E+02  0.27100650629E+02  0.47000000000E+01 0.  1.
          1    1    1    2  502    0 -0.20631344028E+01 -0.70898140774E+02  0.56831473339E+03  0.57272370222E+03  0.00000000000E+00 0. -1.
          1    1    1    2  503    0  0.24684995492E+02 -0.28202958437E+02 -0.28892125000E+03  0.29134214348E+03  0.00000000000E+00 0. -1.
<mgrwt>
<rscale>  0 0.51844297E+02</rscale>
<asrwt>0</asrwt>
<pdfrwt beam="1">  1        2 0.20733042E+00 0.71713606E+02</pdfrwt>
<pdfrwt beam="2">  1        2 0.54058897E-01 0.37480073E+02</pdfrwt>
<totfact> 0.25927888E+02</totfact>
</mgrwt>
</event>
<event>
13    1  0.1942437E-008  0.1323963E+03  0.7546771E-02  0.1263909E+00
          2   -1    0    0  502    0  0.00000000000E+00  0.00000000000E+00  0.13183647028E+04  0.13183647028E+04  0.00000000000E+00 0. -1.
          2   -1    0    0  503    0 -0.00000000000E+00 -0.00000000000E+00 -0.96046104825E+03  0.96046104825E+03  0.00000000000E+00 0. -1.
         24    2    1    2    0    0 -0.11453681954E+03  0.27084076013E+02 -0.30844630067E+03  0.34004126536E+03  0.81466014690E+02 0.  0.
         24    2    1    2    0    0  0.13200259050E+03  0.15076703988E+03  0.22701087798E+03  0.30988994035E+03  0.65897285193E+02 0.  0.
         25    2    1    2    0    0  0.90490629795E+02 -0.50090831675E+02  0.96735701512E+02  0.18889457677E+03  0.12500287872E+03 0.  0.
        -11    1    3    3    0    0 -0.98937302965E+02  0.38967371961E+02 -0.30071574164E+03  0.31896238534E+03  0.00000000000E+00 0.  1.
         12    1    3    3    0    0 -0.15599516574E+02 -0.11883295948E+02 -0.77305590319E+01  0.21078880019E+02  0.00000000000E+00 0. -1.
        -11    1    4    4    0    0  0.15812604519E+01  0.39423750056E+02  0.41648524769E+02  0.57370132199E+02  0.00000000000E+00 0.  1.
         12    1    4    4    0    0  0.13042133005E+03  0.11134328982E+03  0.18536235321E+03  0.25251980815E+03  0.00000000000E+00 0. -1.
          5    1    5    5  501    0 -0.21251908792E+02 -0.36441420268E+02  0.53310086531E+02  0.68144523363E+02  0.47000000000E+01 0. -1.
         -5    1    5    5    0  501  0.11174253859E+03 -0.13649411407E+02  0.43425614981E+02  0.12075005341E+03  0.47000000000E+01 0. -1.
          1    1    1    2  502    0  0.17694156426E+02 -0.86664319542E+02  0.88109214970E+03  0.88552084319E+03  0.00000000000E+00 0. -1.
          1    1    1    2  503    0 -0.12565055718E+03 -0.41095964673E+02 -0.53848877395E+03  0.55447912540E+03  0.00000000000E+00 0. -1.
<mgrwt>
<rscale>  0 0.10821616E+03</rscale>
<asrwt>0</asrwt>
<pdfrwt beam="1">  1        2 0.19387716E+00 0.88452176E+02</pdfrwt>
<pdfrwt beam="2">  1        2 0.14124427E+00 0.13239626E+03</pdfrwt>
<totfact> 0.94905048E+01</totfact>
</mgrwt>
</event>
<event>
13    1  0.1942437E-008  0.1149338E+03  0.7546771E-02  0.1330312E+00
          2   -1    0    0  502    0  0.00000000000E+00  0.00000000000E+00  0.27842489862E+04  0.27842489862E+04  0.00000000000E+00 0. -1.
          2   -1    0    0  503    0 -0.00000000000E+00 -0.00000000000E+00 -0.11223254952E+04  0.11223254952E+04  0.00000000000E+00 0. -1.
         24    2    1    2    0    0  0.68734726312E+02 -0.31576775683E+03 -0.16148827136E+03  0.37000750820E+03  0.79958460953E+02 0.  0.
         24    2    1    2    0    0  0.10272290693E+03 -0.95877826513E+02 -0.15082983908E+02  0.16090816965E+03  0.76937568402E+02 0.  0.
         25    2    1    2    0    0 -0.12624070518E+03  0.28356788167E+03  0.69719575437E+03  0.77333788302E+03  0.12498840846E+03 0.  0.
        -11    1    4    4    0    0  0.40747049443E+02 -0.87728709642E+02 -0.54846293575E+00  0.96731325563E+02  0.00000000000E+00 0.  1.
         12    1    4    4    0    0  0.61975857487E+02 -0.81491168711E+01 -0.14534520972E+02  0.64176844086E+02  0.00000000000E+00 0. -1.
        -13    1    3    3    0    0  0.35642153831E+02 -0.49691690278E+02 -0.52427011942E+02  0.80549480405E+02  0.00000000000E+00 0.  1.
         14    1    3    3    0    0  0.33092572481E+02 -0.26607606655E+03 -0.10906125942E+03  0.28945802779E+03  0.00000000000E+00 0. -1.
          5    1    5    5  501    0  0.12158987858E+02  0.24652908918E+02  0.17475840604E+02  0.32910513649E+02  0.47000000000E+01 0.  1.
         -5    1    5    5    0  501 -0.13839969304E+03  0.25891497275E+03  0.67971991376E+03  0.74042736937E+03  0.47000000000E+01 0. -1.
          1    1    1    2  502    0  0.51845892652E+02 -0.18566166781E+02  0.18608131415E+04  0.18616278486E+04  0.00000000000E+00 0. -1.
          1    1    1    2  503    0 -0.97062820708E+02  0.14664386845E+03 -0.71951414958E+03  0.74069307190E+03  0.00000000000E+00 0. -1.
<mgrwt>
<rscale>  0 0.79557509E+02</rscale>
<asrwt>0</asrwt>
<pdfrwt beam="1">  1        2 0.40944838E+00 0.55069948E+02</pdfrwt>
<pdfrwt beam="2">  1        2 0.16504787E+00 0.11493378E+03</pdfrwt>
<totfact> 0.15908320E+01</totfact>
</mgrwt>
</event>
<event>
13    1  0.1942437E-008  0.1520777E+03  0.7546771E-02  0.1341985E+00
          2   -1    0    0  503    0  0.00000000000E+00  0.00000000000E+00  0.30658905024E+04  0.30658905024E+04  0.00000000000E+00 0. -1.
          2   -1    0    0  502    0 -0.00000000000E+00 -0.00000000000E+00 -0.22414384965E+04  0.22414384965E+04  0.00000000000E+00 0. -1.
         24    2    1    2    0    0 -0.47002015727E+02  0.12312559695E+03 -0.60963033058E+03  0.62890313108E+03  0.80628197344E+02 0.  0.
         24    2    1    2    0    0 -0.84127913162E+01 -0.94519231159E+02 -0.33108843458E+03  0.35421042894E+03  0.82709227656E+02 0.  0.
         25    2    1    2    0    0  0.54245879543E+02  0.11055783846E+03 -0.46147496400E+02  0.18144022150E+03  0.12500124584E+03 0.  0.
        -13    1    3    3    0    0 -0.80233417948E+01 -0.84488770170E+01 -0.17115845671E+02  0.20705306311E+02  0.00000000000E+00 0.  1.
         14    1    3    3    0    0 -0.38978673932E+02  0.13157447397E+03 -0.59251448491E+03  0.60819782477E+03  0.00000000000E+00 0. -1.
        -13    1    4    4    0    0  0.24901040834E+02 -0.15896928240E+02 -0.16322714180E+03  0.16587909447E+03  0.00000000000E+00 0.  1.
         14    1    4    4    0    0 -0.33313832150E+02 -0.78622302919E+02 -0.16786129278E+03  0.18833133447E+03  0.00000000000E+00 0. -1.
          5    1    5    5  501    0  0.72060791368E+02  0.10530473418E+03 -0.74041009289E+02  0.14760083248E+03  0.47000000000E+01 0. -1.
         -5    1    5    5    0  501 -0.17814911825E+02  0.52531042819E+01  0.27893512888E+02  0.33839389019E+02  0.47000000000E+01 0. -1.
          1    1    1    2  502    0 -0.36445871896E+02  0.92212047873E+01 -0.11634568466E+04  0.11640640730E+04  0.00000000000E+00 0. -1.
          1    1    1    2  503    0  0.37614799395E+02 -0.14838540904E+03  0.29747751140E+04  0.29787111444E+04  0.00000000000E+00 0. -1.
<mgrwt>
<rscale>  0 0.75612535E+02</rscale>
<asrwt>0</asrwt>
<pdfrwt beam="1">  1        2 0.45086625E+00 0.15207768E+03</pdfrwt>
<pdfrwt beam="2">  1        2 0.32962331E+00 0.37594311E+02</pdfrwt>
<totfact> 0.30791564E+00</totfact>
</mgrwt>
</event>
<event>
13    1  0.1942437E-008  0.1453277E+03  0.7546771E-02  0.1341161E+00
          2   -1    0    0  503    0  0.00000000000E+00  0.00000000000E+00  0.66623253852E+03  0.66623253852E+03  0.00000000000E+00 0. -1.
          2   -1    0    0  502    0 -0.00000000000E+00 -0.00000000000E+00 -0.10867764287E+04  0.10867764287E+04  0.00000000000E+00 0. -1.
         24    2    1    2    0    0 -0.10767069787E+02  0.13905717042E+03 -0.48433527461E+03  0.51026013668E+03  0.79573377539E+02 0.  0.
         24    2    1    2    0    0  0.42224167198E+01  0.13014432882E+02  0.15468648159E+02  0.83221831648E+02  0.80618793843E+02 0.  0.
         25    2    1    2    0    0  0.93492043981E+02  0.15386935638E+02  0.16529742272E+03  0.22787364073E+03  0.12500255240E+03 0.  0.
        -11    1    4    4    0    0  0.32977613889E+02 -0.19028976223E+02  0.12468237112E+02  0.40063473271E+02  0.00000000000E+00 0.  1.
         12    1    4    4    0    0 -0.28755197169E+02  0.32043409105E+02  0.30004110472E+01  0.43158358376E+02  0.00000000000E+00 0. -1.
        -13    1    3    3    0    0  0.19974495713E+02  0.84056016380E+01 -0.33745154046E+02  0.40104489019E+02  0.00000000000E+00 0.  1.
         14    1    3    3    0    0 -0.30741565500E+02  0.13065156879E+03 -0.45059012057E+03  0.47015564766E+03  0.00000000000E+00 0. -1.
          5    1    5    5  501    0  0.29574197945E+02  0.38264899325E+02 -0.56604407173E+00  0.48592654901E+02  0.47000000000E+01 0.  1.
         -5    1    5    5    0  501  0.63917846036E+02 -0.22877963687E+02  0.16586346679E+03  0.17928098583E+03  0.47000000000E+01 0.  1.
          1    1    1    2  502    0 -0.97838088069E+02 -0.20555366633E+03 -0.49852908362E+03  0.54804730493E+03  0.00000000000E+00 0. -1.
          1    1    1    2  503    0  0.10890697154E+02  0.38095127386E+02  0.38155439722E+03  0.38360605320E+03  0.00000000000E+00 0. -1.
<mgrwt>
<rscale>  0 0.75881941E+02</rscale>
<asrwt>0</asrwt>
<pdfrwt beam="1">  1        2 0.97975376E-01 0.39621282E+02</pdfrwt>
<pdfrwt beam="2">  1        2 0.15982006E+00 0.14532768E+03</pdfrwt>
<totfact> 0.19769150E+02</totfact>
</mgrwt>
</event>
<event>
13    1  0.1942437E-008  0.7522545E+02  0.7546771E-02  0.1387339E+00
         -1   -1    0    0    0  501 -0.00000000000E+00  0.00000000000E+00  0.30195148144E+03  0.30195148144E+03  0.00000000000E+00 0.  1.
          2   -1    0    0  503    0  0.00000000000E+00 -0.00000000000E+00 -0.17062111088E+04  0.17062111088E+04  0.00000000000E+00 0. -1.
         24    2    1    2    0    0  0.11789138440E+03 -0.12908721174E+02  0.82422596733E+02  0.16701576254E+03  0.83879478347E+02 0.  0.
         24    2    1    2    0    0 -0.12677465541E+03 -0.24262356339E+01 -0.52274519264E+02  0.16094906276E+03  0.84227522621E+02 0.  0.
         25    2    1    2    0    0 -0.58968943059E+02  0.88633846425E+02 -0.52795304446E+03  0.55289701584E+03  0.12500959163E+03 0.  0.
        -13    1    4    4    0    0 -0.13218410817E+03  0.10218938654E+01 -0.27057442071E+02  0.13492882528E+03  0.00000000000E+00 0.  1.
         14    1    4    4    0    0  0.54094527675E+01 -0.34481294993E+01 -0.25217077193E+02  0.26020237479E+02  0.00000000000E+00 0. -1.
        -13    1    3    3    0    0  0.10748011565E+03 -0.41202844878E+02  0.64744597694E+02  0.13206631901E+03  0.00000000000E+00 0.  1.
         14    1    3    3    0    0  0.10411268744E+02  0.28294123703E+02  0.17677999039E+02  0.34949443529E+02  0.00000000000E+00 0. -1.
          5    1    5    5  502    0  0.41839246516E+01 -0.29142389422E+02 -0.11678467474E+03  0.12053022169E+03  0.47000000000E+01 0. -1.
         -5    1    5    5    0  502 -0.63152867711E+02  0.11777623585E+03 -0.41116836972E+03  0.43236679416E+03  0.47000000000E+01 0. -1.
          1    1    1    2  503    0  0.72029762538E+02 -0.21417422163E+02 -0.10092687271E+04  0.10120624270E+04  0.00000000000E+00 0. -1.
         -2    1    1    2    0  501 -0.41775484692E+01 -0.51881467453E+02  0.10281406669E+03  0.11523832212E+03  0.00000000000E+00 0.  1.
<mgrwt>
<rscale>  0 0.62573463E+02</rscale>
<asrwt>0</asrwt>
<pdfrwt beam="2">  1        2 0.25091339E+00 0.75225447E+02</pdfrwt>
<pdfrwt beam="1">  1       -1 0.44404631E-01 0.52049386E+02</pdfrwt>
<totfact> 0.76647908E+01</totfact>
</mgrwt>
</event>
<event>
13    1  0.1942437E-008  0.3359804E+02  0.7546771E-02  0.1589924E+00
          2   -1    0    0  502    0  0.00000000000E+00  0.00000000000E+00  0.65451014382E+03  0.65451014382E+03  0.00000000000E+00 0. -1.
          2   -1    0    0  503    0 -0.00000000000E+00 -0.00000000000E+00 -0.31803751742E+04  0.31803751742E+04  0.00000000000E+00 0. -1.
         24    2    1    2    0    0 -0.57823603881E+03  0.43440692297E+03 -0.89562635739E+03  0.11539634160E+04  0.80116802456E+02 0.  0.
         24    2    1    2    0    0  0.47247904975E+03 -0.37988396014E+03 -0.53490471970E+03  0.81303713271E+03  0.85779044010E+02 0.  0.
         25    2    1    2    0    0  0.10444409991E+03 -0.33835732127E+02  0.17627786445E+03  0.24238989654E+03  0.12500219867E+03 0.  0.
        -11    1    4    4    0    0  0.12574102579E+03 -0.60012222559E+02 -0.14409007643E+03  0.20043508313E+03  0.00000000000E+00 0.  1.
         12    1    4    4    0    0  0.34673802396E+03 -0.31987173758E+03 -0.39081464327E+03  0.61260204959E+03  0.00000000000E+00 0. -1.
        -13    1    3    3    0    0 -0.79525173866E+02  0.90538351661E+02 -0.17622029407E+03  0.21348311044E+03  0.00000000000E+00 0.  1.
         14    1    3    3    0    0 -0.49871086495E+03  0.34386857131E+03 -0.71940606332E+03  0.94048030553E+03  0.00000000000E+00 0. -1.
          5    1    5    5  501    0  0.56697419712E+02  0.22011676266E+02  0.11727095287E+02  0.62118645010E+02  0.47000000000E+01 0.  1.
         -5    1    5    5    0  501  0.47746680200E+02 -0.55847408392E+02  0.16455076917E+03  0.18027125153E+03  0.47000000000E+01 0.  1.
          1    1    1    2  502    0 -0.26830499467E+02 -0.20256561185E+02  0.17520655063E+03  0.17840274481E+03  0.00000000000E+00 0. -1.
          1    1    1    2  503    0  0.28143388619E+02 -0.43066951917E+00 -0.14468183684E+04  0.14470921280E+04  0.00000000000E+00 0. -1.
<mgrwt>
<rscale>  0 0.30751804E+02</rscale>
<asrwt>0</asrwt>
<pdfrwt beam="1">  1        2 0.96251490E-01 0.33598042E+02</pdfrwt>
<pdfrwt beam="2">  1        2 0.46770224E+00 0.28146684E+02</pdfrwt>
<totfact> 0.22796885E+01</totfact>
</mgrwt>
</event>
<event>
13    1  0.1942437E-008  0.7267956E+02  0.7546771E-02  0.1391294E+00
         -3   -1    0    0    0  501 -0.00000000000E+00  0.00000000000E+00  0.44598805990E+03  0.44598805990E+03  0.00000000000E+00 0.  1.
          2   -1    0    0  503    0  0.00000000000E+00 -0.00000000000E+00 -0.94483009082E+03  0.94483009082E+03  0.00000000000E+00 0. -1.
         24    2    1    2    0    0  0.57585590963E+02 -0.34101176549E+02 -0.11879301457E+02  0.10432560746E+03  0.79143692363E+02 0.  0.
         24    2    1    2    0    0 -0.71195601990E+02  0.60740807381E+02 -0.10025885194E+03  0.15937673735E+03  0.81184035315E+02 0.  0.
         25    2    1    2    0    0  0.46347959308E+02 -0.11508898460E+02 -0.15102518003E+03  0.20177384269E+03  0.12499396191E+03 0.  0.
        -11    1    4    4    0    0 -0.41741528082E+02 -0.62985757286E+01 -0.66447646574E+02  0.78723039563E+02  0.00000000000E+00 0.  1.
         12    1    4    4    0    0 -0.29454073909E+02  0.67039383110E+02 -0.33811205368E+02  0.80653697782E+02  0.00000000000E+00 0. -1.
        -13    1    3    3    0    0  0.77515142650E+02 -0.24988198795E+02 -0.61518654798E+01  0.81675289213E+02  0.00000000000E+00 0.  1.
         14    1    3    3    0    0 -0.19929551687E+02 -0.91129777532E+01 -0.57274359776E+01  0.22650318251E+02  0.00000000000E+00 0. -1.
          5    1    5    5  502    0  0.42370514581E+02 -0.39168410624E+02 -0.16150040798E+03  0.17156309823E+03  0.47000000000E+01 0. -1.
         -5    1    5    5    0  502  0.39774447263E+01  0.27659512164E+02  0.10475227956E+02  0.30210744453E+02  0.47000000000E+01 0. -1.
          1    1    1    2  503    0 -0.30220777513E+02 -0.67255546274E+02 -0.57617304473E+03  0.58087174262E+03  0.00000000000E+00 0. -1.
         -4    1    1    2    0  501 -0.25171707673E+01  0.52124813902E+02  0.34049434725E+03  0.34447022060E+03  0.00000000000E+00 0.  1.
<mgrwt>
<rscale>  0 0.61585901E+02</rscale>
<asrwt>0</asrwt>
<pdfrwt beam="2">  1        2 0.13894560E+00 0.72679556E+02</pdfrwt>
<pdfrwt beam="1">  1       -3 0.65586480E-01 0.52185557E+02</pdfrwt>
<totfact> 0.42972505E+01</totfact>
</mgrwt>
</event>
<event>
13    1  0.1942437E-008  0.1627453E+03  0.7546771E-02  0.1191730E+00
          2   -1    0    0  503    0  0.00000000000E+00  0.00000000000E+00  0.20218577217E+04  0.20218577217E+04  0.00000000000E+00 0. -1.
          2   -1    0    0  502    0 -0.00000000000E+00 -0.00000000000E+00 -0.18364726659E+04  0.18364726659E+04  0.00000000000E+00 0. -1.
         24    2    1    2    0    0 -0.19409756066E+03  0.11819204279E+03 -0.59753152813E+03  0.64527946245E+03  0.87740728914E+02 0.  0.
         24    2    1    2    0    0 -0.99917989627E+02 -0.22316660926E+03  0.53317486539E+02  0.26048092766E+03  0.72253852255E+02 0.  0.
         25    2    1    2    0    0  0.15252802013E+03  0.14997797459E+03  0.71505193122E+03  0.75675749722E+03  0.12499782189E+03 0.  0.
        -11    1    4    4    0    0 -0.11091236517E+03 -0.19202141378E+03  0.43037634871E+02  0.22588938468E+03  0.00000000000E+00 0.  1.
         12    1    4    4    0    0  0.10994375548E+02 -0.31145195481E+02  0.10279851668E+02  0.34591542978E+02  0.00000000000E+00 0. -1.
        -13    1    3    3    0    0 -0.36625467837E+02  0.69537666849E+02 -0.18115518751E+03  0.19746927348E+03  0.00000000000E+00 0.  1.
         14    1    3    3    0    0 -0.15747209283E+03  0.48654375938E+02 -0.41637634062E+03  0.44781018897E+03  0.00000000000E+00 0. -1.
          5    1    5    5  501    0  0.10688843413E+03  0.10204264013E+03  0.27965497554E+03  0.31633342078E+03  0.47000000000E+01 0. -1.
         -5    1    5    5    0  501  0.45639586001E+02  0.47935334458E+02  0.43539695568E+03  0.44042407645E+03  0.47000000000E+01 0. -1.
          1    1    1    2  502    0  0.12412855083E+03  0.10612232542E+03 -0.10792258569E+04  0.10915119309E+04  0.00000000000E+00 0. -1.
          1    1    1    2  503    0  0.17358979334E+02 -0.15112573354E+03  0.10937730230E+04  0.11043005693E+04  0.00000000000E+00 0. -1.
<mgrwt>
<rscale>  0 0.15734270E+03</rscale>
<asrwt>0</asrwt>
<pdfrwt beam="1">  1        2 0.29733202E+00 0.15211943E+03</pdfrwt>
<pdfrwt beam="2">  1        2 0.27006951E+00 0.16274531E+03</pdfrwt>
<totfact> 0.14005516E+01</totfact>
</mgrwt>
</event>
<event>
13    1  0.1942437E-008  0.3578631E+03  0.7546771E-02  0.1197582E+00
          2   -1    0    0  503    0  0.00000000000E+00  0.00000000000E+00  0.10376529062E+04  0.10376529062E+04  0.00000000000E+00 0. -1.
          2   -1    0    0  502    0 -0.00000000000E+00 -0.00000000000E+00 -0.22808510332E+04  0.22808510332E+04  0.00000000000E+00 0. -1.
         24    2    1    2    0    0 -0.43234542821E+03 -0.83118490714E+02 -0.18422156229E+03  0.48406243961E+03  0.80917294996E+02 0.  0.
         24    2    1    2    0    0  0.47636334054E+02  0.37328221693E+03  0.14343814998E+03  0.41177066005E+03  0.85858836529E+02 0.  0.
         25    2    1    2    0    0  0.20505784196E+03  0.72337948309E+02  0.29217135678E+03  0.38505873622E+03  0.12499852522E+03 0.  0.
        -13    1    3    3    0    0 -0.79264245580E+02  0.16093725542E+02 -0.33113928927E+02  0.87397716894E+02  0.00000000000E+00 0.  1.
         14    1    3    3    0    0 -0.35308118263E+03 -0.99212216256E+02 -0.15110763337E+03  0.39666472271E+03  0.00000000000E+00 0. -1.
        -13    1    4    4    0    0  0.22145716995E+02  0.36768300417E+02  0.40319833638E+02  0.58889979466E+02  0.00000000000E+00 0.  1.
         14    1    4    4    0    0  0.25490617059E+02  0.33651391652E+03  0.10311831634E+03  0.35288068059E+03  0.00000000000E+00 0. -1.
          5    1    5    5  501    0  0.20849738389E+03  0.83988748435E+02  0.29579365572E+03  0.37153902314E+03  0.47000000000E+01 0. -1.
         -5    1    5    5    0  501 -0.34395419344E+01 -0.11650800126E+02 -0.36222989378E+01  0.13519713085E+02  0.47000000000E+01 0. -1.
          1    1    1    2  502    0  0.19016321769E+03 -0.29847721269E+03 -0.17441799390E+04  0.17797231121E+04  0.00000000000E+00 0. -1.
          1    1    1    2  503    0 -0.10511965487E+02 -0.64024461840E+02  0.24959386760E+03  0.25788899138E+03  0.00000000000E+00 0. -1.
<mgrwt>
<rscale>  0 0.15237703E+03</rscale>
<asrwt>0</asrwt>
<pdfrwt beam="1">  1        2 0.15259602E+00 0.64881686E+02</pdfrwt>
<pdfrwt beam="2">  1        2 0.33541927E+00 0.35786307E+03</pdfrwt>
<totfact> 0.25904952E+01</totfact>
</mgrwt>
</event>
<event>
13    1  0.1942437E-008  0.2746661E+02  0.7546771E-02  0.1695418E+00
          2   -1    0    0  502    0  0.00000000000E+00  0.00000000000E+00  0.45201385433E+03  0.45201385433E+03  0.00000000000E+00 0. -1.
          2   -1    0    0  503    0 -0.00000000000E+00 -0.00000000000E+00 -0.83708689991E+03  0.83708689991E+03  0.00000000000E+00 0. -1.
         24    2    1    2    0    0  0.33462056810E+02 -0.92709042932E+02 -0.18493516581E+03  0.22512023973E+03  0.82240080823E+02 0.  0.
         24    2    1    2    0    0 -0.15414265789E+03  0.52664795372E+02 -0.45668174598E+03  0.49149359070E+03  0.80462369687E+02 0.  0.
         25    2    1    2    0    0  0.12899238972E+03  0.42831987692E+02  0.16982860442E+03  0.25088021329E+03  0.12500204304E+03 0.  0.
        -13    1    4    4    0    0 -0.39516294157E+02 -0.11596227587E+02 -0.53997885104E+02  0.67910099351E+02  0.00000000000E+00 0.  1.
         14    1    4    4    0    0 -0.11462636374E+03  0.64261022959E+02 -0.40268386088E+03  0.42358349135E+03  0.00000000000E+00 0. -1.
        -13    1    3    3    0    0  0.24515221913E+02 -0.11741956163E+02 -0.50458923994E+01  0.27646530887E+02  0.00000000000E+00 0.  1.
         14    1    3    3    0    0  0.89468348971E+01 -0.80967086768E+02 -0.17988927341E+03  0.19747370884E+03  0.00000000000E+00 0. -1.
          5    1    5    5  501    0 -0.22409370841E+02 -0.83803462516E+01  0.28185883063E+02  0.37268540470E+02  0.47000000000E+01 0. -1.
         -5    1    5    5    0  501  0.15140176057E+03  0.51212333944E+02  0.14164272136E+03  0.21361167282E+03  0.47000000000E+01 0. -1.
          1    1    1    2  502    0  0.18445783470E+02  0.39362461790E+01  0.20209551454E+03  0.20297373711E+03  0.00000000000E+00 0. -1.
          1    1    1    2  503    0 -0.26757572111E+02 -0.67239863118E+01 -0.11538025274E+03  0.11863297341E+03  0.00000000000E+00 0. -1.
<mgrwt>
<rscale>  0 0.22760720E+02</rscale>
<asrwt>0</asrwt>
<pdfrwt beam="1">  1        2 0.66472626E-01 0.18861097E+02</pdfrwt>
<pdfrwt beam="2">  1        2 0.12310101E+00 0.27466608E+02</pdfrwt>
<totfact> 0.44697023E+02</totfact>
</mgrwt>
</event>
<event>
13    1  0.1942437E-008  0.1042415E+03  0.7546771E-02  0.1446111E+00
          2   -1    0    0  503    0  0.00000000000E+00  0.00000000000E+00  0.24751638104E+04  0.24751638104E+04  0.00000000000E+00 0. -1.
          2   -1    0    0  502    0 -0.00000000000E+00 -0.00000000000E+00 -0.12097056243E+04  0.12097056243E+04  0.00000000000E+00 0. -1.
         24    2    1    2    0    0  0.15965028806E+03 -0.32298983740E+02 -0.31360126111E+03  0.36253526543E+03  0.80960662532E+02 0.  0.
         24    2    1    2    0    0 -0.14771509443E+03  0.10113861003E+03 -0.68505451070E+01  0.19589535897E+03  0.79241997302E+02 0.  0.
         25    2    1    2    0    0  0.62076079350E+02 -0.12940038659E+03  0.20842481421E+04  0.20929199886E+04  0.12500344550E+03 0.  0.
        -11    1    3    3    0    0  0.50935905266E+02  0.24747101236E+02 -0.72698571371E+02  0.92151873254E+02  0.00000000000E+00 0.  1.
         12    1    3    3    0    0  0.10871438279E+03 -0.57046084976E+02 -0.24090268974E+03  0.27038339217E+03  0.00000000000E+00 0. -1.
        -13    1    4    4    0    0 -0.12195309058E+02 -0.10718041450E+02 -0.11856278313E+02  0.20104062051E+02  0.00000000000E+00 0.  1.
         14    1    4    4    0    0 -0.13551978537E+03  0.11185665148E+03  0.50057332057E+01  0.17579129691E+03  0.00000000000E+00 0. -1.
          5    1    5    5  501    0  0.80985635598E+02 -0.56242769876E+02  0.15732746597E+04  0.15763683476E+04  0.47000000000E+01 0.  1.
         -5    1    5    5    0  501 -0.18909556247E+02 -0.73157616716E+02  0.51097348236E+03  0.51655164105E+03  0.47000000000E+01 0.  1.
          1    1    1    2  502    0 -0.93297313517E+02  0.46535754406E+02 -0.76183960487E+03  0.76894053651E+03  0.00000000000E+00 0. -1.
          1    1    1    2  503    0  0.19286040536E+02  0.14025005899E+02  0.26350145503E+03  0.26457828511E+03  0.00000000000E+00 0. -1.
<mgrwt>
<rscale>  0 0.49857665E+02</rscale>
<asrwt>0</asrwt>
<pdfrwt beam="1">  1        2 0.36399468E+00 0.23846428E+02</pdfrwt>
<pdfrwt beam="2">  1        2 0.17789789E+00 0.10424147E+03</pdfrwt>
<totfact> 0.23024949E+01</totfact>
</mgrwt>
</event>
<event>
13    1  0.1942437E-008  0.6346761E+02  0.7546771E-02  0.1387644E+00
          2   -1    0    0  503    0  0.00000000000E+00  0.00000000000E+00  0.80186796253E+03  0.80186796253E+03  0.00000000000E+00 0. -1.
         -3   -1    0    0    0  501 -0.00000000000E+00 -0.00000000000E+00 -0.20461952139E+04  0.20461952139E+04  0.00000000000E+00 0.  1.
         24    2    1    2    0    0 -0.34917498231E+03 -0.29896358760E+03 -0.86060864151E+03  0.97874113379E+03  0.77360055342E+02 0.  0.
         24    2    1    2    0    0  0.45855166110E+03  0.24565301106E+03 -0.43818020398E+03  0.68738066278E+03  0.99374326009E+02 0.  0.
         25    2    1    2    0    0 -0.49363814734E+02 -0.18548576188E+02  0.28517842666E+02  0.13863492908E+03  0.12500216129E+03 0.  0.
        -11    1    3    3    0    0 -0.23401697812E+03 -0.17776120876E+03 -0.61530522709E+03  0.68188233286E+03  0.00000000000E+00 0.  1.
         12    1    3    3    0    0 -0.11515800418E+03 -0.12120237884E+03 -0.24530341442E+03  0.29685880093E+03  0.00000000000E+00 0. -1.
        -11    1    4    4    0    0  0.46192954836E+02  0.20306044091E+02 -0.95758786687E+01  0.51359730873E+02  0.00000000000E+00 0.  1.
         12    1    4    4    0    0  0.41235870626E+03  0.22534696697E+03 -0.42860432531E+03  0.63602093191E+03  0.00000000000E+00 0. -1.
          5    1    5    5  502    0 -0.52356213343E+02 -0.63277202750E+02  0.40929443260E+02  0.91883005986E+02  0.47000000000E+01 0.  1.
         -5    1    5    5    0  502  0.29923986084E+01  0.44728626562E+02 -0.12411600593E+02  0.46751923093E+02  0.47000000000E+01 0.  1.
          1    1    1    2  503    0 -0.60956305075E+02  0.84557536132E+01  0.53086450154E+03  0.53441958225E+03  0.00000000000E+00 0. -1.
         -4    1    1    2    0  501  0.94344101665E+00  0.63403399109E+02 -0.50492075012E+03  0.50888686857E+03  0.00000000000E+00 0.  1.
<mgrwt>
<rscale>  0 0.62496370E+02</rscale>
<asrwt>0</asrwt>
<pdfrwt beam="1">  1        2 0.11792176E+00 0.61539994E+02</pdfrwt>
<pdfrwt beam="2">  1       -3 0.30091106E+00 0.63467608E+02</pdfrwt>
<totfact> 0.11815927E+00</totfact>
</mgrwt>
</event>
<event>
13    1  0.1942437E-008  0.7406158E+02  0.7546771E-02  0.1386603E+00
          2   -1    0    0  503    0  0.00000000000E+00  0.00000000000E+00  0.29914721107E+03  0.29914721107E+03  0.00000000000E+00 0. -1.
          2   -1    0    0  502    0 -0.00000000000E+00 -0.00000000000E+00 -0.88884255134E+03  0.88884255134E+03  0.00000000000E+00 0. -1.
         24    2    1    2    0    0  0.49886905568E+02  0.11394025771E+02 -0.11056267969E+03  0.14446832647E+03  0.77643184137E+02 0.  0.
         24    2    1    2    0    0  0.25149193949E+02  0.25178218928E+02 -0.11868143007E+03  0.14873851421E+03  0.82288754399E+02 0.  0.
         25    2    1    2    0    0 -0.20038982572E+03 -0.47862570065E+02 -0.78498658279E+02  0.25344343550E+03  0.12499851111E+03 0.  0.
        -11    1    4    4    0    0  0.38067380888E+02  0.35340713629E+02 -0.12143059260E+03  0.13207376858E+03  0.00000000000E+00 0.  1.
         12    1    4    4    0    0 -0.12918186938E+02 -0.10162494701E+02  0.27491625275E+01  0.16664745631E+02  0.00000000000E+00 0. -1.
        -13    1    3    3    0    0  0.10809159531E+01  0.24939620142E+02 -0.24551672340E+01  0.25083478193E+02  0.00000000000E+00 0.  1.
         14    1    3    3    0    0  0.48805989615E+02 -0.13545594371E+02 -0.10810751245E+03  0.11938484828E+03  0.00000000000E+00 0. -1.
          5    1    5    5  501    0 -0.81276811450E+02  0.12893897885E+02  0.22918528802E+02  0.85554202962E+02  0.47000000000E+01 0. -1.
         -5    1    5    5    0  501 -0.11911301427E+03 -0.60756467950E+02 -0.10141718708E+03  0.16788923254E+03  0.47000000000E+01 0. -1.
          1    1    1    2  502    0  0.72207755040E+02  0.93301512405E+01 -0.45475083206E+03  0.46054243113E+03  0.00000000000E+00 0. -1.
          1    1    1    2  503    0  0.53145971163E+02  0.19601741252E+01  0.17279825983E+03  0.18079705510E+03  0.00000000000E+00 0. -1.
<mgrwt>
<rscale>  0 0.62759469E+02</rscale>
<asrwt>0</asrwt>
<pdfrwt beam="1">  1        2 0.43992236E-01 0.53182107E+02</pdfrwt>
<pdfrwt beam="2">  1        2 0.13071214E+00 0.74061582E+02</pdfrwt>
<totfact> 0.61002912E+02</totfact>
</mgrwt>
</event>
<event>
13    1  0.1942437E-008  0.4884300E+02  0.7546771E-02  0.1630141E+00
          2   -1    0    0  503    0  0.00000000000E+00  0.00000000000E+00  0.43848980737E+03  0.43848980737E+03  0.00000000000E+00 0. -1.
         -1   -1    0    0    0  501 -0.00000000000E+00 -0.00000000000E+00 -0.23974011808E+04  0.23974011808E+04  0.00000000000E+00 0.  1.
         24    2    1    2    0    0 -0.61458573298E+02  0.24227778717E+02 -0.71362790172E+03  0.72123416410E+03  0.80930809115E+02 0.  0.
         24    2    1    2    0    0  0.89245671005E+02 -0.67082293136E+02 -0.47259545536E+03  0.49225986693E+03  0.80675202590E+02 0.  0.
         25    2    1    2    0    0  0.44425210221E+01  0.30722666504E+02  0.40171119929E+03  0.42185414455E+03  0.12500165363E+03 0.  0.
        -13    1    3    3    0    0 -0.26246001465E+02 -0.93290917237E+01 -0.54551732480E+03  0.54622800753E+03  0.00000000000E+00 0.  1.
         14    1    3    3    0    0 -0.35212571833E+02  0.33556870441E+02 -0.16811057691E+03  0.17500615657E+03  0.00000000000E+00 0. -1.
        -13    1    4    4    0    0  0.85122938430E+02 -0.69927766425E+02 -0.29992116239E+03  0.31951292746E+03  0.00000000000E+00 0.  1.
         14    1    4    4    0    0  0.41227325746E+01  0.28454732888E+01 -0.17267429298E+03  0.17274693947E+03  0.00000000000E+00 0. -1.
          5    1    5    5  502    0 -0.24671457551E+02 -0.40846010189E+02  0.10899230536E+03  0.11907346469E+03  0.47000000000E+01 0. -1.
         -5    1    5    5    0  502  0.29113978574E+02  0.71568676694E+02  0.29271889393E+03  0.30278067985E+03  0.47000000000E+01 0. -1.
          1    1    1    2  503    0  0.15237256527E+02  0.54596444912E+00  0.79426531717E+01  0.17191794643E+02  0.00000000000E+00 0. -1.
         -2    1    1    2    0  501 -0.47466875256E+02  0.11585883466E+02 -0.11823418688E+04  0.11833510179E+04  0.00000000000E+00 0.  1.
<mgrwt>
<rscale>  0 0.27289392E+02</rscale>
<asrwt>0</asrwt>
<pdfrwt beam="1">  1        2 0.64483797E-01 0.15247035E+02</pdfrwt>
<pdfrwt beam="2">  1       -1 0.35255899E+00 0.48843000E+02</pdfrwt>
<totfact> 0.20355450E+00</totfact>
</mgrwt>
</event>
<event>
13    1  0.1942437E-008  0.6122812E+02  0.7546771E-02  0.1401060E+00
          2   -1    0    0  502    0  0.00000000000E+00  0.00000000000E+00  0.28534563914E+04  0.28534563914E+04  0.00000000000E+00 0. -1.
          2   -1    0    0  503    0 -0.00000000000E+00 -0.00000000000E+00 -0.29963554057E+04  0.29963554057E+04  0.00000000000E+00 0. -1.
         24    2    1    2    0    0 -0.36249886191E+02 -0.54665182883E+02 -0.64861574848E+03  0.65699067739E+03  0.81437242934E+02 0.  0.
         24    2    1    2    0    0 -0.23272168604E+02  0.53486663030E+01 -0.11349941398E+03  0.14368516376E+03  0.84812188088E+02 0.  0.
         25    2    1    2    0    0 -0.55712541488E+02  0.32702698930E+02  0.16856982375E+03  0.21958855706E+03  0.12501997887E+03 0.  0.
        -13    1    3    3    0    0 -0.34942183063E+02  0.11994607477E+02 -0.27532979615E+03  0.27779727035E+03  0.00000000000E+00 0.  1.
         14    1    3    3    0    0 -0.13077031286E+01 -0.66659790361E+02 -0.37328595233E+03  0.37919340705E+03  0.00000000000E+00 0. -1.
        -13    1    4    4    0    0 -0.29861833125E+02  0.39564584032E+02 -0.86135488344E+02  0.99380117425E+02  0.00000000000E+00 0.  1.
         14    1    4    4    0    0  0.65896645208E+01 -0.34215917729E+02 -0.27363925635E+02  0.44305046334E+02  0.00000000000E+00 0. -1.
          5    1    5    5  501    0  0.23971533834E+02  0.28822318140E+02  0.57545325717E+01  0.38217340337E+02  0.47000000000E+01 0.  1.
         -5    1    5    5    0  501 -0.79684075322E+02  0.38803807897E+01  0.16281529118E+03  0.18137121672E+03  0.47000000000E+01 0.  1.
          1    1    1    2  502    0  0.54151171388E+02  0.18768837647E+02  0.26393591473E+04  0.26399813118E+04  0.00000000000E+00 0. -1.
          1    1    1    2  503    0  0.61083424896E+02 -0.21550199963E+01 -0.21887128228E+04  0.21895660871E+04  0.00000000000E+00 0. -1.
<mgrwt>
<rscale>  0 0.59237496E+02</rscale>
<asrwt>0</asrwt>
<pdfrwt beam="1">  1        2 0.41962594E+00 0.57311592E+02</pdfrwt>
<pdfrwt beam="2">  1        2 0.44064050E+00 0.61228118E+02</pdfrwt>
<totfact> 0.18416431E+00</totfact>
</mgrwt>
</event>
<event>
13    1  0.1942437E-008  0.1190436E+03  0.7546771E-02  0.1363478E+00
          2   -1    0    0  503    0  0.00000000000E+00  0.00000000000E+00  0.21276073312E+04  0.21276073312E+04  0.00000000000E+00 0. -1.
         -3   -1    0    0    0  501 -0.00000000000E+00 -0.00000000000E+00 -0.52795156813E+03  0.52795156813E+03  0.00000000000E+00 0.  1.
         24    2    1    2    0    0 -0.18442777434E+02  0.78810250343E+02  0.89507975451E+02  0.14322910580E+03  0.77147310255E+02 0.  0.
         24    2    1    2    0    0  0.84094366574E+02 -0.99297329337E+01  0.90183221785E+02  0.14711613025E+03  0.79622108757E+02 0.  0.
         25    2    1    2    0    0 -0.50468128832E+02  0.80303686294E+02  0.83599383072E+03  0.85059179308E+03  0.12499999760E+03 0.  0.
        -11    1    3    3    0    0 -0.30918998028E+02  0.52283996224E+02  0.95622883804E+02  0.11328431757E+03  0.00000000000E+00 0.  1.
         12    1    3    3    0    0  0.12476220594E+02  0.26526254119E+02 -0.61149083526E+01  0.29944788228E+02  0.00000000000E+00 0. -1.
        -11    1    4    4    0    0  0.43963246409E+02  0.18473917100E+02  0.85278814945E+02  0.97706340256E+02  0.00000000000E+00 0.  1.
         12    1    4    4    0    0  0.40131120165E+02 -0.28403650034E+02  0.49044068403E+01  0.49409789995E+02  0.00000000000E+00 0. -1.
          5    1    5    5  502    0  0.10535480364E+02 -0.27046561381E+02  0.24926561716E+03  0.25099392567E+03  0.47000000000E+01 0.  1.
         -5    1    5    5    0  502 -0.61003609195E+02  0.10735024768E+03  0.58672821356E+03  0.59959786741E+03  0.47000000000E+01 0.  1.
          1    1    1    2  503    0 -0.26096487431E+02 -0.30328122366E+02  0.10412520626E+04  0.10420204794E+04  0.00000000000E+00 0. -1.
         -4    1    1    2    0  501  0.10913027123E+02 -0.11885608134E+03 -0.45728132741E+03  0.47260139085E+03  0.00000000000E+00 0.  1.
<mgrwt>
<rscale>  0 0.69014257E+02</rscale>
<asrwt>0</asrwt>
<pdfrwt beam="1">  1        2 0.31288343E+00 0.40010269E+02</pdfrwt>
<pdfrwt beam="2">  1       -3 0.77639937E-01 0.11904363E+03</pdfrwt>
<totfact> 0.85966942E+00</totfact>
</mgrwt>
</event>
<event>
13    1  0.1942437E-008  0.8988669E+02  0.7546771E-02  0.1380391E+00
          2   -1    0    0  503    0  0.00000000000E+00  0.00000000000E+00  0.14468287483E+04  0.14468287483E+04  0.00000000000E+00 0. -1.
          2   -1    0    0  502    0 -0.00000000000E+00 -0.00000000000E+00 -0.14063923665E+04  0.14063923665E+04  0.00000000000E+00 0. -1.
         24    2    1    2    0    0 -0.56491700727E+03 -0.42876749226E+03 -0.23854904602E+02  0.71505611249E+03  0.88110158370E+02 0.  0.
         24    2    1    2    0    0  0.56576911563E+03  0.57248764934E+02  0.32729387904E+03  0.65807187037E+03  0.50647705049E+02 0.  0.
         25    2    1    2    0    0  0.28613148445E+02  0.45624540194E+03  0.20149253949E+03  0.51497801312E+03  0.12499812585E+03 0.  0.
        -11    1    4    4    0    0  0.48527206353E+03  0.31084605577E+02  0.27893969370E+03  0.56059127809E+03  0.00000000000E+00 0.  1.
         12    1    4    4    0    0  0.80497052104E+02  0.26164159357E+02  0.48354185340E+02  0.97480592284E+02  0.00000000000E+00 0. -1.
        -13    1    3    3    0    0 -0.38358149843E+03 -0.33439852297E+03 -0.36933673538E+02  0.51021685031E+03  0.00000000000E+00 0.  1.
         14    1    3    3    0    0 -0.18133550884E+03 -0.94368969296E+02  0.13078768936E+02  0.20483926217E+03  0.00000000000E+00 0. -1.
          5    1    5    5  501    0 -0.26591841872E+02  0.18840607255E+03  0.13544895339E+03  0.23360754098E+03  0.47000000000E+01 0.  1.
         -5    1    5    5    0  501  0.55204990317E+02  0.26783932939E+03  0.66043586098E+02  0.28137047214E+03  0.47000000000E+01 0.  1.
          1    1    1    2  502    0  0.16472977948E+02 -0.88393204917E+02 -0.70982357462E+03  0.71549578948E+03  0.00000000000E+00 0. -1.
          1    1    1    2  503    0 -0.45938234755E+02  0.36665303029E+01  0.24532844255E+03  0.24961932934E+03  0.00000000000E+00 0. -1.
<mgrwt>
<rscale>  0 0.64361227E+02</rscale>
<asrwt>0</asrwt>
<pdfrwt beam="1">  1        2 0.21276894E+00 0.46084323E+02</pdfrwt>
<pdfrwt beam="2">  1        2 0.20682241E+00 0.89886695E+02</pdfrwt>
<totfact> 0.50572917E+01</totfact>
</mgrwt>
</event>
<event>
13    1  0.1942437E-008  0.5809427E+02  0.7546771E-02  0.1528798E+00
          2   -1    0    0  502    0  0.00000000000E+00  0.00000000000E+00  0.31063946322E+04  0.31063946322E+04  0.00000000000E+00 0. -1.
          2   -1    0    0  503    0 -0.00000000000E+00 -0.00000000000E+00 -0.45427076679E+04  0.45427076679E+04  0.00000000000E+00 0. -1.
         24    2    1    2    0    0  0.81963639640E+03 -0.59206283332E+03 -0.11540662251E+04  0.15364412384E+04  0.80253387457E+02 0.  0.
         24    2    1    2    0    0 -0.72234659878E+03  0.80468514117E+03 -0.63832634564E+03  0.12590050630E+04  0.91271244109E+02 0.  0.
         25    2    1    2    0    0 -0.10808191118E+03 -0.27610110267E+03  0.32459458790E+03  0.45705194533E+03  0.12498526238E+03 0.  0.
        -11    1    4    4    0    0 -0.44202503788E+03  0.52242616108E+03 -0.35774021431E+03  0.77220029061E+03  0.00000000000E+00 0.  1.
         12    1    4    4    0    0 -0.28032156090E+03  0.28225898010E+03 -0.28058613134E+03  0.48680477242E+03  0.00000000000E+00 0. -1.
        -13    1    3    3    0    0  0.44259906115E+03 -0.27081875499E+03 -0.58103101104E+03  0.77899535478E+03  0.00000000000E+00 0.  1.
         14    1    3    3    0    0  0.37703733525E+03 -0.32124407833E+03 -0.57303521405E+03  0.75744588360E+03  0.00000000000E+00 0. -1.
          5    1    5    5  501    0 -0.32253238289E+02 -0.19106856980E+02  0.22373609370E+01  0.37847577832E+02  0.47000000000E+01 0. -1.
         -5    1    5    5    0  501 -0.75828672892E+02 -0.25699424569E+03  0.32235722697E+03  0.41920436749E+03  0.47000000000E+01 0. -1.
          1    1    1    2  502    0  0.23040960297E+02  0.66912459448E+01  0.22135929052E+04  0.22137229295E+04  0.00000000000E+00 0. -1.
          1    1    1    2  503    0 -0.12248846739E+02  0.56787548867E+02 -0.21821079581E+04  0.21828811238E+04  0.00000000000E+00 0. -1.
<mgrwt>
<rscale>  0 0.37334292E+02</rscale>
<asrwt>0</asrwt>
<pdfrwt beam="1">  1        2 0.45682274E+00 0.23992887E+02</pdfrwt>
<pdfrwt beam="2">  1        2 0.66804524E+00 0.58094274E+02</pdfrwt>
<totfact> 0.17206373E-01</totfact>
</mgrwt>
</event>
<event>
13    1  0.1942437E-008  0.1360528E+03  0.7546771E-02  0.1223823E+00
          2   -1    0    0  503    0  0.00000000000E+00  0.00000000000E+00  0.25599512536E+04  0.25599512536E+04  0.00000000000E+00 0. -1.
         -3   -1    0    0    0  501 -0.00000000000E+00 -0.00000000000E+00 -0.39115510877E+03  0.39115510877E+03  0.00000000000E+00 0.  1.
         24    2    1    2    0    0 -0.15733123151E+01  0.62983850417E+02 -0.31167927067E+02  0.11349589462E+03  0.89109133615E+02 0.  0.
         24    2    1    2    0    0 -0.40305328441E+02 -0.13902440047E+02  0.49761576170E+00  0.90670463930E+02  0.80019298097E+02 0.  0.
         25    2    1    2    0    0 -0.21529787132E+03  0.12162224292E+03  0.23184505904E+03  0.36127769478E+03  0.12499719187E+03 0.  0.
        -11    1    4    4    0    0  0.14407912435E+02  0.19307314804E+02  0.97749100610E+01  0.25998254026E+02  0.00000000000E+00 0.  1.
         12    1    4    4    0    0 -0.54713240876E+02 -0.33209754852E+02 -0.92772942993E+01  0.64672209905E+02  0.00000000000E+00 0. -1.
        -11    1    3    3    0    0 -0.97675044425E+01 -0.21798884839E+02 -0.84877086238E+01  0.25350280491E+02  0.00000000000E+00 0.  1.
         12    1    3    3    0    0  0.81941921274E+01  0.84782735256E+02 -0.22680218444E+02  0.88145614133E+02  0.00000000000E+00 0. -1.
          5    1    5    5  502    0 -0.12327987317E+01  0.11730744732E+02 -0.12847161411E+02  0.18062937773E+02  0.47000000000E+01 0.  1.
         -5    1    5    5    0  502 -0.21406507259E+03  0.10989149819E+03  0.24469222045E+03  0.34321475701E+03  0.47000000000E+01 0.  1.
          1    1    1    2  503    0  0.17509121011E+03 -0.84741899625E+01  0.21328166689E+04  0.21400083381E+04  0.00000000000E+00 0. -1.
         -4    1    1    2    0  501  0.82085301966E+02 -0.16222946333E+03 -0.16519527189E+03  0.24565397092E+03  0.00000000000E+00 0.  1.
<mgrwt>
<rscale>  0 0.13247885E+03</rscale>
<asrwt>0</asrwt>
<pdfrwt beam="1">  1        2 0.37646341E+00 0.13605284E+03</pdfrwt>
<pdfrwt beam="2">  1       -3 0.57522812E-01 0.12899875E+03</pdfrwt>
<totfact> 0.85589548E+00</totfact>
</mgrwt>
</event>
<event>
13    1  0.1942437E-008  0.7182726E+02  0.7546771E-02  0.1504682E+00
          2   -1    0    0  502    0  0.00000000000E+00  0.00000000000E+00  0.33081792784E+04  0.33081792784E+04  0.00000000000E+00 0. -1.
          4   -1    0    0  503    0 -0.00000000000E+00 -0.00000000000E+00 -0.12786013408E+03  0.12786013408E+03  0.00000000000E+00 0. -1.
         24    2    1    2    0    0  0.54314750035E+02  0.31401701032E+01  0.45317776177E+02  0.10703618244E+03  0.80268865539E+02 0.  0.
         24    2    1    2    0    0 -0.10608701680E+03  0.85792951443E+02  0.11495210386E+03  0.19574240950E+03  0.80537066264E+02 0.  0.
         25    2    1    2    0    0  0.53220389754E+02 -0.18208425107E+03  0.70711749452E+03  0.74271615550E+03  0.12500020885E+03 0.  0.
        -13    1    3    3    0    0  0.62320760674E+02 -0.38453117837E+01  0.61523867304E+02  0.87657571731E+02  0.00000000000E+00 0.  1.
         14    1    3    3    0    0 -0.80060106392E+01  0.69854818869E+01 -0.16206091127E+02  0.19378610713E+02  0.00000000000E+00 0. -1.
        -13    1    4    4    0    0 -0.51026605465E+02 -0.38460111140E+01  0.52930760761E+02  0.73621815391E+02  0.00000000000E+00 0.  1.
         14    1    4    4    0    0 -0.55060411339E+02  0.89638962557E+02  0.62021343102E+02  0.12212059411E+03  0.00000000000E+00 0. -1.
          5    1    5    5  501    0  0.48005225450E+02 -0.34433456875E+02  0.87295899193E+02  0.10551222033E+03  0.47000000000E+01 0. -1.
         -5    1    5    5    0  501  0.52151643043E+01 -0.14765079420E+03  0.61982159532E+03  0.63720393517E+03  0.47000000000E+01 0. -1.
          1    1    1    2  502    0 -0.78936120583E+01  0.71262850718E+02  0.23477888799E+04  0.23488834215E+04  0.00000000000E+00 0. -1.
          3    1    1    2  503    0  0.64454890728E+01  0.21888278805E+02 -0.34857110210E+02  0.41661243508E+02  0.00000000000E+00 0. -1.
<mgrwt>
<rscale>  0 0.40483612E+02</rscale>
<asrwt>0</asrwt>
<pdfrwt beam="1">  1        2 0.48649690E+00 0.71827260E+02</pdfrwt>
<pdfrwt beam="2">  1        4 0.18802963E-01 0.22817561E+02</pdfrwt>
<totfact> 0.20101362E+01</totfact>
</mgrwt>
</event>
<event>
13    1  0.1942437E-008  0.1444067E+03  0.7546771E-02  0.1394589E+00
          4   -1    0    0  503    0 -0.00000000000E+00  0.00000000000E+00  0.51095401891E+03  0.51095401891E+03  0.00000000000E+00 0. -1.
          2   -1    0    0  502    0  0.00000000000E+00 -0.00000000000E+00 -0.19786459027E+04  0.19786459027E+04  0.00000000000E+00 0. -1.
         24    2    1    2    0    0 -0.10647784038E+03 -0.88739915943E+02  0.28430277672E+02  0.16266910455E+03  0.80253683482E+02 0.  0.
         24    2    1    2    0    0 -0.17627287378E+02  0.47282651205E+02 -0.44274871635E+02  0.10214061458E+03  0.76980975067E+02 0.  0.
         25    2    1    2    0    0 -0.10643531699E+03 -0.44340035039E+01 -0.90894301152E+03  0.92366000969E+03  0.12498911240E+03 0.  0.
        -11    1    4    4    0    0 -0.36653932783E+02  0.64156404062E+01 -0.43243476954E+02  0.57049711036E+02  0.00000000000E+00 0.  1.
         12    1    4    4    0    0  0.19026645405E+02  0.40867010799E+02 -0.10313946812E+01  0.45090903539E+02  0.00000000000E+00 0. -1.
        -11    1    3    3    0    0 -0.24787171573E+01  0.82501250631E+01 -0.12050085528E+02  0.14812601511E+02  0.00000000000E+00 0.  1.
         12    1    3    3    0    0 -0.10399912323E+03 -0.96990041006E+02  0.40480363200E+02  0.14785650304E+03  0.00000000000E+00 0. -1.
          5    1    5    5  501    0  0.34270569042E+01 -0.27761863363E+02 -0.45943428152E+03  0.46030904272E+03  0.47000000000E+01 0.  1.
         -5    1    5    5    0  501 -0.10986237389E+03  0.23327859859E+02 -0.44950873000E+03  0.46335096696E+03  0.47000000000E+01 0.  1.
          1    1    1    2  502    0  0.14828555002E+01 -0.25538638436E+02 -0.88385026542E+03  0.88422039820E+03  0.00000000000E+00 0. -1.
          3    1    1    2  503    0  0.22905758925E+03  0.71429906677E+02  0.34094598707E+03  0.41690979463E+03  0.00000000000E+00 0. -1.
<mgrwt>
<rscale>  0 0.60779608E+02</rscale>
<asrwt>0</asrwt>
<pdfrwt beam="2">  1        2 0.29097733E+00 0.25581652E+02</pdfrwt>
<pdfrwt beam="1">  1        4 0.75140298E-01 0.14440666E+03</pdfrwt>
<totfact> 0.92467223E+00</totfact>
</mgrwt>
</event>
<event>
13    1  0.1942437E-008  0.9968210E+02  0.7546771E-02  0.1400806E+00
          2   -1    0    0  502    0  0.00000000000E+00  0.00000000000E+00  0.24115183351E+04  0.24115183351E+04  0.00000000000E+00 0. -1.
          2   -1    0    0  503    0 -0.00000000000E+00 -0.00000000000E+00 -0.29123574319E+04  0.29123574319E+04  0.00000000000E+00 0. -1.
         24    2    1    2    0    0  0.17848412497E+02  0.92180060838E+01 -0.47843763248E+02  0.94545600022E+02  0.79033583603E+02 0.  0.
         24    2    1    2    0    0 -0.11256512440E+03  0.12195837736E+03 -0.48209919967E+02  0.18647118514E+03  0.70018236647E+02 0.  0.
         25    2    1    2    0    0 -0.32500819748E+02 -0.17583148357E+03  0.60159908550E+03  0.63993723587E+03  0.12500076915E+03 0.  0.
        -11    1    4    4    0    0 -0.58237300842E+02  0.31077876611E+02  0.81710903466E+01  0.66514542331E+02  0.00000000000E+00 0.  1.
         12    1    4    4    0    0 -0.54327823557E+02  0.90880500750E+02 -0.56381010313E+02  0.11995664280E+03  0.00000000000E+00 0. -1.
        -13    1    3    3    0    0  0.17084584689E+02  0.44574027186E+01 -0.69834761950E+02  0.72032252842E+02  0.00000000000E+00 0.  1.
         14    1    3    3    0    0  0.76382780774E+00  0.47606033653E+01  0.21990998702E+02  0.22513347180E+02  0.00000000000E+00 0. -1.
          5    1    5    5  501    0 -0.11514851031E+01 -0.89625091071E+02  0.47570481861E+03  0.48409828270E+03  0.47000000000E+01 0.  1.
         -5    1    5    5    0  501 -0.31349334645E+02 -0.86206392498E+02  0.12589426689E+03  0.15583895317E+03  0.47000000000E+01 0.  1.
          1    1    1    2  502    0  0.33805616553E+02  0.10069739871E+02  0.16971681854E+04  0.16975347033E+04  0.00000000000E+00 0. -1.
          1    1    1    2  503    0  0.93411915097E+02  0.34585360252E+02 -0.27035526845E+04  0.27053870427E+04  0.00000000000E+00 0. -1.
<mgrwt>
<rscale>  0 0.59297016E+02</rscale>
<asrwt>0</asrwt>
<pdfrwt beam="1">  1        2 0.35463505E+00 0.35273494E+02</pdfrwt>
<pdfrwt beam="2">  1        2 0.42828786E+00 0.99682105E+02</pdfrwt>
<totfact> 0.33337485E+00</totfact>
</mgrwt>
</event>
<event>
13    1  0.1942437E-008  0.1246918E+03  0.7546771E-02  0.1358976E+00
          2   -1    0    0  503    0  0.00000000000E+00  0.00000000000E+00  0.19638077637E+04  0.19638077637E+04  0.00000000000E+00 0. -1.
          2   -1    0    0  502    0 -0.00000000000E+00 -0.00000000000E+00 -0.30975472867E+03  0.30975472867E+03  0.00000000000E+00 0. -1.
         24    2    1    2    0    0  0.49809359090E+02  0.12277642451E+02  0.45398601854E+02  0.10368586131E+03  0.77833232161E+02 0.  0.
         24    2    1    2    0    0 -0.31445107692E+03 -0.15642195160E+03  0.47628134835E+03  0.59706974437E+03  0.79379154305E+02 0.  0.
         25    2    1    2    0    0  0.22696207836E+03  0.53303112307E+01  0.92421314463E+03  0.95986140746E+03  0.12499515026E+03 0.  0.
        -13    1    3    3    0    0  0.10065180524E+02  0.31910299206E+02  0.48863624195E+02  0.59221861030E+02  0.00000000000E+00 0.  1.
         14    1    3    3    0    0  0.39744178567E+02 -0.19632656756E+02 -0.34650223410E+01  0.44464000282E+02  0.00000000000E+00 0. -1.
        -13    1    4    4    0    0 -0.17526186410E+03 -0.76088594232E+02  0.32123284227E+03  0.37376026292E+03  0.00000000000E+00 0.  1.
         14    1    4    4    0    0 -0.13918921282E+03 -0.80333357368E+02  0.15504850608E+03  0.22330948146E+03  0.00000000000E+00 0. -1.
          5    1    5    5  501    0  0.21931155726E+03  0.34049404709E+02  0.72004198705E+03  0.75348488653E+03  0.47000000000E+01 0. -1.
         -5    1    5    5    0  501  0.76505210936E+01 -0.28719093478E+02  0.20417115758E+03  0.20637652093E+03  0.47000000000E+01 0. -1.
          1    1    1    2  502    0  0.72739885657E+02  0.12025872997E+03 -0.17685060351E+03  0.22589685491E+03  0.00000000000E+00 0. -1.
          1    1    1    2  503    0 -0.35060246185E+02  0.18555267946E+02  0.38501054371E+03  0.38704862433E+03  0.00000000000E+00 0. -1.
<mgrwt>
<rscale>  0 0.70329407E+02</rscale>
<asrwt>0</asrwt>
<pdfrwt beam="1">  1        2 0.28879525E+00 0.39667604E+02</pdfrwt>
<pdfrwt beam="2">  1        2 0.45552167E-01 0.12469181E+03</pdfrwt>
<totfact> 0.18049959E+02</totfact>
</mgrwt>
</event>
<event>
13    1  0.1942437E-008  0.1307608E+03  0.7546771E-02  0.1300263E+00
          2   -1    0    0  502    0  0.00000000000E+00  0.00000000000E+00  0.99963507666E+03  0.99963507666E+03  0.00000000000E+00 0. -1.
          2   -1    0    0  503    0 -0.00000000000E+00 -0.00000000000E+00 -0.24937154194E+04  0.24937154194E+04  0.00000000000E+00 0. -1.
         24    2    1    2    0    0  0.28797394767E+01  0.17148215291E+03 -0.44831795322E+03  0.48663745176E+03  0.80078715101E+02 0.  0.
         24    2    1    2    0    0  0.24462222384E+02 -0.61098635569E+02 -0.77070135036E+02  0.13060145107E+03  0.82374084004E+02 0.  0.
         25    2    1    2    0    0  0.40148005743E+01 -0.77220840994E+01  0.15055829549E+03  0.19587850788E+03  0.12499936120E+03 0.  0.
        -11    1    3    3    0    0 -0.20989638843E+02  0.61500943602E+02 -0.25303749017E+03  0.26124873671E+03  0.00000000000E+00 0.  1.
         12    1    3    3    0    0  0.23869378320E+02  0.10998120931E+03 -0.19528046305E+03  0.22538871505E+03  0.00000000000E+00 0. -1.
        -11    1    4    4    0    0 -0.15337462075E+02 -0.42307824207E+02 -0.38436756318E+01  0.45165955922E+02  0.00000000000E+00 0.  1.
         12    1    4    4    0    0  0.39799684459E+02 -0.18790811362E+02 -0.73226459404E+02  0.85435495150E+02  0.00000000000E+00 0. -1.
          5    1    5    5  501    0  0.60057675454E+02  0.17455389522E+02  0.63807131854E+02  0.89470973392E+02  0.47000000000E+01 0. -1.
         -5    1    5    5    0  501 -0.56042874880E+02 -0.25177473621E+02  0.86751163639E+02  0.10640753449E+03  0.47000000000E+01 0. -1.
          1    1    1    2  502    0 -0.58323453873E+02  0.24953936231E+02  0.77695815503E+03  0.77954364783E+03  0.00000000000E+00 0. -1.
          1    1    1    2  503    0  0.26966691438E+02 -0.12761536948E+03 -0.18962087050E+04  0.19006894375E+04  0.00000000000E+00 0. -1.
<mgrwt>
<rscale>  0 0.91077690E+02</rscale>
<asrwt>0</asrwt>
<pdfrwt beam="1">  1        2 0.14700516E+00 0.63437561E+02</pdfrwt>
<pdfrwt beam="2">  1        2 0.36672285E+00 0.13076079E+03</pdfrwt>
<totfact> 0.23801933E+01</totfact>
</mgrwt>
</event>
<event>
13    1  0.1942437E-008  0.1156721E+03  0.7546771E-02  0.1434603E+00
          2   -1    0    0  503    0  0.00000000000E+00  0.00000000000E+00  0.17378320649E+04  0.17378320649E+04  0.00000000000E+00 0. -1.
          2   -1    0    0  502    0 -0.00000000000E+00 -0.00000000000E+00 -0.66710024097E+02  0.66710024097E+02  0.00000000000E+00 0. -1.
         24    2    1    2    0    0 -0.13465519548E+02  0.52530241077E+02  0.33446272366E+03  0.34850971909E+03  0.81565705663E+02 0.  0.
         24    2    1    2    0    0  0.55507025934E+02  0.16909984196E+02  0.33320716192E+03  0.34800174523E+03  0.81922063166E+02 0.  0.
         25    2    1    2    0    0 -0.15491704840E+02  0.41100459226E+02  0.83075668349E+03  0.84125637633E+03  0.12500553142E+03 0.  0.
        -13    1    4    4    0    0 -0.12348127965E+02  0.25324037736E+02  0.14612369784E+03  0.14881504703E+03  0.00000000000E+00 0.  1.
         14    1    4    4    0    0  0.67855153899E+02 -0.84140535404E+01  0.18708346408E+03  0.19918669820E+03  0.00000000000E+00 0. -1.
        -13    1    3    3    0    0  0.21125433820E+02  0.59073688334E+02  0.21244114558E+03  0.22151122984E+03  0.00000000000E+00 0.  1.
         14    1    3    3    0    0 -0.34590953368E+02 -0.65434472570E+01  0.12202157807E+03  0.12699848925E+03  0.00000000000E+00 0. -1.
          5    1    5    5  501    0 -0.38144072137E+02  0.64115472358E+02  0.28877757240E+03  0.29829572635E+03  0.47000000000E+01 0.  1.
         -5    1    5    5    0  501  0.22652367296E+02 -0.23015013132E+02  0.54197911109E+03  0.54296064999E+03  0.47000000000E+01 0.  1.
          1    1    1    2  502    0 -0.49762628378E+02 -0.11363917294E+03  0.37551142602E+02  0.12961585211E+03  0.00000000000E+00 0. -1.
          1    1    1    2  503    0  0.23212826832E+02  0.30984884375E+01  0.13514432912E+03  0.13715839622E+03  0.00000000000E+00 0. -1.
<mgrwt>
<rscale>  0 0.52047019E+02</rscale>
<asrwt>0</asrwt>
<pdfrwt beam="1">  1        2 0.25556351E+00 0.23418710E+02</pdfrwt>
<pdfrwt beam="2">  1        2 0.98102988E-02 0.11567214E+03</pdfrwt>
<totfact> 0.13603057E+03</totfact>
</mgrwt>
</event>
<event>
13    1  0.1942437E-008  0.7720662E+02  0.7546771E-02  0.1431749E+00
          2   -1    0    0  503    0  0.00000000000E+00  0.00000000000E+00  0.44436454835E+04  0.44436454835E+04  0.00000000000E+00 0. -1.
         -1   -1    0    0    0  501 -0.00000000000E+00 -0.00000000000E+00 -0.37135221164E+03  0.37135221164E+03  0.00000000000E+00 0.  1.
         24    2    1    2    0    0 -0.10548255367E+03 -0.66229085928E+02 -0.11104708090E+03  0.18592731762E+03  0.82003977378E+02 0.  0.
         24    2    1    2    0    0 -0.43528531108E+02  0.17405443818E+02  0.12967914673E+03  0.16004182767E+03  0.81234370883E+02 0.  0.
         25    2    1    2    0    0  0.20352183643E+03 -0.19743085943E+02  0.19580036166E+04  0.19726162195E+04  0.12500263748E+03 0.  0.
        -11    1    4    4    0    0 -0.61501718525E+02 -0.86329409100E+01  0.88285825082E+02  0.10794153955E+03  0.00000000000E+00 0.  1.
         12    1    4    4    0    0  0.17973187417E+02  0.26038384728E+02  0.41393321649E+02  0.52100288121E+02  0.00000000000E+00 0. -1.
        -11    1    3    3    0    0 -0.75786116989E+02 -0.18855394587E+02 -0.10327329494E+03  0.12947754586E+03  0.00000000000E+00 0.  1.
         12    1    3    3    0    0 -0.29696436686E+02 -0.47373691341E+02 -0.77737859598E+01  0.56449771755E+02  0.00000000000E+00 0. -1.
          5    1    5    5  502    0  0.15400028761E+03 -0.68907620982E+02  0.13016745294E+04  0.13125711483E+04  0.47000000000E+01 0. -1.
         -5    1    5    5    0  502  0.49521548812E+02  0.49164535039E+02  0.65632908721E+03  0.66004507120E+03  0.47000000000E+01 0. -1.
          1    1    1    2  503    0 -0.19201294787E+02  0.74769870219E+02  0.22937769114E+04  0.22950755418E+04  0.00000000000E+00 0. -1.
         -2    1    1    2    0  501 -0.35309456856E+02 -0.62031421656E+01 -0.19811932195E+03  0.20133678861E+03  0.00000000000E+00 0.  1.
<mgrwt>
<rscale>  0 0.52610575E+02</rscale>
<asrwt>0</asrwt>
<pdfrwt beam="1">  1        2 0.65347724E+00 0.77206620E+02</pdfrwt>
<pdfrwt beam="2">  1       -1 0.54610622E-01 0.35850198E+02</pdfrwt>
<totfact> 0.15377818E+00</totfact>
</mgrwt>
</event>
<event>
13    1  0.1942437E-008  0.1504331E+03  0.7546771E-02  0.1265449E+00
          2   -1    0    0  502    0  0.00000000000E+00  0.00000000000E+00  0.27659370453E+03  0.27659370453E+03  0.00000000000E+00 0. -1.
          2   -1    0    0  503    0 -0.00000000000E+00 -0.00000000000E+00 -0.16457777431E+04  0.16457777431E+04  0.00000000000E+00 0. -1.
         24    2    1    2    0    0 -0.81334159821E+02  0.36708901911E+02 -0.38275158094E+03  0.40131161680E+03  0.81175439884E+02 0.  0.
         24    2    1    2    0    0 -0.13055363377E+02 -0.12939258929E+03 -0.36485379476E+03  0.39571259099E+03  0.80977024151E+02 0.  0.
         25    2    1    2    0    0 -0.11800138591E+03  0.97371052805E+01 -0.31665606328E+03  0.36043661502E+03  0.12499741092E+03 0.  0.
        -11    1    4    4    0    0 -0.34348715096E+02 -0.11007269109E+03 -0.22380066987E+03  0.25175895493E+03  0.00000000000E+00 0.  1.
         12    1    4    4    0    0  0.21293351719E+02 -0.19319898204E+02 -0.14105312489E+03  0.14395363606E+03  0.00000000000E+00 0. -1.
        -11    1    3    3    0    0 -0.88499730061E+00  0.29497303980E+02 -0.43419261528E+02  0.52498632686E+02  0.00000000000E+00 0.  1.
         12    1    3    3    0    0 -0.80449162521E+02  0.72115979311E+01 -0.33933231941E+03  0.34881298412E+03  0.00000000000E+00 0. -1.
          5    1    5    5  501    0 -0.45865151940E+02 -0.56948999651E+00 -0.12690451303E+02  0.47823362864E+02  0.47000000000E+01 0. -1.
         -5    1    5    5    0  501 -0.72136233971E+02  0.10306595277E+02 -0.30396561198E+03  0.31261325215E+03  0.47000000000E+01 0. -1.
          1    1    1    2  502    0  0.14758871468E+03  0.41940149259E+02  0.20119098683E+03  0.25302019288E+03  0.00000000000E+00 0. -1.
          1    1    1    2  503    0  0.64802194426E+02  0.41006432844E+02 -0.50611358648E+03  0.51189043198E+03  0.00000000000E+00 0. -1.
<mgrwt>
<rscale>  0 0.10740681E+03</rscale>
<asrwt>0</asrwt>
<pdfrwt beam="1">  1        2 0.40675543E-01 0.15043314E+03</pdfrwt>
<pdfrwt beam="2">  1        2 0.24202615E+00 0.76686713E+02</pdfrwt>
<totfact> 0.26880290E+02</totfact>
</mgrwt>
</event>
<event>
13    1  0.1942437E-008  0.5768628E+02  0.7546771E-02  0.1466583E+00
          2   -1    0    0  503    0  0.00000000000E+00  0.00000000000E+00  0.91807929927E+03  0.91807929927E+03  0.00000000000E+00 0. -1.
         -1   -1    0    0    0  501 -0.00000000000E+00 -0.00000000000E+00 -0.73390743024E+03  0.73390743024E+03  0.00000000000E+00 0.  1.
         24    2    1    2    0    0 -0.33815676648E+02 -0.57706832351E+02 -0.77889890287E+01  0.10333043091E+03  0.78376853176E+02 0.  0.
         24    2    1    2    0    0  0.85689696377E+02 -0.71227167678E+02 -0.42833151374E+02  0.14374423700E+03  0.80073049986E+02 0.  0.
         25    2    1    2    0    0 -0.28626935493E+02  0.68604349129E+02  0.32664640862E+03  0.35755823691E+03  0.12499583338E+03 0.  0.
        -11    1    4    4    0    0  0.84957682301E+00 -0.48048524479E+02 -0.61371749312E+01  0.48446335275E+02  0.00000000000E+00 0.  1.
         12    1    4    4    0    0  0.84840119554E+02 -0.23178643198E+02 -0.36695976443E+02  0.95297901727E+02  0.00000000000E+00 0. -1.
        -13    1    3    3    0    0  0.15858234794E+02 -0.64574498155E+01 -0.24631153752E+02  0.29997933329E+02  0.00000000000E+00 0.  1.
         14    1    3    3    0    0 -0.49673911442E+02 -0.51249382536E+02  0.16842164723E+02  0.73332497576E+02  0.00000000000E+00 0. -1.
          5    1    5    5  502    0 -0.47730511610E+02  0.81783565617E+02  0.13799206405E+03  0.16742357386E+03  0.47000000000E+01 0. -1.
         -5    1    5    5    0  502  0.19103576117E+02 -0.13179216488E+02  0.18865434457E+03  0.19013466305E+03  0.47000000000E+01 0. -1.
          1    1    1    2  503    0 -0.36863317773E+02  0.42579661734E+01  0.47556476407E+03  0.47701035554E+03  0.00000000000E+00 0. -1.
         -2    1    1    2    0  501  0.13616233537E+02  0.56071684726E+02 -0.56741716325E+03  0.57034346915E+03  0.00000000000E+00 0.  1.
<mgrwt>
<rscale>  0 0.46267122E+02</rscale>
<asrwt>0</asrwt>
<pdfrwt beam="1">  1        2 0.13501166E+00 0.37108415E+02</pdfrwt>
<pdfrwt beam="2">  1       -1 0.10792756E+00 0.57686285E+02</pdfrwt>
<totfact> 0.36017257E+01</totfact>
</mgrwt>
</event>
<event>
13    1  0.1942437E-008  0.7597592E+02  0.7546771E-02  0.1587998E+00
          2   -1    0    0  502    0  0.00000000000E+00  0.00000000000E+00  0.34831199845E+04  0.34831199845E+04  0.00000000000E+00 0. -1.
          2   -1    0    0  503    0 -0.00000000000E+00 -0.00000000000E+00 -0.53943438250E+03  0.53943438250E+03  0.00000000000E+00 0. -1.
         24    2    1    2    0    0  0.19750829196E+03  0.54367357773E+02 -0.11249987720E+03  0.24601678690E+03  0.76829044529E+02 0.  0.
         24    2    1    2    0    0 -0.48324024203E+02 -0.34071840240E+02  0.34777440207E+03  0.36182200337E+03  0.80448901650E+02 0.  0.
         25    2    1    2    0    0 -0.72604982024E+02  0.20023480294E+02  0.19200505452E+04  0.19255898940E+04  0.12501968178E+03 0.  0.
        -11    1    4    4    0    0  0.18537640966E+02 -0.60255850437E+01  0.29252093906E+02  0.35151625931E+02  0.00000000000E+00 0.  1.
         12    1    4    4    0    0 -0.66861665169E+02 -0.28046255197E+02  0.31852230816E+03  0.32667037744E+03  0.00000000000E+00 0. -1.
        -13    1    3    3    0    0  0.21708100285E+02  0.90653929667E+01  0.11481658318E+02  0.26177307832E+02  0.00000000000E+00 0.  1.
         14    1    3    3    0    0  0.17580019167E+03  0.45301964807E+02 -0.12398153551E+03  0.21983947907E+03  0.00000000000E+00 0. -1.
          5    1    5    5  501    0 -0.19542163547E+02 -0.86146640046E+01  0.50135909973E+02  0.54697422798E+02  0.47000000000E+01 0. -1.
         -5    1    5    5    0  501 -0.53062818477E+02  0.28638144299E+02  0.18699146352E+04  0.18708924712E+04  0.47000000000E+01 0.  1.
          1    1    1    2  502    0 -0.66311827764E+01 -0.10707081092E+02  0.11345911031E+04  0.11346610002E+04  0.00000000000E+00 0. -1.
          1    1    1    2  503    0 -0.69948102956E+02 -0.29611916735E+02 -0.34623057115E+03  0.35446468247E+03  0.00000000000E+00 0. -1.
<mgrwt>
<rscale>  0 0.30933103E+02</rscale>
<asrwt>0</asrwt>
<pdfrwt beam="1">  1        2 0.51222352E+00 0.12594212E+02</pdfrwt>
<pdfrwt beam="2">  1        2 0.79328587E-01 0.75975925E+02</pdfrwt>
<totfact> 0.22933045E+01</totfact>
</mgrwt>
</event>
<event>
13    1  0.1942437E-008  0.1090891E+03  0.7546771E-02  0.1278430E+00
          2   -1    0    0  503    0  0.00000000000E+00  0.00000000000E+00  0.29308538181E+04  0.29308538181E+04  0.00000000000E+00 0. -1.
          2   -1    0    0  502    0 -0.00000000000E+00 -0.00000000000E+00 -0.31043581703E+04  0.31043581703E+04  0.00000000000E+00 0. -1.
         24    2    1    2    0    0  0.63311959544E+03 -0.76280528080E+03 -0.89753506276E+02  0.99841305175E+03  0.77849929156E+02 0.  0.
         24    2    1    2    0    0  0.10123213021E+03  0.15457920544E+04 -0.48228188661E+03  0.16243620775E+04  0.78964048434E+02 0.  0.
         25    2    1    2    0    0 -0.66413865490E+03 -0.76762778784E+03  0.60927181529E+03  0.11904493371E+04  0.12499962315E+03 0.  0.
        -11    1    3    3    0    0  0.18867739527E+03 -0.26942459307E+03 -0.47816508670E+01  0.32895536934E+03  0.00000000000E+00 0.  1.
         12    1    3    3    0    0  0.44444220018E+03 -0.49338068773E+03 -0.84971855409E+02  0.66945768240E+03  0.00000000000E+00 0. -1.
        -13    1    4    4    0    0  0.35874232531E+02  0.73952601222E+03 -0.19133516294E+03  0.76471879007E+03  0.00000000000E+00 0.  1.
         14    1    4    4    0    0  0.65357897676E+02  0.80626604221E+03 -0.29094672367E+03  0.85964328743E+03  0.00000000000E+00 0. -1.
          5    1    5    5  501    0 -0.64983484320E+03 -0.70765832052E+03  0.57663756457E+03  0.11205349584E+04  0.47000000000E+01 0.  1.
         -5    1    5    5    0  501 -0.14303811707E+02 -0.59969467323E+02  0.32634250713E+02  0.69914378779E+02  0.47000000000E+01 0.  1.
          1    1    1    2  502    0 -0.76670154419E+02  0.77728921330E+02 -0.12117399391E+04  0.12166485843E+04  0.00000000000E+00 0. -1.
          1    1    1    2  503    0  0.64570836735E+01 -0.93087907117E+02  0.10009991645E+04  0.10053389377E+04  0.00000000000E+00 0. -1.
<mgrwt>
<rscale>  0 0.10089239E+03</rscale>
<asrwt>0</asrwt>
<pdfrwt beam="1">  1        2 0.43100792E+00 0.93311588E+02</pdfrwt>
<pdfrwt beam="2">  1        2 0.45652326E+00 0.10908908E+03</pdfrwt>
<totfact> 0.12424735E+00</totfact>
</mgrwt>
</event>
<event>
13    1  0.1942437E-008  0.1716970E+03  0.7546771E-02  0.1226832E+00
          4   -1    0    0  503    0 -0.00000000000E+00  0.00000000000E+00  0.93957611448E+03  0.93957611448E+03  0.00000000000E+00 0. -1.
          2   -1    0    0  502    0  0.00000000000E+00 -0.00000000000E+00 -0.86943101652E+03  0.86943101652E+03  0.00000000000E+00 0. -1.
         24    2    1    2    0    0 -0.24164771163E+03 -0.28848784672E+02  0.23091848139E+02  0.25748528954E+03  0.80867620023E+02 0.  0.
         24    2    1    2    0    0 -0.16729294959E+02  0.16753233577E+03 -0.16441001853E+02  0.18716604451E+03  0.80086633318E+02 0.  0.
         25    2    1    2    0    0  0.37783881348E+02 -0.89232394322E+02 -0.21256402374E+03  0.26494231397E+03  0.12498369357E+03 0.  0.
        -13    1    3    3    0    0 -0.12280715677E+03 -0.60248349505E+01 -0.28043533606E+02  0.12611239498E+03  0.00000000000E+00 0.  1.
         14    1    3    3    0    0 -0.11884055486E+03 -0.22823949721E+02  0.51135381746E+02  0.13137289457E+03  0.00000000000E+00 0. -1.
        -13    1    4    4    0    0  0.19862721633E+02  0.92613147193E+02 -0.36332364017E+02  0.10144832881E+03  0.00000000000E+00 0.  1.
         14    1    4    4    0    0 -0.36592016592E+02  0.74919188576E+02  0.19891362164E+02  0.85717715694E+02  0.00000000000E+00 0. -1.
          5    1    5    5  501    0  0.24023649796E+02 -0.39082331192E+02 -0.20740791445E+03  0.21247281552E+03  0.47000000000E+01 0.  1.
         -5    1    5    5    0  501  0.13760231552E+02 -0.50150063131E+02 -0.51561092915E+01  0.52469498448E+02  0.47000000000E+01 0.  1.
          1    1    1    2  502    0  0.16070881419E+03  0.29469387011E+02 -0.39166618851E+03  0.42437974852E+03  0.00000000000E+00 0. -1.
          3    1    1    2  503    0  0.59884311052E+02 -0.78920543785E+02  0.66772446393E+03  0.67503373447E+03  0.00000000000E+00 0. -1.
<mgrwt>
<rscale>  0 0.13042154E+03</rscale>
<asrwt>0</asrwt>
<pdfrwt beam="2">  1        2 0.12785750E+00 0.17169702E+03</pdfrwt>
<pdfrwt beam="1">  1        4 0.13817296E+00 0.99068577E+02</pdfrwt>
<totfact> 0.70133498E+00</totfact>
</mgrwt>
</event>
<event>
13    1  0.1942437E-008  0.1298844E+03  0.7546771E-02  0.1306231E+00
          2   -1    0    0  502    0  0.00000000000E+00  0.00000000000E+00  0.25721413030E+04  0.25721413030E+04  0.00000000000E+00 0. -1.
          2   -1    0    0  503    0 -0.00000000000E+00 -0.00000000000E+00 -0.14198415571E+04  0.14198415571E+04  0.00000000000E+00 0. -1.
         24    2    1    2    0    0 -0.40905714138E+02 -0.33896270419E+02 -0.12573281713E+03  0.15775549441E+03  0.79093742593E+02 0.  0.
         24    2    1    2    0    0  0.34451838891E+02 -0.61611988593E+01 -0.86827181345E+02  0.12449209726E+03  0.82063592934E+02 0.  0.
         25    2    1    2    0    0 -0.97644784851E+02 -0.17319495793E+02  0.31858731295E+03  0.35630915925E+03  0.12499548814E+03 0.  0.
        -11    1    4    4    0    0  0.16861594991E+02  0.23895137168E+02  0.17672954286E+01  0.29298708146E+02  0.00000000000E+00 0.  1.
         12    1    4    4    0    0  0.17590243900E+02 -0.30056336028E+02 -0.88594476774E+02  0.95193389112E+02  0.00000000000E+00 0. -1.
        -11    1    3    3    0    0  0.57299195232E+01 -0.29418811177E+02 -0.79665079592E+01  0.31012314939E+02  0.00000000000E+00 0.  1.
         12    1    3    3    0    0 -0.46635633662E+02 -0.44774592416E+01 -0.11776630917E+03  0.12674317947E+03  0.00000000000E+00 0. -1.
          5    1    5    5  501    0 -0.10220439672E+03 -0.54489862016E+02  0.27628468414E+03  0.29961675598E+03  0.47000000000E+01 0. -1.
         -5    1    5    5    0  501  0.45596118695E+01  0.37170366222E+02  0.42302628806E+02  0.56692403278E+02  0.47000000000E+01 0. -1.
          1    1    1    2  502    0 -0.59606146004E+02  0.10148365961E+02  0.21931390762E+04  0.21939723995E+04  0.00000000000E+00 0. -1.
          1    1    1    2  503    0  0.16370480610E+03  0.47228599111E+02 -0.11468666447E+04  0.11594537097E+04  0.00000000000E+00 0. -1.
<mgrwt>
<rscale>  0 0.88618947E+02</rscale>
<asrwt>0</asrwt>
<pdfrwt beam="1">  1        2 0.37825608E+00 0.60463890E+02</pdfrwt>
<pdfrwt beam="2">  1        2 0.20880023E+00 0.12988443E+03</pdfrwt>
<totfact> 0.13834277E+01</totfact>
</mgrwt>
</event>
<event>
13    1  0.1942437E-008  0.5008973E+02  0.7546771E-02  0.1597031E+00
          2   -1    0    0  503    0  0.00000000000E+00  0.00000000000E+00  0.31365396998E+04  0.31365396998E+04  0.00000000000E+00 0. -1.
          2   -1    0    0  502    0 -0.00000000000E+00 -0.00000000000E+00 -0.25705381574E+04  0.25705381574E+04  0.00000000000E+00 0. -1.
         24    2    1    2    0    0 -0.10857038160E+03 -0.51763304925E+03 -0.39179570091E+03  0.66326212746E+03  0.81739078969E+02 0.  0.
         24    2    1    2    0    0  0.79362761286E+03  0.75330821002E+03 -0.16536679276E+03  0.11102991463E+04  0.89999838871E+02 0.  0.
         25    2    1    2    0    0 -0.65079595011E+03 -0.26165854752E+03  0.31191657676E+03  0.77776334640E+03  0.12499323172E+03 0.  0.
        -11    1    3    3    0    0 -0.11924428910E+03 -0.49056171863E+03 -0.35935342017E+03  0.61968127361E+03  0.00000000000E+00 0.  1.
         12    1    3    3    0    0  0.10673907501E+02 -0.27071330620E+02 -0.32442280741E+02  0.43580853853E+02  0.00000000000E+00 0. -1.
        -13    1    4    4    0    0  0.61410092834E+02  0.95863900742E+02 -0.18425103967E+02  0.11532810336E+03  0.00000000000E+00 0.  1.
         14    1    4    4    0    0  0.73221752003E+03  0.65744430928E+03 -0.14694168879E+03  0.99497104297E+03  0.00000000000E+00 0. -1.
          5    1    5    5  501    0 -0.13072334044E+02  0.43805123611E+01  0.26282269174E+02  0.30048668504E+02  0.47000000000E+01 0. -1.
         -5    1    5    5    0  501 -0.63772361607E+03 -0.26603905989E+03  0.28563430759E+03  0.74771467790E+03  0.47000000000E+01 0. -1.
          1    1    1    2  502    0 -0.75855863132E+01 -0.16414868267E+02 -0.11718668640E+04  0.11720063720E+04  0.00000000000E+00 0. -1.
          1    1    1    2  503    0 -0.26675694840E+02  0.42398255029E+02  0.19831143234E+04  0.19837468650E+04  0.00000000000E+00 0. -1.
<mgrwt>
<rscale>  0 0.30095922E+02</rscale>
<asrwt>0</asrwt>
<pdfrwt beam="1">  1        2 0.46125584E+00 0.50089734E+02</pdfrwt>
<pdfrwt beam="2">  1        2 0.37802032E+00 0.18082838E+02</pdfrwt>
<totfact> 0.26615130E+00</totfact>
</mgrwt>
</event>
<event>
13    1  0.1942437E-008  0.2236097E+03  0.7546771E-02  0.1321635E+00
          4   -1    0    0  503    0 -0.00000000000E+00  0.00000000000E+00  0.13240939916E+04  0.13240939916E+04  0.00000000000E+00 0. -1.
          2   -1    0    0  502    0  0.00000000000E+00 -0.00000000000E+00 -0.34863277111E+04  0.34863277111E+04  0.00000000000E+00 0. -1.
         24    2    1    2    0    0  0.50590428935E+03 -0.48985829437E+03  0.14327584402E+03  0.72644024597E+03  0.10624106990E+03 0.  0.
         24    2    1    2    0    0 -0.58025100251E+03  0.73040771363E+02 -0.44248931892E+03  0.73780285394E+03  0.80808871556E+02 0.  0.
         25    2    1    2    0    0 -0.62035410666E+00  0.19169029794E+03 -0.10506434259E+04  0.10752776082E+04  0.12499908404E+03 0.  0.
        -11    1    4    4    0    0 -0.29472134642E+03  0.73603018199E+02 -0.20574232269E+03  0.36688960148E+03  0.00000000000E+00 0.  1.
         12    1    4    4    0    0 -0.28552965609E+03 -0.56224683597E+00 -0.23674699622E+03  0.37091325246E+03  0.00000000000E+00 0. -1.
        -13    1    3    3    0    0  0.18426496758E+03 -0.12990279418E+03  0.81743272462E+02  0.23981300383E+03  0.00000000000E+00 0.  1.
         14    1    3    3    0    0  0.32163932176E+03 -0.35995550020E+03  0.61532571562E+02  0.48662724214E+03  0.00000000000E+00 0. -1.
          5    1    5    5  501    0  0.25012507460E+01  0.23276756785E+02 -0.47184527489E+03  0.47244906297E+03  0.47000000000E+01 0. -1.
         -5    1    5    5    0  501 -0.31216048526E+01  0.16841354116E+03 -0.57879815104E+03  0.60282854520E+03  0.47000000000E+01 0. -1.
          1    1    1    2  502    0  0.29928058432E+02  0.62084081494E+01 -0.15243572750E+04  0.15246636792E+04  0.00000000000E+00 0. -1.
          3    1    1    2  503    0  0.45039008844E+02  0.21891881692E+03  0.71198045630E+03  0.74623731539E+03  0.00000000000E+00 0. -1.
<mgrwt>
<rscale>  0 0.82672131E+02</rscale>
<asrwt>0</asrwt>
<pdfrwt beam="2">  1        2 0.51269525E+00 0.30565226E+02</pdfrwt>
<pdfrwt beam="1">  1        4 0.19471970E+00 0.22360971E+03</pdfrwt>
<totfact> 0.16000484E-01</totfact>
</mgrwt>
</event>
<event>
13    1  0.1942437E-008  0.1204486E+03  0.7546771E-02  0.1327374E+00
          2   -1    0    0  502    0  0.00000000000E+00  0.00000000000E+00  0.38337387680E+04  0.38337387680E+04  0.00000000000E+00 0. -1.
          2   -1    0    0  503    0 -0.00000000000E+00 -0.00000000000E+00 -0.13965282700E+04  0.13965282700E+04  0.00000000000E+00 0. -1.
         24    2    1    2    0    0  0.28638230629E+02 -0.15440616539E+03 -0.21430666234E+03  0.28030419122E+03  0.89340259280E+02 0.  0.
         24    2    1    2    0    0 -0.86795080147E+02  0.10056672282E+03 -0.66220202594E+02  0.16856994612E+03  0.79897808644E+02 0.  0.
         25    2    1    2    0    0 -0.10013665058E+03  0.88255717196E+02  0.30811368785E+03  0.35829580128E+03  0.12500166467E+03 0.  0.
        -11    1    3    3    0    0 -0.23766988466E+01 -0.13936960311E+03 -0.13598779814E+03  0.19473627349E+03  0.00000000000E+00 0.  1.
         12    1    3    3    0    0  0.31014929476E+02 -0.15036562280E+02 -0.78318864202E+02  0.85567917735E+02  0.00000000000E+00 0. -1.
        -13    1    4    4    0    0 -0.11550416780E+02  0.22737212046E+00 -0.38404067212E+02  0.40104067179E+02  0.00000000000E+00 0.  1.
         14    1    4    4    0    0 -0.75244663367E+02  0.10033935070E+03 -0.27816135382E+02  0.12846587894E+03  0.00000000000E+00 0. -1.
          5    1    5    5  501    0  0.78186434142E+01 -0.10091265345E+02 -0.35701986399E+01  0.14064179302E+02  0.47000000000E+01 0.  1.
         -5    1    5    5    0  501 -0.10795529399E+03  0.98346982541E+02  0.31168388649E+03  0.34423162198E+03  0.47000000000E+01 0.  1.
          1    1    1    2  502    0  0.10783360176E+03 -0.53439174403E+02  0.34145773610E+04  0.34166975847E+04  0.00000000000E+00 0. -1.
          1    1    1    2  503    0  0.50459898336E+02  0.19022899782E+02 -0.10049536860E+04  0.10063995147E+04  0.00000000000E+00 0. -1.
<mgrwt>
<rscale>  0 0.80593885E+02</rscale>
<asrwt>0</asrwt>
<pdfrwt beam="1">  1        2 0.56378511E+00 0.12044856E+03</pdfrwt>
<pdfrwt beam="2">  1        2 0.20537180E+00 0.53926543E+02</pdfrwt>
<totfact> 0.26907310E+00</totfact>
</mgrwt>
</event>
<event>
13    1  0.1942437E-008  0.3842083E+02  0.7546771E-02  0.1569452E+00
          2   -1    0    0  502    0  0.00000000000E+00  0.00000000000E+00  0.40648750544E+03  0.40648750544E+03  0.00000000000E+00 0. -1.
          2   -1    0    0  503    0 -0.00000000000E+00 -0.00000000000E+00 -0.14677456072E+04  0.14677456072E+04  0.00000000000E+00 0. -1.
         24    2    1    2    0    0 -0.68181757445E+02 -0.20814237466E+02 -0.12247014979E+03  0.16318111572E+03  0.80914488257E+02 0.  0.
         24    2    1    2    0    0  0.67733787236E+02  0.18087707108E+02 -0.17205484117E+02  0.10878715946E+03  0.81385418212E+02 0.  0.
         25    2    1    2    0    0 -0.86021779438E+01 -0.16169983891E+02  0.27231688825E+03  0.30019304444E+03  0.12499564176E+03 0.  0.
        -11    1    4    4    0    0 -0.33655191741E+01  0.33191464728E+02 -0.13553267002E+02  0.36009597284E+02  0.00000000000E+00 0.  1.
         12    1    4    4    0    0  0.71099306410E+02 -0.15103757620E+02 -0.36522171151E+01  0.72777562175E+02  0.00000000000E+00 0. -1.
        -13    1    3    3    0    0  0.11554383980E+02 -0.99303816279E+01 -0.58287061160E+02  0.60245313238E+02  0.00000000000E+00 0.  1.
         14    1    3    3    0    0 -0.79736141426E+02 -0.10883855838E+02 -0.64183088625E+02  0.10293580248E+03  0.00000000000E+00 0. -1.
          5    1    5    5  501    0 -0.31219870944E+02 -0.50411538808E+02  0.62234318523E+02  0.86088349902E+02  0.47000000000E+01 0. -1.
         -5    1    5    5    0  501  0.22617693000E+02  0.34241554917E+02  0.21008256973E+03  0.21410469454E+03  0.47000000000E+01 0. -1.
          1    1    1    2  502    0  0.21903987779E+02 -0.17331500510E+02  0.50163317589E+02  0.57415363990E+02  0.00000000000E+00 0. -1.
          1    1    1    2  503    0 -0.12853839625E+02  0.36228014759E+02 -0.12440626737E+04  0.12446564290E+04  0.00000000000E+00 0. -1.
<mgrwt>
<rscale>  0 0.32758955E+02</rscale>
<asrwt>0</asrwt>
<pdfrwt beam="1">  1        2 0.59777574E-01 0.27931444E+02</pdfrwt>
<pdfrwt beam="2">  1        2 0.21584494E+00 0.38420825E+02</pdfrwt>
<totfact> 0.23041259E+02</totfact>
</mgrwt>
</event>
<event>
13    1  0.1942437E-008  0.1512984E+03  0.7546771E-02  0.1248262E+00
          2   -1    0    0  502    0  0.00000000000E+00  0.00000000000E+00  0.38877832934E+04  0.38877832934E+04  0.00000000000E+00 0. -1.
          4   -1    0    0  503    0 -0.00000000000E+00 -0.00000000000E+00 -0.66127935054E+03  0.66127935054E+03  0.00000000000E+00 0. -1.
         24    2    1    2    0    0  0.15503678312E+02 -0.38208327437E+02 -0.32616473181E+02  0.98513187445E+02  0.83311304461E+02 0.  0.
         24    2    1    2    0    0 -0.13324502179E+03  0.13069457184E+03 -0.59965809130E+02  0.21204349321E+03  0.80816073942E+02 0.  0.
         25    2    1    2    0    0  0.20666809730E+03 -0.18808098837E+03  0.68676289581E+03  0.75190055732E+03  0.12500004965E+03 0.  0.
        -13    1    4    4    0    0  0.64898697263E+01  0.45665728245E+01 -0.17294340043E+02  0.19028037049E+02  0.00000000000E+00 0.  1.
         14    1    4    4    0    0 -0.13973489151E+03  0.12612799901E+03 -0.42671469087E+02  0.19301545616E+03  0.00000000000E+00 0. -1.
        -13    1    3    3    0    0  0.13936591233E+02  0.17221140533E+02  0.13883864382E+02  0.26144941129E+02  0.00000000000E+00 0.  1.
         14    1    3    3    0    0  0.15670870787E+01 -0.55429467970E+02 -0.46500337563E+02  0.72368246316E+02  0.00000000000E+00 0. -1.
          5    1    5    5  501    0  0.16509133437E+03 -0.14160869566E+03  0.63330840449E+03  0.66963407662E+03  0.47000000000E+01 0. -1.
         -5    1    5    5    0  501  0.41576762932E+02 -0.46472292704E+02  0.53454491318E+02  0.82266480703E+02  0.47000000000E+01 0. -1.
          1    1    1    2  502    0 -0.17726337445E+02  0.15122642497E+03  0.30527671431E+04  0.30565619387E+04  0.00000000000E+00 0. -1.
          3    1    1    2  503    0 -0.71200416386E+02 -0.55631681003E+02 -0.42044381378E+03  0.43004346730E+03  0.00000000000E+00 0. -1.
<mgrwt>
<rscale>  0 0.11692248E+03</rscale>
<asrwt>0</asrwt>
<pdfrwt beam="1">  1        2 0.57173283E+00 0.15129840E+03</pdfrwt>
<pdfrwt beam="2">  1        4 0.97246965E-01 0.90356977E+02</pdfrwt>
<totfact> 0.37664761E-01</totfact>
</mgrwt>
</event>
<event>
13    1  0.1942437E-008  0.7626089E+02  0.7546771E-02  0.1374640E+00
          2   -1    0    0  502    0  0.00000000000E+00  0.00000000000E+00  0.96449209375E+03  0.96449209375E+03  0.00000000000E+00 0. -1.
          2   -1    0    0  503    0 -0.00000000000E+00 -0.00000000000E+00 -0.10829405958E+04  0.10829405958E+04  0.00000000000E+00 0. -1.
         24    2    1    2    0    0 -0.50064001216E+02 -0.10665091653E+02  0.27673554581E+02  0.10152357178E+03  0.83192918001E+02 0.  0.
         24    2    1    2    0    0  0.12338414180E+02 -0.89753147934E+01  0.15331421921E+03  0.17586303300E+03  0.84792475026E+02 0.  0.
         25    2    1    2    0    0 -0.34548789410E+02  0.11549345869E+03  0.46159895478E+03  0.49318475128E+03  0.12500098398E+03 0.  0.
        -11    1    4    4    0    0 -0.21450004562E+02  0.16762165565E+02  0.14805909670E+02  0.30988511602E+02  0.00000000000E+00 0.  1.
         12    1    4    4    0    0  0.33788418743E+02 -0.25737480358E+02  0.13850830954E+03  0.14487452139E+03  0.00000000000E+00 0. -1.
        -13    1    3    3    0    0  0.10932660757E+01  0.21958032738E+02  0.34033632292E+02  0.40517139082E+02  0.00000000000E+00 0.  1.
         14    1    3    3    0    0 -0.51157267292E+02 -0.32623124391E+02 -0.63600777104E+01  0.61006432696E+02  0.00000000000E+00 0. -1.
          5    1    5    5  501    0 -0.70485518135E+02  0.77554424947E+02  0.39335032352E+03  0.40709883826E+03  0.47000000000E+01 0. -1.
         -5    1    5    5    0  501  0.35936728726E+02  0.37939033747E+02  0.68248631257E+02  0.86085913026E+02  0.47000000000E+01 0. -1.
          1    1    1    2  502    0  0.21564933258E+02 -0.69962655623E+02  0.25190206459E+03  0.26232512207E+03  0.00000000000E+00 0. -1.
          1    1    1    2  503    0  0.50709443187E+02 -0.25890396625E+02 -0.10129372952E+04  0.10145362114E+04  0.00000000000E+00 0. -1.
<mgrwt>
<rscale>  0 0.65894043E+02</rscale>
<asrwt>0</asrwt>
<pdfrwt beam="1">  1        2 0.14183707E+00 0.76260889E+02</pdfrwt>
<pdfrwt beam="2">  1        2 0.15925597E+00 0.56936458E+02</pdfrwt>
<totfact> 0.13199135E+02</totfact>
</mgrwt>
</event>
<event>
13    1  0.1942437E-008  0.1147693E+03  0.7546771E-02  0.1387391E+00
          2   -1    0    0  503    0  0.00000000000E+00  0.00000000000E+00  0.32299295803E+04  0.32299295803E+04  0.00000000000E+00 0. -1.
          2   -1    0    0  502    0 -0.00000000000E+00 -0.00000000000E+00 -0.12316331401E+04  0.12316331401E+04  0.00000000000E+00 0. -1.
         24    2    1    2    0    0  0.13289467358E+03  0.48727980643E+02 -0.11017712502E+03  0.19599916268E+03  0.79001661559E+02 0.  0.
         24    2    1    2    0    0 -0.50086055149E+02 -0.16514161678E+03 -0.61945287369E+02  0.19998683722E+03  0.79857059310E+02 0.  0.
         25    2    1    2    0    0 -0.52359545332E+02  0.26178800226E+03  0.28990647644E+03  0.41345452752E+03  0.12499760450E+03 0.  0.
        -11    1    4    4    0    0 -0.62145970447E+01  0.80690408928E+01  0.16681579762E+01  0.10320532370E+02  0.00000000000E+00 0.  1.
         12    1    4    4    0    0 -0.43871458105E+02 -0.17321065767E+03 -0.63613445345E+02  0.18966630485E+03  0.00000000000E+00 0. -1.
        -13    1    3    3    0    0  0.11353933358E+03  0.24464178500E+02 -0.11629935257E+03  0.16436306066E+03  0.00000000000E+00 0.  1.
         14    1    3    3    0    0  0.19355340001E+02  0.24263802144E+02  0.61222275508E+01  0.31636102023E+02  0.00000000000E+00 0. -1.
          5    1    5    5  501    0 -0.73895030492E+02  0.87334423595E+02  0.15023513176E+03  0.18889272588E+03  0.47000000000E+01 0.  1.
         -5    1    5    5    0  501  0.21535485161E+02  0.17445357867E+03  0.13967134467E+03  0.22456180164E+03  0.47000000000E+01 0.  1.
          1    1    1    2  502    0 -0.25379626085E+02 -0.11165183830E+03 -0.88199913506E+03  0.88940020950E+03  0.00000000000E+00 0. -1.
          1    1    1    2  503    0 -0.50694470128E+01 -0.33722527825E+02  0.27625115112E+04  0.27627219834E+04  0.00000000000E+00 0. -1.
<mgrwt>
<rscale>  0 0.62560367E+02</rscale>
<asrwt>0</asrwt>
<pdfrwt beam="1">  1        2 0.47498964E+00 0.34101439E+02</pdfrwt>
<pdfrwt beam="2">  1        2 0.18112252E+00 0.11476933E+03</pdfrwt>
<totfact> 0.89050824E+00</totfact>
</mgrwt>
</event>
<event>
13    1  0.1942437E-008  0.1389261E+03  0.7546771E-02  0.1496362E+00
          2   -1    0    0  503    0  0.00000000000E+00  0.00000000000E+00  0.75930551212E+03  0.75930551212E+03  0.00000000000E+00 0. -1.
          2   -1    0    0  502    0 -0.00000000000E+00 -0.00000000000E+00 -0.72166907340E+03  0.72166907340E+03  0.00000000000E+00 0. -1.
         24    2    1    2    0    0 -0.62796190140E+02  0.11213548074E+03 -0.22576287153E+03  0.27264127098E+03  0.82744552352E+02 0.  0.
         24    2    1    2    0    0  0.81486522857E+02  0.24082155112E+02  0.52095144055E+02  0.12904695738E+03  0.81970784882E+02 0.  0.
         25    2    1    2    0    0 -0.15445840078E+03 -0.45492429048E+02  0.11971922720E+03  0.23640054972E+03  0.12500227147E+03 0.  0.
        -11    1    4    4    0    0  0.98211779018E+02  0.24144546883E+02  0.41994293140E+02  0.10950814279E+03  0.00000000000E+00 0.  1.
         12    1    4    4    0    0 -0.16725256161E+02 -0.62391771619E-01  0.10100850915E+02  0.19538814590E+02  0.00000000000E+00 0. -1.
        -11    1    3    3    0    0  0.17413756719E+02  0.74656025965E+01 -0.45556586048E+02  0.49339402890E+02  0.00000000000E+00 0.  1.
         12    1    3    3    0    0 -0.80209946859E+02  0.10466987815E+03 -0.18020628548E+03  0.22330186809E+03  0.00000000000E+00 0. -1.
          5    1    5    5  501    0 -0.79245703587E+02 -0.25561729684E+02  0.13333569018E+03  0.15726976772E+03  0.47000000000E+01 0.  1.
         -5    1    5    5    0  501 -0.75212697194E+02 -0.19930699364E+02 -0.13616462976E+02  0.79130782002E+02  0.47000000000E+01 0.  1.
          1    1    1    2  502    0  0.12472276746E+02 -0.67776500667E+00 -0.36306765736E+03  0.36328245329E+03  0.00000000000E+00 0. -1.
          1    1    1    2  503    0  0.12329579132E+03 -0.90047441801E+02  0.45465259635E+03  0.47960335413E+03  0.00000000000E+00 0. -1.
<mgrwt>
<rscale>  0 0.41656707E+02</rscale>
<asrwt>0</asrwt>
<pdfrwt beam="1">  1        2 0.11166258E+00 0.13892610E+03</pdfrwt>
<pdfrwt beam="2">  1        2 0.10612780E+00 0.12490679E+02</pdfrwt>
<totfact> 0.29766191E+02</totfact>
</mgrwt>
</event>
<event>
13    1  0.1942437E-008  0.6298002E+02  0.7546771E-02  0.1430989E+00
          2   -1    0    0  502    0  0.00000000000E+00  0.00000000000E+00  0.45718719964E+03  0.45718719964E+03  0.00000000000E+00 0. -1.
          2   -1    0    0  503    0 -0.00000000000E+00 -0.00000000000E+00 -0.17807881383E+04  0.17807881383E+04  0.00000000000E+00 0. -1.
         24    2    1    2    0    0 -0.12084067558E+02  0.57612350873E+02 -0.13551287407E+03  0.17536144145E+03  0.94459983309E+02 0.  0.
         24    2    1    2    0    0  0.66606758672E+02 -0.48116093904E+02 -0.49776868522E+03  0.51103993543E+03  0.81464917756E+02 0.  0.
         25    2    1    2    0    0 -0.77641218483E+02  0.92046545508E+01  0.50895060576E+02  0.15598126234E+03  0.12500784990E+03 0.  0.
        -11    1    3    3    0    0  0.40777762848E+02  0.18349034953E+02 -0.45087677896E+02  0.63501273410E+02  0.00000000000E+00 0.  1.
         12    1    3    3    0    0 -0.52861830406E+02  0.39263315920E+02 -0.90425196171E+02  0.11186016804E+03  0.00000000000E+00 0. -1.
        -11    1    4    4    0    0  0.83361382435E+01 -0.54199893004E+00 -0.77959032783E+00  0.83900372308E+01  0.00000000000E+00 0.  1.
         12    1    4    4    0    0  0.58270620428E+02 -0.47574094974E+02 -0.49698909489E+03  0.50264989820E+03  0.00000000000E+00 0. -1.
          5    1    5    5  501    0  0.16030597911E+02 -0.28729487011E+02 -0.13701579776E+02  0.35946999620E+02  0.47000000000E+01 0. -1.
         -5    1    5    5    0  501 -0.93671816394E+02  0.37934141562E+02  0.64596640351E+02  0.12003426272E+03  0.47000000000E+01 0. -1.
          1    1    1    2  502    0  0.96946893378E+01  0.43125603704E+02  0.32475404047E+03  0.32774836612E+03  0.00000000000E+00 0. -1.
          1    1    1    2  503    0  0.13423838031E+02 -0.61826515224E+02 -0.10659684804E+04  0.10678443326E+04  0.00000000000E+00 0. -1.
<mgrwt>
<rscale>  0 0.52762054E+02</rscale>
<asrwt>0</asrwt>
<pdfrwt beam="1">  1        2 0.67233411E-01 0.44201863E+02</pdfrwt>
<pdfrwt beam="2">  1        2 0.26188061E+00 0.62980023E+02</pdfrwt>
<totfact> 0.13931743E+02</totfact>
</mgrwt>
</event>
<event>
13    1  0.1942437E-008  0.7109693E+02  0.7546771E-02  0.1469972E+00
          2   -1    0    0  502    0  0.00000000000E+00  0.00000000000E+00  0.99043492750E+03  0.99043492750E+03  0.00000000000E+00 0. -1.
          2   -1    0    0  503    0 -0.00000000000E+00 -0.00000000000E+00 -0.16729702380E+04  0.16729702380E+04  0.00000000000E+00 0. -1.
         24    2    1    2    0    0 -0.17560779367E+03 -0.19531288688E+01 -0.67317100867E+03  0.70021724092E+03  0.79391848824E+02 0.  0.
         24    2    1    2    0    0  0.27470781899E+03 -0.21046576175E+01 -0.25314184175E+03  0.38198904204E+03  0.79787347357E+02 0.  0.
         25    2    1    2    0    0 -0.46436396030E+02 -0.45127923961E+02  0.58830692544E+03  0.60491524865E+03  0.12499820450E+03 0.  0.
        -11    1    3    3    0    0 -0.12131126121E+03  0.99497802292E+01 -0.57174882507E+03  0.58456149308E+03  0.00000000000E+00 0.  1.
         12    1    3    3    0    0 -0.54296532466E+02 -0.11902909098E+02 -0.10142218360E+03  0.11565574784E+03  0.00000000000E+00 0. -1.
        -13    1    4    4    0    0  0.55273853642E+02 -0.15764426665E+02 -0.95470443249E+02  0.11143752321E+03  0.00000000000E+00 0.  1.
         14    1    4    4    0    0  0.21943396535E+03  0.13659769047E+02 -0.15767139850E+03  0.27055151883E+03  0.00000000000E+00 0. -1.
          5    1    5    5  501    0 -0.69908093790E+02 -0.70521767037E+02  0.50329992112E+03  0.51302374390E+03  0.47000000000E+01 0. -1.
         -5    1    5    5    0  501  0.23471697760E+02  0.25393843076E+02  0.85007004319E+02  0.91891504749E+02  0.47000000000E+01 0. -1.
          1    1    1    2  502    0 -0.24558242947E+02 -0.16135918672E+02  0.31327327704E+03  0.31464840898E+03  0.00000000000E+00 0. -1.
          1    1    1    2  503    0 -0.28105386338E+02  0.65321629119E+02 -0.65780266255E+03  0.66163522490E+03  0.00000000000E+00 0. -1.
<mgrwt>
<rscale>  0 0.45707545E+02</rscale>
<asrwt>0</asrwt>
<pdfrwt beam="1">  1        2 0.14565220E+00 0.29384948E+02</pdfrwt>
<pdfrwt beam="2">  1        2 0.24602503E+00 0.71096932E+02</pdfrwt>
<totfact> 0.66779921E+01</totfact>
</mgrwt>
</event>
<event>
13    1  0.1942437E-008  0.8853825E+02  0.7546771E-02  0.1473377E+00
          2   -1    0    0  502    0  0.00000000000E+00  0.00000000000E+00  0.63114671431E+03  0.63114671431E+03  0.00000000000E+00 0. -1.
          2   -1    0    0  503    0 -0.00000000000E+00 -0.00000000000E+00 -0.19791489880E+04  0.19791489880E+04  0.00000000000E+00 0. -1.
         24    2    1    2    0    0 -0.40514572836E+02 -0.84087716204E+02 -0.10417796935E+03  0.16060982504E+03  0.78932198574E+02 0.  0.
         24    2    1    2    0    0 -0.48904833928E+02  0.52815067260E+01 -0.15163089482E+03  0.17836050351E+03  0.80006023860E+02 0.  0.
         25    2    1    2    0    0  0.16423203260E+03  0.84144313166E+02  0.11241642889E+03  0.24963114141E+03  0.12500330920E+03 0.  0.
        -11    1    4    4    0    0 -0.17405621757E+02 -0.11168553506E+02 -0.13917748171E+03  0.14070559218E+03  0.00000000000E+00 0.  1.
         12    1    4    4    0    0 -0.31499212171E+02  0.16450060233E+02 -0.12453413109E+02  0.37654911328E+02  0.00000000000E+00 0. -1.
        -13    1    3    3    0    0 -0.22891898105E+02  0.23461750288E+01 -0.54989738735E+02  0.59610526774E+02  0.00000000000E+00 0.  1.
         14    1    3    3    0    0 -0.17622674731E+02 -0.86433891233E+02 -0.49188230614E+02  0.10099929826E+03  0.00000000000E+00 0. -1.
          5    1    5    5  501    0  0.16018600493E+03  0.35655466896E+02  0.11537198056E+03  0.20065804841E+03  0.47000000000E+01 0. -1.
         -5    1    5    5    0  501  0.40460276728E+01  0.48488846270E+02 -0.29555516738E+01  0.48973093002E+02  0.47000000000E+01 0. -1.
          1    1    1    2  502    0  0.98652077852E+01  0.20809118697E+02  0.40699926410E+03  0.40765027012E+03  0.00000000000E+00 0. -1.
          1    1    1    2  503    0 -0.84677833621E+02 -0.26147222385E+02 -0.16116091025E+04  0.16140439622E+04  0.00000000000E+00 0. -1.
<mgrwt>
<rscale>  0 0.45154852E+02</rscale>
<asrwt>0</asrwt>
<pdfrwt beam="1">  1        2 0.92815694E-01 0.23029150E+02</pdfrwt>
<pdfrwt beam="2">  1        2 0.29105132E+00 0.88538251E+02</pdfrwt>
<totfact> 0.78211470E+01</totfact>
</mgrwt>
</event>
<event>
13    1  0.1942437E-008  0.1205716E+03  0.7546771E-02  0.1274982E+00
          2   -1    0    0  503    0  0.00000000000E+00  0.00000000000E+00  0.22850678978E+04  0.22850678978E+04  0.00000000000E+00 0. -1.
          2   -1    0    0  502    0 -0.00000000000E+00 -0.00000000000E+00 -0.20212964476E+04  0.20212964476E+04  0.00000000000E+00 0. -1.
         24    2    1    2    0    0  0.44818647491E+02  0.36259181956E+02 -0.41305019605E+03  0.42425076411E+03  0.77812640068E+02 0.  0.
         24    2    1    2    0    0  0.12796045723E+03 -0.66453298484E+01 -0.12105564894E+03  0.19311779415E+03  0.78879485615E+02 0.  0.
         25    2    1    2    0    0 -0.17599212392E+03  0.37644448155E+01 -0.27521595649E+02  0.21765290285E+03  0.12501179610E+03 0.  0.
        -11    1    4    4    0    0  0.96890098585E+02  0.29361591593E+02 -0.95268187781E+02  0.13901734377E+03  0.00000000000E+00 0.  1.
         12    1    4    4    0    0  0.31070358647E+02 -0.36006921441E+02 -0.25787461163E+02  0.54100450380E+02  0.00000000000E+00 0. -1.
        -11    1    3    3    0    0  0.65784664923E+02  0.30073495481E+02 -0.35327436466E+03  0.36060340263E+03  0.00000000000E+00 0.  1.
         12    1    3    3    0    0 -0.20966017432E+02  0.61856864752E+01 -0.59775831393E+02  0.63647361476E+02  0.00000000000E+00 0. -1.
          5    1    5    5  501    0 -0.92104964385E+02  0.55429292786E+02  0.17874422294E+02  0.10907481806E+03  0.47000000000E+01 0.  1.
         -5    1    5    5    0  501 -0.83887159530E+02 -0.51664847970E+02 -0.45396017943E+02  0.10857808478E+03  0.47000000000E+01 0.  1.
          1    1    1    2  502    0 -0.10271777311E+02  0.86649977411E+02 -0.13198326149E+04  0.13227138237E+04  0.00000000000E+00 0. -1.
          1    1    1    2  503    0  0.13484796504E+02 -0.12002827433E+03  0.21452315058E+04  0.21486290606E+04  0.00000000000E+00 0. -1.
<mgrwt>
<rscale>  0 0.10257037E+03</rscale>
<asrwt>0</asrwt>
<pdfrwt beam="1">  1        2 0.33603940E+00 0.12057164E+03</pdfrwt>
<pdfrwt beam="2">  1        2 0.29724948E+00 0.87256679E+02</pdfrwt>
<totfact> 0.92248293E+00</totfact>
</mgrwt>
</event>
<event>
13    1  0.1942437E-008  0.1819345E+03  0.7546771E-02  0.1241362E+00
          2   -1    0    0  502    0  0.00000000000E+00  0.00000000000E+00  0.56956358725E+03  0.56956358725E+03  0.00000000000E+00 0. -1.
          2   -1    0    0  503    0 -0.00000000000E+00 -0.00000000000E+00 -0.30045296263E+04  0.30045296263E+04  0.00000000000E+00 0. -1.
         24    2    1    2    0    0 -0.86212158546E+02 -0.29341885111E+02 -0.28906216094E+03  0.31302463770E+03  0.78319910709E+02 0.  0.
         24    2    1    2    0    0 -0.26047070238E+02 -0.11005491841E+03 -0.22866413708E+03  0.26763695312E+03  0.80942672046E+02 0.  0.
         25    2    1    2    0    0 -0.28340178328E+03  0.14021845753E+01  0.77266537814E+02  0.31923890071E+03  0.12499928388E+03 0.  0.
        -11    1    3    3    0    0  0.31738051219E-01  0.12972699825E+02 -0.63632127845E+01  0.14449305346E+02  0.00000000000E+00 0.  1.
         12    1    3    3    0    0 -0.86243896598E+02 -0.42314584936E+02 -0.28269894816E+03  0.29857533235E+03  0.00000000000E+00 0. -1.
        -13    1    4    4    0    0  0.57126534219E+01 -0.12401520631E+02  0.32236146023E+01  0.14029391084E+02  0.00000000000E+00 0.  1.
         14    1    4    4    0    0 -0.31759723660E+02 -0.97653397776E+02 -0.23188775168E+03  0.25360756204E+03  0.00000000000E+00 0. -1.
          5    1    5    5  501    0 -0.15347575867E+02 -0.22446516879E+02 -0.18871199350E+02  0.33430620244E+02  0.47000000000E+01 0. -1.
         -5    1    5    5    0  501 -0.26805420742E+03  0.23848701454E+02  0.96137737164E+02  0.28580828046E+03  0.47000000000E+01 0. -1.
          1    1    1    2  502    0  0.75363185328E+02 -0.28440116619E+02  0.32088175799E+03  0.33083765286E+03  0.00000000000E+00 0. -1.
          1    1    1    2  503    0  0.32029782674E+03  0.16643473556E+03 -0.23153880369E+04  0.23433550692E+04  0.00000000000E+00 0. -1.
<mgrwt>
<rscale>  0 0.12105779E+03</rscale>
<asrwt>0</asrwt>
<pdfrwt beam="1">  1        2 0.83759352E-01 0.80550915E+02</pdfrwt>
<pdfrwt beam="2">  1        2 0.44184259E+00 0.18193447E+03</pdfrwt>
<totfact> 0.23652128E+01</totfact>
</mgrwt>
</event>
<event>
13    1  0.1942437E-008  0.8959352E+02  0.7546771E-02  0.1474842E+00
          2   -1    0    0  503    0  0.00000000000E+00  0.00000000000E+00  0.10106079739E+04  0.10106079739E+04  0.00000000000E+00 0. -1.
          2   -1    0    0  502    0 -0.00000000000E+00 -0.00000000000E+00 -0.14625719273E+04  0.14625719273E+04  0.00000000000E+00 0. -1.
         24    2    1    2    0    0 -0.34980848674E+02 -0.40206004439E+02 -0.11467146255E+04  0.11508803893E+04  0.82043010616E+02 0.  0.
         24    2    1    2    0    0  0.29568563650E+02 -0.15277866732E+02  0.28647602881E+02  0.91544847772E+02  0.80324721192E+02 0.  0.
         25    2    1    2    0    0  0.31128683786E+02 -0.51964354959E+02  0.80490507781E+02  0.16053830867E+03  0.12499815025E+03 0.  0.
        -11    1    3    3    0    0 -0.21845421770E+02  0.38762673796E+01 -0.75848890221E+02  0.79027223467E+02  0.00000000000E+00 0.  1.
         12    1    3    3    0    0 -0.13135426904E+02 -0.44082271819E+02 -0.10708657353E+04  0.10718531659E+04  0.00000000000E+00 0. -1.
        -11    1    4    4    0    0  0.10767704174E+02  0.28607457183E+02 -0.77218587158E+01  0.31527086159E+02  0.00000000000E+00 0.  1.
         12    1    4    4    0    0  0.18800859476E+02 -0.43885323915E+02  0.36369461597E+02  0.60017761613E+02  0.00000000000E+00 0. -1.
          5    1    5    5  501    0  0.60014176215E+02 -0.15761218477E+00 -0.30303096660E+00  0.60198903779E+02  0.47000000000E+01 0. -1.
         -5    1    5    5    0  501 -0.28885492430E+02 -0.51806742775E+02  0.80793538748E+02  0.10033940489E+03  0.47000000000E+01 0. -1.
          1    1    1    2  502    0  0.11620771186E+02 -0.19292188546E+02 -0.23649205848E+03  0.23756204365E+03  0.00000000000E+00 0. -1.
          1    1    1    2  503    0 -0.37337169947E+02  0.12674041468E+03  0.82210461992E+03  0.83265431186E+03  0.00000000000E+00 0. -1.
<mgrwt>
<rscale>  0 0.44919996E+02</rscale>
<asrwt>0</asrwt>
<pdfrwt beam="1">  1        2 0.14861882E+00 0.89593517E+02</pdfrwt>
<pdfrwt beam="2">  1        2 0.21508411E+00 0.22521786E+02</pdfrwt>
<totfact> 0.85520911E+01</totfact>
</mgrwt>
</event>
<event>
13    1  0.1942437E-008  0.6859222E+02  0.7546771E-02  0.1451110E+00
          2   -1    0    0  503    0  0.00000000000E+00  0.00000000000E+00  0.20682576697E+04  0.20682576697E+04  0.00000000000E+00 0. -1.
          2   -1    0    0  502    0 -0.00000000000E+00 -0.00000000000E+00 -0.99308038109E+03  0.99308038109E+03  0.00000000000E+00 0. -1.
         24    2    1    2    0    0  0.16184568306E+03 -0.14225350884E+02 -0.44038959839E+03  0.47521374572E+03  0.74085896215E+02 0.  0.
         24    2    1    2    0    0 -0.92844558054E+02  0.92258223221E+01 -0.98169547613E+01  0.12238408940E+03  0.78589216690E+02 0.  0.
         25    2    1    2    0    0 -0.14521088480E+03 -0.29115454253E+02  0.33510027781E+03  0.38710576633E+03  0.12499906958E+03 0.  0.
        -11    1    4    4    0    0 -0.60455999266E+02  0.41502140534E+02  0.70017977672E+01  0.73663971438E+02  0.00000000000E+00 0.  1.
         12    1    4    4    0    0 -0.32388558788E+02 -0.32276318212E+02 -0.16818752528E+02  0.48720117963E+02  0.00000000000E+00 0. -1.
        -13    1    3    3    0    0  0.59028208594E+02 -0.39075082856E+02 -0.14278739503E+03  0.15937199154E+03  0.00000000000E+00 0.  1.
         14    1    3    3    0    0  0.10281747447E+03  0.24849731971E+02 -0.29760220336E+03  0.31584175418E+03  0.00000000000E+00 0. -1.
          5    1    5    5  501    0  0.21631248133E+02 -0.12624542228E+02  0.34648913144E+02  0.43010779396E+02  0.47000000000E+01 0. -1.
         -5    1    5    5    0  501 -0.16684213294E+03 -0.16490912024E+02  0.30045136467E+03  0.34409498693E+03  0.47000000000E+01 0. -1.
          1    1    1    2  502    0  0.45689317133E+02  0.51097450812E+02 -0.44033686169E+03  0.44564000600E+03  0.00000000000E+00 0. -1.
          1    1    1    2  503    0  0.30520442662E+02 -0.16982467997E+02  0.16306204256E+04  0.16309944433E+04  0.00000000000E+00 0. -1.
<mgrwt>
<rscale>  0 0.48946162E+02</rscale>
<asrwt>0</asrwt>
<pdfrwt beam="1">  1        2 0.30415554E+00 0.34927090E+02</pdfrwt>
<pdfrwt beam="2">  1        2 0.14604123E+00 0.68592223E+02</pdfrwt>
<totfact> 0.45032399E+01</totfact>
</mgrwt>
</event>
<event>
13    1  0.1942437E-008  0.1107481E+03  0.7546771E-02  0.1340351E+00
          2   -1    0    0  502    0  0.00000000000E+00  0.00000000000E+00  0.92349854083E+03  0.92349854083E+03  0.00000000000E+00 0. -1.
          2   -1    0    0  503    0 -0.00000000000E+00 -0.00000000000E+00 -0.29622693918E+04  0.29622693918E+04  0.00000000000E+00 0. -1.
         24    2    1    2    0    0 -0.21025016295E+03 -0.42166540865E+03 -0.83707877141E+03  0.96391138676E+03  0.80108951478E+02 0.  0.
         24    2    1    2    0    0  0.55824393438E+03  0.31620438371E+03 -0.27075457258E+03  0.69851304840E+03  0.54689465751E+02 0.  0.
         25    2    1    2    0    0 -0.19881859597E+03  0.45698847630E+02  0.44348731401E+02  0.24332902871E+03  0.12499994982E+03 0.  0.
        -11    1    4    4    0    0  0.40120776329E+03  0.23034611092E+03 -0.22127122424E+03  0.51282351235E+03  0.00000000000E+00 0.  1.
         12    1    4    4    0    0  0.15703617108E+03  0.85858272792E+02 -0.49483348345E+02  0.18568953605E+03  0.00000000000E+00 0. -1.
        -13    1    3    3    0    0 -0.13892718848E+03 -0.19635385104E+03 -0.38990741315E+03  0.45813031918E+03  0.00000000000E+00 0.  1.
         14    1    3    3    0    0 -0.71322974472E+02 -0.22531155761E+03 -0.44717135825E+03  0.50578106758E+03  0.00000000000E+00 0. -1.
          5    1    5    5  501    0 -0.15444967029E+03  0.81458094172E+02  0.58877404119E+02  0.18433328640E+03  0.47000000000E+01 0. -1.
         -5    1    5    5    0  501 -0.44368925684E+02 -0.35759246541E+02 -0.14528672718E+02  0.58995742308E+02  0.47000000000E+01 0. -1.
          1    1    1    2  502    0 -0.51823035106E+02  0.74695303875E+01  0.49892618750E+03  0.50166598591E+03  0.00000000000E+00 0. -1.
          1    1    1    2  503    0 -0.97352140344E+02  0.52292646928E+02 -0.14742124259E+04  0.14783484829E+04  0.00000000000E+00 0. -1.
<mgrwt>
<rscale>  0 0.76148638E+02</rscale>
<asrwt>0</asrwt>
<pdfrwt beam="1">  1        2 0.13580861E+00 0.52358580E+02</pdfrwt>
<pdfrwt beam="2">  1        2 0.43562784E+00 0.11074814E+03</pdfrwt>
<totfact> 0.15567525E+01</totfact>
</mgrwt>
</event>
<event>
13    1  0.1942437E-008  0.4446122E+02  0.7546771E-02  0.1489259E+00
          2   -1    0    0  502    0  0.00000000000E+00  0.00000000000E+00  0.29454294904E+04  0.29454294904E+04  0.00000000000E+00 0. -1.
          2   -1    0    0  503    0 -0.00000000000E+00 -0.00000000000E+00 -0.15084848560E+04  0.15084848560E+04  0.00000000000E+00 0. -1.
         24    2    1    2    0    0 -0.12303436932E+04  0.98191309816E+02  0.67142828166E+02  0.12380132711E+04  0.69148849997E+02 0.  0.
         24    2    1    2    0    0  0.11440925352E+04 -0.23561932405E+03  0.75624161500E+03  0.13937146546E+04  0.77942049708E+02 0.  0.
         25    2    1    2    0    0  0.42338873487E+02  0.92653235541E+02  0.15734699035E+03  0.22530240590E+03  0.12500358582E+03 0.  0.
        -13    1    3    3    0    0 -0.27600327238E+03 -0.63140338725E+01  0.94946646055E+01  0.27623870483E+03  0.00000000000E+00 0.  1.
         14    1    3    3    0    0 -0.95434042080E+03  0.10450534369E+03  0.57648163560E+02  0.96177456630E+03  0.00000000000E+00 0. -1.
        -13    1    4    4    0    0  0.31992553464E+03 -0.96787685751E+02  0.19482752596E+03  0.38688237063E+03  0.00000000000E+00 0.  1.
         14    1    4    4    0    0  0.82416700056E+03 -0.13883163830E+03  0.56141408904E+03  0.10068322839E+04  0.00000000000E+00 0. -1.
          5    1    5    5  501    0  0.44650967235E+02  0.56325841875E+01 -0.19297551851E+00  0.45249995792E+02  0.47000000000E+01 0. -1.
         -5    1    5    5    0  501 -0.23120937476E+01  0.87020651354E+02  0.15753996587E+03  0.18005241011E+03  0.47000000000E+01 0. -1.
          1    1    1    2  502    0  0.44299029923E+02  0.37755174078E+01  0.10253293681E+04  0.10262928294E+04  0.00000000000E+00 0. -1.
          1    1    1    2  503    0 -0.38674543419E+00  0.40999261288E+02 -0.56911616726E+03  0.57059118538E+03  0.00000000000E+00 0. -1.
<mgrwt>
<rscale>  0 0.42696117E+02</rscale>
<asrwt>0</asrwt>
<pdfrwt beam="1">  1        2 0.43315140E+00 0.44461223E+02</pdfrwt>
<pdfrwt beam="2">  1        2 0.22183601E+00 0.41001085E+02</pdfrwt>
<totfact> 0.93534378E+00</totfact>
</mgrwt>
</event>
<event>
13    1  0.1942437E-008  0.1141443E+03  0.7546771E-02  0.1285753E+00
          2   -1    0    0  502    0  0.00000000000E+00  0.00000000000E+00  0.12198689084E+04  0.12198689084E+04  0.00000000000E+00 0. -1.
          2   -1    0    0  503    0 -0.00000000000E+00 -0.00000000000E+00 -0.23919169073E+04  0.23919169073E+04  0.00000000000E+00 0. -1.
         24    2    1    2    0    0 -0.42132420089E+00 -0.30612888564E+01 -0.15140589748E+03  0.17188582341E+03  0.81310771095E+02 0.  0.
         24    2    1    2    0    0 -0.31157781993E+02 -0.12841741395E+02 -0.94852276697E+02  0.12639198495E+03  0.76434689535E+02 0.  0.
         25    2    1    2    0    0 -0.67525739144E+02 -0.70178879933E+02  0.22631711970E+03  0.27625366819E+03  0.12494738847E+03 0.  0.
        -13    1    3    3    0    0  0.31873308629E+02 -0.24165219891E+02 -0.99296554437E+02  0.10704985464E+03  0.00000000000E+00 0.  1.
         14    1    3    3    0    0 -0.32294632830E+02  0.21103931034E+02 -0.52109343038E+02  0.64835968772E+02  0.00000000000E+00 0. -1.
        -13    1    4    4    0    0 -0.52161758130E+02 -0.21682541157E+02 -0.83807796037E+02  0.10106793893E+03  0.00000000000E+00 0.  1.
         14    1    4    4    0    0  0.21003976136E+02  0.88407997622E+01 -0.11044480659E+02  0.25324046024E+02  0.00000000000E+00 0. -1.
          5    1    5    5  501    0 -0.72077056181E+02 -0.67502446965E+02  0.24070858048E+03  0.26021989373E+03  0.47000000000E+01 0. -1.
         -5    1    5    5    0  501  0.45513170375E+01 -0.26764329680E+01 -0.14391460781E+02  0.16033774466E+02  0.47000000000E+01 0. -1.
          1    1    1    2  502    0  0.43507897134E+02 -0.70910686958E+02  0.93741808000E+03  0.94110250204E+03  0.00000000000E+00 0. -1.
          1    1    1    2  503    0  0.55596948205E+02  0.15699259714E+03 -0.20895250245E+04  0.20961518371E+04  0.00000000000E+00 0. -1.
<mgrwt>
<rscale>  0 0.97449257E+02</rscale>
<asrwt>0</asrwt>
<pdfrwt beam="1">  1        2 0.17939249E+00 0.83196100E+02</pdfrwt>
<pdfrwt beam="2">  1        2 0.35175248E+00 0.11414427E+03</pdfrwt>
<totfact> 0.20375832E+01</totfact>
</mgrwt>
</event>
<event>
13    1  0.1942437E-008  0.5477037E+02  0.7546771E-02  0.1437849E+00
          2   -1    0    0  503    0  0.00000000000E+00  0.00000000000E+00  0.97492062255E+03  0.97492062255E+03  0.00000000000E+00 0. -1.
          2   -1    0    0  502    0 -0.00000000000E+00 -0.00000000000E+00 -0.21574224202E+04  0.21574224202E+04  0.00000000000E+00 0. -1.
         24    2    1    2    0    0 -0.67468595107E+02 -0.98691983940E+01 -0.44316298748E+02  0.11505927324E+03  0.81395882092E+02 0.  0.
         24    2    1    2    0    0  0.11468974104E+03 -0.14203348360E+03 -0.49936356612E+03  0.53817707394E+03  0.83326733890E+02 0.  0.
         25    2    1    2    0    0 -0.61636301837E+02  0.13758898246E+03  0.48904245683E+03  0.52680125708E+03  0.12500911200E+03 0.  0.
        -11    1    3    3    0    0  0.10616728520E+02  0.11843941322E+02 -0.28270958842E+02  0.32438264200E+02  0.00000000000E+00 0.  1.
         12    1    3    3    0    0 -0.78085323627E+02 -0.21713139716E+02 -0.16045339906E+02  0.82621009041E+02  0.00000000000E+00 0. -1.
        -13    1    4    4    0    0  0.77605637725E+02 -0.13206078338E+03 -0.32029880919E+03  0.35504086058E+03  0.00000000000E+00 0.  1.
         14    1    4    4    0    0  0.37084103318E+02 -0.99727002240E+01 -0.17906475694E+03  0.18313621337E+03  0.00000000000E+00 0. -1.
          5    1    5    5  501    0 -0.76827835739E+02  0.10721322620E+03  0.22743207988E+03  0.26295367116E+03  0.47000000000E+01 0.  1.
         -5    1    5    5    0  501  0.15191533902E+02  0.30375756261E+02  0.26161037695E+03  0.26384758593E+03  0.47000000000E+01 0.  1.
          1    1    1    2  502    0  0.28932337813E+02 -0.38635319890E+02 -0.15378764795E+04  0.15386337557E+04  0.00000000000E+00 0. -1.
          1    1    1    2  503    0 -0.14517181912E+02  0.52949019430E+02  0.41001208990E+03  0.41367168273E+03  0.00000000000E+00 0. -1.
<mgrwt>
<rscale>  0 0.51416325E+02</rscale>
<asrwt>0</asrwt>
<pdfrwt beam="1">  1        2 0.14337068E+00 0.54770375E+02</pdfrwt>
<pdfrwt beam="2">  1        2 0.31726800E+00 0.48267672E+02</pdfrwt>
<totfact> 0.40755363E+01</totfact>
</mgrwt>
</event>
<event>
13    1  0.1942437E-008  0.1106024E+03  0.7546771E-02  0.1277818E+00
         -3   -1    0    0    0  501 -0.00000000000E+00  0.00000000000E+00  0.64059062763E+03  0.64059062763E+03  0.00000000000E+00 0.  1.
          2   -1    0    0  503    0  0.00000000000E+00 -0.00000000000E+00 -0.18758422015E+04  0.18758422015E+04  0.00000000000E+00 0. -1.
         24    2    1    2    0    0 -0.70176155958E+02  0.15772232518E+03  0.13920880486E+03  0.23600942742E+03  0.80748583623E+02 0.  0.
         24    2    1    2    0    0  0.20507697667E+03 -0.40107328439E+03 -0.77673846765E+02  0.46444300557E+03  0.82205432551E+02 0.  0.
         25    2    1    2    0    0 -0.14429084242E+03  0.41252980244E+02 -0.44925612886E+03  0.48987578371E+03  0.12500223422E+03 0.  0.
        -11    1    3    3    0    0 -0.36775764078E+02  0.12173677285E+03  0.55045837822E+02  0.13857251874E+03  0.00000000000E+00 0.  1.
         12    1    3    3    0    0 -0.33400391880E+02  0.35985552333E+02  0.84162967036E+02  0.97436908688E+02  0.00000000000E+00 0. -1.
        -11    1    4    4    0    0  0.10118254876E+03 -0.26239316776E+03 -0.20494169579E+02  0.28197179584E+03  0.00000000000E+00 0.  1.
         12    1    4    4    0    0  0.10389442790E+03 -0.13868011663E+03 -0.57179677186E+02  0.18247120973E+03  0.00000000000E+00 0. -1.
          5    1    5    5  502    0 -0.70419125522E+02 -0.35076180231E+02 -0.11738332023E+03  0.14138644040E+03  0.47000000000E+01 0.  1.
         -5    1    5    5    0  502 -0.73871716903E+02  0.76329160475E+02 -0.33187280863E+03  0.34848934331E+03  0.47000000000E+01 0.  1.
          1    1    1    2  503    0  0.39067333195E+00  0.10996198870E+03 -0.10749527512E+04  0.10805624503E+04  0.00000000000E+00 0. -1.
         -4    1    1    2    0  501  0.89993483831E+01  0.92135990268E+02  0.22742234811E+03  0.24554216215E+03  0.00000000000E+00 0.  1.
<mgrwt>
<rscale>  0 0.10118774E+03</rscale>
<asrwt>0</asrwt>
<pdfrwt beam="2">  1        2 0.27585915E+00 0.11060242E+03</pdfrwt>
<pdfrwt beam="1">  1       -3 0.94204503E-01 0.92574451E+02</pdfrwt>
<totfact> 0.65889497E+00</totfact>
</mgrwt>
</event>
<event>
13    1  0.1942437E-008  0.1253307E+03  0.7546771E-02  0.1266337E+00
          2   -1    0    0  503    0  0.00000000000E+00  0.00000000000E+00  0.19111476564E+04  0.19111476564E+04  0.00000000000E+00 0. -1.
          2   -1    0    0  502    0 -0.00000000000E+00 -0.00000000000E+00 -0.38652050178E+04  0.38652050178E+04  0.00000000000E+00 0. -1.
         24    2    1    2    0    0  0.40812691675E+03  0.12688430325E+03 -0.49535481335E+03  0.65886952761E+03  0.77881042081E+02 0.  0.
         24    2    1    2    0    0 -0.73219160232E+03 -0.25763051683E+03  0.50603574011E+03  0.92988366703E+03  0.78316270563E+02 0.  0.
         25    2    1    2    0    0  0.45470364368E+03 -0.23345637830E+02  0.33294853645E+03  0.57773724992E+03  0.12500071857E+03 0.  0.
        -11    1    4    4    0    0 -0.43223581246E+03 -0.17292367241E+03  0.34203413563E+03  0.57768308266E+03  0.00000000000E+00 0.  1.
         12    1    4    4    0    0 -0.29995578985E+03 -0.84706844421E+02  0.16400160448E+03  0.35220058437E+03  0.00000000000E+00 0. -1.
        -13    1    3    3    0    0  0.38329991055E+03  0.10445101477E+03 -0.42989464191E+03  0.58535308922E+03  0.00000000000E+00 0.  1.
         14    1    3    3    0    0  0.24827006198E+02  0.22433288474E+02 -0.65460171434E+02  0.73516438385E+02  0.00000000000E+00 0. -1.
          5    1    5    5  501    0  0.35210405108E+03  0.15910216336E+02  0.30021809420E+03  0.46301554170E+03  0.47000000000E+01 0. -1.
         -5    1    5    5    0  501  0.10259959260E+03 -0.39255854166E+02  0.32730442255E+02  0.11472170823E+03  0.47000000000E+01 0. -1.
          1    1    1    2  502    0 -0.82587297931E+02  0.38814106737E+02 -0.29471183723E+04  0.29485308032E+04  0.00000000000E+00 0. -1.
          1    1    1    2  503    0 -0.48051660177E+02  0.11527774467E+03  0.64943154771E+03  0.66133142646E+03  0.00000000000E+00 0. -1.
<mgrwt>
<rscale>  0 0.10694327E+03</rscale>
<asrwt>0</asrwt>
<pdfrwt beam="1">  1        2 0.28105113E+00 0.12533071E+03</pdfrwt>
<pdfrwt beam="2">  1        2 0.56841249E+00 0.91253475E+02</pdfrwt>
<totfact> 0.14206354E+00</totfact>
</mgrwt>
</event>
<event>
13    1  0.1942437E-008  0.2954724E+02  0.7546771E-02  0.1637683E+00
         -1   -1    0    0    0  501  0.00000000000E+00  0.00000000000E+00  0.13853333586E+04  0.13853333586E+04  0.00000000000E+00 0.  1.
         -1   -1    0    0    0  502 -0.00000000000E+00 -0.00000000000E+00 -0.10344904377E+04  0.10344904377E+04  0.00000000000E+00 0.  1.
         24    2    1    2    0    0 -0.41425022949E+02 -0.98370731169E+02 -0.42834295883E+03  0.45013351226E+03  0.88032125962E+02 0.  0.
         24    2    1    2    0    0 -0.11615566000E+03  0.15602600348E+03 -0.38482775868E+03  0.43866269700E+03  0.80599669800E+02 0.  0.
         25    2    1    2    0    0  0.12655147233E+03 -0.65680175428E+02  0.97176848734E+03  0.99009517635E+03  0.12500121862E+03 0.  0.
        -13    1    4    4    0    0 -0.99705254191E+02  0.95731096444E+02 -0.32018980243E+03  0.34875075645E+03  0.00000000000E+00 0.  1.
         14    1    4    4    0    0 -0.16450405814E+02  0.60294907032E+02 -0.64637956250E+02  0.89911940550E+02  0.00000000000E+00 0. -1.
        -13    1    3    3    0    0  0.15813831839E+02 -0.54689917488E+02 -0.11127285460E+03  0.12499084975E+03  0.00000000000E+00 0.  1.
         14    1    3    3    0    0 -0.57238854788E+02 -0.43680813682E+02 -0.31707010423E+03  0.32514266250E+03  0.00000000000E+00 0. -1.
          5    1    5    5  503    0 -0.10339539477E+02  0.60217071759E+01  0.10859089619E+02  0.16827859676E+02  0.47000000000E+01 0.  1.
         -5    1    5    5    0  503  0.13689101180E+03 -0.71701882603E+02  0.96090939772E+03  0.97326731668E+03  0.47000000000E+01 0.  1.
         -2    1    1    2    0  501  0.16431060921E+02 -0.17674519662E+02  0.36493474221E+03  0.36573177942E+03  0.00000000000E+00 0.  1.
         -2    1    1    2    0  502  0.14598149706E+02  0.25699422783E+02 -0.17268959110E+03  0.17520063122E+03  0.00000000000E+00 0.  1.
<mgrwt>
<rscale>  0 0.26702869E+02</rscale>
<asrwt>0</asrwt>
<pdfrwt beam="1">  1       -1 0.20372549E+00 0.24132310E+02</pdfrwt>
<pdfrwt beam="2">  1       -1 0.15213095E+00 0.29547241E+02</pdfrwt>
<totfact> 0.71023520E-01</totfact>
</mgrwt>
</event>
<event>
13    1  0.1942437E-008  0.8635835E+02  0.7546771E-02  0.1363000E+00
          2   -1    0    0  502    0  0.00000000000E+00  0.00000000000E+00  0.12045224350E+04  0.12045224350E+04  0.00000000000E+00 0. -1.
          2   -1    0    0  503    0 -0.00000000000E+00 -0.00000000000E+00 -0.64095103416E+03  0.64095103416E+03  0.00000000000E+00 0. -1.
         24    2    1    2    0    0 -0.31749455142E+02  0.54810221520E+02 -0.75032162056E+02  0.12604305722E+03  0.79024291496E+02 0.  0.
         24    2    1    2    0    0  0.10103508025E+03 -0.71929779597E+01 -0.15862498965E+02  0.12473786862E+03  0.71049916407E+02 0.  0.
         25    2    1    2    0    0 -0.97440905742E+02  0.11488087141E+03  0.69142098979E+02  0.20759965857E+03  0.12499857463E+03 0.  0.
        -11    1    4    4    0    0  0.16717471489E+02 -0.31532016435E+02 -0.83740460449E+01  0.36658785585E+02  0.00000000000E+00 0.  1.
         12    1    4    4    0    0  0.84317608764E+02  0.24339038475E+02 -0.74884529202E+01  0.88079083037E+02  0.00000000000E+00 0. -1.
        -11    1    3    3    0    0  0.56849913179E+01 -0.12442749788E+02 -0.38472147396E+02  0.40831939384E+02  0.00000000000E+00 0.  1.
         12    1    3    3    0    0 -0.37434446460E+02  0.67252971308E+02 -0.36560014660E+02  0.85211117840E+02  0.00000000000E+00 0. -1.
          5    1    5    5  501    0 -0.69890121977E+02  0.98603669353E+02 -0.10730446800E+02  0.12142711908E+03  0.47000000000E+01 0.  1.
         -5    1    5    5    0  501 -0.27550783765E+02  0.16277202056E+02  0.79872545778E+02  0.86172539489E+02  0.47000000000E+01 0.  1.
          1    1    1    2  502    0  0.19271653104E+02 -0.51912515767E+02  0.97773440254E+03  0.97930121404E+03  0.00000000000E+00 0. -1.
          1    1    1    2  503    0  0.88836275267E+01 -0.11058559920E+03 -0.39241043963E+03  0.40779167074E+03  0.00000000000E+00 0. -1.
<mgrwt>
<rscale>  0 0.69152206E+02</rscale>
<asrwt>0</asrwt>
<pdfrwt beam="1">  1        2 0.17713565E+00 0.55374235E+02</pdfrwt>
<pdfrwt beam="2">  1        2 0.94257505E-01 0.86358350E+02</pdfrwt>
<totfact> 0.18505871E+02</totfact>
</mgrwt>
</event>
<event>
13    1  0.1942437E-008  0.1089851E+03  0.7546771E-02  0.1308185E+00
          2   -1    0    0  503    0  0.00000000000E+00  0.00000000000E+00  0.10540224170E+04  0.10540224170E+04  0.00000000000E+00 0. -1.
          2   -1    0    0  502    0 -0.00000000000E+00 -0.00000000000E+00 -0.29451204470E+04  0.29451204470E+04  0.00000000000E+00 0. -1.
         24    2    1    2    0    0 -0.19054646799E+02  0.64398733140E+02 -0.75973970784E+02  0.12536379587E+03  0.73714046724E+02 0.  0.
         24    2    1    2    0    0  0.57707018182E+01  0.54672025836E+02 -0.13427817614E+03  0.16598248377E+03  0.80605365350E+02 0.  0.
         25    2    1    2    0    0  0.32210535108E+02 -0.19946006727E+03  0.11454363444E+03  0.26375326149E+03  0.12499480688E+03 0.  0.
        -11    1    3    3    0    0 -0.21789986086E+02 -0.94655927902E+01 -0.30194832033E+02  0.38420421940E+02  0.00000000000E+00 0.  1.
         12    1    3    3    0    0  0.27353392877E+01  0.73864325930E+02 -0.45779138751E+02  0.86943373934E+02  0.00000000000E+00 0. -1.
        -13    1    4    4    0    0 -0.12385746742E+01 -0.19513968010E+02 -0.48871350349E+02  0.52637799153E+02  0.00000000000E+00 0.  1.
         14    1    4    4    0    0  0.70092764924E+01  0.74185993845E+02 -0.85406825792E+02  0.11334468462E+03  0.00000000000E+00 0. -1.
          5    1    5    5  501    0 -0.83212794769E+01 -0.18899667988E+03  0.11534820311E+03  0.22162194535E+03  0.47000000000E+01 0. -1.
         -5    1    5    5    0  501  0.40531814585E+02 -0.10463387395E+02 -0.80456867460E+00  0.42131316144E+02  0.47000000000E+01 0. -1.
          1    1    1    2  502    0 -0.87830344267E+02  0.64169582053E+02 -0.26170648914E+04  0.26193244454E+04  0.00000000000E+00 0. -1.
          1    1    1    2  503    0  0.68903754139E+02  0.16219726246E+02  0.82167537385E+03  0.82471887746E+03  0.00000000000E+00 0. -1.
<mgrwt>
<rscale>  0 0.87833539E+02</rscale>
<asrwt>0</asrwt>
<pdfrwt beam="1">  1        2 0.15500330E+00 0.70787053E+02</pdfrwt>
<pdfrwt beam="2">  1        2 0.43310594E+00 0.10898505E+03</pdfrwt>
<totfact> 0.13250076E+01</totfact>
</mgrwt>
</event>
<event>
13    1  0.1942437E-008  0.6531359E+02  0.7546771E-02  0.1504737E+00
          2   -1    0    0  503    0  0.00000000000E+00  0.00000000000E+00  0.19248096079E+04  0.19248096079E+04  0.00000000000E+00 0. -1.
          2   -1    0    0  502    0 -0.00000000000E+00 -0.00000000000E+00 -0.22330766930E+04  0.22330766930E+04  0.00000000000E+00 0. -1.
         24    2    1    2    0    0 -0.41853074857E+01 -0.62316420763E+02  0.33429890323E+03  0.34896928563E+03  0.78249297250E+02 0.  0.
         24    2    1    2    0    0 -0.23752892301E+02  0.19574292581E+02  0.42728111505E+03  0.43531322665E+03  0.77337579405E+02 0.  0.
         25    2    1    2    0    0  0.33197206568E+02  0.85313395820E+02  0.59296066154E+03  0.61286506558E+03  0.12498324864E+03 0.  0.
        -11    1    3    3    0    0 -0.16492688575E+02 -0.73561691278E+02  0.31284148971E+03  0.32179671982E+03  0.00000000000E+00 0.  1.
         12    1    3    3    0    0  0.12307381089E+02  0.11245270515E+02  0.21457413518E+02  0.27172565817E+02  0.00000000000E+00 0. -1.
        -11    1    4    4    0    0  0.21409554636E+02  0.27843833790E+02  0.13737966924E+03  0.14179852478E+03  0.00000000000E+00 0.  1.
         12    1    4    4    0    0 -0.45162446938E+02 -0.82695412089E+01  0.28990144581E+03  0.29351470186E+03  0.00000000000E+00 0. -1.
          5    1    5    5  501    0  0.73769626193E+02  0.23230371954E+02  0.36366024742E+03  0.37182317502E+03  0.47000000000E+01 0.  1.
         -5    1    5    5    0  501 -0.40572419625E+02  0.62083023866E+02  0.22930041412E+03  0.24104189056E+03  0.47000000000E+01 0.  1.
          1    1    1    2  502    0 -0.29924611448E+01  0.24904710353E+02 -0.22096260002E+04  0.22097683725E+04  0.00000000000E+00 0. -1.
          1    1    1    2  503    0 -0.22665456361E+01 -0.67475977991E+02  0.54681823526E+03  0.55097035061E+03  0.00000000000E+00 0. -1.
<mgrwt>
<rscale>  0 0.40476119E+02</rscale>
<asrwt>0</asrwt>
<pdfrwt beam="1">  1        2 0.28306024E+00 0.65313593E+02</pdfrwt>
<pdfrwt beam="2">  1        2 0.32839363E+00 0.25083848E+02</pdfrwt>
<totfact> 0.13644888E+01</totfact>
</mgrwt>
</event>
<event>
13    1  0.1942437E-008  0.3139831E+02  0.7546771E-02  0.1633905E+00
          2   -1    0    0  502    0  0.00000000000E+00  0.00000000000E+00  0.22950504406E+04  0.22950504406E+04  0.00000000000E+00 0. -1.
          2   -1    0    0  503    0 -0.00000000000E+00 -0.00000000000E+00 -0.35021891174E+04  0.35021891174E+04  0.00000000000E+00 0. -1.
         24    2    1    2    0    0 -0.15099716941E+03  0.34337019078E+02 -0.15295630357E+04  0.15394741936E+04  0.80240492628E+02 0.  0.
         24    2    1    2    0    0  0.12207912191E+03  0.56739360086E+02 -0.32862664887E+03  0.36381855176E+03  0.79030356638E+02 0.  0.
         25    2    1    2    0    0  0.73257356298E+02 -0.66336576368E+02  0.18594283530E+04  0.18662444779E+04  0.12500987864E+03 0.  0.
        -11    1    4    4    0    0  0.80477286432E+02  0.75041997512E+02 -0.24675025355E+03  0.27017324562E+03  0.00000000000E+00 0.  1.
         12    1    4    4    0    0  0.41601835483E+02 -0.18302637426E+02 -0.81876395317E+02  0.93645306142E+02  0.00000000000E+00 0. -1.
        -13    1    3    3    0    0 -0.85505007528E+02  0.43484953261E+02 -0.60586666958E+03  0.61341378268E+03  0.00000000000E+00 0.  1.
         14    1    3    3    0    0 -0.65492161881E+02 -0.91479341828E+01 -0.92369636610E+03  0.92606041094E+03  0.00000000000E+00 0. -1.
          5    1    5    5  501    0  0.64840430104E+02  0.64139172356E+00  0.14335699488E+04  0.14350434073E+04  0.47000000000E+01 0. -1.
         -5    1    5    5    0  501  0.84169261942E+01 -0.66977968091E+02  0.42585840424E+03  0.43120107064E+03  0.47000000000E+01 0. -1.
          1    1    1    2  502    0 -0.30840980774E+02 -0.58609780511E+01  0.40897770105E+03  0.41018078589E+03  0.00000000000E+00 0. -1.
          1    1    1    2  503    0 -0.13498328031E+02 -0.18878824746E+02 -0.16173550464E+04  0.16175215488E+04  0.00000000000E+00 0. -1.
<mgrwt>
<rscale>  0 0.26994339E+02</rscale>
<asrwt>0</asrwt>
<pdfrwt beam="1">  1        2 0.33750742E+00 0.31398305E+02</pdfrwt>
<pdfrwt beam="2">  1        2 0.51502781E+00 0.23208078E+02</pdfrwt>
<totfact> 0.24200969E+00</totfact>
</mgrwt>
</event>
<event>
13    1  0.1942437E-008  0.4996359E+02  0.7546771E-02  0.1457830E+00
          2   -1    0    0  503    0  0.00000000000E+00  0.00000000000E+00  0.23892668607E+04  0.23892668607E+04  0.00000000000E+00 0. -1.
         -3   -1    0    0    0  501 -0.00000000000E+00 -0.00000000000E+00 -0.16312975831E+04  0.16312975831E+04  0.00000000000E+00 0.  1.
         24    2    1    2    0    0 -0.13207068935E+03  0.22134688549E+03 -0.22527415070E+02  0.27373300518E+03  0.89359739230E+02 0.  0.
         24    2    1    2    0    0  0.42793398341E+03 -0.66035430445E+02  0.30459517543E+02  0.44202223443E+03  0.83472757768E+02 0.  0.
         25    2    1    2    0    0 -0.21746810371E+03 -0.14874192039E+03  0.42354354524E+03  0.51422750461E+03  0.12499702706E+03 0.  0.
        -11    1    4    4    0    0  0.16825351657E+03 -0.22935475746E+02 -0.28714554440E+02  0.17222022972E+03  0.00000000000E+00 0.  1.
         12    1    4    4    0    0  0.25968046684E+03 -0.43099954699E+02  0.59174071984E+02  0.26980200472E+03  0.00000000000E+00 0. -1.
        -13    1    3    3    0    0 -0.71287776935E+02  0.15004319808E+03  0.26125389177E+02  0.16815898546E+03  0.00000000000E+00 0.  1.
         14    1    3    3    0    0 -0.60782912416E+02  0.71303687408E+02 -0.48652804247E+02  0.10557401972E+03  0.00000000000E+00 0. -1.
          5    1    5    5  502    0 -0.10689067982E+02 -0.65762334766E+02  0.12440269417E+03  0.14119865851E+03  0.47000000000E+01 0. -1.
         -5    1    5    5    0  502 -0.20677903572E+03 -0.82979585625E+02  0.29914085107E+03  0.37302884610E+03  0.47000000000E+01 0. -1.
          1    1    1    2  503    0 -0.34325661578E+02 -0.30090914540E+02  0.15576968274E+04  0.15583655285E+04  0.00000000000E+00 0. -1.
         -4    1    1    2    0  501 -0.44069528778E+02  0.23521379889E+02 -0.12312031975E+04  0.12322161711E+04  0.00000000000E+00 0.  1.
<mgrwt>
<rscale>  0 0.47756925E+02</rscale>
<asrwt>0</asrwt>
<pdfrwt beam="1">  1        2 0.35136277E+00 0.45647718E+02</pdfrwt>
<pdfrwt beam="2">  1       -3 0.23989670E+00 0.49963591E+02</pdfrwt>
<totfact> 0.41056280E-01</totfact>
</mgrwt>
</event>
<event>
13    1  0.1942437E-008  0.4877360E+02  0.7546771E-02  0.1548651E+00
          2   -1    0    0  503    0  0.00000000000E+00  0.00000000000E+00  0.37247371787E+04  0.37247371787E+04  0.00000000000E+00 0. -1.
          2   -1    0    0  502    0 -0.00000000000E+00 -0.00000000000E+00 -0.18681960657E+04  0.18681960657E+04  0.00000000000E+00 0. -1.
         24    2    1    2    0    0 -0.27403462234E+03  0.10337810895E+03 -0.10473708715E+03  0.31814855396E+03  0.66832905920E+02 0.  0.
         24    2    1    2    0    0  0.36270187971E+03  0.42825726658E+03  0.12098493594E+04  0.13361999102E+04  0.82084027036E+02 0.  0.
         25    2    1    2    0    0 -0.13543612796E+03 -0.48694046867E+03  0.19480961617E+04  0.20164718538E+04  0.12500446857E+03 0.  0.
        -11    1    4    4    0    0  0.80989069489E+02  0.53145539436E+02  0.24144391722E+03  0.26015157678E+03  0.00000000000E+00 0.  1.
         12    1    4    4    0    0  0.28171281022E+03  0.37511172714E+03  0.96840544221E+03  0.10760483334E+04  0.00000000000E+00 0. -1.
        -13    1    3    3    0    0 -0.40475338465E+01  0.78833101527E+01 -0.16082061327E+02  0.18361966282E+02  0.00000000000E+00 0.  1.
         14    1    3    3    0    0 -0.26998708849E+03  0.95494798797E+02 -0.88655025826E+02  0.29978658768E+03  0.00000000000E+00 0. -1.
          5    1    5    5  501    0 -0.99780088158E+01 -0.97253100799E+02  0.58804521734E+03  0.59613504671E+03  0.47000000000E+01 0. -1.
         -5    1    5    5    0  501 -0.12545811914E+03 -0.38968736787E+03  0.13600509444E+04  0.14203368071E+04  0.47000000000E+01 0. -1.
          1    1    1    2  502    0  0.21681085680E+02 -0.43688229974E+02 -0.15585737052E+04  0.15593366300E+04  0.00000000000E+00 0. -1.
          1    1    1    2  503    0  0.25087784904E+02 -0.10066768816E+01  0.36190638422E+03  0.36277629648E+03  0.00000000000E+00 0. -1.
<mgrwt>
<rscale>  0 0.34994376E+02</rscale>
<asrwt>0</asrwt>
<pdfrwt beam="1">  1        2 0.54775547E+00 0.25107974E+02</pdfrwt>
<pdfrwt beam="2">  1        2 0.27473471E+00 0.48773603E+02</pdfrwt>
<totfact> 0.26469514E+00</totfact>
</mgrwt>
</event>
<event>
13    1  0.1942437E-008  0.4000754E+02  0.7546771E-02  0.1692609E+00
          2   -1    0    0  503    0  0.00000000000E+00  0.00000000000E+00  0.41982059747E+03  0.41982059747E+03  0.00000000000E+00 0. -1.
         -3   -1    0    0    0  501 -0.00000000000E+00 -0.00000000000E+00 -0.25378851589E+03  0.25378851589E+03  0.00000000000E+00 0.  1.
         24    2    1    2    0    0 -0.15855261216E+02  0.23722999688E+02 -0.57363420588E+02  0.10458563137E+03  0.82664516244E+02 0.  0.
         24    2    1    2    0    0 -0.55850841949E+02  0.69056206032E+01  0.55544661756E+02  0.11288597967E+03  0.80566933755E+02 0.  0.
         25    2    1    2    0    0  0.36435267550E+02 -0.20792152897E+02  0.11051160467E+03  0.17204058771E+03  0.12500122683E+03 0.  0.
        -13    1    3    3    0    0 -0.28026546413E+02  0.16408887235E+02  0.11363285012E+02  0.34407312165E+02  0.00000000000E+00 0.  1.
         14    1    3    3    0    0  0.12171285197E+02  0.73141124532E+01 -0.68726705600E+02  0.70178319209E+02  0.00000000000E+00 0. -1.
        -13    1    4    4    0    0  0.13087857600E+02 -0.19625930783E+02  0.19925502735E+02  0.30878711678E+02  0.00000000000E+00 0.  1.
         14    1    4    4    0    0 -0.68938699549E+02  0.26531551387E+02  0.35619159021E+02  0.82007267994E+02  0.00000000000E+00 0. -1.
          5    1    5    5  502    0 -0.45537348296E+02 -0.44515377156E+01  0.24913754487E+02  0.52309190784E+02  0.47000000000E+01 0.  1.
         -5    1    5    5    0  502  0.81972615846E+02 -0.16340615182E+02  0.85597850181E+02  0.11973139692E+03  0.47000000000E+01 0.  1.
          1    1    1    2  503    0 -0.47399075596E+01 -0.12260530507E+02  0.16690872979E+03  0.16742553991E+03  0.00000000000E+00 0. -1.
         -4    1    1    2    0  501  0.40010743174E+02  0.24240631126E+01 -0.10956949404E+03  0.11667137471E+03  0.00000000000E+00 0.  1.
<mgrwt>
<rscale>  0 0.22932369E+02</rscale>
<asrwt>0</asrwt>
<pdfrwt beam="1">  1        2 0.61738323E-01 0.13144860E+02</pdfrwt>
<pdfrwt beam="2">  1       -3 0.37321840E-01 0.40007544E+02</pdfrwt>
<totfact> 0.31184969E+02</totfact>
</mgrwt>
</event>
<event>
13    1  0.1942437E-008  0.7013443E+02  0.7546771E-02  0.1410439E+00
          2   -1    0    0  503    0  0.00000000000E+00  0.00000000000E+00  0.13101178003E+04  0.13101178003E+04  0.00000000000E+00 0. -1.
          2   -1    0    0  502    0 -0.00000000000E+00 -0.00000000000E+00 -0.12831851345E+04  0.12831851345E+04  0.00000000000E+00 0. -1.
         24    2    1    2    0    0 -0.16438479994E+02 -0.40907002181E+02 -0.53934116170E+03  0.54647748878E+03  0.76191538818E+02 0.  0.
         24    2    1    2    0    0 -0.15959821412E+02  0.38651566580E+02  0.15349081100E+02  0.91266525187E+02  0.79657547228E+02 0.  0.
         25    2    1    2    0    0  0.39899951306E+02 -0.23841010971E+02 -0.57176573245E+02  0.14512064708E+03  0.12502176515E+03 0.  0.
        -11    1    3    3    0    0 -0.24887854310E+02  0.80318750019E+01 -0.73833560837E+02  0.78328226164E+02  0.00000000000E+00 0.  1.
         12    1    3    3    0    0  0.84493743161E+01 -0.48938877183E+02 -0.46550760086E+03  0.46814926262E+03  0.00000000000E+00 0. -1.
        -13    1    4    4    0    0 -0.46602083654E+02  0.10627295471E+02  0.27717298124E+01  0.47878764563E+02  0.00000000000E+00 0.  1.
         14    1    4    4    0    0  0.30642262242E+02  0.28024271109E+02  0.12577351288E+02  0.43387760624E+02  0.00000000000E+00 0. -1.
          5    1    5    5  501    0  0.22120599803E+01  0.50017935875E+02 -0.19771582992E+02  0.54034180040E+02  0.47000000000E+01 0.  1.
         -5    1    5    5    0  501  0.37687891326E+02 -0.73858946846E+02 -0.37404990253E+02  0.91086467039E+02  0.47000000000E+01 0.  1.
          1    1    1    2  502    0  0.36868831818E+02 -0.28305531874E+02 -0.59924886564E+03  0.60104884732E+03  0.00000000000E+00 0. -1.
          1    1    1    2  503    0 -0.44370481718E+02  0.54401978445E+02  0.12073501853E+04  0.12093894265E+04  0.00000000000E+00 0. -1.
<mgrwt>
<rscale>  0 0.57095897E+02</rscale>
<asrwt>0</asrwt>
<pdfrwt beam="1">  1        2 0.19266438E+00 0.70134430E+02</pdfrwt>
<pdfrwt beam="2">  1        2 0.18870369E+00 0.46481328E+02</pdfrwt>
<totfact> 0.69090045E+01</totfact>
</mgrwt>
</event>
<event>
13    1  0.1942437E-008  0.2177265E+03  0.7546771E-02  0.1314692E+00
          2   -1    0    0  503    0  0.00000000000E+00  0.00000000000E+00  0.20119618523E+04  0.20119618523E+04  0.00000000000E+00 0. -1.
          2   -1    0    0  502    0 -0.00000000000E+00 -0.00000000000E+00 -0.17642727911E+04  0.17642727911E+04  0.00000000000E+00 0. -1.
         24    2    1    2    0    0 -0.79878574592E+03 -0.20122846985E+03  0.32731258505E+03  0.88994205098E+03  0.79446590942E+02 0.  0.
         24    2    1    2    0    0  0.58129468951E+03  0.49281221618E+03  0.18146792360E+03  0.78536453929E+03  0.55672756531E+02 0.  0.
         25    2    1    2    0    0  0.12304374418E+02 -0.40654142866E+03  0.65746052318E+03  0.78313889016E+03  0.12499940355E+03 0.  0.
        -13    1    3    3    0    0 -0.51762784797E+03 -0.10233506489E+03  0.18019848843E+03  0.55756842605E+03  0.00000000000E+00 0.  1.
         14    1    3    3    0    0 -0.28115789795E+03 -0.98893404953E+02  0.14711409662E+03  0.33237362493E+03  0.00000000000E+00 0. -1.
        -13    1    4    4    0    0  0.36383456228E+03  0.34245553307E+03  0.11319648146E+03  0.51231320914E+03  0.00000000000E+00 0.  1.
         14    1    4    4    0    0  0.21746012722E+03  0.15035668310E+03  0.68271442141E+02  0.27305133015E+03  0.00000000000E+00 0. -1.
          5    1    5    5  501    0 -0.15222292653E+02 -0.15696452051E+02  0.64083442582E+01  0.23264859267E+02  0.47000000000E+01 0.  1.
         -5    1    5    5    0  501  0.27526667071E+02 -0.39084497661E+03  0.65105217892E+03  0.75987403089E+03  0.47000000000E+01 0.  1.
          1    1    1    2  502    0  0.20170419705E+03  0.81734046532E+02 -0.11060907261E+04  0.11272984218E+04  0.00000000000E+00 0. -1.
          1    1    1    2  503    0  0.34824849460E+01  0.33223635798E+02  0.18753875541E+03  0.19049074114E+03  0.00000000000E+00 0. -1.
<mgrwt>
<rscale>  0 0.85283625E+02</rscale>
<asrwt>0</asrwt>
<pdfrwt beam="1">  1        2 0.29587674E+00 0.33405653E+02</pdfrwt>
<pdfrwt beam="2">  1        2 0.25945188E+00 0.21772652E+03</pdfrwt>
<totfact> 0.17689901E+01</totfact>
</mgrwt>
</event>
<event>
13    1  0.1942437E-008  0.1287681E+03  0.7546771E-02  0.1276510E+00
          2   -1    0    0  502    0  0.00000000000E+00  0.00000000000E+00  0.13160641503E+04  0.13160641503E+04  0.00000000000E+00 0. -1.
          2   -1    0    0  503    0 -0.00000000000E+00 -0.00000000000E+00 -0.87050709100E+03  0.87050709100E+03  0.00000000000E+00 0. -1.
         24    2    1    2    0    0 -0.11062261341E+03 -0.10799554443E+02 -0.11175811975E+03  0.17712384518E+03  0.80802142470E+02 0.  0.
         24    2    1    2    0    0 -0.22683539906E+02  0.52443602892E+02 -0.10025833088E+03  0.14317420233E+03  0.84748125853E+02 0.  0.
         25    2    1    2    0    0  0.12554130714E+03 -0.18501171265E+03  0.13711242682E+03  0.29055952413E+03  0.12504025694E+03 0.  0.
        -11    1    4    4    0    0 -0.39683622231E+02  0.32555805519E+02 -0.10472930905E+03  0.11663146454E+03  0.00000000000E+00 0.  1.
         12    1    4    4    0    0  0.17000082325E+02  0.19887797373E+02  0.44709781769E+01  0.26542737787E+02  0.00000000000E+00 0. -1.
        -13    1    3    3    0    0 -0.28186080525E+02 -0.38818858434E+02 -0.24539981348E+02  0.53884780690E+02  0.00000000000E+00 0.  1.
         14    1    3    3    0    0 -0.82436532882E+02  0.28019303991E+02 -0.87218138398E+02  0.12323906449E+03  0.00000000000E+00 0. -1.
          5    1    5    5  501    0  0.11364821740E+03 -0.12366493963E+03  0.36362128724E+02  0.17191052619E+03  0.47000000000E+01 0.  1.
         -5    1    5    5    0  501  0.11893089743E+02 -0.61346773021E+02  0.10075029810E+03  0.11864899793E+03  0.47000000000E+01 0.  1.
          1    1    1    2  502    0  0.66044281169E+02  0.46052824841E+02  0.10404174697E+04  0.10435282560E+04  0.00000000000E+00 0. -1.
          1    1    1    2  503    0 -0.58279434995E+02  0.97314839363E+02 -0.51995638664E+03  0.53218541366E+03  0.00000000000E+00 0. -1.
<mgrwt>
<rscale>  0 0.10182239E+03</rscale>
<asrwt>0</asrwt>
<pdfrwt beam="1">  1        2 0.19353885E+00 0.80515277E+02</pdfrwt>
<pdfrwt beam="2">  1        2 0.12801575E+00 0.12876810E+03</pdfrwt>
<totfact> 0.10883088E+02</totfact>
</mgrwt>
</event>
<event>
13    1  0.1942437E-008  0.1421315E+03  0.7546771E-02  0.1336631E+00
          2   -1    0    0  502    0  0.00000000000E+00  0.00000000000E+00  0.45217088741E+03  0.45217088741E+03  0.00000000000E+00 0. -1.
          2   -1    0    0  503    0 -0.00000000000E+00 -0.00000000000E+00 -0.16855998449E+04  0.16855998449E+04  0.00000000000E+00 0. -1.
         24    2    1    2    0    0 -0.68073970602E+01 -0.81739539612E+02 -0.13997444333E+03  0.18158099011E+03  0.81554387955E+02 0.  0.
         24    2    1    2    0    0 -0.17492025544E+01 -0.35060492856E+02 -0.32188551988E+02  0.94336590620E+02  0.81430900657E+02 0.  0.
         25    2    1    2    0    0  0.26375240954E+02 -0.50329872932E+02  0.12069879093E+02  0.13784001567E+03  0.12500175397E+03 0.  0.
        -13    1    4    4    0    0  0.13369133217E+02 -0.57870228196E+02 -0.30875001808E+02  0.66939993808E+02  0.00000000000E+00 0.  1.
         14    1    4    4    0    0 -0.15118335771E+02  0.22809735340E+02 -0.13135501801E+01  0.27396596812E+02  0.00000000000E+00 0. -1.
        -13    1    3    3    0    0  0.36937213561E+02 -0.47131868334E+02 -0.71497189679E+02  0.93261025569E+02  0.00000000000E+00 0.  1.
         14    1    3    3    0    0 -0.43744610621E+02 -0.34607671277E+02 -0.68477253647E+02  0.88319964542E+02  0.00000000000E+00 0. -1.
          5    1    5    5  501    0  0.70651846595E+01  0.21220719515E+02 -0.40743229998E+02  0.46715485245E+02  0.47000000000E+01 0. -1.
         -5    1    5    5    0  501  0.19310056294E+02 -0.71550592447E+02  0.52813109091E+02  0.91124530427E+02  0.47000000000E+01 0. -1.
          1    1    1    2  502    0 -0.59773560912E+02  0.16322050442E+03  0.30177567694E+03  0.34825618564E+03  0.00000000000E+00 0. -1.
          1    1    1    2  503    0  0.41954919572E+02  0.39094009754E+01 -0.13751115182E+04  0.13757569503E+04  0.00000000000E+00 0. -1.
<mgrwt>
<rscale>  0 0.77388280E+02</rscale>
<asrwt>0</asrwt>
<pdfrwt beam="1">  1        2 0.66495720E-01 0.14213146E+03</pdfrwt>
<pdfrwt beam="2">  1        2 0.24788233E+00 0.42136667E+02</pdfrwt>
<totfact> 0.16102445E+02</totfact>
</mgrwt>
</event>
<event>
13    1  0.1942437E-008  0.1728034E+02  0.7546771E-02  0.1807694E+00
          2   -1    0    0  502    0  0.00000000000E+00  0.00000000000E+00  0.53998054374E+03  0.53998054374E+03  0.00000000000E+00 0. -1.
          2   -1    0    0  503    0 -0.00000000000E+00 -0.00000000000E+00 -0.10153463618E+04  0.10153463618E+04  0.00000000000E+00 0. -1.
         24    2    1    2    0    0 -0.14167026095E+02  0.35568998443E+00 -0.25956661061E+03  0.27326861036E+03  0.84261954184E+02 0.  0.
         24    2    1    2    0    0 -0.73148346495E+02 -0.50161471179E+02 -0.28981158712E+02  0.12360793784E+03  0.81068865486E+02 0.  0.
         25    2    1    2    0    0  0.92927491352E+02  0.82045389572E+02  0.24338727515E+03  0.30035900952E+03  0.12494480501E+03 0.  0.
        -13    1    4    4    0    0 -0.70797382988E+02 -0.91453145594E+00 -0.18940615427E+02  0.73292924068E+02  0.00000000000E+00 0.  1.
         14    1    4    4    0    0 -0.23509635069E+01 -0.49246939723E+02 -0.10040543285E+02  0.50315013773E+02  0.00000000000E+00 0. -1.
        -13    1    3    3    0    0  0.29851596220E+02 -0.17699614270E+02 -0.14736712650E+03  0.15139836232E+03  0.00000000000E+00 0.  1.
         14    1    3    3    0    0 -0.44018622315E+02  0.18055304255E+02 -0.11219948411E+03  0.12187024804E+03  0.00000000000E+00 0. -1.
          5    1    5    5  501    0  0.82366718604E+02  0.10921997174E+03  0.23063189601E+03  0.26819105134E+03  0.47000000000E+01 0.  1.
         -5    1    5    5    0  501  0.10560772748E+02 -0.27174582165E+02  0.12755379137E+02  0.32167958185E+02  0.47000000000E+01 0.  1.
          1    1    1    2  502    0  0.24040241271E+01 -0.16936627864E+02  0.21348499080E+03  0.21416925548E+03  0.00000000000E+00 0. -1.
          1    1    1    2  503    0 -0.80161428896E+01 -0.15302980513E+02 -0.64369031465E+03  0.64392209229E+03  0.00000000000E+00 0. -1.
<mgrwt>
<rscale>  0 0.17193149E+02</rscale>
<asrwt>0</asrwt>
<pdfrwt beam="1">  1        2 0.79408904E-01 0.17106393E+02</pdfrwt>
<pdfrwt beam="2">  1        2 0.14931564E+00 0.17280344E+02</pdfrwt>
<totfact> 0.30531677E+02</totfact>
</mgrwt>
</event>
<event>
13    1  0.1942437E-008  0.3061791E+02  0.7546771E-02  0.1594065E+00
         -3   -1    0    0    0  501 -0.00000000000E+00  0.00000000000E+00  0.29724688296E+03  0.29724688296E+03  0.00000000000E+00 0.  1.
          2   -1    0    0  503    0  0.00000000000E+00 -0.00000000000E+00 -0.20788210151E+04  0.20788210151E+04  0.00000000000E+00 0. -1.
         24    2    1    2    0    0 -0.83518735976E+01 -0.73617251583E+01  0.70550913197E+02  0.89454270937E+02  0.53858021185E+02 0.  0.
         24    2    1    2    0    0 -0.35889829587E+02 -0.54768025826E+02 -0.27990169063E+02  0.10733534894E+03  0.80310715640E+02 0.  0.
         25    2    1    2    0    0  0.35924154877E+02  0.66055556108E+02 -0.11702806010E+04  0.11793370009E+04  0.12500078148E+03 0.  0.
        -11    1    3    3    0    0  0.66328039815E+01 -0.28362025587E+02  0.35138764059E+02  0.45641333500E+02  0.00000000000E+00 0.  1.
         12    1    3    3    0    0 -0.14984677579E+02  0.21000300429E+02  0.35412149138E+02  0.43812937437E+02  0.00000000000E+00 0. -1.
        -11    1    4    4    0    0  0.24690351761E+02 -0.73961951008E+01 -0.86487625423E+00  0.25788857729E+02  0.00000000000E+00 0.  1.
         12    1    4    4    0    0 -0.60580181348E+02 -0.47371830725E+02 -0.27125292809E+02  0.81546491208E+02  0.00000000000E+00 0. -1.
          5    1    5    5  502    0  0.18283614143E+01 -0.23596909574E+02 -0.56668777773E+02  0.61592186364E+02  0.47000000000E+01 0. -1.
         -5    1    5    5    0  502  0.34095793463E+02  0.89652465682E+02 -0.11136118232E+04  0.11177448146E+04  0.47000000000E+01 0. -1.
          1    1    1    2  503    0 -0.69544826906E+01 -0.29885230061E+02 -0.82529996802E+03  0.82587016475E+03  0.00000000000E+00 0. -1.
         -4    1    1    2    0  501  0.15272030998E+02  0.25959424937E+02  0.17144569269E+03  0.17407111253E+03  0.00000000000E+00 0.  1.
<mgrwt>
<rscale>  0 0.30367202E+02</rscale>
<asrwt>0</asrwt>
<pdfrwt beam="2">  1        2 0.30570896E+00 0.30617914E+02</pdfrwt>
<pdfrwt beam="1">  1       -3 0.43712778E-01 0.30118544E+02</pdfrwt>
<totfact> 0.27354268E+01</totfact>
</mgrwt>
</event>
<event>
13    1  0.1942437E-008  0.2029746E+03  0.7546771E-02  0.1383837E+00
          2   -1    0    0  502    0  0.00000000000E+00  0.00000000000E+00  0.22580971056E+04  0.22580971056E+04  0.00000000000E+00 0. -1.
          2   -1    0    0  503    0 -0.00000000000E+00 -0.00000000000E+00 -0.51806141701E+03  0.51806141701E+03  0.00000000000E+00 0. -1.
         24    2    1    2    0    0 -0.10260784467E+03 -0.89522461877E+02  0.78714043334E+02  0.17630096155E+03  0.79646013437E+02 0.  0.
         24    2    1    2    0    0 -0.13640577030E+03 -0.10300702977E+03  0.44351565738E+03  0.48221566728E+03  0.81294705081E+02 0.  0.
         25    2    1    2    0    0  0.11372776761E+03  0.34362576782E+03  0.10858615916E+04  0.11514048579E+04  0.12500030866E+03 0.  0.
        -11    1    3    3    0    0 -0.94133939580E+02 -0.10321722788E+03  0.78402543128E+02  0.16019348764E+03  0.00000000000E+00 0.  1.
         12    1    3    3    0    0 -0.84739050910E+01  0.13694766005E+02  0.31150020631E+00  0.16107473911E+02  0.00000000000E+00 0. -1.
        -13    1    4    4    0    0 -0.11213381934E+02  0.48264812635E+01  0.42909836507E+01  0.12940146695E+02  0.00000000000E+00 0.  1.
         14    1    4    4    0    0 -0.12519238837E+03 -0.10783351103E+03  0.43922467373E+03  0.46927552058E+03  0.00000000000E+00 0. -1.
          5    1    5    5  501    0  0.96569072869E+02  0.19136711526E+03  0.78483559866E+03  0.81359447243E+03  0.47000000000E+01 0. -1.
         -5    1    5    5    0  501  0.17158694743E+02  0.15225865256E+03  0.30102599294E+03  0.33781038543E+03  0.47000000000E+01 0. -1.
          1    1    1    2  502    0 -0.22134037394E+01  0.19720548025E+02  0.52166041790E+03  0.52203772926E+03  0.00000000000E+00 0. -1.
          1    1    1    2  503    0  0.12749925110E+03 -0.17081682420E+03 -0.38971602166E+03  0.44419930662E+03  0.00000000000E+00 0. -1.
<mgrwt>
<rscale>  0 0.63465761E+02</rscale>
<asrwt>0</asrwt>
<pdfrwt beam="1">  1        2 0.33207310E+00 0.19844374E+02</pdfrwt>
<pdfrwt beam="2">  1        2 0.76185503E-01 0.20297455E+03</pdfrwt>
<totfact> 0.83374666E+01</totfact>
</mgrwt>
</event>
<event>
13    1  0.1942437E-008  0.8644437E+02  0.7546771E-02  0.1329398E+00
          2   -1    0    0  503    0  0.00000000000E+00  0.00000000000E+00  0.23676043711E+04  0.23676043711E+04  0.00000000000E+00 0. -1.
          2   -1    0    0  502    0 -0.00000000000E+00 -0.00000000000E+00 -0.13394409099E+04  0.13394409099E+04  0.00000000000E+00 0. -1.
         24    2    1    2    0    0  0.27540220727E+02 -0.14003783477E+03 -0.66567857788E+03  0.68561694855E+03  0.81077568897E+02 0.  0.
         24    2    1    2    0    0 -0.11055931089E+03  0.16372954826E+03 -0.60405716587E+02  0.22218014266E+03  0.81758418503E+02 0.  0.
         25    2    1    2    0    0 -0.33925603774E+02  0.49667029860E+02  0.99276658843E+03  0.10024062477E+04  0.12496009703E+03 0.  0.
        -11    1    3    3    0    0  0.20001388128E+01  0.10336628173E+02 -0.27058833448E+02  0.29034925604E+02  0.00000000000E+00 0.  1.
         12    1    3    3    0    0  0.25540081914E+02 -0.15037446294E+03 -0.63861974443E+03  0.65658202295E+03  0.00000000000E+00 0. -1.
        -13    1    4    4    0    0 -0.37099869485E+02  0.29659589165E+02 -0.49978812891E+02  0.68949062961E+02  0.00000000000E+00 0.  1.
         14    1    4    4    0    0 -0.73459441401E+02  0.13406995910E+03 -0.10426903696E+02  0.15323107970E+03  0.00000000000E+00 0. -1.
          5    1    5    5  501    0  0.41353720576E+02  0.36769913210E+01  0.17673032626E+03  0.18160217150E+03  0.47000000000E+01 0.  1.
         -5    1    5    5    0  501 -0.75279324350E+02  0.45990038539E+02  0.81603626217E+03  0.82080407619E+03  0.47000000000E+01 0.  1.
          1    1    1    2  502    0  0.30792020785E+02 -0.67080584812E+02 -0.51358066280E+03  0.51885744729E+03  0.00000000000E+00 0. -1.
          1    1    1    2  503    0  0.86152673148E+02 -0.62781585459E+01  0.12750618301E+04  0.12779844948E+04  0.00000000000E+00 0. -1.
<mgrwt>
<rscale>  0 0.79877911E+02</rscale>
<asrwt>0</asrwt>
<pdfrwt beam="1">  1        2 0.34817711E+00 0.86444369E+02</pdfrwt>
<pdfrwt beam="2">  1        2 0.19697660E+00 0.73810253E+02</pdfrwt>
<totfact> 0.18974273E+01</totfact>
</mgrwt>
</event>
<event>
13    1  0.1942437E-008  0.3112890E+02  0.7546771E-02  0.1625026E+00
          2   -1    0    0  503    0  0.00000000000E+00  0.00000000000E+00  0.19084352722E+04  0.19084352722E+04  0.00000000000E+00 0. -1.
          2   -1    0    0  502    0 -0.00000000000E+00 -0.00000000000E+00 -0.10276498606E+04  0.10276498606E+04  0.00000000000E+00 0. -1.
         24    2    1    2    0    0  0.17571825710E+02 -0.42465369340E+02 -0.90495446016E+02  0.13082834048E+03  0.82550301463E+02 0.  0.
         24    2    1    2    0    0  0.94688420292E+01  0.11060706673E+03 -0.31922160701E+02  0.13970892990E+03  0.78587394464E+02 0.  0.
         25    2    1    2    0    0  0.91844801092E+01 -0.10976922445E+03  0.77302548379E+03  0.79077626284E+03  0.12500024792E+03 0.  0.
        -13    1    3    3    0    0 -0.21850733262E+02  0.97890923821E+01 -0.45444140068E+02  0.51365851889E+02  0.00000000000E+00 0.  1.
         14    1    3    3    0    0  0.39422558972E+02 -0.52254461722E+02 -0.45051305948E+02  0.79462488593E+02  0.00000000000E+00 0. -1.
        -13    1    4    4    0    0  0.24969983602E+01  0.56381313996E+02  0.24157291524E+02  0.61389431521E+02  0.00000000000E+00 0.  1.
         14    1    4    4    0    0  0.69718436690E+01  0.54225752737E+02 -0.56079452225E+02  0.78319498376E+02  0.00000000000E+00 0. -1.
          5    1    5    5  501    0  0.58265691219E+02 -0.47731076364E+02  0.23168009592E+03  0.24366145217E+03  0.47000000000E+01 0. -1.
         -5    1    5    5    0  501 -0.49081211110E+02 -0.62038148083E+02  0.54134538786E+03  0.54711481068E+03  0.47000000000E+01 0. -1.
          1    1    1    2  502    0 -0.18936395222E+02  0.15772875751E+02 -0.82188250067E+03  0.82225191735E+03  0.00000000000E+00 0. -1.
          1    1    1    2  503    0 -0.17288752627E+02  0.25854651302E+02  0.10520600352E+04  0.10525196823E+04  0.00000000000E+00 0. -1.
<mgrwt>
<rscale>  0 0.27697805E+02</rscale>
<asrwt>0</asrwt>
<pdfrwt beam="1">  1        2 0.28065224E+00 0.31128901E+02</pdfrwt>
<pdfrwt beam="2">  1        2 0.15112498E+00 0.24644891E+02</pdfrwt>
<totfact> 0.54434064E+01</totfact>
</mgrwt>
</event>
<event>
13    1  0.1942437E-008  0.7003490E+02  0.7546771E-02  0.1411594E+00
          2   -1    0    0  502    0  0.00000000000E+00  0.00000000000E+00  0.43812804521E+03  0.43812804521E+03  0.00000000000E+00 0. -1.
          2   -1    0    0  503    0 -0.00000000000E+00 -0.00000000000E+00 -0.13284694533E+04  0.13284694533E+04  0.00000000000E+00 0. -1.
         24    2    1    2    0    0  0.83132225907E+02  0.14625715821E+03 -0.27763204913E+03  0.33414853467E+03  0.79205840715E+02 0.  0.
         24    2    1    2    0    0  0.72915695607E+02 -0.15755736613E+03 -0.11435603914E+03  0.22308885798E+03  0.80934001370E+02 0.  0.
         25    2    1    2    0    0 -0.15413734189E+03 -0.14472462318E+02  0.18317352005E+03  0.27045413778E+03  0.12500051946E+03 0.  0.
        -11    1    3    3    0    0  0.31579909147E+02  0.73247932928E+01 -0.23766435465E+02  0.40196849543E+02  0.00000000000E+00 0.  1.
         12    1    3    3    0    0  0.51552316760E+02  0.13893236492E+03 -0.25386561367E+03  0.29395168513E+03  0.00000000000E+00 0. -1.
        -13    1    4    4    0    0  0.21985198475E+02 -0.12452848366E+03 -0.54046734037E+02  0.13751996820E+03  0.00000000000E+00 0.  1.
         14    1    4    4    0    0  0.50930497133E+02 -0.33028882476E+02 -0.60309305104E+02  0.85568889778E+02  0.00000000000E+00 0. -1.
          5    1    5    5  501    0 -0.15995963248E+03  0.19630404920E+02  0.16647995118E+03  0.23175439794E+03  0.47000000000E+01 0.  1.
         -5    1    5    5    0  501  0.58222905990E+01 -0.34102867239E+02  0.16693568878E+02  0.38699739839E+02  0.47000000000E+01 0.  1.
          1    1    1    2  502    0  0.23331140473E+02 -0.39795491950E+02  0.12297470634E+03  0.13134230733E+03  0.00000000000E+00 0. -1.
          1    1    1    2  503    0 -0.25241720102E+02  0.65568162189E+02 -0.80450154625E+03  0.80756366080E+03  0.00000000000E+00 0. -1.
<mgrwt>
<rscale>  0 0.56839643E+02</rscale>
<asrwt>0</asrwt>
<pdfrwt beam="1">  1        2 0.64430595E-01 0.46130503E+02</pdfrwt>
<pdfrwt beam="2">  1        2 0.19536315E+00 0.70034898E+02</pdfrwt>
<totfact> 0.23864407E+02</totfact>
</mgrwt>
</event>
<event>
13    1  0.1942437E-008  0.6299883E+02  0.7546771E-02  0.1477012E+00
          2   -1    0    0  502    0  0.00000000000E+00  0.00000000000E+00  0.12523431239E+04  0.12523431239E+04  0.00000000000E+00 0. -1.
          2   -1    0    0  503    0 -0.00000000000E+00 -0.00000000000E+00 -0.18635933068E+04  0.18635933068E+04  0.00000000000E+00 0. -1.
         24    2    1    2    0    0  0.15501602969E+02  0.15776164849E+03 -0.15185511417E+04  0.15291066465E+04  0.83907861431E+02 0.  0.
         24    2    1    2    0    0 -0.78535751857E+01 -0.17279923588E+03 -0.79256743373E+02  0.20586169417E+03  0.78588492753E+02 0.  0.
         25    2    1    2    0    0  0.13333837820E+02 -0.75256438156E+02 -0.47668425147E+02  0.15407401182E+03  0.12500079859E+03 0.  0.
        -13    1    3    3    0    0 -0.11626297589E+02 -0.45013845443E+01 -0.18993956087E+03  0.19034828615E+03  0.00000000000E+00 0.  1.
         14    1    3    3    0    0  0.27127900558E+02  0.16226303303E+03 -0.13286115808E+04  0.13387583604E+04  0.00000000000E+00 0. -1.
        -13    1    4    4    0    0 -0.28431048267E+00 -0.57352401193E+02 -0.68984315810E+02  0.89711841932E+02  0.00000000000E+00 0.  1.
         14    1    4    4    0    0 -0.75692647030E+01 -0.11544683468E+03 -0.10272427563E+02  0.11614985224E+03  0.00000000000E+00 0. -1.
          5    1    5    5  501    0 -0.35901602276E+02 -0.87888408790E+02 -0.25459464464E+02  0.98405141006E+02  0.47000000000E+01 0. -1.
         -5    1    5    5    0  501  0.49235440096E+02  0.12631970633E+02 -0.22208960683E+02  0.55668870818E+02  0.47000000000E+01 0. -1.
          1    1    1    2  502    0 -0.22586095731E+02  0.58795534905E+02  0.11270756098E+04  0.11288341228E+04  0.00000000000E+00 0. -1.
          1    1    1    2  503    0  0.16042301281E+01  0.31498490641E+02 -0.92849482476E+02  0.98059955451E+02  0.00000000000E+00 0. -1.
<mgrwt>
<rscale>  0 0.44575106E+02</rscale>
<asrwt>0</asrwt>
<pdfrwt beam="1">  1        2 0.18416811E+00 0.62998831E+02</pdfrwt>
<pdfrwt beam="2">  1        2 0.27405784E+00 0.31539316E+02</pdfrwt>
<totfact> 0.41207934E+01</totfact>
</mgrwt>
</event>
<event>
13    1  0.1942437E-008  0.1130397E+03  0.7546771E-02  0.1399402E+00
          2   -1    0    0  502    0  0.00000000000E+00  0.00000000000E+00  0.32340149154E+03  0.32340149154E+03  0.00000000000E+00 0. -1.
          2   -1    0    0  503    0 -0.00000000000E+00 -0.00000000000E+00 -0.32392256372E+04  0.32392256372E+04  0.00000000000E+00 0. -1.
         24    2    1    2    0    0 -0.34734942061E+02 -0.16653681696E+03 -0.31791194384E+03  0.37006523364E+03  0.83302133874E+02 0.  0.
         24    2    1    2    0    0 -0.13990120712E+03  0.19008214351E+03 -0.59778886745E+03  0.64844334768E+03  0.86160757116E+02 0.  0.
         25    2    1    2    0    0  0.22978092329E+03 -0.11790205556E+03 -0.74037802845E+01  0.28701872289E+03  0.12499905566E+03 0.  0.
        -11    1    3    3    0    0 -0.16782284727E+01  0.58321425747E+01 -0.46205950161E+02  0.46602791420E+02  0.00000000000E+00 0.  1.
         12    1    3    3    0    0 -0.33056713589E+02 -0.17236895954E+03 -0.27170599368E+03  0.32346244222E+03  0.00000000000E+00 0. -1.
        -13    1    4    4    0    0 -0.67639892971E+02  0.14563950829E+03 -0.32066356789E+03  0.35862396082E+03  0.00000000000E+00 0.  1.
         14    1    4    4    0    0 -0.72261314149E+02  0.44442635218E+02 -0.27712529955E+03  0.28981938686E+03  0.00000000000E+00 0. -1.
          5    1    5    5  501    0  0.16026358322E+03 -0.39696643570E+02 -0.52018215496E+02  0.17317108408E+03  0.47000000000E+01 0.  1.
         -5    1    5    5    0  501  0.69517340067E+02 -0.78205411985E+02  0.44614435212E+02  0.11384763881E+03  0.47000000000E+01 0.  1.
          1    1    1    2  502    0  0.26823824683E+02  0.16424603575E+02  0.12879123952E+03  0.13257627446E+03  0.00000000000E+00 0. -1.
          1    1    1    2  503    0 -0.81968598793E+02  0.77932125433E+02 -0.21215107937E+04  0.21245235501E+04  0.00000000000E+00 0. -1.
<mgrwt>
<rscale>  0 0.59627391E+02</rscale>
<asrwt>0</asrwt>
<pdfrwt beam="1">  1        2 0.47559042E-01 0.31452904E+02</pdfrwt>
<pdfrwt beam="2">  1        2 0.47635672E+00 0.11303966E+03</pdfrwt>
<totfact> 0.33966225E+01</totfact>
</mgrwt>
</event>
<event>
13    1  0.1942437E-008  0.4196030E+02  0.7546771E-02  0.1642416E+00
          2   -1    0    0  503    0  0.00000000000E+00  0.00000000000E+00  0.52309302222E+03  0.52309302222E+03  0.00000000000E+00 0. -1.
          2   -1    0    0  502    0 -0.00000000000E+00 -0.00000000000E+00 -0.88818220462E+03  0.88818220462E+03  0.00000000000E+00 0. -1.
         24    2    1    2    0    0  0.39050072762E+02  0.60883393057E+02 -0.25205474012E+03  0.27469231851E+03  0.81808203106E+02 0.  0.
         24    2    1    2    0    0  0.30116521022E+02  0.40173654854E+02 -0.14547792580E+03  0.17346948509E+03  0.80043163231E+02 0.  0.
         25    2    1    2    0    0 -0.92580253975E+02 -0.11259128605E+03 -0.12208387567E+02  0.19240911053E+03  0.12499727984E+03 0.  0.
        -11    1    3    3    0    0  0.16520092059E+01  0.43094447130E+02 -0.40633415068E+02  0.59253142768E+02  0.00000000000E+00 0.  1.
         12    1    3    3    0    0  0.37398063556E+02  0.17788945928E+02 -0.21142132506E+03  0.21543917574E+03  0.00000000000E+00 0. -1.
        -11    1    4    4    0    0  0.43129603439E+02  0.26768737121E+02 -0.14621167692E+03  0.15477267991E+03  0.00000000000E+00 0.  1.
         12    1    4    4    0    0 -0.13013082418E+02  0.13404917734E+02  0.73375111124E+00  0.18696805186E+02  0.00000000000E+00 0. -1.
          5    1    5    5  501    0 -0.11987013850E+03 -0.65344909981E+02 -0.15867925792E+02  0.13752341049E+03  0.47000000000E+01 0. -1.
         -5    1    5    5    0  501  0.27289884522E+02 -0.47246376073E+02  0.36595382248E+01  0.54885700043E+02  0.47000000000E+01 0. -1.
          1    1    1    2  502    0  0.35225011515E+02  0.23112143992E+02 -0.36163505222E+03  0.36408087513E+03  0.00000000000E+00 0. -1.
          1    1    1    2  503    0 -0.11811351323E+02 -0.11577905849E+02  0.40628692332E+03  0.40662343757E+03  0.00000000000E+00 0. -1.
<mgrwt>
<rscale>  0 0.26343947E+02</rscale>
<asrwt>0</asrwt>
<pdfrwt beam="1">  1        2 0.76925445E-01 0.16539526E+02</pdfrwt>
<pdfrwt beam="2">  1        2 0.13061503E+00 0.41960304E+02</pdfrwt>
<totfact> 0.35496676E+02</totfact>
</mgrwt>
</event>
<event>
13    1  0.1942437E-008  0.4162563E+02  0.7546771E-02  0.1603306E+00
         -1   -1    0    0    0  501 -0.00000000000E+00  0.00000000000E+00  0.90074388258E+03  0.90074388258E+03  0.00000000000E+00 0.  1.
          2   -1    0    0  503    0  0.00000000000E+00 -0.00000000000E+00 -0.17446812184E+04  0.17446812184E+04  0.00000000000E+00 0. -1.
         24    2    1    2    0    0  0.19746706188E+03  0.35189381034E+03  0.31654174379E+03  0.52004350873E+03  0.86163107691E+02 0.  0.
         24    2    1    2    0    0 -0.50369276555E+02 -0.11758818617E+03 -0.71762563803E+02  0.16901560256E+03  0.83978347192E+02 0.  0.
         25    2    1    2    0    0 -0.11746892738E+03 -0.18356589410E+03 -0.39921282398E+03  0.47169072893E+03  0.12500351415E+03 0.  0.
        -11    1    3    3    0    0  0.42431385551E+00  0.60594545913E+02  0.39332370989E+02  0.72242054541E+02  0.00000000000E+00 0.  1.
         12    1    3    3    0    0  0.19704274802E+03  0.29129926442E+03  0.27720937280E+03  0.44780145419E+03  0.00000000000E+00 0. -1.
        -13    1    4    4    0    0 -0.50656324829E+02 -0.20369539255E+02 -0.15793269792E+02  0.56836684855E+02  0.00000000000E+00 0.  1.
         14    1    4    4    0    0  0.28704827404E+00 -0.97218646920E+02 -0.55969294011E+02  0.11217891771E+03  0.00000000000E+00 0. -1.
          5    1    5    5  502    0 -0.27870745202E+02 -0.96641401385E+02 -0.79029866782E+02  0.12800058103E+03  0.47000000000E+01 0. -1.
         -5    1    5    5    0  502 -0.89598182177E+02 -0.86924492712E+02 -0.32018295720E+03  0.34369014790E+03  0.47000000000E+01 0. -1.
          1    1    1    2  503    0 -0.59679084430E+00 -0.20945245070E+02 -0.10858999517E+04  0.10861020968E+04  0.00000000000E+00 0. -1.
         -2    1    1    2    0  501 -0.29032067101E+02 -0.29794484996E+02  0.39639625986E+03  0.39857316403E+03  0.00000000000E+00 0.  1.
<mgrwt>
<rscale>  0 0.29533250E+02</rscale>
<asrwt>0</asrwt>
<pdfrwt beam="2">  1        2 0.25657076E+00 0.20953745E+02</pdfrwt>
<pdfrwt beam="1">  1       -1 0.13246234E+00 0.41625631E+02</pdfrwt>
<totfact> 0.95049832E+00</totfact>
</mgrwt>
</event>
<event>
13    1  0.1942437E-008  0.5831596E+02  0.7546771E-02  0.1429443E+00
          2   -1    0    0  503    0  0.00000000000E+00  0.00000000000E+00  0.80854124652E+03  0.80854124652E+03  0.00000000000E+00 0. -1.
          2   -1    0    0  502    0 -0.00000000000E+00 -0.00000000000E+00 -0.28788877154E+03  0.28788877154E+03  0.00000000000E+00 0. -1.
         24    2    1    2    0    0 -0.29295401997E+02  0.34775896505E+01 -0.98238999313E+02  0.13142543117E+03  0.82167078356E+02 0.  0.
         24    2    1    2    0    0 -0.22471324802E+02  0.13131185522E+02  0.36463598926E+02  0.91583107118E+02  0.79877925556E+02 0.  0.
         25    2    1    2    0    0 -0.79624120330E+01  0.70149562539E+02  0.25446743676E+03  0.29216903054E+03  0.12499881961E+03 0.  0.
        -11    1    4    4    0    0 -0.23238378466E+02  0.28183999662E+02  0.56029172542E+02  0.66885187048E+02  0.00000000000E+00 0.  1.
         12    1    4    4    0    0  0.76705366400E+00 -0.15052814140E+02 -0.19565573616E+02  0.24697920070E+02  0.00000000000E+00 0. -1.
        -11    1    3    3    0    0 -0.37904134725E+02 -0.28690016690E+02 -0.81021816637E+02  0.93938145915E+02  0.00000000000E+00 0.  1.
         12    1    3    3    0    0  0.86087327281E+01  0.32167606340E+02 -0.17217182676E+02  0.37487285260E+02  0.00000000000E+00 0. -1.
          5    1    5    5  501    0 -0.64414680790E+02  0.34962266333E+02  0.10136936204E+03  0.12517766865E+03  0.47000000000E+01 0.  1.
         -5    1    5    5    0  501  0.56452268757E+02  0.35187296206E+02  0.15309807472E+03  0.16699136189E+03  0.47000000000E+01 0.  1.
          1    1    1    2  502    0  0.28620420636E+02 -0.49810925185E+02 -0.11876186860E+03  0.13192663938E+03  0.00000000000E+00 0. -1.
          1    1    1    2  503    0  0.31108718196E+02 -0.36947412526E+02  0.44672230720E+03  0.44932580984E+03  0.00000000000E+00 0. -1.
<mgrwt>
<rscale>  0 0.53072071E+02</rscale>
<asrwt>0</asrwt>
<pdfrwt beam="1">  1        2 0.11890312E+00 0.48299727E+02</pdfrwt>
<pdfrwt beam="2">  1        2 0.42336584E-01 0.58315956E+02</pdfrwt>
<totfact> 0.72381100E+02</totfact>
</mgrwt>
</event>
<event>
13    1  0.1942437E-008  0.7715688E+02  0.7546771E-02  0.1352484E+00
          2   -1    0    0  502    0  0.00000000000E+00  0.00000000000E+00  0.11887687526E+04  0.11887687526E+04  0.00000000000E+00 0. -1.
          2   -1    0    0  503    0 -0.00000000000E+00 -0.00000000000E+00 -0.12821799556E+04  0.12821799556E+04  0.00000000000E+00 0. -1.
         24    2    1    2    0    0 -0.58063207747E+02  0.78416140697E+01 -0.37143163676E+03  0.38442312753E+03  0.79917790191E+02 0.  0.
         24    2    1    2    0    0 -0.21585881033E+02 -0.11182893721E+03 -0.42738230948E+01  0.13748443056E+03  0.76889801836E+02 0.  0.
         25    2    1    2    0    0 -0.43696906462E+02  0.20050593691E+03  0.46935121766E+02  0.24482618046E+03  0.12499961044E+03 0.  0.
        -11    1    3    3    0    0 -0.61715788912E+01  0.35263174407E+02 -0.88466579316E+02  0.95435399675E+02  0.00000000000E+00 0.  1.
         12    1    3    3    0    0 -0.51891628856E+02 -0.27421560338E+02 -0.28296505744E+03  0.28898772785E+03  0.00000000000E+00 0. -1.
        -11    1    4    4    0    0 -0.49963938182E+02 -0.57977985717E+02 -0.32355844549E+01  0.76604901626E+02  0.00000000000E+00 0.  1.
         12    1    4    4    0    0  0.28378057149E+02 -0.53850951491E+02 -0.10382386400E+01  0.60879528937E+02  0.00000000000E+00 0. -1.
          5    1    5    5  501    0 -0.52319441267E+02  0.99870526329E+02 -0.31159355295E+02  0.11706597023E+03  0.47000000000E+01 0. -1.
         -5    1    5    5    0  501  0.86225348052E+01  0.10063541059E+03  0.78094477062E+02  0.12776021023E+03  0.47000000000E+01 0. -1.
          1    1    1    2  502    0  0.23990637955E+02 -0.63333231961E+02  0.96485890399E+03  0.96723283319E+03  0.00000000000E+00 0. -1.
          1    1    1    2  503    0  0.99355357287E+02 -0.33185381816E+02 -0.72949976897E+03  0.73698213649E+03  0.00000000000E+00 0. -1.
<mgrwt>
<rscale>  0 0.72287167E+02</rscale>
<asrwt>0</asrwt>
<pdfrwt beam="1">  1        2 0.17481893E+00 0.67724803E+02</pdfrwt>
<pdfrwt beam="2">  1        2 0.18855588E+00 0.77156880E+02</pdfrwt>
<totfact> 0.77303596E+01</totfact>
</mgrwt>
</event>
<event>
13    1  0.1942437E-008  0.2183718E+03  0.7546771E-02  0.1315302E+00
          2   -1    0    0  502    0  0.00000000000E+00  0.00000000000E+00  0.58392544984E+04  0.58392544984E+04  0.00000000000E+00 0. -1.
          2   -1    0    0  503    0 -0.00000000000E+00 -0.00000000000E+00 -0.44122794494E+04  0.44122794494E+04  0.00000000000E+00 0. -1.
         24    2    1    2    0    0  0.13830890072E+04  0.23448400602E+03  0.53153575028E+02  0.14080579451E+04  0.10901340842E+03 0.  0.
         24    2    1    2    0    0 -0.15927008534E+04 -0.21594307555E+03  0.19276873655E+04  0.25111252014E+04  0.80273145512E+02 0.  0.
         25    2    1    2    0    0 -0.36381998356E+02  0.30393706311E+02  0.27450693746E+03  0.30533032866E+03  0.12500049479E+03 0.  0.
        -11    1    3    3    0    0  0.87783769128E+03  0.95731662548E+02  0.27343313214E+02  0.88346546068E+03  0.00000000000E+00 0.  1.
         12    1    3    3    0    0  0.50525131595E+03  0.13875234347E+03  0.25810261814E+02  0.52459248442E+03  0.00000000000E+00 0. -1.
        -11    1    4    4    0    0 -0.80540782058E+03 -0.13798416160E+03  0.93535544644E+03  0.12420190005E+04  0.00000000000E+00 0.  1.
         12    1    4    4    0    0 -0.78729303282E+03 -0.77958913944E+02  0.99233191904E+03  0.12691062010E+04  0.00000000000E+00 0. -1.
          5    1    5    5  501    0  0.40777641399E+02  0.12108746188E+02  0.43395220413E+02  0.60948116681E+02  0.47000000000E+01 0. -1.
         -5    1    5    5    0  501 -0.77159639755E+02  0.18284960123E+02  0.23111171705E+03  0.24438221198E+03  0.47000000000E+01 0. -1.
          1    1    1    2  502    0  0.33124218668E+02 -0.17102887442E+00  0.25957396586E+04  0.25959510046E+04  0.00000000000E+00 0. -1.
          1    1    1    2  503    0  0.21286962586E+03 -0.48763607907E+02 -0.34241124876E+04  0.34310694681E+04  0.00000000000E+00 0. -1.
<mgrwt>
<rscale>  0 0.85049945E+02</rscale>
<asrwt>0</asrwt>
<pdfrwt beam="1">  1        2 0.85871390E+00 0.33124660E+02</pdfrwt>
<pdfrwt beam="2">  1        2 0.64886463E+00 0.21837185E+03</pdfrwt>
<totfact> 0.71600073E-04</totfact>
</mgrwt>
</event>
<event>
13    1  0.1942437E-008  0.2270150E+02  0.7546771E-02  0.1745074E+00
          2   -1    0    0  502    0  0.00000000000E+00  0.00000000000E+00  0.18574988090E+04  0.18574988090E+04  0.00000000000E+00 0. -1.
          2   -1    0    0  503    0 -0.00000000000E+00 -0.00000000000E+00 -0.94496509621E+03  0.94496509621E+03  0.00000000000E+00 0. -1.
         24    2    1    2    0    0  0.34863876529E+01 -0.72492768203E+02 -0.47603406631E+03  0.48824035710E+03  0.80640298082E+02 0.  0.
         24    2    1    2    0    0  0.78330775190E+02  0.23356035979E+02 -0.21334934376E+03  0.24312290519E+03  0.83123942299E+02 0.  0.
         25    2    1    2    0    0 -0.76015554730E+02  0.50198124455E+02  0.64602776003E+02  0.16762441728E+03  0.12500484127E+03 0.  0.
        -11    1    3    3    0    0 -0.35960898851E+02 -0.49464097405E+02 -0.22936247055E+03  0.23737528531E+03  0.00000000000E+00 0.  1.
         12    1    3    3    0    0  0.39447286504E+02 -0.23028670798E+02 -0.24667159576E+03  0.25086507180E+03  0.00000000000E+00 0. -1.
        -11    1    4    4    0    0  0.52780781372E+02  0.54062791230E+02 -0.12325161194E+03  0.14456678776E+03  0.00000000000E+00 0.  1.
         12    1    4    4    0    0  0.25549993818E+02 -0.30706755250E+02 -0.90097731826E+02  0.98556117427E+02  0.00000000000E+00 0. -1.
          5    1    5    5  501    0 -0.10792874149E+03  0.31021684170E+02  0.65494489276E+02  0.13008680276E+03  0.47000000000E+01 0.  1.
         -5    1    5    5    0  501  0.31913186756E+02  0.19176440286E+02 -0.89171327230E+00  0.37537614516E+02  0.47000000000E+01 0.  1.
          1    1    1    2  502    0  0.12704970516E+02  0.12241011082E+02  0.17196405477E+04  0.17197310464E+04  0.00000000000E+00 0. -1.
          1    1    1    2  503    0 -0.18506578629E+02 -0.13302403313E+02 -0.18232620083E+03  0.18374517925E+03  0.00000000000E+00 0. -1.
<mgrwt>
<rscale>  0 0.20012789E+02</rscale>
<asrwt>0</asrwt>
<pdfrwt beam="1">  1        2 0.27316159E+00 0.17642523E+02</pdfrwt>
<pdfrwt beam="2">  1        2 0.13896546E+00 0.22701499E+02</pdfrwt>
<totfact> 0.68132795E+01</totfact>
</mgrwt>
</event>
<event>
13    1  0.1942437E-008  0.1754661E+03  0.7546771E-02  0.1430250E+00
          2   -1    0    0  503    0  0.00000000000E+00  0.00000000000E+00  0.47029403142E+03  0.47029403142E+03  0.00000000000E+00 0. -1.
          2   -1    0    0  502    0 -0.00000000000E+00 -0.00000000000E+00 -0.33440248520E+04  0.33440248520E+04  0.00000000000E+00 0. -1.
         24    2    1    2    0    0  0.84925651652E+01 -0.73207970904E+02 -0.93640680525E+03  0.94287389676E+03  0.81987496587E+02 0.  0.
         24    2    1    2    0    0 -0.13567742981E+03 -0.10664230533E+03 -0.20350100969E+04  0.20444100088E+04  0.92548598359E+02 0.  0.
         25    2    1    2    0    0  0.29025435569E+03  0.20545603182E+03  0.15012124294E+01  0.37694335268E+03  0.12499706189E+03 0.  0.
        -11    1    4    4    0    0 -0.87376013002E+02 -0.11159779373E+03 -0.12757932429E+04  0.12836420972E+04  0.00000000000E+00 0.  1.
         12    1    4    4    0    0 -0.48301416809E+02  0.49554884023E+01 -0.75921685404E+03  0.76076791151E+03  0.00000000000E+00 0. -1.
        -11    1    3    3    0    0 -0.12805423277E+02  0.13510583615E+02 -0.10034612441E+03  0.10205811785E+03  0.00000000000E+00 0.  1.
         12    1    3    3    0    0  0.21297988442E+02 -0.86718554518E+02 -0.83606068084E+03  0.84081577891E+03  0.00000000000E+00 0. -1.
          5    1    5    5  501    0  0.56142212156E+02  0.52893764603E+02  0.51727085682E+02  0.92991826053E+02  0.47000000000E+01 0. -1.
         -5    1    5    5    0  501  0.23411214353E+03  0.15256226722E+03 -0.50225873253E+02  0.28395152662E+03  0.47000000000E+01 0. -1.
          1    1    1    2  502    0  0.11916998789E+02 -0.10607854069E+02 -0.14824882578E+03  0.14910484825E+03  0.00000000000E+00 0. -1.
          1    1    1    2  503    0 -0.17498648983E+03 -0.14997901515E+02  0.24443369496E+03  0.30098677696E+03  0.00000000000E+00 0. -1.
<mgrwt>
<rscale>  0 0.52909815E+02</rscale>
<asrwt>0</asrwt>
<pdfrwt beam="1">  1        2 0.69160886E-01 0.17546611E+03</pdfrwt>
<pdfrwt beam="2">  1        2 0.49176836E+00 0.15954355E+02</pdfrwt>
<totfact> 0.29436198E+01</totfact>
</mgrwt>
</event>
<event>
13    1  0.1942437E-008  0.4607972E+02  0.7546771E-02  0.1504910E+00
          2   -1    0    0  502    0  0.00000000000E+00  0.00000000000E+00  0.56425732961E+03  0.56425732961E+03  0.00000000000E+00 0. -1.
          2   -1    0    0  503    0 -0.00000000000E+00 -0.00000000000E+00 -0.31861628656E+03  0.31861628656E+03  0.00000000000E+00 0. -1.
         24    2    1    2    0    0 -0.45432103244E+02  0.63906660167E+02 -0.81337548155E+02  0.13897253408E+03  0.80928556586E+02 0.  0.
         24    2    1    2    0    0 -0.59806442991E+02 -0.60163893918E+02 -0.28938833960E+02  0.12299720607E+03  0.84227975380E+02 0.  0.
         25    2    1    2    0    0  0.82828348560E+02  0.18370399998E+02  0.31068652702E+03  0.34546952908E+03  0.12500028212E+03 0.  0.
        -13    1    4    4    0    0 -0.89357352904E+00 -0.36795519824E+02 -0.44487530315E+02  0.57739493471E+02  0.00000000000E+00 0.  1.
         14    1    4    4    0    0 -0.58912869462E+02 -0.23368374095E+02  0.15548696354E+02  0.65257712604E+02  0.00000000000E+00 0. -1.
        -13    1    3    3    0    0  0.21522594633E+02  0.27220368217E+02 -0.14895455891E+02  0.37763012748E+02  0.00000000000E+00 0.  1.
         14    1    3    3    0    0 -0.66954697876E+02  0.36686291951E+02 -0.66442092264E+02  0.10120952134E+03  0.00000000000E+00 0. -1.
          5    1    5    5  501    0  0.57858561423E+02 -0.25518453417E+02  0.52423821340E+02  0.82274854230E+02  0.47000000000E+01 0. -1.
         -5    1    5    5    0  501  0.24969787137E+02  0.43888853415E+02  0.25826270568E+03  0.26319467485E+03  0.47000000000E+01 0. -1.
          1    1    1    2  502    0 -0.23775942690E+02 -0.26378076886E+02  0.15354967056E+03  0.15760266407E+03  0.00000000000E+00 0. -1.
          1    1    1    2  503    0  0.46186140365E+02  0.42649106379E+01 -0.10831877243E+03  0.11783168286E+03  0.00000000000E+00 0. -1.
<mgrwt>
<rscale>  0 0.40452199E+02</rscale>
<asrwt>0</asrwt>
<pdfrwt beam="1">  1        2 0.82979019E-01 0.35511947E+02</pdfrwt>
<pdfrwt beam="2">  1        2 0.46855336E-01 0.46079715E+02</pdfrwt>
<totfact> 0.97396694E+02</totfact>
</mgrwt>
</event>
<event>
13    1  0.1942437E-008  0.9577636E+02  0.7546771E-02  0.1514368E+00
          2   -1    0    0  503    0  0.00000000000E+00  0.00000000000E+00  0.32806668757E+04  0.32806668757E+04  0.00000000000E+00 0. -1.
          2   -1    0    0  502    0 -0.00000000000E+00 -0.00000000000E+00 -0.80954625647E+03  0.80954625647E+03  0.00000000000E+00 0. -1.
         24    2    1    2    0    0  0.34654536059E+02 -0.53979288878E+02 -0.54008073993E+03  0.54982690476E+03  0.80670434869E+02 0.  0.
         24    2    1    2    0    0 -0.59339899884E+02 -0.15614027130E+03 -0.15285640109E+03  0.24068802737E+03  0.81637241027E+02 0.  0.
         25    2    1    2    0    0  0.74448938306E+02  0.13860345759E+03  0.23810436222E+04  0.23895073703E+04  0.12499271708E+03 0.  0.
        -11    1    4    4    0    0 -0.39502141275E+02 -0.87639244005E+02 -0.13744436231E+03  0.16772599377E+03  0.00000000000E+00 0.  1.
         12    1    4    4    0    0 -0.19837758610E+02 -0.68501027294E+02 -0.15412038782E+02  0.72962033596E+02  0.00000000000E+00 0. -1.
        -13    1    3    3    0    0 -0.11055843935E+02 -0.55599718935E+02 -0.26818773771E+03  0.27411352227E+03  0.00000000000E+00 0.  1.
         14    1    3    3    0    0  0.45710379993E+02  0.16204300574E+01 -0.27189300221E+03  0.27571338249E+03  0.00000000000E+00 0. -1.
          5    1    5    5  501    0 -0.17223450545E+02  0.84841001728E+02  0.14078370343E+04  0.14105041113E+04  0.47000000000E+01 0. -1.
         -5    1    5    5    0  501  0.91672388852E+02  0.53762455864E+02  0.97320658781E+03  0.97900325898E+03  0.47000000000E+01 0. -1.
          1    1    1    2  502    0  0.15926074874E+02  0.17689273985E+01 -0.59819682505E+02  0.61928695933E+02  0.00000000000E+00 0. -1.
          1    1    1    2  503    0 -0.65689649355E+02  0.69747175187E+02  0.84283382056E+03  0.84826213375E+03  0.00000000000E+00 0. -1.
<mgrwt>
<rscale>  0 0.39175522E+02</rscale>
<asrwt>0</asrwt>
<pdfrwt beam="1">  1        2 0.48245101E+00 0.95776359E+02</pdfrwt>
<pdfrwt beam="2">  1        2 0.11905092E+00 0.16024012E+02</pdfrwt>
<totfact> 0.13057417E+01</totfact>
</mgrwt>
</event>
<event>
13    1  0.1942437E-008  0.2358512E+03  0.7546771E-02  0.1383320E+00
          2   -1    0    0  502    0  0.00000000000E+00  0.00000000000E+00  0.16076825764E+04  0.16076825764E+04  0.00000000000E+00 0. -1.
          2   -1    0    0  503    0 -0.00000000000E+00 -0.00000000000E+00 -0.25784881669E+04  0.25784881669E+04  0.00000000000E+00 0. -1.
         24    2    1    2    0    0 -0.89411580655E+02  0.17790641863E+03 -0.40018484095E+03  0.45402140340E+03  0.79639206914E+02 0.  0.
         24    2    1    2    0    0  0.11079116875E+03  0.31140272783E+02  0.81005506403E+02  0.16115127904E+03  0.78507598399E+02 0.  0.
         25    2    1    2    0    0 -0.23077785596E+03 -0.42890548028E+02  0.30850413555E+03  0.40730448448E+03  0.12499649401E+03 0.  0.
        -11    1    3    3    0    0 -0.65257320455E+01  0.10152283987E+03 -0.18942712266E+03  0.21501652725E+03  0.00000000000E+00 0.  1.
         12    1    3    3    0    0 -0.82885848610E+02  0.76383578762E+02 -0.21075771830E+03  0.23900487615E+03  0.00000000000E+00 0. -1.
        -13    1    4    4    0    0  0.58360935546E+02  0.40814780367E+02  0.80973715905E+02  0.10783592983E+03  0.00000000000E+00 0.  1.
         14    1    4    4    0    0  0.52430233208E+02 -0.96745075846E+01  0.31790498514E-01  0.53315349215E+02  0.00000000000E+00 0. -1.
          5    1    5    5  501    0 -0.37862404500E+02 -0.58821690396E+02  0.60072206398E+02  0.92327205726E+02  0.47000000000E+01 0.  1.
         -5    1    5    5    0  501 -0.19291545146E+03  0.15931142367E+02  0.24843192915E+03  0.31497727875E+03  0.47000000000E+01 0.  1.
          1    1    1    2  502    0  0.14762490663E+02 -0.87288395368E+01  0.10941160445E+04  0.10942504479E+04  0.00000000000E+00 0. -1.
          1    1    1    2  503    0  0.19463577720E+03 -0.15742730385E+03 -0.20542464361E+04  0.20694431284E+04  0.00000000000E+00 0. -1.
<mgrwt>
<rscale>  0 0.63599194E+02</rscale>
<asrwt>0</asrwt>
<pdfrwt beam="1">  1        2 0.23642391E+00 0.17150037E+02</pdfrwt>
<pdfrwt beam="2">  1        2 0.37918943E+00 0.23585124E+03</pdfrwt>
<totfact> 0.11117323E+01</totfact>
</mgrwt>
</event>
<event>
13    1  0.1942437E-008  0.3528614E+02  0.7546771E-02  0.1591396E+00
          2   -1    0    0  502    0  0.00000000000E+00  0.00000000000E+00  0.39252426290E+04  0.39252426290E+04  0.00000000000E+00 0. -1.
          2   -1    0    0  503    0 -0.00000000000E+00 -0.00000000000E+00 -0.32168884600E+04  0.32168884600E+04  0.00000000000E+00 0. -1.
         24    2    1    2    0    0  0.14825047659E+01 -0.16131541764E+02 -0.20928284380E+03  0.22473216705E+03  0.80267139855E+02 0.  0.
         24    2    1    2    0    0  0.42583816609E+02  0.10437232090E+03 -0.14274955885E+03  0.19812133450E+03  0.78534475392E+02 0.  0.
         25    2    1    2    0    0 -0.10057567962E+02 -0.13007805600E+03  0.92196436975E+03  0.93951374298E+03  0.12508524629E+03 0.  0.
        -11    1    4    4    0    0  0.56026255088E+02  0.87533763399E+02 -0.78177207370E+02  0.13004913205E+03  0.00000000000E+00 0.  1.
         12    1    4    4    0    0 -0.13442438479E+02  0.16838557497E+02 -0.64572351481E+02  0.68072202452E+02  0.00000000000E+00 0. -1.
        -11    1    3    3    0    0  0.34795136394E+02 -0.25101358053E+02 -0.78322335632E+02  0.89303795841E+02  0.00000000000E+00 0.  1.
         12    1    3    3    0    0 -0.33312631628E+02  0.89698162895E+01 -0.13096050817E+03  0.13542837121E+03  0.00000000000E+00 0. -1.
          5    1    5    5  501    0  0.15364731523E+02 -0.14077627554E+03  0.60739382696E+03  0.62370135943E+03  0.47000000000E+01 0.  1.
         -5    1    5    5    0  501 -0.25422299484E+02  0.10698219536E+02  0.31457054278E+03  0.31581238354E+03  0.47000000000E+01 0.  1.
          1    1    1    2  502    0 -0.25448431627E+02  0.76068350790E+01  0.29589230690E+04  0.29590422800E+04  0.00000000000E+00 0. -1.
          1    1    1    2  503    0 -0.85603217859E+01  0.34230441791E+02 -0.28205008671E+04  0.28207215644E+04  0.00000000000E+00 0. -1.
<mgrwt>
<rscale>  0 0.30614294E+02</rscale>
<asrwt>0</asrwt>
<pdfrwt beam="1">  1        2 0.57724157E+00 0.26560998E+02</pdfrwt>
<pdfrwt beam="2">  1        2 0.47307183E+00 0.35286137E+02</pdfrwt>
<totfact> 0.46031797E-01</totfact>
</mgrwt>
</event>
<event>
13    1  0.1942437E-008  0.6934588E+02  0.7546771E-02  0.1537212E+00
          2   -1    0    0  503    0  0.00000000000E+00  0.00000000000E+00  0.83883466215E+03  0.83883466215E+03  0.00000000000E+00 0. -1.
         -1   -1    0    0    0  501 -0.00000000000E+00 -0.00000000000E+00 -0.79876895878E+03  0.79876895878E+03  0.00000000000E+00 0.  1.
         24    2    1    2    0    0 -0.45352049914E+02  0.54619259847E+02 -0.36282896051E+03  0.37856712049E+03  0.81413378225E+02 0.  0.
         24    2    1    2    0    0  0.15181807792E+02 -0.57589555421E+02 -0.48560404102E+02  0.11484676711E+03  0.85350002271E+02 0.  0.
         25    2    1    2    0    0  0.61825330226E+02  0.85271545002E+02  0.50395182796E+03  0.52979852112E+03  0.12500168092E+03 0.  0.
        -11    1    4    4    0    0  0.97107557359E+01  0.19671477232E+02  0.24947457677E+01  0.22079165517E+02  0.00000000000E+00 0.  1.
         12    1    4    4    0    0  0.54710520563E+01 -0.77261032653E+02 -0.51055149870E+02  0.92767601594E+02  0.00000000000E+00 0. -1.
        -13    1    3    3    0    0  0.62784354700E+01 -0.14703411032E+02 -0.11480592178E+03  0.11591379868E+03  0.00000000000E+00 0.  1.
         14    1    3    3    0    0 -0.51630485384E+02  0.69322670879E+02 -0.24802303873E+03  0.26265332181E+03  0.00000000000E+00 0. -1.
          5    1    5    5  502    0 -0.21556596526E+02 -0.12811886031E+02  0.33984811982E+02  0.42495749469E+02  0.47000000000E+01 0. -1.
         -5    1    5    5    0  502  0.83381926751E+02  0.98083431034E+02  0.46996701598E+03  0.48730277165E+03  0.47000000000E+01 0. -1.
          1    1    1    2  503    0 -0.24243303300E+02 -0.64785982322E+02  0.27641046539E+03  0.28493456553E+03  0.00000000000E+00 0. -1.
         -2    1    1    2    0  501 -0.74117848030E+01 -0.17515267107E+02 -0.32890722537E+03  0.32945664667E+03  0.00000000000E+00 0.  1.
<mgrwt>
<rscale>  0 0.36316434E+02</rscale>
<asrwt>0</asrwt>
<pdfrwt beam="1">  1        2 0.12335804E+00 0.69345880E+02</pdfrwt>
<pdfrwt beam="2">  1       -1 0.11746602E+00 0.19018915E+02</pdfrwt>
<totfact> 0.34276329E+01</totfact>
</mgrwt>
</event>
<event>
13    1  0.1942437E-008  0.4515114E+02  0.7546771E-02  0.1535758E+00
          2   -1    0    0  503    0  0.00000000000E+00  0.00000000000E+00  0.10405595540E+04  0.10405595540E+04  0.00000000000E+00 0. -1.
          2   -1    0    0  502    0 -0.00000000000E+00 -0.00000000000E+00 -0.31545312924E+03  0.31545312924E+03  0.00000000000E+00 0. -1.
         24    2    1    2    0    0 -0.16705164281E+02 -0.50897637743E+02  0.36302792555E+02  0.10005080677E+03  0.76306219575E+02 0.  0.
         24    2    1    2    0    0  0.50598113142E+02 -0.17651134518E+00  0.61684068608E+02  0.11072090186E+03  0.76772349052E+02 0.  0.
         25    2    1    2    0    0 -0.47984779224E+02  0.12160874330E+03  0.16771343777E+03  0.24666008972E+03  0.12498870816E+03 0.  0.
        -11    1    3    3    0    0 -0.46333234238E+02 -0.41179553693E+02  0.25882103965E+02  0.67174456030E+02  0.00000000000E+00 0.  1.
         12    1    3    3    0    0  0.29628069958E+02 -0.97180840503E+01  0.10420688589E+02  0.32876350736E+02  0.00000000000E+00 0. -1.
        -13    1    4    4    0    0  0.22611260423E+02  0.20704527207E+02  0.68586577305E+02  0.75126993359E+02  0.00000000000E+00 0.  1.
         14    1    4    4    0    0  0.27986852718E+02 -0.20881038552E+02 -0.69025086962E+01  0.35593908501E+02  0.00000000000E+00 0. -1.
          5    1    5    5  501    0 -0.71593962110E+02  0.18358061012E+02  0.80431414248E+02  0.10933442373E+03  0.47000000000E+01 0.  1.
         -5    1    5    5    0  501  0.23609182885E+02  0.10325068229E+03  0.87282023522E+02  0.13732566599E+03  0.47000000000E+01 0.  1.
          1    1    1    2  502    0  0.14667172358E+02 -0.25583154852E+02 -0.21784874973E+03  0.21983562386E+03  0.00000000000E+00 0. -1.
          1    1    1    2  503    0 -0.57534199531E+00 -0.44951439358E+02  0.67725487555E+03  0.67874526103E+03  0.00000000000E+00 0. -1.
<mgrwt>
<rscale>  0 0.36489440E+02</rscale>
<asrwt>0</asrwt>
<pdfrwt beam="1">  1        2 0.15302346E+00 0.45151137E+02</pdfrwt>
<pdfrwt beam="2">  1        2 0.46390166E-01 0.29489384E+02</pdfrwt>
<totfact> 0.48045537E+02</totfact>
</mgrwt>
</event>
<event>
13    1  0.1942437E-008  0.2635106E+03  0.7546771E-02  0.1201488E+00
          2   -1    0    0  503    0  0.00000000000E+00  0.00000000000E+00  0.21000939579E+03  0.21000939579E+03  0.00000000000E+00 0. -1.
          2   -1    0    0  502    0 -0.00000000000E+00 -0.00000000000E+00 -0.38646613491E+04  0.38646613491E+04  0.00000000000E+00 0. -1.
         24    2    1    2    0    0  0.18356678950E+02  0.72313824249E+02 -0.11284623863E+03  0.15765272269E+03  0.80955855613E+02 0.  0.
         24    2    1    2    0    0 -0.54419115523E+02  0.14171023444E+02 -0.12845557158E+03  0.16135073430E+03  0.79818340935E+02 0.  0.
         25    2    1    2    0    0  0.53799134154E+02  0.25597230698E+03 -0.35249150153E+03  0.45639013242E+03  0.12500210215E+03 0.  0.
        -11    1    3    3    0    0 -0.69081463059E+01  0.49342601523E+01  0.11314911271E+02  0.14145551446E+02  0.00000000000E+00 0.  1.
         12    1    3    3    0    0  0.25264825256E+02  0.67379564097E+02 -0.12416114990E+03  0.14350717124E+03  0.00000000000E+00 0. -1.
        -13    1    4    4    0    0 -0.30063059969E+02 -0.31264150661E+02 -0.40176753933E+02  0.59121960792E+02  0.00000000000E+00 0.  1.
         14    1    4    4    0    0 -0.24356055553E+02  0.45435174105E+02 -0.88278817642E+02  0.10222877350E+03  0.00000000000E+00 0. -1.
          5    1    5    5  501    0  0.54982344384E+01 -0.34138381255E+01  0.68715555715E+01  0.10544816198E+02  0.47000000000E+01 0. -1.
         -5    1    5    5    0  501  0.48300899716E+02  0.25938614511E+03 -0.35936305710E+03  0.44584531622E+03  0.47000000000E+01 0. -1.
          1    1    1    2  502    0 -0.36516188986E+02 -0.76148778675E+02 -0.30292679108E+04  0.30304448756E+04  0.00000000000E+00 0. -1.
          1    1    1    2  503    0  0.18779491405E+02 -0.26630837600E+03 -0.31590730742E+02  0.26883227986E+03  0.00000000000E+00 0. -1.
<mgrwt>
<rscale>  0 0.14917736E+03</rscale>
<asrwt>0</asrwt>
<pdfrwt beam="1">  1        2 0.30883735E-01 0.26351061E+03</pdfrwt>
<pdfrwt beam="2">  1        2 0.56833255E+00 0.84451575E+02</pdfrwt>
<totfact> 0.24600603E+01</totfact>
</mgrwt>
</event>
<event>
13    1  0.1942437E-008  0.1644769E+03  0.7546771E-02  0.1443012E+00
          2   -1    0    0  502    0  0.00000000000E+00  0.00000000000E+00  0.12868529638E+04  0.12868529638E+04  0.00000000000E+00 0. -1.
          2   -1    0    0  503    0 -0.00000000000E+00 -0.00000000000E+00 -0.22005544751E+04  0.22005544751E+04  0.00000000000E+00 0. -1.
         24    2    1    2    0    0  0.86987082807E+02  0.12515543441E+03 -0.37409680737E+03  0.41157832910E+03  0.78852167748E+02 0.  0.
         24    2    1    2    0    0 -0.14178527305E+03  0.23986279398E+01  0.31278998844E+01  0.16351719657E+03  0.81358913131E+02 0.  0.
         25    2    1    2    0    0  0.12157371756E+03  0.13652910416E+03  0.77827717383E+01  0.22160291196E+03  0.12500765564E+03 0.  0.
        -11    1    3    3    0    0  0.79544192905E+02  0.48320438606E+02 -0.22977294532E+03  0.24790673612E+03  0.00000000000E+00 0.  1.
         12    1    3    3    0    0  0.74428899017E+01  0.76834995805E+02 -0.14432386205E+03  0.16367159298E+03  0.00000000000E+00 0. -1.
        -11    1    4    4    0    0 -0.21842728593E+02 -0.11750337196E+02 -0.29375207350E+02  0.38445780308E+02  0.00000000000E+00 0.  1.
         12    1    4    4    0    0 -0.11994254446E+03  0.14148965136E+02  0.32503107235E+02  0.12507141626E+03  0.00000000000E+00 0. -1.
          5    1    5    5  501    0 -0.91437707411E+01  0.75666048680E+02  0.11858660304E+02  0.77276628359E+02  0.47000000000E+01 0.  1.
         -5    1    5    5    0  501  0.13071748830E+03  0.60863055483E+02 -0.40758885659E+01  0.14432628360E+03  0.47000000000E+01 0.  1.
          1    1    1    2  502    0  0.18435542923E+01  0.15354799094E+02  0.10572677674E+04  0.10573808683E+04  0.00000000000E+00 0. -1.
          1    1    1    2  503    0 -0.68619081607E+02 -0.27943796561E+03 -0.16077831430E+04  0.16333281329E+04  0.00000000000E+00 0. -1.
<mgrwt>
<rscale>  0 0.50434583E+02</rscale>
<asrwt>0</asrwt>
<pdfrwt beam="1">  1        2 0.18924308E+00 0.15465075E+02</pdfrwt>
<pdfrwt beam="2">  1        2 0.32361095E+00 0.16447687E+03</pdfrwt>
<totfact> 0.25306373E+01</totfact>
</mgrwt>
</event>
<event>
13    1  0.1942437E-008  0.6932834E+02  0.7546771E-02  0.1409392E+00
          2   -1    0    0  503    0  0.00000000000E+00  0.00000000000E+00  0.22380166099E+04  0.22380166099E+04  0.00000000000E+00 0. -1.
          2   -1    0    0  502    0 -0.00000000000E+00 -0.00000000000E+00 -0.19919225767E+04  0.19919225767E+04  0.00000000000E+00 0. -1.
         24    2    1    2    0    0  0.82225811032E+02  0.48512920709E+02 -0.37841363557E+03  0.39817862781E+03  0.78960449494E+02 0.  0.
         24    2    1    2    0    0  0.11088119899E+02 -0.70819374225E+02 -0.69549898674E+02  0.12863404933E+03  0.81062938954E+02 0.  0.
         25    2    1    2    0    0 -0.13086907693E+02 -0.26674762482E+02  0.22894642824E+03  0.26253480704E+03  0.12500099119E+03 0.  0.
        -11    1    3    3    0    0  0.16948540675E+02  0.54131091653E+02 -0.20826922240E+03  0.21585526890E+03  0.00000000000E+00 0.  1.
         12    1    3    3    0    0  0.65277270357E+02 -0.56181709444E+01 -0.17014441317E+03  0.18232335890E+03  0.00000000000E+00 0. -1.
        -11    1    4    4    0    0 -0.22973879630E+02 -0.68964345161E+02 -0.56672641473E+02  0.92171949856E+02  0.00000000000E+00 0.  1.
         12    1    4    4    0    0  0.34061999528E+02 -0.18550290644E+01 -0.12877257201E+02  0.36462099470E+02  0.00000000000E+00 0. -1.
          5    1    5    5  501    0 -0.51483056698E+02 -0.42673100940E+02  0.20180033695E+03  0.21264281005E+03  0.47000000000E+01 0. -1.
         -5    1    5    5    0  501  0.38396149005E+02  0.15998338458E+02  0.27146091288E+02  0.49891996994E+02  0.47000000000E+01 0. -1.
          1    1    1    2  502    0 -0.34183736725E+02  0.60272977294E+02 -0.14866454668E+04  0.14882594209E+04  0.00000000000E+00 0. -1.
          1    1    1    2  503    0 -0.46043286512E+02 -0.11291761296E+02  0.19517566061E+04  0.19523322816E+04  0.00000000000E+00 0. -1.
<mgrwt>
<rscale>  0 0.57329713E+02</rscale>
<asrwt>0</asrwt>
<pdfrwt beam="1">  1        2 0.32912009E+00 0.47407680E+02</pdfrwt>
<pdfrwt beam="2">  1        2 0.29292979E+00 0.69328344E+02</pdfrwt>
<totfact> 0.11521392E+01</totfact>
</mgrwt>
</event>
<event>
13    1  0.1942437E-008  0.4908506E+02  0.7546771E-02  0.1470609E+00
          2   -1    0    0  503    0  0.00000000000E+00  0.00000000000E+00  0.46550787157E+04  0.46550787157E+04  0.00000000000E+00 0. -1.
          2   -1    0    0  502    0 -0.00000000000E+00 -0.00000000000E+00 -0.90696338614E+03  0.90696338614E+03  0.00000000000E+00 0. -1.
         24    2    1    2    0    0  0.51137528733E+02 -0.11794915367E+01 -0.63141993207E+02  0.11511383417E+03  0.81534320789E+02 0.  0.
         24    2    1    2    0    0 -0.61851455367E+02 -0.90908824225E+02 -0.17485808577E+03  0.22168210384E+03  0.80483465075E+02 0.  0.
         25    2    1    2    0    0 -0.27482848070E+02  0.15865778653E+03  0.91920389928E+03  0.94153517274E+03  0.12500029157E+03 0.  0.
        -13    1    4    4    0    0 -0.93201102543E+01 -0.66449370450E+02 -0.48879614538E+02  0.83015661208E+02  0.00000000000E+00 0.  1.
         14    1    4    4    0    0 -0.52531345113E+02 -0.24459453775E+02 -0.12597847123E+03  0.13866644263E+03  0.00000000000E+00 0. -1.
        -13    1    3    3    0    0  0.47072879918E+02  0.35346852564E+02 -0.45190480756E+02  0.74212098481E+02  0.00000000000E+00 0.  1.
         14    1    3    3    0    0  0.40646488153E+01 -0.36526344100E+02 -0.17951512450E+02  0.40901735692E+02  0.00000000000E+00 0. -1.
          5    1    5    5  501    0 -0.72134817540E+02  0.10481167363E+03  0.69698712357E+03  0.70852103656E+03  0.47000000000E+01 0. -1.
         -5    1    5    5    0  501  0.44651969470E+02  0.53846112894E+02  0.22221677571E+03  0.23301413618E+03  0.47000000000E+01 0. -1.
          1    1    1    2  502    0 -0.43681218536E+01 -0.42143107193E+02 -0.60749804441E+03  0.60897372352E+03  0.00000000000E+00 0. -1.
          1    1    1    2  503    0  0.42564896557E+02 -0.24426363572E+02  0.36744095536E+04  0.36747372675E+04  0.00000000000E+00 0. -1.
<mgrwt>
<rscale>  0 0.45603500E+02</rscale>
<asrwt>0</asrwt>
<pdfrwt beam="1">  1        2 0.68457039E+00 0.49085064E+02</pdfrwt>
<pdfrwt beam="2">  1        2 0.13337697E+00 0.42368880E+02</pdfrwt>
<totfact> 0.15474425E+00</totfact>
</mgrwt>
</event>
<event>
13    1  0.1942437E-008  0.1619890E+03  0.7546771E-02  0.1316108E+00
          2   -1    0    0  503    0  0.00000000000E+00  0.00000000000E+00  0.37375766901E+04  0.37375766901E+04  0.00000000000E+00 0. -1.
          2   -1    0    0  502    0 -0.00000000000E+00 -0.00000000000E+00 -0.44436868045E+03  0.44436868045E+03  0.00000000000E+00 0. -1.
         24    2    1    2    0    0  0.14609709784E+03  0.14809308080E+03  0.17212419169E+03  0.27889545757E+03  0.69857113545E+02 0.  0.
         24    2    1    2    0    0 -0.64956019373E+02 -0.65652406289E+02  0.30188992249E+02  0.12635905667E+03  0.80781885628E+02 0.  0.
         25    2    1    2    0    0 -0.55856723140E+01 -0.65423043348E+01  0.99439701472E+03  0.10022589890E+04  0.12499462642E+03 0.  0.
        -11    1    4    4    0    0 -0.52390604002E+02 -0.11219703373E+01 -0.34388155987E+01  0.52515327837E+02  0.00000000000E+00 0.  1.
         12    1    4    4    0    0 -0.12565415371E+02 -0.64530435951E+02  0.33627807848E+02  0.73843728834E+02  0.00000000000E+00 0. -1.
        -11    1    3    3    0    0  0.70503429751E+02  0.34432541930E+02  0.90796561051E+02  0.12000145436E+03  0.00000000000E+00 0.  1.
         12    1    3    3    0    0  0.75593668093E+02  0.11366053887E+03  0.81327630635E+02  0.15889400321E+03  0.00000000000E+00 0. -1.
          5    1    5    5  501    0 -0.49514126803E+02 -0.41904327104E+02  0.64979606300E+03  0.65304259805E+03  0.47000000000E+01 0.  1.
         -5    1    5    5    0  501  0.43928454489E+02  0.35362022769E+02  0.34460095173E+03  0.34921639094E+03  0.47000000000E+01 0.  1.
          1    1    1    2  502    0 -0.11593526273E+03 -0.94194784308E+02 -0.32229696177E+03  0.35523087436E+03  0.00000000000E+00 0. -1.
          1    1    1    2  503    0  0.40379856570E+02  0.18296414131E+02  0.24187947728E+04  0.24192009930E+04  0.00000000000E+00 0. -1.
<mgrwt>
<rscale>  0 0.84742155E+02</rscale>
<asrwt>0</asrwt>
<pdfrwt beam="1">  1        2 0.54964361E+00 0.44331609E+02</pdfrwt>
<pdfrwt beam="2">  1        2 0.65348337E-01 0.16198899E+03</pdfrwt>
<totfact> 0.15014321E+01</totfact>
</mgrwt>
</event>
<event>
13    1  0.1942437E-008  0.7971466E+02  0.7546771E-02  0.1355750E+00
          2   -1    0    0  502    0  0.00000000000E+00  0.00000000000E+00  0.13022518158E+04  0.13022518158E+04  0.00000000000E+00 0. -1.
          4   -1    0    0  503    0 -0.00000000000E+00 -0.00000000000E+00 -0.11581829203E+04  0.11581829203E+04  0.00000000000E+00 0. -1.
         24    2    1    2    0    0  0.33481499886E+02 -0.18959265648E+03 -0.57909448254E+03  0.61537727853E+03  0.79198415365E+02 0.  0.
         24    2    1    2    0    0 -0.17935508942E+02 -0.11639525395E+02 -0.12717566027E+02  0.89538580295E+02  0.86013137620E+02 0.  0.
         25    2    1    2    0    0 -0.10181538527E+03  0.10150705951E+03  0.81181594954E+03  0.83387051500E+03  0.12499937621E+03 0.  0.
        -11    1    4    4    0    0  0.47428320387E+01  0.62168933907E+01  0.33855157167E+02  0.34746451416E+02  0.00000000000E+00 0.  1.
         12    1    4    4    0    0 -0.22678340981E+02 -0.17856418785E+02 -0.46572723194E+02  0.54792128880E+02  0.00000000000E+00 0. -1.
        -13    1    3    3    0    0 -0.22119056741E+02 -0.26564210643E+02 -0.12567519865E+03  0.13034249313E+03  0.00000000000E+00 0.  1.
         14    1    3    3    0    0  0.55600556627E+02 -0.16302844584E+03 -0.45341928389E+03  0.48503478540E+03  0.00000000000E+00 0. -1.
          5    1    5    5  501    0 -0.92985607813E+02  0.51683702353E+02  0.27891118933E+03  0.29854827061E+03  0.47000000000E+01 0.  1.
         -5    1    5    5    0  501 -0.88297774530E+01  0.49823357156E+02  0.53290476021E+03  0.53532224439E+03  0.47000000000E+01 0.  1.
          1    1    1    2  502    0  0.16441281118E+02  0.61604899117E+02  0.41724713940E+03  0.42209081328E+03  0.00000000000E+00 0. -1.
          3    1    1    2  503    0  0.69828113205E+02  0.38120223251E+02 -0.49318214483E+03  0.49955754903E+03  0.00000000000E+00 0. -1.
<mgrwt>
<rscale>  0 0.71293024E+02</rscale>
<asrwt>0</asrwt>
<pdfrwt beam="1">  1        2 0.19150762E+00 0.63761111E+02</pdfrwt>
<pdfrwt beam="2">  1        4 0.17032102E+00 0.79714658E+02</pdfrwt>
<totfact> 0.24838165E+00</totfact>
</mgrwt>
</event>
<event>
13    1  0.1942437E-008  0.2128122E+02  0.7546771E-02  0.1794343E+00
          2   -1    0    0  503    0  0.00000000000E+00  0.00000000000E+00  0.67486862461E+03  0.67486862461E+03  0.00000000000E+00 0. -1.
          2   -1    0    0  502    0 -0.00000000000E+00 -0.00000000000E+00 -0.18849868815E+04  0.18849868815E+04  0.00000000000E+00 0. -1.
         24    2    1    2    0    0 -0.42990648811E+02 -0.34750111826E+02  0.20731754866E+02  0.10084783758E+03  0.81760103521E+02 0.  0.
         24    2    1    2    0    0  0.27736217876E+02 -0.16593415037E+03 -0.37825112770E+02  0.19022197807E+03  0.80313272522E+02 0.  0.
         25    2    1    2    0    0  0.68165610051E+00  0.23321027946E+03  0.38230588369E+03  0.46494027094E+03  0.12499667089E+03 0.  0.
        -13    1    4    4    0    0  0.11690262393E+01  0.58510686206E+01  0.84464366496E+01  0.10341369272E+02  0.00000000000E+00 0.  1.
         14    1    4    4    0    0  0.26567191637E+02 -0.17178521899E+03 -0.46271549419E+02  0.17988060880E+03  0.00000000000E+00 0. -1.
        -13    1    3    3    0    0 -0.44254349024E+02 -0.49897303407E+02 -0.91528734692E+01  0.67319858791E+02  0.00000000000E+00 0.  1.
         14    1    3    3    0    0  0.12637002128E+01  0.15147191581E+02  0.29884628335E+02  0.33527978790E+02  0.00000000000E+00 0. -1.
          5    1    5    5  501    0 -0.52711874479E+02  0.51983127596E+02  0.13039510908E+03  0.15001920456E+03  0.47000000000E+01 0.  1.
         -5    1    5    5    0  501  0.53393530580E+02  0.18122715187E+03  0.25191077461E+03  0.31492106638E+03  0.47000000000E+01 0.  1.
          1    1    1    2  502    0  0.82441523959E+01 -0.12282081604E+02 -0.16885710944E+04  0.16886358862E+04  0.00000000000E+00 0. -1.
          1    1    1    2  503    0  0.63286224391E+01 -0.20243935661E+02  0.11324031163E+03  0.11520953334E+03  0.00000000000E+00 0. -1.
<mgrwt>
<rscale>  0 0.17742622E+02</rscale>
<asrwt>0</asrwt>
<pdfrwt beam="1">  1        2 0.99245387E-01 0.21281219E+02</pdfrwt>
<pdfrwt beam="2">  1        2 0.27720395E+00 0.14792416E+02</pdfrwt>
<totfact> 0.98802572E+01</totfact>
</mgrwt>
</event>
<event>
13    1  0.1942437E-008  0.1526283E+03  0.7546771E-02  0.1427844E+00
          2   -1    0    0  503    0  0.00000000000E+00  0.00000000000E+00  0.22322500372E+04  0.22322500372E+04  0.00000000000E+00 0. -1.
         -1   -1    0    0    0  501 -0.00000000000E+00 -0.00000000000E+00 -0.60033204502E+03  0.60033204502E+03  0.00000000000E+00 0.  1.
         24    2    1    2    0    0  0.11538772616E+03 -0.12702294521E+03 -0.77284441935E+01  0.18979518049E+03  0.80705177842E+02 0.  0.
         24    2    1    2    0    0  0.13705461168E+02  0.86405561791E+01  0.13474973838E+03  0.15809057542E+03  0.81071814863E+02 0.  0.
         25    2    1    2    0    0 -0.27438855526E+03  0.32921159137E+03  0.20879191413E+03  0.49283723628E+03  0.12500050763E+03 0.  0.
        -13    1    4    4    0    0  0.96811518715E+01 -0.15557717275E+02 -0.26532345084E+01  0.18515045820E+02  0.00000000000E+00 0.  1.
         14    1    4    4    0    0  0.40243092961E+01  0.24198273454E+02  0.13740297289E+03  0.13957552960E+03  0.00000000000E+00 0. -1.
        -13    1    3    3    0    0  0.11733938418E+03 -0.79952647347E+02 -0.11975432746E+02  0.14249339594E+03  0.00000000000E+00 0.  1.
         14    1    3    3    0    0 -0.19516580201E+01 -0.47070297867E+02  0.42469885529E+01  0.47301784555E+02  0.00000000000E+00 0. -1.
          5    1    5    5  502    0 -0.24184956151E+03  0.22008278736E+03  0.11997756747E+03  0.34834515985E+03  0.47000000000E+01 0. -1.
         -5    1    5    5    0  502 -0.32538993751E+02  0.10912880400E+03  0.88814346656E+02  0.14449207642E+03  0.47000000000E+01 0. -1.
          1    1    1    2  503    0  0.16220228245E+03 -0.20288631416E+03  0.16334614233E+04  0.16539856887E+04  0.00000000000E+00 0. -1.
         -2    1    1    2    0  501 -0.16906914519E+02 -0.79428881743E+01 -0.33735663940E+03  0.33787340141E+03  0.00000000000E+00 0.  1.
<mgrwt>
<rscale>  0 0.53395318E+02</rscale>
<asrwt>0</asrwt>
<pdfrwt beam="1">  1        2 0.32827206E+00 0.15262834E+03</pdfrwt>
<pdfrwt beam="2">  1       -1 0.88284125E-01 0.18679755E+02</pdfrwt>
<totfact> 0.11285302E+01</totfact>
</mgrwt>
</event>
<event>
13    1  0.1942437E-008  0.9042357E+02  0.7546771E-02  0.1329541E+00
          2   -1    0    0  503    0  0.00000000000E+00  0.00000000000E+00  0.50817503336E+03  0.50817503336E+03  0.00000000000E+00 0. -1.
         -1   -1    0    0    0  501 -0.00000000000E+00 -0.00000000000E+00 -0.68910852101E+03  0.68910852101E+03  0.00000000000E+00 0.  1.
         24    2    1    2    0    0  0.93112348257E+02  0.24525326305E+02 -0.18302739172E+03  0.22224586990E+03  0.81380584531E+02 0.  0.
         24    2    1    2    0    0 -0.21851959236E+02  0.40621060244E+02  0.34358236100E+02  0.99296310331E+02  0.80942511696E+02 0.  0.
         25    2    1    2    0    0  0.82046101266E+02 -0.10322798506E+03  0.95345304088E+02  0.20519101417E+03  0.12500018261E+03 0.  0.
        -11    1    4    4    0    0 -0.23479218451E+02 -0.20566846506E+02  0.17603507379E+02  0.35835071456E+02  0.00000000000E+00 0.  1.
         12    1    4    4    0    0  0.16272592148E+01  0.61187906750E+02  0.16754728721E+02  0.63461238874E+02  0.00000000000E+00 0. -1.
        -11    1    3    3    0    0  0.78120330277E+02  0.52167395363E+02 -0.12655131339E+03  0.15760538716E+03  0.00000000000E+00 0.  1.
         12    1    3    3    0    0  0.14992017980E+02 -0.27642069057E+02 -0.56476078332E+02  0.64640482739E+02  0.00000000000E+00 0. -1.
          5    1    5    5  502    0  0.63246272645E+02  0.96710356094E+01  0.16858882679E+02  0.66331982168E+02  0.47000000000E+01 0. -1.
         -5    1    5    5    0  502  0.18799828622E+02 -0.11289902067E+03  0.78486421409E+02  0.13885903200E+03  0.47000000000E+01 0. -1.
          1    1    1    2  503    0 -0.87967322346E+02  0.11674294361E+02  0.26096342074E+03  0.27563825191E+03  0.00000000000E+00 0. -1.
         -2    1    1    2    0  501 -0.65339167941E+02  0.26407304146E+02 -0.38857305686E+03  0.39491210806E+03  0.00000000000E+00 0.  1.
<mgrwt>
<rscale>  0 0.79827879E+02</rscale>
<asrwt>0</asrwt>
<pdfrwt beam="1">  1        2 0.74731623E-01 0.90423574E+02</pdfrwt>
<pdfrwt beam="2">  1       -1 0.10133949E+00 0.70473772E+02</pdfrwt>
<totfact> 0.77943835E+01</totfact>
</mgrwt>
</event>
<event>
13    1  0.1942437E-008  0.8111458E+02  0.7546771E-02  0.1450443E+00
          2   -1    0    0  502    0  0.00000000000E+00  0.00000000000E+00  0.20028426659E+04  0.20028426659E+04  0.00000000000E+00 0. -1.
          2   -1    0    0  503    0 -0.00000000000E+00 -0.00000000000E+00 -0.20693817761E+04  0.20693817761E+04  0.00000000000E+00 0. -1.
         24    2    1    2    0    0  0.91612673574E+02  0.15426661648E+01 -0.16004070587E+03  0.20158608744E+03  0.81416591281E+02 0.  0.
         24    2    1    2    0    0 -0.98850248345E+02  0.29368775330E+03 -0.10875213737E+04  0.11336827248E+04  0.80684040036E+02 0.  0.
         25    2    1    2    0    0 -0.74979361241E+02 -0.24012527153E+03  0.28303226159E+03  0.39876525257E+03  0.12499765966E+03 0.  0.
        -11    1    4    4    0    0  0.12844194805E+02  0.37628704586E+02 -0.16925383833E+03  0.17386130834E+03  0.00000000000E+00 0.  1.
         12    1    4    4    0    0 -0.11169444315E+03  0.25605904871E+03 -0.91826753533E+03  0.95982141646E+03  0.00000000000E+00 0. -1.
        -13    1    3    3    0    0  0.10706974956E+03  0.16792816045E+01 -0.14134002325E+03  0.17732386594E+03  0.00000000000E+00 0.  1.
         14    1    3    3    0    0 -0.15457075988E+02 -0.13661543974E+00 -0.18700682615E+02  0.24262221500E+02  0.00000000000E+00 0. -1.
          5    1    5    5  501    0 -0.50797436504E+02 -0.16942424777E+03  0.10528449063E+03  0.20589285868E+03  0.47000000000E+01 0. -1.
         -5    1    5    5    0  501 -0.24181924737E+02 -0.70701023758E+02  0.17774777097E+03  0.19287239390E+03  0.47000000000E+01 0. -1.
          1    1    1    2  502    0  0.76852490362E+02 -0.25913518250E+02  0.16167677893E+04  0.16188007599E+04  0.00000000000E+00 0. -1.
          1    1    1    2  503    0  0.53644456498E+01 -0.29191629688E+02 -0.71877708154E+03  0.71938961729E+03  0.00000000000E+00 0. -1.
<mgrwt>
<rscale>  0 0.49066450E+02</rscale>
<asrwt>0</asrwt>
<pdfrwt beam="1">  1        2 0.29453569E+00 0.81114584E+02</pdfrwt>
<pdfrwt beam="2">  1        2 0.30432085E+00 0.29680440E+02</pdfrwt>
<totfact> 0.14199828E+01</totfact>
</mgrwt>
</event>
<event>
13    1  0.1942437E-008  0.1023191E+03  0.7546771E-02  0.1288131E+00
          2   -1    0    0  502    0  0.00000000000E+00  0.00000000000E+00  0.84562565005E+03  0.84562565005E+03  0.00000000000E+00 0. -1.
          2   -1    0    0  503    0 -0.00000000000E+00 -0.00000000000E+00 -0.54695094935E+03  0.54695094935E+03  0.00000000000E+00 0. -1.
         24    2    1    2    0    0 -0.62207598414E+01  0.86607110119E+02 -0.13877836541E+03  0.18535020480E+03  0.86923957222E+02 0.  0.
         24    2    1    2    0    0  0.39656236696E+02 -0.53131218497E+02 -0.89430226374E+00  0.10497662184E+03  0.81386410832E+02 0.  0.
         25    2    1    2    0    0 -0.80740638183E+01 -0.29683556922E+02  0.19341844305E+03  0.23234057114E+03  0.12500057130E+03 0.  0.
        -13    1    3    3    0    0 -0.34936965291E+02  0.87411847261E+02 -0.10646201812E+03  0.14211116736E+03  0.00000000000E+00 0.  1.
         14    1    3    3    0    0  0.28716205449E+02 -0.80473714216E+00 -0.32316347287E+02  0.43239037446E+02  0.00000000000E+00 0. -1.
        -13    1    4    4    0    0  0.15909951048E+02  0.80037973684E+01  0.28099999027E+02  0.33268562638E+02  0.00000000000E+00 0.  1.
         14    1    4    4    0    0  0.23746285648E+02 -0.61135015865E+02 -0.28994301291E+02  0.71708059200E+02  0.00000000000E+00 0. -1.
          5    1    5    5  501    0  0.28563843161E+02 -0.35434750022E+02  0.18927662247E+03  0.19472864314E+03  0.47000000000E+01 0. -1.
         -5    1    5    5    0  501 -0.36637906980E+02  0.57511931005E+01  0.41418205808E+01  0.37611927997E+02  0.47000000000E+01 0. -1.
          1    1    1    2  502    0  0.27283840204E+02  0.86559004146E+02  0.54481068239E+03  0.55231834007E+03  0.00000000000E+00 0. -1.
          1    1    1    2  503    0 -0.52645253240E+02 -0.90351338846E+02 -0.29988175707E+03  0.31759086155E+03  0.00000000000E+00 0. -1.
<mgrwt>
<rscale>  0 0.96364909E+02</rscale>
<asrwt>0</asrwt>
<pdfrwt beam="1">  1        2 0.12435671E+00 0.90757199E+02</pdfrwt>
<pdfrwt beam="2">  1        2 0.80433963E-01 0.10231911E+03</pdfrwt>
<totfact> 0.34148695E+02</totfact>
</mgrwt>
</event>
<event>
13    1  0.1942437E-008  0.2009828E+03  0.7546771E-02  0.1246274E+00
          2   -1    0    0  503    0  0.00000000000E+00  0.00000000000E+00  0.25098585554E+04  0.25098585554E+04  0.00000000000E+00 0. -1.
          2   -1    0    0  502    0 -0.00000000000E+00 -0.00000000000E+00 -0.16974804749E+04  0.16974804749E+04  0.00000000000E+00 0. -1.
         24    2    1    2    0    0  0.66325985615E+02  0.55104789636E+02 -0.65729181155E+02  0.13693765780E+03  0.83641632329E+02 0.  0.
         24    2    1    2    0    0 -0.14302482640E+03 -0.51410985573E+03  0.32535292531E+02  0.54026754743E+03  0.77880888706E+02 0.  0.
         25    2    1    2    0    0  0.52947638035E+02  0.23905444797E+03  0.11084590628E+04  0.11420410674E+04  0.12500329634E+03 0.  0.
        -11    1    3    3    0    0  0.44465725330E+01  0.42679420134E+02  0.37473120012E+01  0.43073742089E+02  0.00000000000E+00 0.  1.
         12    1    3    3    0    0  0.61879413082E+02  0.12425369502E+02 -0.69476493156E+02  0.93863915708E+02  0.00000000000E+00 0. -1.
        -13    1    4    4    0    0 -0.11983957630E+03 -0.46691376748E+03  0.50533293338E+02  0.48468918293E+03  0.00000000000E+00 0.  1.
         14    1    4    4    0    0 -0.23185250103E+02 -0.47196088246E+02 -0.17998000807E+02  0.55578364505E+02  0.00000000000E+00 0. -1.
          5    1    5    5  501    0  0.22740344935E+02  0.19947925418E+03  0.10270433317E+04  0.10464937608E+04  0.47000000000E+01 0. -1.
         -5    1    5    5    0  501  0.30207293101E+02  0.39575193794E+02  0.81415731082E+02  0.95547306544E+02  0.47000000000E+01 0. -1.
          1    1    1    2  502    0 -0.35421881940E+02  0.25619458429E+03 -0.13117163696E+04  0.13369705341E+04  0.00000000000E+00 0. -1.
          1    1    1    2  503    0  0.59173084690E+02 -0.36243966172E+02  0.10488292759E+04  0.10511222236E+04  0.00000000000E+00 0. -1.
<mgrwt>
<rscale>  0 0.11809468E+03</rscale>
<asrwt>0</asrwt>
<pdfrwt beam="1">  1        2 0.36909685E+00 0.69390771E+02</pdfrwt>
<pdfrwt beam="2">  1        2 0.24962948E+00 0.20098281E+03</pdfrwt>
<totfact> 0.10209732E+01</totfact>
</mgrwt>
</event>
<event>
13    1  0.1942437E-008  0.6108857E+02  0.7546771E-02  0.1443626E+00
          2   -1    0    0  503    0  0.00000000000E+00  0.00000000000E+00  0.76011003716E+03  0.76011003716E+03  0.00000000000E+00 0. -1.
         -1   -1    0    0    0  501 -0.00000000000E+00 -0.00000000000E+00 -0.23557560626E+03  0.23557560626E+03  0.00000000000E+00 0.  1.
         24    2    1    2    0    0  0.12902364779E+03  0.41619361985E+02 -0.82418217124E+02  0.17756296542E+03  0.79728107934E+02 0.  0.
         24    2    1    2    0    0 -0.16161049995E+02 -0.55565278517E+02  0.12880680979E+03  0.16374222335E+03  0.82895366250E+02 0.  0.
         25    2    1    2    0    0 -0.60107574941E+02  0.61637620487E+02  0.41227751691E+03  0.43932695387E+03  0.12499321831E+03 0.  0.
        -11    1    4    4    0    0 -0.10237811689E+02  0.44480954047E+01  0.92876374680E+02  0.93544744987E+02  0.00000000000E+00 0.  1.
         12    1    4    4    0    0 -0.59232383063E+01 -0.60013373922E+02  0.35930435113E+02  0.70197478366E+02  0.00000000000E+00 0. -1.
        -13    1    3    3    0    0  0.10248060424E+03  0.32891273209E+02 -0.98008052460E+02  0.14556678345E+03  0.00000000000E+00 0.  1.
         14    1    3    3    0    0  0.26543043555E+02  0.87280887756E+01  0.15589835336E+02  0.31996181970E+02  0.00000000000E+00 0. -1.
          5    1    5    5  502    0  0.37078342216E+02  0.28981786504E+02  0.16369515912E+03  0.17039055880E+03  0.47000000000E+01 0.  1.
         -5    1    5    5    0  502 -0.97185917158E+02  0.32655833983E+02  0.24858235780E+03  0.26893639507E+03  0.47000000000E+01 0.  1.
          1    1    1    2  503    0 -0.39661575589E+02  0.12040435811E+02  0.12396169368E+03  0.13070774335E+03  0.00000000000E+00 0. -1.
         -2    1    1    2    0  501 -0.13093447265E+02 -0.59732139766E+02 -0.58093372364E+02  0.84345757421E+02  0.00000000000E+00 0.  1.
<mgrwt>
<rscale>  0 0.50319528E+02</rscale>
<asrwt>0</asrwt>
<pdfrwt beam="1">  1        2 0.11178089E+00 0.41448916E+02</pdfrwt>
<pdfrwt beam="2">  1       -1 0.34643472E-01 0.61088567E+02</pdfrwt>
<totfact> 0.38316685E+02</totfact>
</mgrwt>
</event>
<event>
13    1  0.1942437E-008  0.1130105E+03  0.7546771E-02  0.1354301E+00
          2   -1    0    0  502    0  0.00000000000E+00  0.00000000000E+00  0.21075601308E+04  0.21075601308E+04  0.00000000000E+00 0. -1.
          2   -1    0    0  503    0 -0.00000000000E+00 -0.00000000000E+00 -0.23163512536E+04  0.23163512536E+04  0.00000000000E+00 0. -1.
         24    2    1    2    0    0  0.25925189194E+02 -0.22399063308E+02 -0.69122120330E+03  0.69513089625E+03  0.65164235179E+02 0.  0.
         24    2    1    2    0    0  0.13088430166E+02  0.13380926793E+03 -0.33728345112E+03  0.37184727094E+03  0.80212463597E+02 0.  0.
         25    2    1    2    0    0  0.10818959877E+03 -0.16283125547E+03  0.11880377695E+04  0.12104859922E+04  0.12499435389E+03 0.  0.
        -11    1    3    3    0    0  0.61550706361E+01 -0.42143193834E+02 -0.31383383869E+03  0.31671061237E+03  0.00000000000E+00 0.  1.
         12    1    3    3    0    0  0.19770118558E+02  0.19744130526E+02 -0.37738736462E+03  0.37842028388E+03  0.00000000000E+00 0. -1.
        -13    1    4    4    0    0  0.13478262267E+02  0.73637629153E+02 -0.27595528771E+03  0.28592916045E+03  0.00000000000E+00 0.  1.
         14    1    4    4    0    0 -0.38983210158E+00  0.60171638781E+02 -0.61328163411E+02  0.85918110489E+02  0.00000000000E+00 0. -1.
          5    1    5    5  501    0 -0.24694792829E+02 -0.43010370209E+02  0.18431683948E+03  0.19093064724E+03  0.47000000000E+01 0. -1.
         -5    1    5    5    0  501  0.13288439160E+03 -0.11982088526E+03  0.10037209300E+04  0.10195553449E+04  0.47000000000E+01 0. -1.
          1    1    1    2  502    0 -0.10173656075E+03  0.49003802813E+02  0.88506075022E+03  0.89223552500E+03  0.00000000000E+00 0. -1.
          1    1    1    2  503    0 -0.45466657383E+02  0.24172480307E+01 -0.12533849881E+04  0.12542117000E+04  0.00000000000E+00 0. -1.
<mgrwt>
<rscale>  0 0.71731902E+02</rscale>
<asrwt>0</asrwt>
<pdfrwt beam="1">  1        2 0.30993531E+00 0.11301049E+03</pdfrwt>
<pdfrwt beam="2">  1        2 0.34063989E+00 0.45530869E+02</pdfrwt>
<totfact> 0.88850160E+00</totfact>
</mgrwt>
</event>
<event>
13    1  0.1942437E-008  0.1713675E+03  0.7546771E-02  0.1234695E+00
          2   -1    0    0  502    0  0.00000000000E+00  0.00000000000E+00  0.10358859719E+04  0.10358859719E+04  0.00000000000E+00 0. -1.
          2   -1    0    0  503    0 -0.00000000000E+00 -0.00000000000E+00 -0.11511371655E+04  0.11511371655E+04  0.00000000000E+00 0. -1.
         24    2    1    2    0    0 -0.70265665204E+01  0.11661527470E+03 -0.63703204787E+02  0.15543854557E+03  0.80340203003E+02 0.  0.
         24    2    1    2    0    0 -0.84506325849E+01 -0.10315276702E+03 -0.13596958751E+03  0.19045991362E+03  0.84115060673E+02 0.  0.
         25    2    1    2    0    0  0.86691425720E+02  0.14881376335E+03  0.31700141843E+03  0.38180561565E+03  0.12499875760E+03 0.  0.
        -11    1    4    4    0    0 -0.33367060569E+02 -0.12040368114E+02 -0.19424538991E+02  0.40443094718E+02  0.00000000000E+00 0.  1.
         12    1    4    4    0    0  0.24916427984E+02 -0.91112398908E+02 -0.11654504852E+03  0.15001681890E+03  0.00000000000E+00 0. -1.
        -13    1    3    3    0    0 -0.31481931998E+02  0.10765772235E+03 -0.64486733476E+02  0.12938251821E+03  0.00000000000E+00 0.  1.
         14    1    3    3    0    0  0.24455365478E+02  0.89575523555E+01  0.78352868871E+00  0.26056027365E+02  0.00000000000E+00 0. -1.
          5    1    5    5  501    0 -0.19383191569E+02  0.86054419459E+02  0.15193939584E+03  0.17575193095E+03  0.47000000000E+01 0. -1.
         -5    1    5    5    0  501  0.10607461729E+03  0.62759343888E+02  0.16506202259E+03  0.20605368470E+03  0.47000000000E+01 0. -1.
          1    1    1    2  502    0  0.63001729386E+02 -0.66394673643E+02  0.60183609448E+03  0.60875623629E+03  0.00000000000E+00 0. -1.
          1    1    1    2  503    0 -0.13421595600E+03 -0.95881597386E+02 -0.83441591422E+03  0.85056282629E+03  0.00000000000E+00 0. -1.
<mgrwt>
<rscale>  0 0.12523983E+03</rscale>
<asrwt>0</asrwt>
<pdfrwt beam="1">  1        2 0.15233617E+00 0.91528523E+02</pdfrwt>
<pdfrwt beam="2">  1        2 0.16928488E+00 0.17136752E+03</pdfrwt>
<totfact> 0.10288872E+02</totfact>
</mgrwt>
</event>
<event>
13    1  0.1942437E-008  0.1125184E+03  0.7546771E-02  0.1375151E+00
          2   -1    0    0  502    0  0.00000000000E+00  0.00000000000E+00  0.26165078128E+04  0.26165078128E+04  0.00000000000E+00 0. -1.
          2   -1    0    0  503    0 -0.00000000000E+00 -0.00000000000E+00 -0.25048643867E+04  0.25048643867E+04  0.00000000000E+00 0. -1.
         24    2    1    2    0    0 -0.34191815938E+03  0.81627069189E+03 -0.30984210998E+03  0.94050259565E+03  0.73055658021E+02 0.  0.
         24    2    1    2    0    0 -0.41226609626E+03 -0.20847804845E+03 -0.60233061797E+02  0.47253130632E+03  0.78939108914E+02 0.  0.
         25    2    1    2    0    0  0.78422069064E+03 -0.73302416590E+03  0.11932102658E+04  0.16098765593E+04  0.12500111296E+03 0.  0.
        -11    1    3    3    0    0 -0.55393882562E+02  0.15241070155E+03 -0.86204742171E+02  0.18365391841E+03  0.00000000000E+00 0.  1.
         12    1    3    3    0    0 -0.28652427681E+03  0.66385999033E+03 -0.22363736781E+03  0.75684867725E+03  0.00000000000E+00 0. -1.
        -13    1    4    4    0    0 -0.13159405973E+03 -0.31817249759E+02 -0.35535698054E+02  0.13997185351E+03  0.00000000000E+00 0.  1.
         14    1    4    4    0    0 -0.28067203653E+03 -0.17666079869E+03 -0.24697363744E+02  0.33255945282E+03  0.00000000000E+00 0. -1.
          5    1    5    5  501    0  0.67253854248E+03 -0.66211843367E+03  0.99386298940E+03  0.13705818629E+04  0.47000000000E+01 0. -1.
         -5    1    5    5    0  501  0.11168214816E+03 -0.70905732235E+02  0.19934727641E+03  0.23929469633E+03  0.47000000000E+01 0. -1.
          1    1    1    2  502    0  0.26412067145E+02  0.27911990076E+02  0.69069783852E+03  0.69176598689E+03  0.00000000000E+00 0. -1.
          1    1    1    2  503    0 -0.56448502156E+02  0.97319532386E+02 -0.14021895065E+04  0.14066957513E+04  0.00000000000E+00 0. -1.
<mgrwt>
<rscale>  0 0.65755662E+02</rscale>
<asrwt>0</asrwt>
<pdfrwt beam="1">  1        2 0.38478056E+00 0.38427548E+02</pdfrwt>
<pdfrwt beam="2">  1        2 0.36836241E+00 0.11251842E+03</pdfrwt>
<totfact> 0.41821364E+00</totfact>
</mgrwt>
</event>
<event>
13    1  0.1942437E-008  0.1392279E+03  0.7546771E-02  0.1469539E+00
          4   -1    0    0  503    0 -0.00000000000E+00  0.00000000000E+00  0.25955660654E+03  0.25955660654E+03  0.00000000000E+00 0. -1.
          2   -1    0    0  502    0  0.00000000000E+00 -0.00000000000E+00 -0.25526130784E+04  0.25526130784E+04  0.00000000000E+00 0. -1.
         24    2    1    2    0    0  0.50156215076E+02 -0.98130351318E+02 -0.50848205542E+03  0.52676482740E+03  0.82352722743E+02 0.  0.
         24    2    1    2    0    0 -0.64001431398E+02 -0.69493791100E+02 -0.21456385325E+03  0.24334751095E+03  0.65228779999E+02 0.  0.
         25    2    1    2    0    0  0.85939007432E+02  0.63573490975E+02 -0.73002874148E+03  0.74832757478E+03  0.12500037611E+03 0.  0.
        -11    1    3    3    0    0  0.44792796612E+02 -0.15089583267E+02 -0.11064051440E+03  0.12031381292E+03  0.00000000000E+00 0.  1.
         12    1    3    3    0    0  0.53634184640E+01 -0.83040768051E+02 -0.39784154102E+03  0.40645101448E+03  0.00000000000E+00 0. -1.
        -11    1    4    4    0    0 -0.55751999129E+01 -0.11579207050E+02  0.72933773666E+00  0.12872172447E+02  0.00000000000E+00 0.  1.
         12    1    4    4    0    0 -0.58426231485E+02 -0.57914584050E+02 -0.21529319099E+03  0.23047533850E+03  0.00000000000E+00 0. -1.
          5    1    5    5  501    0  0.17533177475E+01  0.53331583272E+02 -0.10829534882E+03  0.12081930505E+03  0.47000000000E+01 0. -1.
         -5    1    5    5    0  501  0.84185689684E+02  0.10241907703E+02 -0.62173339267E+03  0.62750826973E+03  0.47000000000E+01 0. -1.
          1    1    1    2  502    0  0.27853743150E+01 -0.14792138860E+02 -0.10450547110E+04  0.10451631044E+04  0.00000000000E+00 0. -1.
          3    1    1    2  503    0 -0.74879165426E+02  0.11884279030E+03  0.20507288934E+03  0.24856666744E+03  0.00000000000E+00 0. -1.
<mgrwt>
<rscale>  0 0.45778517E+02</rscale>
<asrwt>0</asrwt>
<pdfrwt beam="2">  1        2 0.37538428E+00 0.15052099E+02</pdfrwt>
<pdfrwt beam="1">  1        4 0.38170088E-01 0.13922793E+03</pdfrwt>
<totfact> 0.22394110E+01</totfact>
</mgrwt>
</event>
<event>
13    1  0.1942437E-008  0.6894577E+02  0.7546771E-02  0.1389324E+00
          2   -1    0    0  503    0  0.00000000000E+00  0.00000000000E+00  0.11633990821E+04  0.11633990821E+04  0.00000000000E+00 0. -1.
          2   -1    0    0  502    0 -0.00000000000E+00 -0.00000000000E+00 -0.12961981573E+04  0.12961981573E+04  0.00000000000E+00 0. -1.
         24    2    1    2    0    0 -0.14376534504E+02 -0.10777458654E+03 -0.12616230689E+03  0.18409609385E+03  0.78437222314E+02 0.  0.
         24    2    1    2    0    0  0.75529557489E+02 -0.29575090784E+02 -0.13702983927E+02  0.11415218972E+03  0.79142596621E+02 0.  0.
         25    2    1    2    0    0 -0.12175142953E+03  0.23304004034E+03  0.19785809649E+03  0.35200145627E+03  0.12500451142E+03 0.  0.
        -11    1    4    4    0    0  0.50639694474E+02 -0.38280818222E+02 -0.41496728597E+02  0.75840478535E+02  0.00000000000E+00 0.  1.
         12    1    4    4    0    0  0.24889863015E+02  0.87057274384E+01  0.27793744669E+02  0.38311711184E+02  0.00000000000E+00 0. -1.
        -13    1    3    3    0    0 -0.43961902820E+02 -0.40421605302E+02 -0.46720046287E+02  0.75824256012E+02  0.00000000000E+00 0.  1.
         14    1    3    3    0    0  0.29585368316E+02 -0.67352981236E+02 -0.79442260599E+02  0.10827183784E+03  0.00000000000E+00 0. -1.
          5    1    5    5  501    0 -0.93626890310E+02  0.11916473239E+03  0.17650344058E+03  0.23268386831E+03  0.47000000000E+01 0. -1.
         -5    1    5    5    0  501 -0.28124539219E+02  0.11387530795E+03  0.21354655903E+02  0.11931758796E+03  0.47000000000E+01 0. -1.
          1    1    1    2  502    0  0.46579899667E+01 -0.55694593626E+02 -0.99782542420E+03  0.99938939449E+03  0.00000000000E+00 0. -1.
          1    1    1    2  503    0  0.55940416578E+02 -0.39995769389E+02  0.80703354342E+03  0.80995810508E+03  0.00000000000E+00 0. -1.
<mgrwt>
<rscale>  0 0.62075057E+02</rscale>
<asrwt>0</asrwt>
<pdfrwt beam="1">  1        2 0.17108810E+00 0.68945769E+02</pdfrwt>
<pdfrwt beam="2">  1        2 0.19061737E+00 0.55889039E+02</pdfrwt>
<totfact> 0.80064226E+01</totfact>
</mgrwt>
</event>
<event>
13    1  0.1942437E-008  0.5463889E+02  0.7546771E-02  0.1503109E+00
          2   -1    0    0  502    0  0.00000000000E+00  0.00000000000E+00  0.11889609874E+04  0.11889609874E+04  0.00000000000E+00 0. -1.
          2   -1    0    0  503    0 -0.00000000000E+00 -0.00000000000E+00 -0.68884758416E+03  0.68884758416E+03  0.00000000000E+00 0. -1.
         24    2    1    2    0    0 -0.68469919958E+02  0.10395284296E+03  0.23969344069E+01  0.14996186318E+03  0.83597198618E+02 0.  0.
         24    2    1    2    0    0  0.78871506170E+02 -0.45233107311E+02  0.40972675526E+02  0.13136672309E+03  0.85508521874E+02 0.  0.
         25    2    1    2    0    0 -0.40488447129E+02 -0.93725850041E+02  0.56452767484E+03  0.58714529877E+03  0.12499702754E+03 0.  0.
        -11    1    4    4    0    0  0.68015707970E+02 -0.55328735004E+02  0.60737235609E+02  0.10666028894E+03  0.00000000000E+00 0.  1.
         12    1    4    4    0    0  0.10855798201E+02  0.10095627692E+02 -0.19764560083E+02  0.24706434148E+02  0.00000000000E+00 0. -1.
        -13    1    3    3    0    0 -0.72136037640E+02  0.34521898341E+02 -0.44701889349E+01  0.80095892408E+02  0.00000000000E+00 0.  1.
         14    1    3    3    0    0  0.36661176825E+01  0.69430944619E+02  0.68671233418E+01  0.69865970776E+02  0.00000000000E+00 0. -1.
          5    1    5    5  501    0  0.86054058442E+01 -0.37258749862E+02  0.44076407569E+03  0.44244471731E+03  0.47000000000E+01 0. -1.
         -5    1    5    5    0  501 -0.49093852974E+02 -0.56467100179E+02  0.12376359914E+03  0.14470058146E+03  0.47000000000E+01 0. -1.
          1    1    1    2  502    0  0.23421363912E+02 -0.19254315206E+02  0.44892517230E+03  0.44994788505E+03  0.00000000000E+00 0. -1.
          1    1    1    2  503    0  0.66654970054E+01  0.54260429599E+02 -0.55670905381E+03  0.55938680148E+03  0.00000000000E+00 0. -1.
<mgrwt>
<rscale>  0 0.40701831E+02</rscale>
<asrwt>0</asrwt>
<pdfrwt beam="1">  1        2 0.17484720E+00 0.30319778E+02</pdfrwt>
<pdfrwt beam="2">  1        2 0.10130112E+00 0.54638891E+02</pdfrwt>
<totfact> 0.18275825E+02</totfact>
</mgrwt>
</event>
<event>
13    1  0.1942437E-008  0.8256426E+02  0.7546771E-02  0.1333074E+00
          2   -1    0    0  503    0  0.00000000000E+00  0.00000000000E+00  0.28826059578E+04  0.28826059578E+04  0.00000000000E+00 0. -1.
         -3   -1    0    0    0  501 -0.00000000000E+00 -0.00000000000E+00 -0.41639519076E+03  0.41639519076E+03  0.00000000000E+00 0.  1.
         24    2    1    2    0    0 -0.60763765832E+02  0.19327119354E+03  0.14486078198E+03  0.26108139176E+03  0.78312562700E+02 0.  0.
         24    2    1    2    0    0  0.18424831615E+03 -0.23324328063E+03  0.72850775773E+03  0.79238305085E+03  0.93794862517E+02 0.  0.
         25    2    1    2    0    0 -0.10412559176E+03  0.15408534345E+03  0.16237620213E+04  0.16391500785E+04  0.12500178388E+03 0.  0.
        -13    1    4    4    0    0  0.12341109836E+03 -0.18620434621E+03  0.43549465371E+03  0.48944657640E+03  0.00000000000E+00 0.  1.
         14    1    4    4    0    0  0.60837217783E+02 -0.47038934425E+02  0.29301310402E+03  0.30293647444E+03  0.00000000000E+00 0. -1.
        -13    1    3    3    0    0 -0.65551548555E+02  0.11594082515E+03  0.12117605550E+03  0.18006364675E+03  0.00000000000E+00 0.  1.
         14    1    3    3    0    0  0.47877827231E+01  0.77330368380E+02  0.23684726488E+02  0.81017745007E+02  0.00000000000E+00 0. -1.
          5    1    5    5  502    0 -0.48376560847E+01  0.10455851772E+03  0.10101640361E+04  0.10155832592E+04  0.47000000000E+01 0.  1.
         -5    1    5    5    0  502 -0.99287935674E+02  0.49526825731E+02  0.61359798528E+03  0.62356681934E+03  0.47000000000E+01 0.  1.
          1    1    1    2  503    0  0.41619329043E+02 -0.70749359148E+02  0.27731078175E+03  0.28920392467E+03  0.00000000000E+00 0. -1.
         -4    1    1    2    0  501 -0.60978287599E+02 -0.43363897210E+02 -0.30823057574E+03  0.31718270281E+03  0.00000000000E+00 0.  1.
<mgrwt>
<rscale>  0 0.78599427E+02</rscale>
<asrwt>0</asrwt>
<pdfrwt beam="1">  1        2 0.42391263E+00 0.82564260E+02</pdfrwt>
<pdfrwt beam="2">  1       -3 0.61234588E-01 0.74824990E+02</pdfrwt>
<totfact> 0.53938756E+00</totfact>
</mgrwt>
</event>
<event>
13    1  0.1942437E-008  0.1437501E+03  0.7546771E-02  0.1309783E+00
          2   -1    0    0  503    0  0.00000000000E+00  0.00000000000E+00  0.16056035485E+04  0.16056035485E+04  0.00000000000E+00 0. -1.
          2   -1    0    0  502    0 -0.00000000000E+00 -0.00000000000E+00 -0.17834846473E+04  0.17834846473E+04  0.00000000000E+00 0. -1.
         24    2    1    2    0    0  0.13360773452E+02 -0.22053443243E+02 -0.26680543993E+03  0.28085969830E+03  0.83857991418E+02 0.  0.
         24    2    1    2    0    0  0.30339225064E+02 -0.11982826775E+03 -0.53182949913E+03  0.55194387842E+03  0.80747423788E+02 0.  0.
         25    2    1    2    0    0 -0.31710395298E+02  0.50123078147E+02  0.11221097137E+03  0.17814285768E+03  0.12500281402E+03 0.  0.
        -11    1    4    4    0    0  0.35917547107E+00 -0.11666727664E+03 -0.44457383723E+03  0.45962732642E+03  0.00000000000E+00 0.  1.
         12    1    4    4    0    0  0.29980049593E+02 -0.31609911070E+01 -0.87255661904E+02  0.92316551998E+02  0.00000000000E+00 0. -1.
        -11    1    3    3    0    0 -0.92755685314E+01  0.29554214032E+02 -0.10786516321E+03  0.11222469056E+03  0.00000000000E+00 0.  1.
         12    1    3    3    0    0  0.22636341983E+02 -0.51607657275E+02 -0.15894027673E+03  0.16863500773E+03  0.00000000000E+00 0. -1.
          5    1    5    5  501    0  0.48227326409E+02  0.20513009327E+02  0.36563836438E+02  0.64075445370E+02  0.47000000000E+01 0.  1.
         -5    1    5    5    0  501 -0.79937721708E+02  0.29610068820E+02  0.75647134929E+02  0.11406741231E+03  0.47000000000E+01 0.  1.
          1    1    1    2  502    0  0.22224975718E+02 -0.47997649944E+02 -0.93046062816E+03  0.93196282356E+03  0.00000000000E+00 0. -1.
          1    1    1    2  503    0 -0.34214578936E+02  0.13975628279E+03  0.14390034970E+04  0.14461789379E+04  0.00000000000E+00 0. -1.
<mgrwt>
<rscale>  0 0.87197755E+02</rscale>
<asrwt>0</asrwt>
<pdfrwt beam="1">  1        2 0.23611817E+00 0.14375011E+03</pdfrwt>
<pdfrwt beam="2">  1        2 0.26227715E+00 0.52893515E+02</pdfrwt>
<totfact> 0.26605346E+01</totfact>
</mgrwt>
</event>
<event>
13    1  0.1942437E-008  0.5511562E+02  0.7546771E-02  0.1437912E+00
         -3   -1    0    0    0  501 -0.00000000000E+00  0.00000000000E+00  0.75960907227E+03  0.75960907227E+03  0.00000000000E+00 0.  1.
          2   -1    0    0  503    0  0.00000000000E+00 -0.00000000000E+00 -0.25079546286E+04  0.25079546286E+04  0.00000000000E+00 0. -1.
         24    2    1    2    0    0  0.49357147172E+03 -0.42799528140E+03  0.11556035007E+03  0.66853470496E+03  0.82411762682E+02 0.  0.
         24    2    1    2    0    0 -0.49878130460E+03 -0.24248100415E+02 -0.65576929305E+03  0.82670588775E+03  0.63549185234E+02 0.  0.
         25    2    1    2    0    0  0.76246952986E+02  0.52457497445E+03 -0.43645146912E+03  0.69793138061E+03  0.12500330193E+03 0.  0.
        -11    1    4    4    0    0 -0.32214164562E+03 -0.15132037698E+02 -0.37203270274E+03  0.49235409038E+03  0.00000000000E+00 0.  1.
         12    1    4    4    0    0 -0.17663965898E+03 -0.91160627167E+01 -0.28373659031E+03  0.33435179737E+03  0.00000000000E+00 0. -1.
        -13    1    3    3    0    0  0.28991533279E+03 -0.25522310384E+03  0.10919621262E+03  0.40138951875E+03  0.00000000000E+00 0.  1.
         14    1    3    3    0    0  0.20365613893E+03 -0.17277217757E+03  0.63641374493E+01  0.26714518620E+03  0.00000000000E+00 0. -1.
          5    1    5    5  502    0  0.39214163180E+02  0.41550073753E+03 -0.27607263776E+03  0.50041663122E+03  0.47000000000E+01 0. -1.
         -5    1    5    5    0  502  0.37032789805E+02  0.10907423692E+03 -0.16037883136E+03  0.19751474939E+03  0.47000000000E+01 0. -1.
          1    1    1    2  503    0 -0.39319572094E+02 -0.27430850508E+02 -0.91740001257E+03  0.91865187279E+03  0.00000000000E+00 0. -1.
         -4    1    1    2    0  501 -0.31717548009E+02 -0.44900742122E+02  0.14571486836E+03  0.15573985474E+03  0.00000000000E+00 0.  1.
<mgrwt>
<rscale>  0 0.51404076E+02</rscale>
<asrwt>0</asrwt>
<pdfrwt beam="2">  1        2 0.36881685E+00 0.47942469E+02</pdfrwt>
<pdfrwt beam="1">  1       -3 0.11170722E+00 0.55115622E+02</pdfrwt>
<totfact> 0.24419468E+00</totfact>
</mgrwt>
</event>
<event>
13    1  0.1942437E-008  0.1009963E+03  0.7546771E-02  0.1333382E+00
         -3   -1    0    0    0  501 -0.00000000000E+00  0.00000000000E+00  0.98366192596E+03  0.98366192596E+03  0.00000000000E+00 0.  1.
          2   -1    0    0  503    0  0.00000000000E+00 -0.00000000000E+00 -0.31376056263E+04  0.31376056263E+04  0.00000000000E+00 0. -1.
         24    2    1    2    0    0  0.85760378317E+02  0.91739563726E+02  0.59439796975E+03  0.61297895032E+03  0.81628775882E+02 0.  0.
         24    2    1    2    0    0 -0.59014297621E+01 -0.38951906777E+02 -0.54875285092E+02  0.10512849211E+03  0.80552001993E+02 0.  0.
         25    2    1    2    0    0  0.81257325531E+02 -0.65419721841E+02 -0.13979396372E+03  0.21459274188E+03  0.12500079847E+03 0.  0.
        -11    1    3    3    0    0  0.62827878872E+02  0.65869905745E+02  0.54580225869E+03  0.55334102725E+03  0.00000000000E+00 0.  1.
         12    1    3    3    0    0  0.22932499444E+02  0.25869657982E+02  0.48595711059E+02  0.59637923070E+02  0.00000000000E+00 0. -1.
        -11    1    4    4    0    0 -0.10115223751E+02  0.14757125423E+02  0.10241107808E+02  0.20614819704E+02  0.00000000000E+00 0.  1.
         12    1    4    4    0    0  0.42137939892E+01 -0.53709032200E+02 -0.65116392900E+02  0.84513672409E+02  0.00000000000E+00 0. -1.
          5    1    5    5  502    0  0.94648872347E+02 -0.71476386885E+02 -0.15344061080E+03  0.19399328329E+03  0.47000000000E+01 0.  1.
         -5    1    5    5    0  502 -0.13391546816E+02  0.60566650433E+01  0.13646647083E+02  0.20599458589E+02  0.47000000000E+01 0.  1.
          1    1    1    2  503    0 -0.10085785915E+03  0.31220992469E+01 -0.28672933642E+04  0.28690683665E+04  0.00000000000E+00 0. -1.
         -4    1    1    2    0  501 -0.60258414939E+02  0.95099656456E+01  0.31362094298E+03  0.31949900139E+03  0.00000000000E+00 0.  1.
<mgrwt>
<rscale>  0 0.78493337E+02</rscale>
<asrwt>0</asrwt>
<pdfrwt beam="2">  1        2 0.46141258E+00 0.10099634E+03</pdfrwt>
<pdfrwt beam="1">  1       -3 0.14465617E+00 0.61004230E+02</pdfrwt>
<totfact> 0.56893820E-01</totfact>
</mgrwt>
</event>
<event>
13    1  0.1942437E-008  0.5323621E+02  0.7546771E-02  0.1500347E+00
          2   -1    0    0  502    0  0.00000000000E+00  0.00000000000E+00  0.12070597290E+04  0.12070597290E+04  0.00000000000E+00 0. -1.
          2   -1    0    0  503    0 -0.00000000000E+00 -0.00000000000E+00 -0.48789560349E+03  0.48789560349E+03  0.00000000000E+00 0. -1.
         24    2    1    2    0    0 -0.33801399955E+02  0.28806423480E+02 -0.41553497487E+02  0.10085048842E+03  0.80447393917E+02 0.  0.
         24    2    1    2    0    0  0.32674035847E+02  0.23178699328E+02 -0.10704492090E+02  0.89289708243E+02  0.79077311071E+02 0.  0.
         25    2    1    2    0    0 -0.49824338762E+02  0.34459516392E-01  0.41558974607E+03  0.43683115286E+03  0.12499661257E+03 0.  0.
        -11    1    4    4    0    0  0.10408410613E+02 -0.29325385724E+02  0.72210809497E+00  0.31126109610E+02  0.00000000000E+00 0.  1.
         12    1    4    4    0    0  0.22265625234E+02  0.52504085052E+02 -0.11426600185E+02  0.58163598634E+02  0.00000000000E+00 0. -1.
        -13    1    3    3    0    0 -0.12255022790E+02  0.48783747210E+02 -0.49334343593E+02  0.70455071025E+02  0.00000000000E+00 0.  1.
         14    1    3    3    0    0 -0.21546377165E+02 -0.19977323730E+02  0.77808461059E+01  0.30395417393E+02  0.00000000000E+00 0. -1.
          5    1    5    5  501    0 -0.40644941207E+02 -0.54882296075E+02  0.14258083361E+03  0.15816276990E+03  0.47000000000E+01 0. -1.
         -5    1    5    5    0  501 -0.91793975551E+01  0.54916755591E+02  0.27300891245E+03  0.27866838296E+03  0.47000000000E+01 0. -1.
          1    1    1    2  502    0  0.31616516575E+02 -0.24781039627E+01  0.70956634575E+03  0.71027469625E+03  0.00000000000E+00 0. -1.
          1    1    1    2  503    0  0.19335186295E+02 -0.49541478362E+02 -0.35373397673E+03  0.35770928671E+03  0.00000000000E+00 0. -1.
<mgrwt>
<rscale>  0 0.41088996E+02</rscale>
<asrwt>0</asrwt>
<pdfrwt beam="1">  1        2 0.17750878E+00 0.31713485E+02</pdfrwt>
<pdfrwt beam="2">  1        2 0.71749354E-01 0.53236205E+02</pdfrwt>
<totfact> 0.25889965E+02</totfact>
</mgrwt>
</event>
<event>
13    1  0.1942437E-008  0.1133836E+03  0.7546771E-02  0.1470716E+00
          2   -1    0    0  503    0  0.00000000000E+00  0.00000000000E+00  0.22392111354E+04  0.22392111354E+04  0.00000000000E+00 0. -1.
         -3   -1    0    0    0  501 -0.00000000000E+00 -0.00000000000E+00 -0.17845486106E+04  0.17845486106E+04  0.00000000000E+00 0.  1.
         24    2    1    2    0    0 -0.70880835867E+02  0.11897058576E+03 -0.37108167779E+03  0.40478509054E+03  0.83494100149E+02 0.  0.
         24    2    1    2    0    0  0.12003338222E+02 -0.74562007568E+01 -0.64466375957E+02  0.10285619499E+03  0.78891115849E+02 0.  0.
         25    2    1    2    0    0 -0.78900163658E+02  0.44475956103E+01  0.18233760482E+04  0.18293626163E+04  0.12498940663E+03 0.  0.
        -11    1    4    4    0    0 -0.23929575635E+02  0.14733852798E+02 -0.51516973626E+02  0.58683128580E+02  0.00000000000E+00 0.  1.
         12    1    4    4    0    0  0.35932913857E+02 -0.22190053555E+02 -0.12949402331E+02  0.44173066406E+02  0.00000000000E+00 0. -1.
        -13    1    3    3    0    0 -0.37304196729E+02  0.11934993556E+03 -0.25603908582E+03  0.28494214093E+03  0.00000000000E+00 0.  1.
         14    1    3    3    0    0 -0.33576639138E+02 -0.37934980433E+00 -0.11504259198E+03  0.11984294961E+03  0.00000000000E+00 0. -1.
          5    1    5    5  502    0 -0.18196522825E+02  0.48203703099E+02  0.12545553436E+04  0.12556217227E+04  0.47000000000E+01 0.  1.
         -5    1    5    5    0  502 -0.60703640832E+02 -0.43756107489E+02  0.56882070459E+03  0.57374089354E+03  0.47000000000E+01 0.  1.
          1    1    1    2  503    0  0.15540889945E+02  0.97156329323E+01  0.37070181630E+03  0.37115461656E+03  0.00000000000E+00 0. -1.
         -4    1    1    2    0  501  0.12223677136E+03 -0.12567761354E+03 -0.13038672859E+04  0.13156012276E+04  0.00000000000E+00 0.  1.
<mgrwt>
<rscale>  0 0.45586020E+02</rscale>
<asrwt>0</asrwt>
<pdfrwt beam="1">  1        2 0.32929576E+00 0.18327924E+02</pdfrwt>
<pdfrwt beam="2">  1       -3 0.26243362E+00 0.11338356E+03</pdfrwt>
<totfact> 0.39670812E-01</totfact>
</mgrwt>
</event>
<event>
13    1  0.1942437E-008  0.1453756E+03  0.7546771E-02  0.1228071E+00
          2   -1    0    0  503    0  0.00000000000E+00  0.00000000000E+00  0.38049178131E+04  0.38049178131E+04  0.00000000000E+00 0. -1.
          2   -1    0    0  502    0 -0.00000000000E+00 -0.00000000000E+00 -0.20206264736E+04  0.20206264736E+04  0.00000000000E+00 0. -1.
         24    2    1    2    0    0 -0.20373275200E+03  0.15010665750E+03 -0.18323524960E+02  0.26753165138E+03  0.84843326571E+02 0.  0.
         24    2    1    2    0    0  0.31479144189E+03 -0.36317563748E+02  0.18186344261E+03  0.37705177599E+03  0.93172488940E+02 0.  0.
         25    2    1    2    0    0 -0.34197444418E+03 -0.21823158623E+03  0.99277896488E+03  0.10797240385E+04  0.12498952174E+03 0.  0.
        -13    1    4    4    0    0  0.16015402454E+03 -0.50572556346E+02  0.13306022413E+03  0.21427066593E+03  0.00000000000E+00 0.  1.
         14    1    4    4    0    0  0.15463741735E+03  0.14254992599E+02  0.48803218474E+02  0.16278111006E+03  0.00000000000E+00 0. -1.
        -13    1    3    3    0    0 -0.50030130405E+02  0.87612748095E+02 -0.10312642663E+02  0.10141675491E+03  0.00000000000E+00 0.  1.
         14    1    3    3    0    0 -0.15370262159E+03  0.62493909406E+02 -0.80108822969E+01  0.16611489648E+03  0.00000000000E+00 0. -1.
          5    1    5    5  501    0  0.37341835602E+01 -0.29063784469E+02  0.86921470287E+02  0.91848133848E+02  0.47000000000E+01 0.  1.
         -5    1    5    5    0  501 -0.34570862774E+03 -0.18916780176E+03  0.90585749459E+03  0.98787590467E+03  0.47000000000E+01 0.  1.
          1    1    1    2  502    0  0.11686980168E+03  0.86097353275E+02 -0.17321838383E+04  0.17382554917E+04  0.00000000000E+00 0. -1.
          1    1    1    2  503    0  0.11404595260E+03  0.18345139200E+02  0.23601562953E+04  0.23629813291E+04  0.00000000000E+00 0. -1.
<mgrwt>
<rscale>  0 0.12958639E+03</rscale>
<asrwt>0</asrwt>
<pdfrwt beam="1">  1        2 0.55954673E+00 0.11551201E+03</pdfrwt>
<pdfrwt beam="2">  1        2 0.29715095E+00 0.14537564E+03</pdfrwt>
<totfact> 0.12920506E+00</totfact>
</mgrwt>
</event>
<event>
13    1  0.1942437E-008  0.4829110E+02  0.7546771E-02  0.1508872E+00
          2   -1    0    0  502    0  0.00000000000E+00  0.00000000000E+00  0.28216283503E+03  0.28216283503E+03  0.00000000000E+00 0. -1.
          2   -1    0    0  503    0 -0.00000000000E+00 -0.00000000000E+00 -0.23858555479E+04  0.23858555479E+04  0.00000000000E+00 0. -1.
         24    2    1    2    0    0  0.25242807648E+02  0.58800480025E+02 -0.24879341305E+03  0.26673789195E+03  0.71806997138E+02 0.  0.
         24    2    1    2    0    0 -0.16431048077E+03 -0.10350323143E+01 -0.45070704035E+03  0.48643624005E+03  0.80525610986E+02 0.  0.
         25    2    1    2    0    0  0.10841928606E+03  0.17265899917E+02 -0.17934368317E+03  0.24462606971E+03  0.12499961760E+03 0.  0.
        -11    1    3    3    0    0 -0.21718494673E+02  0.21398121977E+01 -0.43816939017E+02  0.48950954556E+02  0.00000000000E+00 0.  1.
         12    1    3    3    0    0  0.46961302321E+02  0.56660667827E+02 -0.20497647403E+03  0.21778693739E+03  0.00000000000E+00 0. -1.
        -13    1    4    4    0    0 -0.61187782135E+00  0.13915115231E+02 -0.13704578736E+02  0.19540222739E+02  0.00000000000E+00 0.  1.
         14    1    4    4    0    0 -0.16369860295E+03 -0.14950147545E+02 -0.43700246161E+03  0.46689601731E+03  0.00000000000E+00 0. -1.
          5    1    5    5  501    0  0.10519853034E+03 -0.19936948598E+02 -0.17699742577E+03  0.20691638754E+03  0.47000000000E+01 0.  1.
         -5    1    5    5    0  501  0.32207557155E+01  0.37202848515E+02 -0.23462573974E+01  0.37709682162E+02  0.47000000000E+01 0.  1.
          1    1    1    2  502    0  0.16079826139E+02 -0.45438973425E+02  0.21988611946E+03  0.22510701155E+03  0.00000000000E+00 0. -1.
          1    1    1    2  503    0  0.14568560927E+02 -0.29592374203E+02 -0.14447346958E+04  0.14451111697E+04  0.00000000000E+00 0. -1.
<mgrwt>
<rscale>  0 0.39910387E+02</rscale>
<asrwt>0</asrwt>
<pdfrwt beam="1">  1        2 0.41494536E-01 0.48291099E+02</pdfrwt>
<pdfrwt beam="2">  1        2 0.35086110E+00 0.32984111E+02</pdfrwt>
<totfact> 0.12887356E+02</totfact>
</mgrwt>
</event>
<event>
13    1  0.1942437E-008  0.1265518E+03  0.7546771E-02  0.1420346E+00
          2   -1    0    0  503    0  0.00000000000E+00  0.00000000000E+00  0.13459634551E+04  0.13459634551E+04  0.00000000000E+00 0. -1.
          2   -1    0    0  502    0 -0.00000000000E+00 -0.00000000000E+00 -0.29562745065E+04  0.29562745065E+04  0.00000000000E+00 0. -1.
         24    2    1    2    0    0 -0.19708098731E+02 -0.23659574443E+02 -0.86949313979E+03  0.87368210913E+03  0.79711498815E+02 0.  0.
         24    2    1    2    0    0 -0.15237275242E+02  0.33578956956E+02 -0.31207862088E+03  0.32486800719E+03  0.82379825061E+02 0.  0.
         25    2    1    2    0    0  0.67818240424E+02 -0.11286753118E+03 -0.11048631501E+03  0.21252562091E+03  0.12498608086E+03 0.  0.
        -13    1    3    3    0    0 -0.14365037911E+02  0.11934625367E+02 -0.49603388019E+02  0.53002695213E+02  0.00000000000E+00 0.  1.
         14    1    3    3    0    0 -0.53430608200E+01 -0.35594199810E+02 -0.81988975178E+03  0.82067941392E+03  0.00000000000E+00 0. -1.
        -13    1    4    4    0    0  0.59919883321E+01 -0.20000292525E+02 -0.27584086025E+02  0.34594760111E+02  0.00000000000E+00 0.  1.
         14    1    4    4    0    0 -0.21229263574E+02  0.53579249481E+02 -0.28449453486E+03  0.29027324708E+03  0.00000000000E+00 0. -1.
          5    1    5    5  501    0 -0.27770671031E+02 -0.44515081678E+00 -0.39994049070E+02  0.48918527060E+02  0.47000000000E+01 0. -1.
         -5    1    5    5    0  501  0.95588911456E+02 -0.11242238037E+03 -0.70492265944E+02  0.16360709385E+03  0.47000000000E+01 0. -1.
          1    1    1    2  502    0  0.20892113441E+02 -0.11520235096E+02 -0.16015104440E+04  0.16016881402E+04  0.00000000000E+00 0. -1.
          1    1    1    2  503    0 -0.53764979891E+02  0.11446838376E+03  0.12832574683E+04  0.12894740842E+04  0.00000000000E+00 0. -1.
<mgrwt>
<rscale>  0 0.54947728E+02</rscale>
<asrwt>0</asrwt>
<pdfrwt beam="1">  1        2 0.19793580E+00 0.12655184E+03</pdfrwt>
<pdfrwt beam="2">  1        2 0.43474625E+00 0.23857834E+02</pdfrwt>
<totfact> 0.11397158E+01</totfact>
</mgrwt>
</event>
<event>
13    1  0.1942437E-008  0.1413706E+03  0.7546771E-02  0.1348811E+00
          2   -1    0    0  502    0  0.00000000000E+00  0.00000000000E+00  0.10088622968E+04  0.10088622968E+04  0.00000000000E+00 0. -1.
          2   -1    0    0  503    0 -0.00000000000E+00 -0.00000000000E+00 -0.22685413390E+04  0.22685413390E+04  0.00000000000E+00 0. -1.
         24    2    1    2    0    0  0.86161274285E+02 -0.34109410780E+02 -0.69764861876E+03  0.70875800620E+03  0.83887418690E+02 0.  0.
         24    2    1    2    0    0 -0.12732558419E+03  0.12501390001E+03 -0.38120893107E+03  0.42894869181E+03  0.82682836714E+02 0.  0.
         25    2    1    2    0    0  0.76946052843E+02  0.19067343965E+02  0.80245488314E+02  0.16835802440E+03  0.12498330821E+03 0.  0.
        -11    1    3    3    0    0 -0.59578135503E+00 -0.31457394084E+02 -0.99816724383E+02  0.10465801959E+03  0.00000000000E+00 0.  1.
         12    1    3    3    0    0  0.86757055640E+02 -0.26520166953E+01 -0.59783189437E+03  0.60409998661E+03  0.00000000000E+00 0. -1.
        -11    1    4    4    0    0 -0.10107269282E+03  0.81608309472E+02 -0.33872466697E+03  0.36278093310E+03  0.00000000000E+00 0.  1.
         12    1    4    4    0    0 -0.26252891374E+02  0.43405590540E+02 -0.42484264101E+02  0.66167758704E+02  0.00000000000E+00 0. -1.
          5    1    5    5  501    0  0.61644313423E+02  0.60467285841E+01 -0.20583223225E+02  0.65439616306E+02  0.47000000000E+01 0. -1.
         -5    1    5    5    0  501  0.15301739420E+02  0.13020615380E+02  0.10082871154E+03  0.10291840810E+03  0.47000000000E+01 0. -1.
          1    1    1    2  502    0 -0.29458879041E+02  0.24221441911E+02  0.85066493834E+03  0.85151943085E+03  0.00000000000E+00 0. -1.
          1    1    1    2  503    0 -0.63228638942E+01 -0.13419327511E+03 -0.11117319190E+04  0.11198194825E+04  0.00000000000E+00 0. -1.
<mgrwt>
<rscale>  0 0.73427416E+02</rscale>
<asrwt>0</asrwt>
<pdfrwt beam="1">  1        2 0.14836211E+00 0.38137958E+02</pdfrwt>
<pdfrwt beam="2">  1        2 0.33360901E+00 0.14137059E+03</pdfrwt>
<totfact> 0.30961032E+01</totfact>
</mgrwt>
</event>
<event>
13    1  0.1942437E-008  0.2296621E+02  0.7546771E-02  0.1819942E+00
          2   -1    0    0  502    0  0.00000000000E+00  0.00000000000E+00  0.15368124344E+04  0.15368124344E+04  0.00000000000E+00 0. -1.
          2   -1    0    0  503    0 -0.00000000000E+00 -0.00000000000E+00 -0.70959235648E+03  0.70959235648E+03  0.00000000000E+00 0. -1.
         24    2    1    2    0    0  0.23921827581E+03 -0.16741458758E+02 -0.14319014479E+02  0.25420366254E+03  0.83119239343E+02 0.  0.
         24    2    1    2    0    0 -0.50130687934E+03  0.85074564038E+01 -0.31338536593E+03  0.59530010722E+03  0.69216081882E+02 0.  0.
         25    2    1    2    0    0  0.28626021580E+03  0.30151513146E+02  0.57416885342E+03  0.65433056892E+03  0.12499838514E+03 0.  0.
        -11    1    3    3    0    0  0.78227398745E+02  0.67152790358E+01  0.32400370541E+02  0.84937653006E+02  0.00000000000E+00 0.  1.
         12    1    3    3    0    0  0.16099087707E+03 -0.23456737794E+02 -0.46719385020E+02  0.16926600953E+03  0.00000000000E+00 0. -1.
        -11    1    4    4    0    0 -0.32230751466E+03  0.32137849066E+02 -0.17771444975E+03  0.36945554671E+03  0.00000000000E+00 0.  1.
         12    1    4    4    0    0 -0.17899936468E+03 -0.23630392662E+02 -0.13567091618E+03  0.22584456050E+03  0.00000000000E+00 0. -1.
          5    1    5    5  501    0  0.12840380803E+03  0.64226649368E+02  0.19518310341E+03  0.24234507270E+03  0.47000000000E+01 0.  1.
         -5    1    5    5    0  501  0.15785640777E+03 -0.34075136222E+02  0.37898575002E+03  0.41198549623E+03  0.47000000000E+01 0.  1.
          1    1    1    2  502    0 -0.11894062345E+02 -0.25272227046E+01  0.65997835447E+03  0.66009036043E+03  0.00000000000E+00 0. -1.
          1    1    1    2  503    0 -0.12277549928E+02 -0.19390288087E+02 -0.79222749516E+02  0.82480091811E+02  0.00000000000E+00 0. -1.
<mgrwt>
<rscale>  0 0.16711062E+02</rscale>
<asrwt>0</asrwt>
<pdfrwt beam="1">  1        2 0.22600183E+00 0.12159588E+02</pdfrwt>
<pdfrwt beam="2">  1        2 0.10435182E+00 0.22966205E+02</pdfrwt>
<totfact> 0.13477875E+02</totfact>
</mgrwt>
</event>
<event>
13    1  0.1942437E-008  0.2508495E+02  0.7546771E-02  0.1769973E+00
          2   -1    0    0  503    0  0.00000000000E+00  0.00000000000E+00  0.50839836879E+03  0.50839836879E+03  0.00000000000E+00 0. -1.
          2   -1    0    0  502    0 -0.00000000000E+00 -0.00000000000E+00 -0.12461192124E+04  0.12461192124E+04  0.00000000000E+00 0. -1.
         24    2    1    2    0    0  0.75505654036E+02 -0.83599155578E+02 -0.94369287367E+03  0.95383972326E+03  0.81018857348E+02 0.  0.
         24    2    1    2    0    0 -0.99019916718E+01  0.41403348673E+02 -0.49983598920E+02  0.10304562696E+03  0.79421372150E+02 0.  0.
         25    2    1    2    0    0 -0.56043848697E+02  0.29403684705E+02  0.89710161312E+02  0.16636353790E+03  0.12499369603E+03 0.  0.
        -11    1    3    3    0    0  0.89534643773E+01 -0.89835863715E+01 -0.14423091117E+02  0.19206637025E+02  0.00000000000E+00 0.  1.
         12    1    3    3    0    0  0.66552189659E+02 -0.74615569206E+02 -0.92926978255E+03  0.93463308623E+03  0.00000000000E+00 0. -1.
        -13    1    4    4    0    0 -0.32808236527E+02  0.53617136493E+02 -0.43015412394E+02  0.76167600810E+02  0.00000000000E+00 0.  1.
         14    1    4    4    0    0  0.22906244855E+02 -0.12213787820E+02 -0.69681865264E+01  0.26878026151E+02  0.00000000000E+00 0. -1.
          5    1    5    5  501    0 -0.34873912930E+02  0.14064617375E+02  0.12013791015E+03  0.12597305553E+03  0.47000000000E+01 0. -1.
         -5    1    5    5    0  501 -0.21169935766E+02  0.15339067330E+02 -0.30427748833E+02  0.40390482368E+02  0.47000000000E+01 0. -1.
          1    1    1    2  502    0 -0.71285182975E+01 -0.12179601590E+02 -0.18178653543E+03  0.18233349372E+03  0.00000000000E+00 0. -1.
          1    1    1    2  503    0 -0.24312953700E+01  0.24971723790E+02  0.34803200308E+03  0.34893519937E+03  0.00000000000E+00 0. -1.
<mgrwt>
<rscale>  0 0.18815091E+02</rscale>
<asrwt>0</asrwt>
<pdfrwt beam="1">  1        2 0.74764466E-01 0.25084951E+02</pdfrwt>
<pdfrwt beam="2">  1        2 0.18325283E+00 0.14112352E+02</pdfrwt>
<totfact> 0.25302961E+02</totfact>
</mgrwt>
</event>
<event>
13    1  0.1942437E-008  0.4104220E+02  0.7546771E-02  0.1514247E+00
         -3   -1    0    0    0  501 -0.00000000000E+00  0.00000000000E+00  0.43085250747E+03  0.43085250747E+03  0.00000000000E+00 0.  1.
          2   -1    0    0  503    0  0.00000000000E+00 -0.00000000000E+00 -0.12000686098E+04  0.12000686098E+04  0.00000000000E+00 0. -1.
         24    2    1    2    0    0  0.44618179409E+02 -0.85339767158E+01  0.13198864673E+02  0.93872091657E+02  0.81081125245E+02 0.  0.
         24    2    1    2    0    0 -0.12024640750E+03  0.34077838231E+01  0.14341171804E+03  0.20459200559E+03  0.82584238042E+02 0.  0.
         25    2    1    2    0    0  0.12405045566E+03 -0.29684790876E+02 -0.49422241105E+02  0.18530222287E+03  0.12499861410E+03 0.  0.
        -11    1    4    4    0    0 -0.11972384726E+03 -0.16170219542E+02  0.13963983735E+03  0.18464712231E+03  0.00000000000E+00 0.  1.
         12    1    4    4    0    0 -0.52256023760E+00  0.19578003366E+02  0.37718806890E+01  0.19944883277E+02  0.00000000000E+00 0. -1.
        -13    1    3    3    0    0  0.42041505895E+02 -0.30152658047E+02  0.35469365014E+02  0.62727560607E+02  0.00000000000E+00 0.  1.
         14    1    3    3    0    0  0.25766735143E+01  0.21618681331E+02 -0.22270500341E+02  0.31144531050E+02  0.00000000000E+00 0. -1.
          5    1    5    5  502    0  0.23300508759E+02 -0.63899459944E+02 -0.69723441380E+00  0.68180868470E+02  0.47000000000E+01 0.  1.
         -5    1    5    5    0  502  0.10074994690E+03  0.34214669068E+02 -0.48725006691E+02  0.11712135440E+03  0.47000000000E+01 0.  1.
          1    1    1    2  503    0 -0.40991512788E+02 -0.18681485755E+01 -0.10087680412E+04  0.10096022757E+04  0.00000000000E+00 0. -1.
         -4    1    1    2    0  501 -0.74307147812E+01  0.36679132344E+02  0.13236359729E+03  0.13755252146E+03  0.00000000000E+00 0.  1.
<mgrwt>
<rscale>  0 0.39191499E+02</rscale>
<asrwt>0</asrwt>
<pdfrwt beam="2">  1        2 0.17648067E+00 0.41042203E+02</pdfrwt>
<pdfrwt beam="1">  1       -3 0.63360665E-01 0.37424247E+02</pdfrwt>
<totfact> 0.33868730E+01</totfact>
</mgrwt>
</event>
<event>
13    1  0.1942437E-008  0.8902658E+02  0.7546771E-02  0.1518327E+00
          2   -1    0    0  502    0  0.00000000000E+00  0.00000000000E+00  0.29443168275E+04  0.29443168275E+04  0.00000000000E+00 0. -1.
          2   -1    0    0  503    0 -0.00000000000E+00 -0.00000000000E+00 -0.36276266072E+04  0.36276266072E+04  0.00000000000E+00 0. -1.
         24    2    1    2    0    0 -0.93207274163E+02  0.68880069922E+01 -0.57151795786E+03  0.58426790632E+03  0.77467216308E+02 0.  0.
         24    2    1    2    0    0  0.54296786136E+02 -0.71561120930E+02  0.11196913940E+03  0.16440135969E+03  0.80134785694E+02 0.  0.
         25    2    1    2    0    0  0.46223498202E+02 -0.10903221607E+02  0.10258737135E+04  0.10345501618E+04  0.12498667607E+03 0.  0.
        -11    1    4    4    0    0  0.43902190541E+01 -0.70181068853E+02  0.69272542860E+02  0.98708366631E+02  0.00000000000E+00 0.  1.
         12    1    4    4    0    0  0.49906567082E+02 -0.13800520775E+01  0.42696596536E+02  0.65692993061E+02  0.00000000000E+00 0. -1.
        -13    1    3    3    0    0 -0.10281570178E+03 -0.28256356408E+01 -0.43168678024E+03  0.44377080681E+03  0.00000000000E+00 0.  1.
         14    1    3    3    0    0  0.96084276139E+01  0.97136426331E+01 -0.13983117762E+03  0.14049709951E+03  0.00000000000E+00 0. -1.
          5    1    5    5  501    0  0.33151506219E+02 -0.59784801408E+02  0.80476697899E+03  0.80767891227E+03  0.47000000000E+01 0. -1.
         -5    1    5    5    0  501  0.13071991984E+02  0.48881579801E+02  0.22110673452E+03  0.22687124954E+03  0.47000000000E+01 0. -1.
          1    1    1    2  502    0  0.12475864139E+02 -0.11230908028E+02  0.17688484379E+04  0.17689280869E+04  0.00000000000E+00 0. -1.
          1    1    1    2  503    0 -0.19788874314E+02  0.86807243573E+02 -0.30184831127E+04  0.30197959200E+04  0.00000000000E+00 0. -1.
<mgrwt>
<rscale>  0 0.38657840E+02</rscale>
<asrwt>0</asrwt>
<pdfrwt beam="1">  1        2 0.43298777E+00 0.16786318E+02</pdfrwt>
<pdfrwt beam="2">  1        2 0.53347450E+00 0.89026583E+02</pdfrwt>
<totfact> 0.85534093E-01</totfact>
</mgrwt>
</event>
<event>
13    1  0.1942437E-008  0.3466157E+02  0.7546771E-02  0.1571289E+00
          2   -1    0    0  502    0  0.00000000000E+00  0.00000000000E+00  0.89713040342E+03  0.89713040342E+03  0.00000000000E+00 0. -1.
          4   -1    0    0  503    0 -0.00000000000E+00 -0.00000000000E+00 -0.24064197954E+04  0.24064197954E+04  0.00000000000E+00 0. -1.
         24    2    1    2    0    0  0.51540239184E+01  0.61509117107E+01 -0.10844013076E+04  0.10873958895E+04  0.80244793518E+02 0.  0.
         24    2    1    2    0    0  0.81976648531E+02  0.13363844350E+03 -0.65479111588E+03  0.67813792037E+03  0.80871683034E+02 0.  0.
         25    2    1    2    0    0 -0.98777200434E+02 -0.13754385850E+03 -0.10226513463E+03  0.23401430740E+03  0.12501715871E+03 0.  0.
        -11    1    4    4    0    0  0.27521383939E+02  0.74213553178E+02 -0.18115183034E+03  0.19768931100E+03  0.00000000000E+00 0.  1.
         12    1    4    4    0    0  0.54455264592E+02  0.59424890324E+02 -0.47363928555E+03  0.48044860937E+03  0.00000000000E+00 0. -1.
        -13    1    3    3    0    0 -0.20262460973E+02  0.35714702642E+02 -0.62197347199E+03  0.62332744779E+03  0.00000000000E+00 0.  1.
         14    1    3    3    0    0  0.25416484892E+02 -0.29563790931E+02 -0.46242783561E+03  0.46406844170E+03  0.00000000000E+00 0. -1.
          5    1    5    5  501    0 -0.43615942295E+02 -0.39047831670E+02 -0.10575955712E+03  0.12097213523E+03  0.47000000000E+01 0.  1.
         -5    1    5    5    0  501 -0.55161258139E+02 -0.98496026828E+02  0.34944224908E+01  0.11304217217E+03  0.47000000000E+01 0.  1.
          1    1    1    2  502    0  0.11083155371E+02 -0.32847678245E+02  0.81723529944E+03  0.81797025676E+03  0.00000000000E+00 0. -1.
          3    1    1    2  503    0  0.56337261421E+00  0.30602181531E+02 -0.48506713332E+03  0.48603182482E+03  0.00000000000E+00 0. -1.
<mgrwt>
<rscale>  0 0.32571448E+02</rscale>
<asrwt>0</asrwt>
<pdfrwt beam="1">  1        2 0.13193094E+00 0.34661565E+02</pdfrwt>
<pdfrwt beam="2">  1        4 0.35388526E+00 0.30607367E+02</pdfrwt>
<totfact> 0.39443470E-01</totfact>
</mgrwt>
</event>
<event>
13    1  0.1942437E-008  0.1320077E+03  0.7546771E-02  0.1320485E+00
          2   -1    0    0  503    0  0.00000000000E+00  0.00000000000E+00  0.13389022347E+04  0.13389022347E+04  0.00000000000E+00 0. -1.
          2   -1    0    0  502    0 -0.00000000000E+00 -0.00000000000E+00 -0.11459885468E+04  0.11459885468E+04  0.00000000000E+00 0. -1.
         24    2    1    2    0    0 -0.67551619605E+02  0.65340830437E+02 -0.62894494424E+02  0.13882117775E+03  0.80516808990E+02 0.  0.
         24    2    1    2    0    0  0.46233557905E+02 -0.23969070321E+03 -0.30308454600E+03  0.39732141077E+03  0.80092985679E+02 0.  0.
         25    2    1    2    0    0  0.36279151581E+02  0.50659652519E+02 -0.42300396338E+02  0.14593605709E+03  0.12500172797E+03 0.  0.
        -11    1    4    4    0    0 -0.19090132202E+00 -0.79671659048E+01  0.47152432087E+01  0.92598971045E+01  0.00000000000E+00 0.  1.
         12    1    4    4    0    0  0.46424459227E+02 -0.23172353730E+03 -0.30779978921E+03  0.38806151367E+03  0.00000000000E+00 0. -1.
        -11    1    3    3    0    0  0.12531874328E+02  0.36406800800E+02 -0.22223852543E+02  0.44456750224E+02  0.00000000000E+00 0.  1.
         12    1    3    3    0    0 -0.80083493933E+02  0.28934029637E+02 -0.40670641882E+02  0.94364427528E+02  0.00000000000E+00 0. -1.
          5    1    5    5  501    0  0.32097453221E+02  0.87279501802E+02 -0.53167424939E+02  0.10722323914E+03  0.47000000000E+01 0. -1.
         -5    1    5    5    0  501  0.41816983595E+01 -0.36619849283E+02  0.10867028601E+02  0.38712817945E+02  0.47000000000E+01 0. -1.
          1    1    1    2  502    0  0.51304180761E+02  0.10201775237E+02 -0.59606860907E+03  0.59835940863E+03  0.00000000000E+00 0. -1.
          1    1    1    2  503    0 -0.66265270642E+02  0.11348844501E+03  0.11972617337E+04  0.12044527273E+04  0.00000000000E+00 0. -1.
<mgrwt>
<rscale>  0 0.83097186E+02</rscale>
<asrwt>0</asrwt>
<pdfrwt beam="1">  1        2 0.19689739E+00 0.13200765E+03</pdfrwt>
<pdfrwt beam="2">  1        2 0.16852773E+00 0.52308653E+02</pdfrwt>
<totfact> 0.74586957E+01</totfact>
</mgrwt>
</event>
<event>
13    1  0.1942437E-008  0.3270181E+02  0.7546771E-02  0.1597905E+00
          2   -1    0    0  502    0  0.00000000000E+00  0.00000000000E+00  0.20414677020E+04  0.20414677020E+04  0.00000000000E+00 0. -1.
          2   -1    0    0  503    0 -0.00000000000E+00 -0.00000000000E+00 -0.88652059662E+03  0.88652059662E+03  0.00000000000E+00 0. -1.
         24    2    1    2    0    0  0.23148278754E+03  0.31447479093E+02 -0.14625411141E+03  0.28742507624E+03  0.81545597539E+02 0.  0.
         24    2    1    2    0    0 -0.34675518375E+03  0.22904210191E+03 -0.74984567668E+02  0.42601323932E+03  0.56259690592E+02 0.  0.
         25    2    1    2    0    0  0.17536980441E+03 -0.25957853303E+03 -0.85306958605E+01  0.33738982092E+03  0.12499414138E+03 0.  0.
        -11    1    3    3    0    0  0.17203225748E+03  0.57796171517E+02 -0.96471072716E+02  0.20552898318E+03  0.00000000000E+00 0.  1.
         12    1    3    3    0    0  0.59450530059E+02 -0.26348692424E+02 -0.49783038693E+02  0.81896093058E+02  0.00000000000E+00 0. -1.
        -11    1    4    4    0    0 -0.10842147167E+03  0.96358960834E+02 -0.43439100989E+02  0.15141737135E+03  0.00000000000E+00 0.  1.
         12    1    4    4    0    0 -0.23833371208E+03  0.13268314108E+03 -0.31545466680E+02  0.27459586797E+03  0.00000000000E+00 0. -1.
          5    1    5    5  501    0  0.11763727516E+01 -0.82103783631E+00  0.23295014385E+02  0.23807680508E+02  0.47000000000E+01 0.  1.
         -5    1    5    5    0  501  0.17419343166E+03 -0.25875749519E+03 -0.31825710246E+02  0.31358214041E+03  0.47000000000E+01 0.  1.
          1    1    1    2  502    0 -0.27483762448E+02 -0.19371904220E+01  0.16297403314E+04  0.16299732077E+04  0.00000000000E+00 0. -1.
          1    1    1    2  503    0 -0.32613645755E+02  0.10261424462E+01 -0.24502385109E+03  0.24718695447E+03  0.00000000000E+00 0. -1.
<mgrwt>
<rscale>  0 0.30016637E+02</rscale>
<asrwt>0</asrwt>
<pdfrwt beam="1">  1        2 0.30021584E+00 0.27551949E+02</pdfrwt>
<pdfrwt beam="2">  1        2 0.13037068E+00 0.32701806E+02</pdfrwt>
<totfact> 0.56774184E+01</totfact>
</mgrwt>
</event>
<event>
13    1  0.1942437E-008  0.7980457E+02  0.7546771E-02  0.1332151E+00
          2   -1    0    0  502    0  0.00000000000E+00  0.00000000000E+00  0.17005712216E+04  0.17005712216E+04  0.00000000000E+00 0. -1.
          2   -1    0    0  503    0 -0.00000000000E+00 -0.00000000000E+00 -0.11445403942E+04  0.11445403942E+04  0.00000000000E+00 0. -1.
         24    2    1    2    0    0  0.34771863528E+01  0.50509549947E+02 -0.20527562914E+03  0.22076278951E+03  0.63520231810E+02 0.  0.
         24    2    1    2    0    0 -0.21764997570E+03  0.12214766942E+03  0.36504162600E+03  0.44946826294E+03  0.80465928263E+02 0.  0.
         25    2    1    2    0    0  0.12543995771E+03 -0.50628776903E+02  0.22533455040E+03  0.29104360612E+03  0.12502905670E+03 0.  0.
        -13    1    4    4    0    0 -0.94558912618E+02  0.90446880812E+02  0.22549165986E+03  0.26070771924E+03  0.00000000000E+00 0.  1.
         14    1    4    4    0    0 -0.12309106308E+03  0.31700788603E+02  0.13954996614E+03  0.18876054370E+03  0.00000000000E+00 0. -1.
        -13    1    3    3    0    0  0.72225686117E+01  0.50969051474E+02 -0.20912772748E+03  0.21537041605E+03  0.00000000000E+00 0.  1.
         14    1    3    3    0    0 -0.37453822589E+01 -0.45950152736E+00  0.38520983390E+01  0.53923734600E+01  0.00000000000E+00 0. -1.
          5    1    5    5  501    0  0.31688399342E+01 -0.22522898512E+02 -0.92309243981E+01  0.24992448242E+02  0.47000000000E+01 0.  1.
         -5    1    5    5    0  501  0.12227111778E+03 -0.28105878392E+02  0.23456547479E+03  0.26605115788E+03  0.47000000000E+01 0.  1.
          1    1    1    2  502    0  0.25373006014E+02 -0.73801121817E+02  0.10240449546E+04  0.10270143446E+04  0.00000000000E+00 0. -1.
          1    1    1    2  503    0  0.63359825616E+02 -0.48227320641E+02 -0.85311467442E+03  0.85682261272E+03  0.00000000000E+00 0. -1.
<mgrwt>
<rscale>  0 0.78917849E+02</rscale>
<asrwt>0</asrwt>
<pdfrwt beam="1">  1        2 0.25008400E+00 0.78040983E+02</pdfrwt>
<pdfrwt beam="2">  1        2 0.16831476E+00 0.79804567E+02</pdfrwt>
<totfact> 0.50272879E+01</totfact>
</mgrwt>
</event>
<event>
13    1  0.1942437E-008  0.1284520E+03  0.7546771E-02  0.1344065E+00
          2   -1    0    0  502    0  0.00000000000E+00  0.00000000000E+00  0.12398414175E+04  0.12398414175E+04  0.00000000000E+00 0. -1.
          2   -1    0    0  503    0 -0.00000000000E+00 -0.00000000000E+00 -0.26325469865E+04  0.26325469865E+04  0.00000000000E+00 0. -1.
         24    2    1    2    0    0 -0.36328063356E+02 -0.48912161695E+00 -0.18441988747E+02  0.90196908738E+02  0.80469919658E+02 0.  0.
         24    2    1    2    0    0 -0.51756898507E+01  0.39579327038E+01  0.35871923956E+02  0.81795129829E+02  0.73220183957E+02 0.  0.
         25    2    1    2    0    0  0.14840178018E+03 -0.13318836558E+03  0.13122278332E+03  0.26945509364E+03  0.12499759812E+03 0.  0.
        -13    1    3    3    0    0 -0.40152205041E+02 -0.15640002333E+02 -0.43137731429E+02  0.60972724357E+02  0.00000000000E+00 0.  1.
         14    1    3    3    0    0  0.38241416845E+01  0.15150880716E+02  0.24695742682E+02  0.29224184381E+02  0.00000000000E+00 0. -1.
        -13    1    4    4    0    0  0.62233476524E+01 -0.23117897907E+02  0.45050776559E+02  0.51017053308E+02  0.00000000000E+00 0.  1.
         14    1    4    4    0    0 -0.11399037503E+02  0.27075830610E+02 -0.91788526029E+01  0.30778076521E+02  0.00000000000E+00 0. -1.
          5    1    5    5  501    0  0.36959464474E+02 -0.26024055644E+01  0.83091658262E+02  0.91099331511E+02  0.47000000000E+01 0. -1.
         -5    1    5    5    0  501  0.11144231571E+03 -0.13058596002E+03  0.48131125060E+02  0.17835576213E+03  0.47000000000E+01 0. -1.
          1    1    1    2  502    0 -0.78921979711E+02  0.96125433478E+02  0.94050498139E+03  0.94869299453E+03  0.00000000000E+00 0. -1.
          1    1    1    2  503    0 -0.27976047264E+02  0.33594121015E+02 -0.24818632689E+04  0.24822482772E+04  0.00000000000E+00 0. -1.
<mgrwt>
<rscale>  0 0.74937353E+02</rscale>
<asrwt>0</asrwt>
<pdfrwt beam="1">  1        2 0.18232962E+00 0.12845200E+03</pdfrwt>
<pdfrwt beam="2">  1        2 0.38713926E+00 0.43717550E+02</pdfrwt>
<totfact> 0.16816419E+01</totfact>
</mgrwt>
</event>
<event>
13    1  0.1942437E-008  0.1460372E+03  0.7546771E-02  0.1291018E+00
          2   -1    0    0  503    0  0.00000000000E+00  0.00000000000E+00  0.14676786970E+04  0.14676786970E+04  0.00000000000E+00 0. -1.
          2   -1    0    0  502    0 -0.00000000000E+00 -0.00000000000E+00 -0.38854851255E+04  0.38854851255E+04  0.00000000000E+00 0. -1.
         24    2    1    2    0    0  0.91502608591E+02  0.62305385537E+02 -0.26059040770E+02  0.13845258113E+03  0.78964265141E+02 0.  0.
         24    2    1    2    0    0 -0.18370431506E+03 -0.29261164241E+03  0.16331465329E+03  0.39055046363E+03  0.80555198572E+02 0.  0.
         25    2    1    2    0    0 -0.52757712200E+02  0.83641094801E+02  0.92931424971E+03  0.94288223187E+03  0.12499087776E+03 0.  0.
        -11    1    4    4    0    0 -0.11074968221E+03 -0.24035862124E+03  0.12974577515E+03  0.29474009751E+03  0.00000000000E+00 0.  1.
         12    1    4    4    0    0 -0.72954632849E+02 -0.52253021171E+02  0.33568878145E+02  0.95810366117E+02  0.00000000000E+00 0. -1.
        -11    1    3    3    0    0  0.47127529383E+02  0.71328766039E+00 -0.39332026031E+02  0.61388281266E+02  0.00000000000E+00 0.  1.
         12    1    3    3    0    0  0.44375079208E+02  0.61592097877E+02  0.13272985261E+02  0.77064299863E+02  0.00000000000E+00 0. -1.
          5    1    5    5  501    0  0.23189491846E+02 -0.19878110690E+02  0.18081265263E+03  0.18343444924E+03  0.47000000000E+01 0. -1.
         -5    1    5    5    0  501 -0.75947204046E+02  0.10351920549E+03  0.74850159708E+03  0.75944778263E+03  0.47000000000E+01 0. -1.
          1    1    1    2  502    0  0.94064652936E+02  0.11144909104E+03 -0.36765208687E+04  0.36794122841E+04  0.00000000000E+00 0. -1.
          1    1    1    2  503    0  0.50894765731E+02  0.35216071034E+02  0.19214457792E+03  0.20186626182E+03  0.00000000000E+00 0. -1.
<mgrwt>
<rscale>  0 0.95070150E+02</rscale>
<asrwt>0</asrwt>
<pdfrwt beam="1">  1        2 0.21583511E+00 0.61890620E+02</pdfrwt>
<pdfrwt beam="2">  1        2 0.57139486E+00 0.14603721E+03</pdfrwt>
<totfact> 0.21923368E+00</totfact>
</mgrwt>
</event>
<event>
13    1  0.1942437E-008  0.6138424E+02  0.7546771E-02  0.1446215E+00
         -1   -1    0    0    0  501 -0.00000000000E+00  0.00000000000E+00  0.18778906847E+04  0.18778906847E+04  0.00000000000E+00 0.  1.
          2   -1    0    0  503    0  0.00000000000E+00 -0.00000000000E+00 -0.56695141162E+03  0.56695141162E+03  0.00000000000E+00 0. -1.
         24    2    1    2    0    0 -0.27181160900E+03  0.70121189138E+02  0.31732655436E+03  0.43163131559E+03  0.82528289372E+02 0.  0.
         24    2    1    2    0    0  0.26028474240E+03 -0.28773039974E+02  0.52338598495E+03  0.59362929506E+03  0.99432468306E+02 0.  0.
         25    2    1    2    0    0 -0.69818561207E+02 -0.98692639797E+02  0.35934523475E+02  0.17755491813E+03  0.12497835947E+03 0.  0.
        -11    1    3    3    0    0 -0.17836668740E+03  0.78638204347E+02  0.18012456702E+03  0.26541194774E+03  0.00000000000E+00 0.  1.
         12    1    3    3    0    0 -0.93444921593E+02 -0.85170152086E+01  0.13720198734E+03  0.16621936786E+03  0.00000000000E+00 0. -1.
        -13    1    4    4    0    0  0.11006566499E+03 -0.24067631465E+02  0.12734901710E+03  0.17003374268E+03  0.00000000000E+00 0.  1.
         14    1    4    4    0    0  0.15021907740E+03 -0.47054085089E+01  0.39603696786E+03  0.42359555238E+03  0.00000000000E+00 0. -1.
          5    1    5    5  502    0 -0.77391828915E+02 -0.41914267038E+02 -0.27140088464E+02  0.92222423336E+02  0.47000000000E+01 0. -1.
         -5    1    5    5    0  502  0.75732677088E+01 -0.56778372760E+02  0.63074611939E+02  0.85332494797E+02  0.47000000000E+01 0. -1.
          1    1    1    2  503    0  0.43398193438E+02  0.43295875947E+02 -0.40104839471E+03  0.40570648376E+03  0.00000000000E+00 0. -1.
         -2    1    1    2    0  501  0.37947234367E+02  0.14048614686E+02  0.83534060504E+03  0.83632008382E+03  0.00000000000E+00 0.  1.
<mgrwt>
<rscale>  0 0.49838415E+02</rscale>
<asrwt>0</asrwt>
<pdfrwt beam="2">  1        2 0.83375208E-01 0.61384238E+02</pdfrwt>
<pdfrwt beam="1">  1       -1 0.27616039E+00 0.40464258E+02</pdfrwt>
<totfact> 0.45751420E+00</totfact>
</mgrwt>
</event>
<event>
13    1  0.1942437E-008  0.5114131E+02  0.7546771E-02  0.1494043E+00
         -3   -1    0    0    0  501 -0.00000000000E+00  0.00000000000E+00  0.92456271394E+03  0.92456271394E+03  0.00000000000E+00 0.  1.
          2   -1    0    0  503    0  0.00000000000E+00 -0.00000000000E+00 -0.10203662082E+04  0.10203662082E+04  0.00000000000E+00 0. -1.
         24    2    1    2    0    0  0.28861645408E+02 -0.81530753416E+01  0.30428718417E+03  0.31628681668E+03  0.80914725138E+02 0.  0.
         24    2    1    2    0    0  0.12973479732E+02  0.59601012276E+02  0.62934514781E+02  0.12010384505E+03  0.82119355848E+02 0.  0.
         25    2    1    2    0    0 -0.11582760086E+03 -0.93647939575E+01 -0.35711238738E+03  0.39580085896E+03  0.12500132098E+03 0.  0.
        -11    1    4    4    0    0 -0.13825399083E+01  0.44234191498E+01  0.62918815267E+02  0.63089265078E+02  0.00000000000E+00 0.  1.
         12    1    4    4    0    0  0.14356019641E+02  0.55177593126E+02  0.15699514757E-01  0.57014579974E+02  0.00000000000E+00 0. -1.
        -11    1    3    3    0    0  0.34306343727E+02 -0.39881805035E+02  0.15903823852E+03  0.16751311861E+03  0.00000000000E+00 0.  1.
         12    1    3    3    0    0 -0.54446983190E+01  0.31728729694E+02  0.14524894564E+03  0.14877369807E+03  0.00000000000E+00 0. -1.
          5    1    5    5  502    0  0.82252841766E+01  0.25859315508E+02 -0.14443142825E+03  0.14703362529E+03  0.47000000000E+01 0. -1.
         -5    1    5    5    0  502 -0.12405288503E+03 -0.35224109465E+02 -0.21268095912E+03  0.24876723367E+03  0.47000000000E+01 0. -1.
          1    1    1    2  503    0  0.42200492872E+02 -0.28736666051E+02 -0.60766291209E+03  0.60980397859E+03  0.00000000000E+00 0. -1.
         -4    1    1    2    0  501  0.31791982845E+02 -0.13346476925E+02  0.50175010630E+03  0.50293342282E+03  0.00000000000E+00 0.  1.
<mgrwt>
<rscale>  0 0.41992185E+02</rscale>
<asrwt>0</asrwt>
<pdfrwt beam="2">  1        2 0.15005385E+00 0.51141309E+02</pdfrwt>
<pdfrwt beam="1">  1       -3 0.13596511E+00 0.34479829E+02</pdfrwt>
<totfact> 0.79391589E+00</totfact>
</mgrwt>
</event>
<event>
13    1  0.1942437E-008  0.2093438E+03  0.7546771E-02  0.1194034E+00
          2   -1    0    0  502    0  0.00000000000E+00  0.00000000000E+00  0.26263769597E+04  0.26263769597E+04  0.00000000000E+00 0. -1.
          2   -1    0    0  503    0 -0.00000000000E+00 -0.00000000000E+00 -0.59073016257E+03  0.59073016257E+03  0.00000000000E+00 0. -1.
         24    2    1    2    0    0  0.11783724511E+03 -0.39529513869E+03  0.80809652120E+02  0.42868069085E+03  0.84220376578E+02 0.  0.
         24    2    1    2    0    0 -0.24931184526E+03  0.42252046931E+03  0.38253254759E+03  0.63083947975E+03  0.10462961378E+03 0.  0.
         25    2    1    2    0    0  0.19285803610E+03  0.10705938797E+03  0.18578636428E+03  0.31433113610E+03  0.12502621856E+03 0.  0.
        -11    1    3    3    0    0  0.78823216629E+02 -0.30929563040E+03  0.27813194384E+02  0.32039110513E+03  0.00000000000E+00 0.  1.
         12    1    3    3    0    0  0.39014028478E+02 -0.85999508285E+02  0.52996457735E+02  0.10828958572E+03  0.00000000000E+00 0. -1.
        -13    1    4    4    0    0 -0.17025930822E+03  0.23680548088E+03  0.16933029229E+03  0.33725037539E+03  0.00000000000E+00 0.  1.
         14    1    4    4    0    0 -0.79052537038E+02  0.18571498842E+03  0.21320225529E+03  0.29358910436E+03  0.00000000000E+00 0. -1.
          5    1    5    5  501    0  0.14600027970E+03  0.37873402003E+02  0.17316446817E+03  0.22969218378E+03  0.47000000000E+01 0.  1.
         -5    1    5    5    0  501  0.46857756398E+02  0.69185985968E+02  0.12621896116E+02  0.84638952325E+02  0.47000000000E+01 0.  1.
          1    1    1    2  502    0  0.26163945710E+02 -0.20931603920E+03  0.15929231965E+04  0.16068298187E+04  0.00000000000E+00 0. -1.
          1    1    1    2  503    0 -0.87547381663E+02  0.75031320613E+02 -0.20640496335E+03  0.23642599688E+03  0.00000000000E+00 0. -1.
<mgrwt>
<rscale>  0 0.15536242E+03</rscale>
<asrwt>0</asrwt>
<pdfrwt beam="1">  1        2 0.38623190E+00 0.20934381E+03</pdfrwt>
<pdfrwt beam="2">  1        2 0.86872084E-01 0.11530066E+03</pdfrwt>
<totfact> 0.35195640E+01</totfact>
</mgrwt>
</event>
<event>
13    1  0.2227747E-008  0.1794591E+03  0.7546771E-02  0.1279781E+00
          2   -1    0    0  503    0  0.00000000000E+00  0.00000000000E+00  0.15109884337E+04  0.15109884337E+04  0.00000000000E+00 0. -1.
          2   -1    0    0  502    0 -0.00000000000E+00 -0.00000000000E+00 -0.10663930896E+04  0.10663930896E+04  0.00000000000E+00 0. -1.
         24    2    1    2    0    0 -0.13293861590E+02 -0.17801442619E+01  0.24653633967E+00  0.82466710090E+02  0.81368309699E+02 0.  0.
         24    2    1    2    0    0 -0.11042442519E+03  0.56237482472E+02 -0.21970445362E+02  0.15146006021E+03  0.84268862908E+02 0.  0.
         25    2    1    2    0    0  0.30086133224E+02 -0.25937222150E+03  0.69362743158E+03  0.75162107075E+03  0.12504437396E+03 0.  0.
        -11    1    4    4    0    0 -0.11301335141E+03  0.71541669074E+02 -0.23715886314E+02  0.13584060981E+03  0.00000000000E+00 0.  1.
         12    1    4    4    0    0  0.25889262218E+01 -0.15304186601E+02  0.17454409523E+01  0.15619450394E+02  0.00000000000E+00 0. -1.
        -11    1    3    3    0    0  0.20176538966E+02  0.29921339865E+02  0.34625220971E+01  0.36254218558E+02  0.00000000000E+00 0.  1.
         12    1    3    3    0    0 -0.33470400556E+02 -0.31701484127E+02 -0.32159857575E+01  0.46212491532E+02  0.00000000000E+00 0. -1.
          5    1    5    5  501    0  0.27608585957E+02 -0.22428050539E+03  0.43159923166E+03  0.48720012919E+03  0.47000000000E+01 0. -1.
         -5    1    5    5    0  501  0.24775472672E+01 -0.35091716104E+02  0.26202819993E+03  0.26442094156E+03  0.47000000000E+01 0. -1.
          1    1    1    2  502    0  0.11350181082E+03  0.15256210559E+03 -0.89845402812E+03  0.91835586662E+03  0.00000000000E+00 0. -1.
          1    1    1    2  503    0 -0.19869657262E+02  0.52352777693E+02  0.67114584969E+03  0.67347781564E+03  0.00000000000E+00 0. -1.
<mgrwt>
<rscale>  0 0.10024519E+03</rscale>
<asrwt>0</asrwt>
<pdfrwt beam="1">  1        2 0.22220418E+00 0.55996577E+02</pdfrwt>
<pdfrwt beam="2">  1        2 0.15682251E+00 0.17945915E+03</pdfrwt>
<totfact> 0.67446933E+01</totfact>
</mgrwt>
</event>
<event>
13    1  0.1942437E-008  0.2336479E+03  0.7546771E-02  0.1390381E+00
          2   -1    0    0  503    0  0.00000000000E+00  0.00000000000E+00  0.12913939977E+04  0.12913939977E+04  0.00000000000E+00 0. -1.
         -3   -1    0    0    0  501 -0.00000000000E+00 -0.00000000000E+00 -0.42873132065E+04  0.42873132065E+04  0.00000000000E+00 0.  1.
         24    2    1    2    0    0 -0.38854539173E+03  0.57111525733E+02 -0.91847918201E+03  0.10021667982E+04  0.80653802083E+02 0.  0.
         24    2    1    2    0    0  0.11871537000E+03  0.16170732258E+03 -0.20297316847E+03  0.29655778007E+03  0.80658617345E+02 0.  0.
         25    2    1    2    0    0  0.11639191180E+03 -0.64459414406E+02  0.35394433416E+03  0.39825400892E+03  0.12501028237E+03 0.  0.
        -13    1    4    4    0    0  0.12644529090E+03  0.15628636828E+03 -0.20475836261E+03  0.28694917244E+03  0.00000000000E+00 0.  1.
         14    1    4    4    0    0 -0.77299208998E+01  0.54209542943E+01  0.17851941403E+01  0.96086076357E+01  0.00000000000E+00 0. -1.
        -13    1    3    3    0    0 -0.68107419295E+02  0.26507812312E+02 -0.24581788034E+03  0.25645216898E+03  0.00000000000E+00 0.  1.
         14    1    3    3    0    0 -0.32043797244E+03  0.30603713421E+02 -0.67266130167E+03  0.74571462921E+03  0.00000000000E+00 0. -1.
          5    1    5    5  502    0  0.83060553893E+02 -0.52704152619E+02  0.94894445316E+02  0.13676194305E+03  0.47000000000E+01 0. -1.
         -5    1    5    5    0  502  0.33331357907E+02 -0.11755261787E+02  0.25904988885E+03  0.26149206587E+03  0.47000000000E+01 0. -1.
          1    1    1    2  503    0  0.16452848129E+01  0.16269520886E+02  0.82230937965E+03  0.82247195705E+03  0.00000000000E+00 0. -1.
         -4    1    1    2    0  501  0.15179282511E+03 -0.17062895479E+03 -0.30507205721E+04  0.30592566599E+04  0.00000000000E+00 0.  1.
<mgrwt>
<rscale>  0 0.61812035E+02</rscale>
<asrwt>0</asrwt>
<pdfrwt beam="1">  1        2 0.18991088E+00 0.16352500E+02</pdfrwt>
<pdfrwt beam="2">  1       -3 0.63048724E+00 0.23364791E+03</pdfrwt>
<totfact> 0.11969344E-02</totfact>
</mgrwt>
</event>
<event>
13    1  0.1942437E-008  0.3073227E+02  0.7546771E-02  0.1691506E+00
          2   -1    0    0  503    0  0.00000000000E+00  0.00000000000E+00  0.12765765164E+04  0.12765765164E+04  0.00000000000E+00 0. -1.
          2   -1    0    0  502    0 -0.00000000000E+00 -0.00000000000E+00 -0.21072452276E+04  0.21072452276E+04  0.00000000000E+00 0. -1.
         24    2    1    2    0    0 -0.27021060067E+02 -0.32423759001E+01 -0.25806301730E+03  0.27136434542E+03  0.79381587136E+02 0.  0.
         24    2    1    2    0    0 -0.62802419669E+02  0.28866514242E+02  0.98930848939E+01  0.10651137997E+03  0.80432464674E+02 0.  0.
         25    2    1    2    0    0  0.13462362463E+03 -0.92675677176E+01  0.81265986070E+03  0.83321693951E+03  0.12500004389E+03 0.  0.
        -13    1    4    4    0    0 -0.30628318399E+02 -0.19095934109E+02 -0.20226804567E+02  0.41374777467E+02  0.00000000000E+00 0.  1.
         14    1    4    4    0    0 -0.32174101270E+02  0.47962448352E+02  0.30119889461E+02  0.65136602503E+02  0.00000000000E+00 0. -1.
        -13    1    3    3    0    0 -0.35174028838E+02  0.21202886884E+02 -0.67106268650E+02  0.78676718341E+02  0.00000000000E+00 0.  1.
         14    1    3    3    0    0  0.81529687709E+01 -0.24445262784E+02 -0.19095674865E+03  0.19268762708E+03  0.00000000000E+00 0. -1.
          5    1    5    5  501    0  0.21635514315E+01  0.39898820476E+00 -0.35315012262E+01  0.62770731471E+01  0.47000000000E+01 0.  1.
         -5    1    5    5    0  501  0.13246007320E+03 -0.96665559224E+01  0.81619136193E+03  0.82693986636E+03  0.47000000000E+01 0. -1.
          1    1    1    2  502    0 -0.29586800786E+02 -0.83029815910E+01 -0.17836209112E+04  0.17838856110E+04  0.00000000000E+00 0. -1.
          1    1    1    2  503    0 -0.15213344111E+02 -0.80535890337E+01  0.38846227171E+03  0.38884346809E+03  0.00000000000E+00 0. -1.
<mgrwt>
<rscale>  0 0.23000246E+02</rscale>
<asrwt>0</asrwt>
<pdfrwt beam="1">  1        2 0.18773184E+00 0.17213545E+02</pdfrwt>
<pdfrwt beam="2">  1        2 0.30988900E+00 0.30732270E+02</pdfrwt>
<totfact> 0.34190046E+01</totfact>
</mgrwt>
</event>
<event>
13    1  0.1942437E-008  0.5568681E+02  0.7546771E-02  0.1479322E+00
          4   -1    0    0  503    0 -0.00000000000E+00  0.00000000000E+00  0.21924400256E+03  0.21924400256E+03  0.00000000000E+00 0. -1.
          2   -1    0    0  502    0  0.00000000000E+00 -0.00000000000E+00 -0.19400210261E+04  0.19400210261E+04  0.00000000000E+00 0. -1.
         24    2    1    2    0    0  0.27713443968E+02  0.32985068230E+02 -0.94485159076E+01  0.90946685828E+02  0.79536001330E+02 0.  0.
         24    2    1    2    0    0 -0.90898101664E+02 -0.79563807210E+02  0.90641339401E+01  0.14553418568E+03  0.80654673596E+02 0.  0.
         25    2    1    2    0    0  0.74077859406E+02  0.64810417480E+02 -0.10507090420E+04  0.10626869079E+04  0.12500421584E+03 0.  0.
        -11    1    3    3    0    0  0.53202648104E+02  0.20521516362E+02 -0.20358056506E+02  0.60548367969E+02  0.00000000000E+00 0.  1.
         12    1    3    3    0    0 -0.25489204136E+02  0.12463551867E+02  0.10909540598E+02  0.30398317859E+02  0.00000000000E+00 0. -1.
        -13    1    4    4    0    0 -0.77503313383E+02 -0.91244237123E+02  0.24260373196E+02  0.12215089071E+03  0.00000000000E+00 0.  1.
         14    1    4    4    0    0 -0.13394788281E+02  0.11680429913E+02 -0.15196239256E+02  0.23383294968E+02  0.00000000000E+00 0. -1.
          5    1    5    5  501    0  0.71239717355E+02  0.72545420436E+02 -0.10478471786E+04  0.10527790533E+04  0.47000000000E+01 0. -1.
         -5    1    5    5    0  501  0.28381420511E+01 -0.77350029560E+01 -0.28618633088E+01  0.99078545927E+01  0.47000000000E+01 0. -1.
          1    1    1    2  502    0  0.10026527851E+02  0.33639108343E+02 -0.75623378959E+03  0.75704799411E+03  0.00000000000E+00 0. -1.
          3    1    1    2  503    0 -0.20919729561E+02 -0.51870786843E+02  0.86550189929E+02  0.10304925516E+03  0.00000000000E+00 0. -1.
<mgrwt>
<rscale>  0 0.44211934E+02</rscale>
<asrwt>0</asrwt>
<pdfrwt beam="2">  1        2 0.28529720E+00 0.35101579E+02</pdfrwt>
<pdfrwt beam="1">  1        4 0.32241766E-01 0.55686814E+02</pdfrwt>
<totfact> 0.47261988E+01</totfact>
</mgrwt>
</event>
<event>
13    1  0.1942437E-008  0.1877172E+03  0.7546771E-02  0.1206692E+00
          2   -1    0    0  502    0  0.00000000000E+00  0.00000000000E+00  0.34173068804E+04  0.34173068804E+04  0.00000000000E+00 0. -1.
          2   -1    0    0  503    0 -0.00000000000E+00 -0.00000000000E+00 -0.19908788271E+04  0.19908788271E+04  0.00000000000E+00 0. -1.
         24    2    1    2    0    0 -0.12904199073E+03 -0.26927879762E+01 -0.13694634661E+03  0.20423088131E+03  0.79352785408E+02 0.  0.
         24    2    1    2    0    0  0.16974361218E+03 -0.79870561311E+00 -0.67732882119E+02  0.20145596462E+03  0.84753941227E+02 0.  0.
         25    2    1    2    0    0 -0.11816504090E+03  0.30373934064E+03  0.89187085078E+03  0.95774741462E+03  0.12500372717E+03 0.  0.
        -11    1    3    3    0    0 -0.74362412538E+02  0.28194315237E+02 -0.11037267744E+03  0.13603975792E+03  0.00000000000E+00 0.  1.
         12    1    3    3    0    0 -0.54679578190E+02 -0.30887103213E+02 -0.26573669177E+02  0.68191123392E+02  0.00000000000E+00 0. -1.
        -11    1    4    4    0    0  0.12789179619E+03 -0.37507425971E+02 -0.39335665924E+02  0.13896191258E+03  0.00000000000E+00 0.  1.
         12    1    4    4    0    0  0.41851815992E+02  0.36708720358E+02 -0.28397216195E+02  0.62494052035E+02  0.00000000000E+00 0. -1.
          5    1    5    5  501    0 -0.59403959969E+02  0.26774828602E+03  0.77354888177E+03  0.82074230889E+03  0.47000000000E+01 0. -1.
         -5    1    5    5    0  501 -0.58761080934E+02  0.35991054616E+02  0.11832196901E+03  0.13700510573E+03  0.47000000000E+01 0. -1.
          1    1    1    2  502    0 -0.77774683179E+02 -0.80702112591E+02  0.23797301293E+04  0.23823679859E+04  0.00000000000E+00 0. -1.
          1    1    1    2  503    0  0.15523810263E+03 -0.21954573446E+03 -0.16404936980E+04  0.16623834610E+04  0.00000000000E+00 0. -1.
<mgrwt>
<rscale>  0 0.14504889E+03</rscale>
<asrwt>0</asrwt>
<pdfrwt beam="1">  1        2 0.50254513E+00 0.11207913E+03</pdfrwt>
<pdfrwt beam="2">  1        2 0.29277630E+00 0.18771719E+03</pdfrwt>
<totfact> 0.22540608E+00</totfact>
</mgrwt>
</event>
<event>
13    1  0.1942437E-008  0.1247368E+03  0.7546771E-02  0.1384407E+00
          2   -1    0    0  503    0  0.00000000000E+00  0.00000000000E+00  0.29691804004E+04  0.29691804004E+04  0.00000000000E+00 0. -1.
          2   -1    0    0  502    0 -0.00000000000E+00 -0.00000000000E+00 -0.17424143386E+04  0.17424143386E+04  0.00000000000E+00 0. -1.
         24    2    1    2    0    0  0.15464002406E+02 -0.41106669626E+02 -0.28149459863E+03  0.29629294339E+03  0.81372019698E+02 0.  0.
         24    2    1    2    0    0 -0.14620205641E+02  0.28764368787E+02 -0.66332745167E+02  0.10828216639E+03  0.79270771108E+02 0.  0.
         25    2    1    2    0    0  0.15325186414E+03 -0.11136645679E+03  0.34368378570E+03  0.41186519843E+03  0.12500310221E+03 0.  0.
        -11    1    3    3    0    0 -0.27671480261E+01  0.19443050546E+02 -0.23324037279E+02  0.30490982892E+02  0.00000000000E+00 0.  1.
         12    1    3    3    0    0  0.18231150432E+02 -0.60549720172E+02 -0.25817056135E+03  0.26580196050E+03  0.00000000000E+00 0. -1.
        -13    1    4    4    0    0 -0.26085404966E+02 -0.26353181966E+01  0.74705097043E+01  0.27261727192E+02  0.00000000000E+00 0.  1.
         14    1    4    4    0    0  0.11465199325E+02  0.31399686984E+02 -0.73803254871E+02  0.81020439198E+02  0.00000000000E+00 0. -1.
          5    1    5    5  501    0  0.97852728639E+02 -0.60582823989E+02  0.30741469665E+03  0.32828542578E+03  0.47000000000E+01 0.  1.
         -5    1    5    5    0  501  0.55399135505E+02 -0.50783632800E+02  0.36269089048E+02  0.83579772646E+02  0.47000000000E+01 0.  1.
          1    1    1    2  502    0 -0.17199909334E+03  0.97014099894E+02 -0.13247025002E+04  0.13393401875E+04  0.00000000000E+00 0. -1.
          1    1    1    2  503    0  0.17903432430E+02  0.26694657734E+02  0.25556121201E+04  0.25558142433E+04  0.00000000000E+00 0. -1.
<mgrwt>
<rscale>  0 0.63319418E+02</rscale>
<asrwt>0</asrwt>
<pdfrwt beam="1">  1        2 0.43664418E+00 0.32142459E+02</pdfrwt>
<pdfrwt beam="2">  1        2 0.25623740E+00 0.12473684E+03</pdfrwt>
<totfact> 0.67504439E+00</totfact>
</mgrwt>
</event>
<event>
13    1  0.1942437E-008  0.7606521E+02  0.7546771E-02  0.1400667E+00
          2   -1    0    0  502    0  0.00000000000E+00  0.00000000000E+00  0.26625513043E+04  0.26625513043E+04  0.00000000000E+00 0. -1.
          2   -1    0    0  503    0 -0.00000000000E+00 -0.00000000000E+00 -0.23246417773E+04  0.23246417773E+04  0.00000000000E+00 0. -1.
         24    2    1    2    0    0 -0.17590953066E+03 -0.27996436797E+02 -0.29660284756E+03  0.35552851161E+03  0.81849312365E+02 0.  0.
         24    2    1    2    0    0  0.16902475898E+03  0.70506661432E+02 -0.92876257699E+02  0.22051032995E+03  0.80363224888E+02 0.  0.
         25    2    1    2    0    0  0.11638323308E+03 -0.92218341230E+02  0.74639120232E+03  0.77121622805E+03  0.12500145640E+03 0.  0.
        -11    1    4    4    0    0  0.11568525174E+02  0.15485220541E+02 -0.41831746942E+02  0.46081643657E+02  0.00000000000E+00 0.  1.
         12    1    4    4    0    0  0.15745623381E+03  0.55021440891E+02 -0.51044510757E+02  0.17442868629E+03  0.00000000000E+00 0. -1.
        -13    1    3    3    0    0 -0.15346903943E+02  0.11849570857E+02 -0.83649752668E+02  0.85867461308E+02  0.00000000000E+00 0.  1.
         14    1    3    3    0    0 -0.16056262672E+03 -0.39846007654E+02 -0.21295309489E+03  0.26966105030E+03  0.00000000000E+00 0. -1.
          5    1    5    5  501    0  0.35823818753E+02  0.21081562649E+02  0.78049566461E+02  0.88552826598E+02  0.47000000000E+01 0.  1.
         -5    1    5    5    0  501  0.80559414330E+02 -0.11329990388E+03  0.66834163586E+03  0.68266340145E+03  0.47000000000E+01 0.  1.
          1    1    1    2  502    0 -0.45437875771E+02  0.87679344362E+01  0.18093819299E+04  0.18099736035E+04  0.00000000000E+00 0. -1.
          1    1    1    2  503    0 -0.64060585636E+02  0.40940182159E+02 -0.18283844999E+04  0.18299644085E+04  0.00000000000E+00 0. -1.
<mgrwt>
<rscale>  0 0.59329597E+02</rscale>
<asrwt>0</asrwt>
<pdfrwt beam="1">  1        2 0.39155167E+00 0.46276098E+02</pdfrwt>
<pdfrwt beam="2">  1        2 0.34185908E+00 0.76065209E+02</pdfrwt>
<totfact> 0.49739937E+00</totfact>
</mgrwt>
</event>
<event>
13    1  0.1942437E-008  0.6705667E+02  0.7546771E-02  0.1377023E+00
          2   -1    0    0  503    0  0.00000000000E+00  0.00000000000E+00  0.16107536726E+04  0.16107536726E+04  0.00000000000E+00 0. -1.
          2   -1    0    0  502    0 -0.00000000000E+00 -0.00000000000E+00 -0.13758904711E+04  0.13758904711E+04  0.00000000000E+00 0. -1.
         24    2    1    2    0    0 -0.39101865564E+02 -0.42352711640E+02 -0.36232597442E+03  0.37640423896E+03  0.84126876154E+02 0.  0.
         24    2    1    2    0    0  0.87389902061E+02  0.17714817478E+02 -0.37290915326E+02  0.12439533778E+03  0.78312054985E+02 0.  0.
         25    2    1    2    0    0 -0.18438956484E+02 -0.10213905282E+02  0.42260951581E+03  0.44121744196E+03  0.12501883561E+03 0.  0.
        -11    1    4    4    0    0  0.38735347208E+02 -0.12353737022E+01 -0.56709106157E+02  0.68686796349E+02  0.00000000000E+00 0.  1.
         12    1    4    4    0    0  0.48654554852E+02  0.18950191180E+02  0.19418190831E+02  0.55708541435E+02  0.00000000000E+00 0. -1.
        -13    1    3    3    0    0 -0.61599804828E+02 -0.12262621272E+02 -0.19310616951E+03  0.20306378441E+03  0.00000000000E+00 0.  1.
         14    1    3    3    0    0  0.22497939263E+02 -0.30090090368E+02 -0.16921980491E+03  0.17334045455E+03  0.00000000000E+00 0. -1.
          5    1    5    5  501    0  0.38095285410E+02 -0.33574865846E+02  0.29790644102E+03  0.30223973926E+03  0.47000000000E+01 0.  1.
         -5    1    5    5    0  501 -0.56534241894E+02  0.23360960563E+02  0.12470307479E+03  0.13897770269E+03  0.47000000000E+01 0.  1.
          1    1    1    2  502    0 -0.57841812330E+02 -0.26197102704E+02 -0.91427666297E+03  0.91647901225E+03  0.00000000000E+00 0. -1.
          1    1    1    2  503    0  0.27992732318E+02  0.61048902149E+02  0.11261472385E+04  0.11281481127E+04  0.00000000000E+00 0. -1.
<mgrwt>
<rscale>  0 0.65252947E+02</rscale>
<asrwt>0</asrwt>
<pdfrwt beam="1">  1        2 0.23687554E+00 0.67056668E+02</pdfrwt>
<pdfrwt beam="2">  1        2 0.20233683E+00 0.63497744E+02</pdfrwt>
<totfact> 0.43454121E+01</totfact>
</mgrwt>
</event>
<event>
13    1  0.1942437E-008  0.9277341E+02  0.7546771E-02  0.1355768E+00
          2   -1    0    0  502    0  0.00000000000E+00  0.00000000000E+00  0.16669638075E+04  0.16669638075E+04  0.00000000000E+00 0. -1.
          2   -1    0    0  503    0 -0.00000000000E+00 -0.00000000000E+00 -0.22093525255E+04  0.22093525255E+04  0.00000000000E+00 0. -1.
         24    2    1    2    0    0 -0.49768686225E+02 -0.10288956137E+02 -0.63972625565E+03  0.64690119204E+03  0.81539471122E+02 0.  0.
         24    2    1    2    0    0 -0.14186750873E+02 -0.22581559943E+02  0.58801787126E+01  0.84072650264E+02  0.79513792960E+02 0.  0.
         25    2    1    2    0    0 -0.68050255238E+02 -0.77681402296E+02  0.82625650741E+03  0.84201522407E+03  0.12499833610E+03 0.  0.
        -11    1    3    3    0    0 -0.69418709881E+02 -0.22359464334E+02 -0.49759497093E+03  0.50291118303E+03  0.00000000000E+00 0.  1.
         12    1    3    3    0    0  0.19650023656E+02  0.12070508197E+02 -0.14213128472E+03  0.14399000901E+03  0.00000000000E+00 0. -1.
        -11    1    4    4    0    0 -0.33338345709E+02 -0.40663596396E+02 -0.97005619180E+01  0.53470312025E+02  0.00000000000E+00 0.  1.
         12    1    4    4    0    0  0.19151594837E+02  0.18082036453E+02  0.15580740631E+02  0.30602338239E+02  0.00000000000E+00 0. -1.
          5    1    5    5  501    0 -0.90346747709E+02 -0.85976795327E+02  0.77864564742E+03  0.78858460447E+03  0.47000000000E+01 0. -1.
         -5    1    5    5    0  501  0.22296492471E+02  0.82953930307E+01  0.47610859984E+02  0.53430619597E+02  0.47000000000E+01 0. -1.
          1    1    1    2  502    0  0.52163263307E+02  0.16722358824E+02  0.78080485338E+03  0.78272400141E+03  0.00000000000E+00 0. -1.
          1    1    1    2  503    0  0.79842429029E+02  0.93829559552E+02 -0.15156040019E+04  0.15206032652E+04  0.00000000000E+00 0. -1.
<mgrwt>
<rscale>  0 0.71287824E+02</rscale>
<asrwt>0</asrwt>
<pdfrwt beam="1">  1        2 0.24514174E+00 0.54778128E+02</pdfrwt>
<pdfrwt beam="2">  1        2 0.32490478E+00 0.92773413E+02</pdfrwt>
<totfact> 0.15959173E+01</totfact>
</mgrwt>
</event>
<event>
13    1  0.1942437E-008  0.9954675E+02  0.7546771E-02  0.1384513E+00
          4   -1    0    0  503    0 -0.00000000000E+00  0.00000000000E+00  0.73779254848E+03  0.73779254848E+03  0.00000000000E+00 0. -1.
          2   -1    0    0  502    0  0.00000000000E+00 -0.00000000000E+00 -0.12091752307E+04  0.12091752307E+04  0.00000000000E+00 0. -1.
         24    2    1    2    0    0 -0.24022704775E+03 -0.57111569843E+02  0.64457422441E+02  0.26691645310E+03  0.78223191867E+02 0.  0.
         24    2    1    2    0    0  0.27411801119E+03 -0.22130978253E+03  0.78728024122E+02  0.36993438266E+03  0.80837131238E+02 0.  0.
         25    2    1    2    0    0  0.34646422798E+02  0.23180750537E+03 -0.33400632040E+03  0.42675556767E+03  0.12499999323E+03 0.  0.
        -11    1    3    3    0    0 -0.53943960013E+02 -0.43930808433E+02  0.66412073292E+00  0.69572320701E+02  0.00000000000E+00 0.  1.
         12    1    3    3    0    0 -0.18628308774E+03 -0.13180761410E+02  0.63793301708E+02  0.19734413240E+03  0.00000000000E+00 0. -1.
        -13    1    4    4    0    0  0.78677310144E+02 -0.54569792064E+02  0.58567198357E+02  0.11224124937E+03  0.00000000000E+00 0.  1.
         14    1    4    4    0    0  0.19544070105E+03 -0.16673999047E+03  0.20160825765E+02  0.25769313328E+03  0.00000000000E+00 0. -1.
          5    1    5    5  501    0  0.55424975612E+02  0.23711763863E+03 -0.30982028282E+03  0.39409059887E+03  0.47000000000E+01 0. -1.
         -5    1    5    5    0  501 -0.20778552813E+02 -0.53101332688E+01 -0.24186037588E+02  0.32664968797E+02  0.47000000000E+01 0. -1.
          1    1    1    2  502    0  0.29454533179E+02  0.27419232996E+02 -0.57296601994E+03  0.57437744025E+03  0.00000000000E+00 0. -1.
          3    1    1    2  503    0 -0.97991919412E+02  0.19194614012E+02  0.29240421154E+03  0.30898393551E+03  0.00000000000E+00 0. -1.
<mgrwt>
<rscale>  0 0.63292316E+02</rscale>
<asrwt>0</asrwt>
<pdfrwt beam="2">  1        2 0.17781988E+00 0.40241569E+02</pdfrwt>
<pdfrwt beam="1">  1        4 0.10849891E+00 0.99546746E+02</pdfrwt>
<totfact> 0.86744289E+00</totfact>
</mgrwt>
</event>
<event>
13    1  0.1942437E-008  0.1347648E+03  0.7546771E-02  0.1342752E+00
          2   -1    0    0  503    0  0.00000000000E+00  0.00000000000E+00  0.28192824613E+04  0.28192824613E+04  0.00000000000E+00 0. -1.
          2   -1    0    0  502    0 -0.00000000000E+00 -0.00000000000E+00 -0.37183928622E+04  0.37183928622E+04  0.00000000000E+00 0. -1.
         24    2    1    2    0    0 -0.82227237336E+02 -0.30635240638E+02 -0.10142029360E+04  0.10211299509E+04  0.79993403638E+02 0.  0.
         24    2    1    2    0    0  0.29035605154E+03  0.77081254917E+02 -0.24204744003E+03  0.39400079662E+03  0.80009424355E+02 0.  0.
         25    2    1    2    0    0 -0.18076832818E+03 -0.19363081880E+03 -0.12470736508E+03  0.31835069419E+03  0.12500062050E+03 0.  0.
        -11    1    3    3    0    0 -0.88760875245E+02 -0.44527877430E+02 -0.75944835762E+03  0.76591320183E+03  0.00000000000E+00 0.  1.
         12    1    3    3    0    0  0.65336379091E+01  0.13892636792E+02 -0.25475457841E+03  0.25521674907E+03  0.00000000000E+00 0. -1.
        -11    1    4    4    0    0  0.44956350916E+02 -0.14285597011E+02 -0.53499595463E+02  0.71325721057E+02  0.00000000000E+00 0.  1.
         12    1    4    4    0    0  0.24539970063E+03  0.91366851928E+02 -0.18854784456E+03  0.32267507556E+03  0.00000000000E+00 0. -1.
          5    1    5    5  501    0 -0.15011425517E+03 -0.20083651011E+03 -0.79547724573E+02  0.26309603548E+03  0.47000000000E+01 0. -1.
         -5    1    5    5    0  501 -0.30654073003E+02  0.72056913123E+01 -0.45159640503E+02  0.55254658711E+02  0.47000000000E+01 0. -1.
          1    1    1    2  502    0 -0.56987340219E+02  0.11721246198E+03 -0.21590400529E+04  0.21629702421E+04  0.00000000000E+00 0. -1.
          1    1    1    2  503    0  0.29626854189E+02  0.29972342539E+02  0.26408873931E+04  0.26412236397E+04  0.00000000000E+00 0. -1.
<mgrwt>
<rscale>  0 0.75362388E+02</rscale>
<asrwt>0</asrwt>
<pdfrwt beam="1">  1        2 0.41460036E+00 0.42143704E+02</pdfrwt>
<pdfrwt beam="2">  1        2 0.54682248E+00 0.13476484E+03</pdfrwt>
<totfact> 0.67940189E-01</totfact>
</mgrwt>
</event>
<event>
13    1  0.1942437E-008  0.1282250E+03  0.7546771E-02  0.1273871E+00
          2   -1    0    0  503    0  0.00000000000E+00  0.00000000000E+00  0.25623036856E+04  0.25623036856E+04  0.00000000000E+00 0. -1.
          2   -1    0    0  502    0 -0.00000000000E+00 -0.00000000000E+00 -0.82274630409E+03  0.82274630409E+03  0.00000000000E+00 0. -1.
         24    2    1    2    0    0 -0.81635913622E+02 -0.86313202173E+02 -0.47555753687E+02  0.15426747491E+03  0.86154006539E+02 0.  0.
         24    2    1    2    0    0  0.16816294432E+03  0.88558855055E+02  0.94708183875E+02  0.22746933182E+03  0.81554951873E+02 0.  0.
         25    2    1    2    0    0 -0.12403404070E+03 -0.13397267612E+03  0.14373934846E+03  0.26385518579E+03  0.12500175028E+03 0.  0.
        -11    1    3    3    0    0 -0.78331729399E+02 -0.40138488233E+02 -0.59767218730E+02  0.10639115801E+03  0.00000000000E+00 0.  1.
         12    1    3    3    0    0 -0.33041842231E+01 -0.46174713941E+02  0.12211465043E+02  0.47876316895E+02  0.00000000000E+00 0. -1.
        -13    1    4    4    0    0  0.56065060876E+02  0.33020272393E+01  0.60478139982E+02  0.82533628604E+02  0.00000000000E+00 0.  1.
         14    1    4    4    0    0  0.11209788345E+03  0.85256827816E+02  0.34230043893E+02  0.14493570322E+03  0.00000000000E+00 0. -1.
          5    1    5    5  501    0 -0.14707260626E+03 -0.10367231517E+03  0.13366029629E+03  0.22419961027E+03  0.47000000000E+01 0. -1.
         -5    1    5    5    0  501  0.23038565555E+02 -0.30300360955E+02  0.10079052173E+02  0.39655575516E+02  0.47000000000E+01 0. -1.
          1    1    1    2  502    0 -0.44658530849E+02  0.12050357886E+03 -0.58764765978E+03  0.60153575865E+03  0.00000000000E+00 0. -1.
          1    1    1    2  503    0  0.82165540845E+02  0.11223444383E+02  0.21363132627E+04  0.21379222386E+04  0.00000000000E+00 0. -1.
<mgrwt>
<rscale>  0 0.10311892E+03</rscale>
<asrwt>0</asrwt>
<pdfrwt beam="1">  1        2 0.37680936E+00 0.82928534E+02</pdfrwt>
<pdfrwt beam="2">  1        2 0.12099210E+00 0.12822501E+03</pdfrwt>
<totfact> 0.28969797E+01</totfact>
</mgrwt>
</event>
<event>
13    1  0.1942437E-008  0.1135209E+03  0.7546771E-02  0.1307037E+00
          2   -1    0    0  503    0  0.00000000000E+00  0.00000000000E+00  0.19661562970E+04  0.19661562970E+04  0.00000000000E+00 0. -1.
          2   -1    0    0  502    0 -0.00000000000E+00 -0.00000000000E+00 -0.11954373171E+04  0.11954373171E+04  0.00000000000E+00 0. -1.
         24    2    1    2    0    0 -0.96824942558E+02 -0.69157259226E+02 -0.21448160020E+03  0.26122484503E+03  0.89879179068E+02 0.  0.
         24    2    1    2    0    0 -0.32398335050E+02 -0.49145168437E+02  0.62291985987E+02  0.11437394398E+03  0.75737757091E+02 0.  0.
         25    2    1    2    0    0 -0.62255544802E+02  0.31293672869E+02  0.10255487189E+04  0.10354863364E+04  0.12500692421E+03 0.  0.
        -11    1    3    3    0    0  0.84953605851E+01  0.26554473822E+01  0.27827773031E+01  0.93255778260E+01  0.00000000000E+00 0.  1.
         12    1    3    3    0    0 -0.10532030314E+03 -0.71812706609E+02 -0.21726437750E+03  0.25189926720E+03  0.00000000000E+00 0. -1.
        -13    1    4    4    0    0 -0.42007863811E+02 -0.45150973932E+02  0.75546661686E+02  0.97522147027E+02  0.00000000000E+00 0.  1.
         14    1    4    4    0    0  0.96095287608E+01 -0.39941945049E+01 -0.13254675699E+02  0.16851796955E+02  0.00000000000E+00 0. -1.
          5    1    5    5  501    0 -0.68870928235E+02  0.68848790738E+02  0.86145187077E+03  0.86695142677E+03  0.47000000000E+01 0.  1.
         -5    1    5    5    0  501  0.66153834328E+01 -0.37555117870E+02  0.16409684815E+03  0.16853490959E+03  0.47000000000E+01 0.  1.
          1    1    1    2  502    0  0.16822352822E+03  0.22393520081E+02 -0.91734687979E+03  0.93291260205E+03  0.00000000000E+00 0. -1.
          1    1    1    2  503    0  0.23255294191E+02  0.64615234713E+02  0.81470675504E+03  0.81759588671E+03  0.00000000000E+00 0. -1.
<mgrwt>
<rscale>  0 0.88293738E+02</rscale>
<asrwt>0</asrwt>
<pdfrwt beam="1">  1        2 0.28914063E+00 0.68672682E+02</pdfrwt>
<pdfrwt beam="2">  1        2 0.17579961E+00 0.11352089E+03</pdfrwt>
<totfact> 0.35037236E+01</totfact>
</mgrwt>
</event>
<event>
13    1  0.1942437E-008  0.1191084E+03  0.7546771E-02  0.1268411E+00
          2   -1    0    0  502    0  0.00000000000E+00  0.00000000000E+00  0.91141602539E+03  0.91141602539E+03  0.00000000000E+00 0. -1.
          2   -1    0    0  503    0 -0.00000000000E+00 -0.00000000000E+00 -0.13620520964E+04  0.13620520964E+04  0.00000000000E+00 0. -1.
         24    2    1    2    0    0 -0.77098704330E+02 -0.60222877923E+01 -0.36582255212E+02  0.11743851535E+03  0.80455362350E+02 0.  0.
         24    2    1    2    0    0  0.86059046768E+02 -0.11524519230E+01 -0.22423484022E+03  0.25327497164E+03  0.80370765913E+02 0.  0.
         25    2    1    2    0    0 -0.25363853905E+02  0.17997006951E+03  0.25887658711E+03  0.34011039474E+03  0.12500176899E+03 0.  0.
        -13    1    3    3    0    0 -0.92541459466E+02 -0.14926873242E+02 -0.31756620115E+02  0.98970784508E+02  0.00000000000E+00 0.  1.
         14    1    3    3    0    0  0.15442755137E+02  0.89045854501E+01 -0.48256350968E+01  0.18467730839E+02  0.00000000000E+00 0. -1.
        -13    1    4    4    0    0  0.76727671458E+02  0.23179431488E+01 -0.22951073637E+03  0.24200761670E+03  0.00000000000E+00 0.  1.
         14    1    4    4    0    0  0.93313753100E+01 -0.34703950718E+01  0.52758961548E+01  0.11267354941E+02  0.00000000000E+00 0. -1.
          5    1    5    5  501    0  0.29893769124E+02  0.50363166845E+02  0.18774611047E+02  0.61681942471E+02  0.47000000000E+01 0.  1.
         -5    1    5    5    0  501 -0.55257623029E+02  0.12960690266E+03  0.24010197607E+03  0.27842845227E+03  0.47000000000E+01 0.  1.
          1    1    1    2  502    0 -0.91081703995E+02 -0.66104001943E+02  0.54549573629E+03  0.55698403405E+03  0.00000000000E+00 0. -1.
          1    1    1    2  503    0  0.10748521546E+03 -0.10669132785E+03 -0.99419129902E+03  0.10056602060E+04  0.00000000000E+00 0. -1.
<mgrwt>
<rscale>  0 0.10587197E+03</rscale>
<asrwt>0</asrwt>
<pdfrwt beam="1">  1        2 0.13403177E+00 0.94106493E+02</pdfrwt>
<pdfrwt beam="2">  1        2 0.20030178E+00 0.11910841E+03</pdfrwt>
<totfact> 0.95952529E+01</totfact>
</mgrwt>
</event>
<event>
13    1  0.1942437E-008  0.9732823E+02  0.7546771E-02  0.1348256E+00
          4   -1    0    0  503    0 -0.00000000000E+00  0.00000000000E+00  0.28011412588E+03  0.28011412588E+03  0.00000000000E+00 0. -1.
          2   -1    0    0  502    0  0.00000000000E+00 -0.00000000000E+00 -0.44688333936E+04  0.44688333936E+04  0.00000000000E+00 0. -1.
         24    2    1    2    0    0 -0.22539107139E+01  0.12127760069E+03 -0.19738275782E+02  0.14566050248E+03  0.78192364768E+02 0.  0.
         24    2    1    2    0    0 -0.97458587303E+02 -0.52547748538E+02 -0.89086923436E+02  0.16277115376E+03  0.79363256313E+02 0.  0.
         25    2    1    2    0    0  0.15272868402E+03 -0.14103168840E+03 -0.78034743609E+03  0.81717724384E+03  0.12498215389E+03 0.  0.
        -13    1    3    3    0    0  0.17076184955E+02  0.21965557681E+01 -0.18140789844E+02  0.25010182047E+02  0.00000000000E+00 0.  1.
         14    1    3    3    0    0 -0.19330095669E+02  0.11908104492E+03 -0.15974859382E+01  0.12065032043E+03  0.00000000000E+00 0. -1.
        -13    1    4    4    0    0 -0.12612993973E+02 -0.68707509558E+01 -0.60614690377E+02  0.62293141879E+02  0.00000000000E+00 0.  1.
         14    1    4    4    0    0 -0.84845593330E+02 -0.45676997582E+02 -0.28472233059E+02  0.10047801188E+03  0.00000000000E+00 0. -1.
          5    1    5    5  501    0  0.51513783637E+02 -0.36972118396E+02 -0.47283412782E+03  0.47708993898E+03  0.47000000000E+01 0.  1.
         -5    1    5    5    0  501  0.10121490038E+03 -0.10405957000E+03 -0.30751330827E+03  0.34008730486E+03  0.47000000000E+01 0.  1.
          1    1    1    2  502    0 -0.33393434301E+01  0.97405693157E+02 -0.34559513020E+04  0.34573253278E+04  0.00000000000E+00 0. -1.
          3    1    1    2  503    0 -0.49676842569E+02 -0.25103856915E+02  0.15640466960E+03  0.16601329162E+03  0.00000000000E+00 0. -1.
<mgrwt>
<rscale>  0 0.73601979E+02</rscale>
<asrwt>0</asrwt>
<pdfrwt beam="2">  1        2 0.65718130E+00 0.97328229E+02</pdfrwt>
<pdfrwt beam="1">  1        4 0.41193259E-01 0.55659611E+02</pdfrwt>
<totfact> 0.92215227E-01</totfact>
</mgrwt>
</event>
<event>
13    1  0.1942437E-008  0.9972276E+02  0.7546771E-02  0.1359499E+00
          4   -1    0    0  503    0 -0.00000000000E+00  0.00000000000E+00  0.11818158189E+03  0.11818158189E+03  0.00000000000E+00 0. -1.
          2   -1    0    0  502    0  0.00000000000E+00 -0.00000000000E+00 -0.21006153990E+04  0.21006153990E+04  0.00000000000E+00 0. -1.
         24    2    1    2    0    0  0.48215286268E+02  0.45534101466E+02 -0.81283925665E+02  0.13221407436E+03  0.80469973664E+02 0.  0.
         24    2    1    2    0    0  0.13782192310E+03 -0.63234315935E+02 -0.23905153495E+03  0.29448814293E+03  0.81142891022E+02 0.  0.
         25    2    1    2    0    0 -0.18666197465E+03  0.11763740176E+03 -0.85740406335E+03  0.89411802715E+03  0.12499627014E+03 0.  0.
        -11    1    3    3    0    0  0.40282685052E+02  0.60307233926E+02 -0.30397836664E+02  0.78636414292E+02  0.00000000000E+00 0.  1.
         12    1    3    3    0    0  0.79326012152E+01 -0.14773132460E+02 -0.50886089001E+02  0.53577660070E+02  0.00000000000E+00 0. -1.
        -11    1    4    4    0    0 -0.10705805057E+02 -0.57403581990E+01 -0.11430646218E+02  0.16680097336E+02  0.00000000000E+00 0.  1.
         12    1    4    4    0    0  0.14852772815E+03 -0.57493957736E+02 -0.22762088873E+03  0.27780804559E+03  0.00000000000E+00 0. -1.
          5    1    5    5  501    0 -0.58403740653E+02  0.65663554360E+02 -0.15540714697E+03  0.17859499047E+03  0.47000000000E+01 0. -1.
         -5    1    5    5    0  501 -0.12825823399E+03  0.51973847397E+02 -0.70199691638E+03  0.71552303667E+03  0.47000000000E+01 0. -1.
          1    1    1    2  502    0 -0.48477016765E+02 -0.94112634436E+01 -0.79276669422E+03  0.79430323208E+03  0.00000000000E+00 0. -1.
          3    1    1    2  503    0  0.49101782047E+02 -0.90525923845E+02 -0.11927598888E+02  0.10367350435E+03  0.00000000000E+00 0. -1.
<mgrwt>
<rscale>  0 0.70174928E+02</rscale>
<asrwt>0</asrwt>
<pdfrwt beam="2">  1        2 0.30891404E+00 0.49382112E+02</pdfrwt>
<pdfrwt beam="1">  1        4 0.17379644E-01 0.99722759E+02</pdfrwt>
<totfact> 0.12605426E+02</totfact>
</mgrwt>
</event>
<event>
13    1  0.1942437E-008  0.2366618E+02  0.7546771E-02  0.1693464E+00
          2   -1    0    0  502    0  0.00000000000E+00  0.00000000000E+00  0.25759852986E+04  0.25759852986E+04  0.00000000000E+00 0. -1.
          2   -1    0    0  503    0 -0.00000000000E+00 -0.00000000000E+00 -0.24336897389E+03  0.24336897389E+03  0.00000000000E+00 0. -1.
         24    2    1    2    0    0 -0.75104547115E+02  0.19449093655E+03 -0.12916218134E+03  0.25803591161E+03  0.80201279254E+02 0.  0.
         24    2    1    2    0    0  0.28710071680E+02 -0.34547576991E+02  0.60352824275E+02  0.11153483577E+03  0.82339254913E+02 0.  0.
         25    2    1    2    0    0  0.51326054970E+02 -0.13198958721E+03  0.18676933153E+04  0.18772187439E+04  0.12496510586E+03 0.  0.
        -13    1    3    3    0    0 -0.58004494758E+01  0.50181354648E+02 -0.72195992712E+02  0.88113988289E+02  0.00000000000E+00 0.  1.
         14    1    3    3    0    0 -0.69304097639E+02  0.14430958190E+03 -0.56966188630E+02  0.16992192332E+03  0.00000000000E+00 0. -1.
        -13    1    4    4    0    0 -0.23460125754E+02  0.87001588168E+01  0.23833765349E+02  0.34556021683E+02  0.00000000000E+00 0.  1.
         14    1    4    4    0    0  0.52170197434E+02 -0.43247735807E+02  0.36519058926E+02  0.76978814083E+02  0.00000000000E+00 0. -1.
          5    1    5    5  501    0 -0.89338087940E+01  0.10112602488E+02  0.32042504040E+02  0.35084038162E+02  0.47000000000E+01 0.  1.
         -5    1    5    5    0  501  0.60259863764E+02 -0.14210218970E+03  0.18356508112E+04  0.18421347058E+04  0.47000000000E+01 0.  1.
          1    1    1    2  502    0  0.15427674374E+02 -0.15851598698E+02  0.54561728335E+03  0.54606547795E+03  0.00000000000E+00 0. -1.
          1    1    1    2  503    0 -0.20359253909E+02 -0.12102173647E+02 -0.11884916793E+02  0.26499303272E+02  0.00000000000E+00 0. -1.
<mgrwt>
<rscale>  0 0.22879938E+02</rscale>
<asrwt>0</asrwt>
<pdfrwt beam="1">  1        2 0.37882135E+00 0.22119817E+02</pdfrwt>
<pdfrwt beam="2">  1        2 0.35789556E-01 0.23666180E+02</pdfrwt>
<totfact> 0.12767003E+02</totfact>
</mgrwt>
</event>
<event>
13    1  0.1942437E-008  0.5271208E+02  0.7546771E-02  0.1470126E+00
          2   -1    0    0  502    0  0.00000000000E+00  0.00000000000E+00  0.32485816737E+04  0.32485816737E+04  0.00000000000E+00 0. -1.
          2   -1    0    0  503    0 -0.00000000000E+00 -0.00000000000E+00 -0.11325997159E+04  0.11325997159E+04  0.00000000000E+00 0. -1.
         24    2    1    2    0    0 -0.42533446625E+02 -0.17368995000E+02 -0.45660912073E+03  0.46635635491E+03  0.82979422532E+02 0.  0.
         24    2    1    2    0    0  0.70818190488E+01 -0.23442636437E+02  0.38295669074E+03  0.39198300862E+03  0.79969636106E+02 0.  0.
         25    2    1    2    0    0 -0.96900590640E+01  0.52195901580E+02  0.44175142678E+03  0.46215431332E+03  0.12499590745E+03 0.  0.
        -11    1    3    3    0    0  0.20821240977E+02  0.99042437425E+01 -0.17041125650E+03  0.17196399176E+03  0.00000000000E+00 0.  1.
         12    1    3    3    0    0 -0.63354687602E+02 -0.27273238743E+02 -0.28619786423E+03  0.29439236315E+03  0.00000000000E+00 0. -1.
        -13    1    4    4    0    0 -0.15853488728E+02  0.25218311636E+02  0.12989254241E+03  0.13326428224E+03  0.00000000000E+00 0.  1.
         14    1    4    4    0    0  0.22935307777E+02 -0.48660948072E+02  0.25306414833E+03  0.25871872638E+03  0.00000000000E+00 0. -1.
          5    1    5    5  501    0 -0.10620028396E+02  0.38404152345E+02  0.29883700048E+02  0.50027886714E+02  0.47000000000E+01 0. -1.
         -5    1    5    5    0  501  0.92996933207E+00  0.13791749235E+02  0.41186772673E+03  0.41212642661E+03  0.47000000000E+01 0. -1.
          1    1    1    2  502    0  0.25847035941E+02 -0.45954496655E+02  0.24033989867E+04  0.24039772408E+04  0.00000000000E+00 0. -1.
          1    1    1    2  503    0  0.19294650700E+02  0.34570226512E+02 -0.65551602568E+03  0.65671047200E+03  0.00000000000E+00 0. -1.
<mgrwt>
<rscale>  0 0.45682400E+02</rscale>
<asrwt>0</asrwt>
<pdfrwt beam="1">  1        2 0.47773260E+00 0.52712075E+02</pdfrwt>
<pdfrwt beam="2">  1        2 0.16655878E+00 0.39590202E+02</pdfrwt>
<totfact> 0.96365153E+00</totfact>
</mgrwt>
</event>
<event>
13    1  0.1942437E-008  0.1905132E+03  0.7546771E-02  0.1356318E+00
          2   -1    0    0  502    0  0.00000000000E+00  0.00000000000E+00  0.98084975528E+03  0.98084975528E+03  0.00000000000E+00 0. -1.
          2   -1    0    0  503    0 -0.00000000000E+00 -0.00000000000E+00 -0.17258754213E+04  0.17258754213E+04  0.00000000000E+00 0. -1.
         24    2    1    2    0    0 -0.28905168297E+03  0.99814439145E+01 -0.17619037447E+03  0.35179364481E+03  0.95211426968E+02 0.  0.
         24    2    1    2    0    0  0.99798312335E+02  0.38742136466E+02 -0.84819087399E+02  0.15854827703E+03  0.80514733306E+02 0.  0.
         25    2    1    2    0    0  0.55368922018E+01 -0.77297675431E+02  0.53354522681E+03  0.55344553432E+03  0.12500345038E+03 0.  0.
        -11    1    3    3    0    0 -0.15986238007E+03  0.73989303546E+01 -0.15124059975E+03  0.22019183396E+03  0.00000000000E+00 0.  1.
         12    1    3    3    0    0 -0.12918930290E+03  0.25825135599E+01 -0.24949774722E+02  0.13160181085E+03  0.00000000000E+00 0. -1.
        -11    1    4    4    0    0  0.91514498645E+02 -0.27488939656E+01 -0.55336352456E+02  0.10697930540E+03  0.00000000000E+00 0.  1.
         12    1    4    4    0    0  0.82838136905E+01  0.41491030432E+02 -0.29482734944E+02  0.51568971633E+02  0.00000000000E+00 0. -1.
          5    1    5    5  501    0  0.20330243112E+02 -0.97509799510E+02  0.50674447455E+03  0.51646251778E+03  0.47000000000E+01 0. -1.
         -5    1    5    5    0  501 -0.14793350911E+02  0.20212124079E+02  0.26800752265E+02  0.36983016547E+02  0.47000000000E+01 0. -1.
          1    1    1    2  502    0 -0.17436106570E+01  0.26493975381E+02  0.30564489509E+03  0.30679597912E+03  0.00000000000E+00 0. -1.
          1    1    1    2  503    0  0.18546008909E+03  0.20801196696E+01 -0.13232063260E+04  0.13361417413E+04  0.00000000000E+00 0. -1.
<mgrwt>
<rscale>  0 0.71122216E+02</rscale>
<asrwt>0</asrwt>
<pdfrwt beam="1">  1        2 0.14424261E+00 0.26551288E+02</pdfrwt>
<pdfrwt beam="2">  1        2 0.25380521E+00 0.19051315E+03</pdfrwt>
<totfact> 0.58763912E+01</totfact>
</mgrwt>
</event>
<event>
13    1  0.1942437E-008  0.5508135E+02  0.7546771E-02  0.1430215E+00
         -3   -1    0    0    0  501 -0.00000000000E+00  0.00000000000E+00  0.17585387400E+04  0.17585387400E+04  0.00000000000E+00 0.  1.
          2   -1    0    0  503    0  0.00000000000E+00 -0.00000000000E+00 -0.49133896730E+03  0.49133896730E+03  0.00000000000E+00 0. -1.
         24    2    1    2    0    0 -0.22253731007E+01 -0.35072965122E+02  0.13002004709E+03  0.15641317778E+03  0.79528638677E+02 0.  0.
         24    2    1    2    0    0  0.11291504595E+02  0.25148066440E+03  0.20573359729E+02  0.26470972118E+03  0.79233520153E+02 0.  0.
         25    2    1    2    0    0 -0.93281262147E+02 -0.26669211908E+03  0.11904420019E+03  0.33109498624E+03  0.12500515215E+03 0.  0.
        -13    1    3    3    0    0  0.93157093875E+01 -0.58556597964E+02  0.76033696316E+02  0.96419814261E+02  0.00000000000E+00 0.  1.
         14    1    3    3    0    0 -0.11541082488E+02  0.23483632842E+02  0.53986350776E+02  0.59993363521E+02  0.00000000000E+00 0. -1.
        -13    1    4    4    0    0  0.45291624489E+02  0.15979617272E+03  0.10942877576E+02  0.16645087754E+03  0.00000000000E+00 0.  1.
         14    1    4    4    0    0 -0.34000119894E+02  0.91684491679E+02  0.96304821524E+01  0.98258843641E+02  0.00000000000E+00 0. -1.
          5    1    5    5  502    0 -0.29398819568E+02  0.20887667793E+01  0.25879330002E+02  0.39502952548E+02  0.47000000000E+01 0.  1.
         -5    1    5    5    0  502 -0.63882442579E+02 -0.26878088586E+03  0.93164870189E+02  0.29159203369E+03  0.47000000000E+01 0.  1.
          1    1    1    2  503    0  0.50359631709E+02  0.69522996020E+01 -0.24685142394E+03  0.25203184814E+03  0.00000000000E+00 0. -1.
         -4    1    1    2    0  501  0.33855498943E+02  0.43332120205E+02  0.12444135896E+04  0.12456279740E+04  0.00000000000E+00 0.  1.
<mgrwt>
<rscale>  0 0.52916775E+02</rscale>
<asrwt>0</asrwt>
<pdfrwt beam="2">  1        2 0.72255731E-01 0.50837260E+02</pdfrwt>
<pdfrwt beam="1">  1       -3 0.25860864E+00 0.55081353E+02</pdfrwt>
<totfact> 0.33765677E+00</totfact>
</mgrwt>
</event>
<event>
13    1  0.1942437E-008  0.9445533E+02  0.7546771E-02  0.1328807E+00
          2   -1    0    0  503    0  0.00000000000E+00  0.00000000000E+00  0.29294251780E+04  0.29294251780E+04  0.00000000000E+00 0. -1.
         -1   -1    0    0    0  501 -0.00000000000E+00 -0.00000000000E+00 -0.20328373389E+04  0.20328373389E+04  0.00000000000E+00 0.  1.
         24    2    1    2    0    0 -0.17785356345E+02  0.58358005381E+02 -0.32922669943E+03  0.34422486364E+03  0.79865896559E+02 0.  0.
         24    2    1    2    0    0 -0.12336113583E+02  0.13474888416E+01  0.60014995582E+02  0.10006101687E+03  0.79097484020E+02 0.  0.
         25    2    1    2    0    0 -0.49386299342E+02 -0.22512873244E+02  0.38554336004E+03  0.40892374736E+03  0.12501644958E+03 0.  0.
        -11    1    3    3    0    0 -0.35312655999E+02  0.42997699707E+02 -0.10536722689E+03  0.11915552172E+03  0.00000000000E+00 0.  1.
         12    1    3    3    0    0  0.17527299653E+02  0.15360305674E+02 -0.22385947254E+03  0.22506934191E+03  0.00000000000E+00 0. -1.
        -13    1    4    4    0    0 -0.44151191390E+02 -0.73889967819E+01  0.22498725290E+02  0.50101073983E+02  0.00000000000E+00 0.  1.
         14    1    4    4    0    0  0.31815077807E+02  0.87364856235E+01  0.37516270292E+02  0.49959942890E+02  0.00000000000E+00 0. -1.
          5    1    5    5  502    0 -0.17475159734E+02  0.38468353476E+02  0.46795433857E+02  0.63222607165E+02  0.47000000000E+01 0.  1.
         -5    1    5    5    0  502 -0.31911139608E+02 -0.60981226720E+02  0.33874792618E+03  0.34570114020E+03  0.47000000000E+01 0.  1.
          1    1    1    2  503    0  0.44989609941E+02  0.50859817675E+02  0.24428388397E+04  0.24437823927E+04  0.00000000000E+00 0. -1.
         -2    1    1    2    0  501  0.34518159330E+02 -0.88052438654E+02 -0.16625826568E+04  0.16652704963E+04  0.00000000000E+00 0.  1.
<mgrwt>
<rscale>  0 0.80086070E+02</rscale>
<asrwt>0</asrwt>
<pdfrwt beam="1">  1        2 0.43079782E+00 0.67902769E+02</pdfrwt>
<pdfrwt beam="2">  1       -1 0.29894667E+00 0.94455332E+02</pdfrwt>
<totfact> 0.17248512E-01</totfact>
</mgrwt>
</event>
<event>
13    1  0.1942437E-008  0.7297010E+02  0.7546771E-02  0.1413066E+00
          2   -1    0    0  502    0  0.00000000000E+00  0.00000000000E+00  0.16588867211E+04  0.16588867211E+04  0.00000000000E+00 0. -1.
          2   -1    0    0  503    0 -0.00000000000E+00 -0.00000000000E+00 -0.65077713433E+03  0.65077713433E+03  0.00000000000E+00 0. -1.
         24    2    1    2    0    0 -0.62683630395E+02 -0.17575861141E+02 -0.25876143030E+02  0.10681660549E+03  0.80635376957E+02 0.  0.
         24    2    1    2    0    0 -0.20270333650E+02 -0.42987869435E+01  0.56634964702E+01  0.63911825968E+02  0.60193689958E+02 0.  0.
         25    2    1    2    0    0  0.93485592196E+02  0.13042582691E+03  0.21991025306E+03  0.29955799968E+03  0.12499609392E+03 0.  0.
        -11    1    4    4    0    0 -0.12368710402E+02  0.24058581676E+02 -0.11986429867E+02  0.29588424261E+02  0.00000000000E+00 0.  1.
         12    1    4    4    0    0 -0.79016232483E+01 -0.28357368620E+02  0.17649926338E+02  0.34323401707E+02  0.00000000000E+00 0. -1.
        -13    1    3    3    0    0  0.41348255828E+01 -0.23556534876E+01  0.22457779267E+02  0.22956431247E+02  0.00000000000E+00 0.  1.
         14    1    3    3    0    0 -0.66818455978E+02 -0.15220207653E+02 -0.48333922297E+02  0.83860174248E+02  0.00000000000E+00 0. -1.
          5    1    5    5  501    0  0.14391899317E+02  0.24963929000E+02  0.14490107143E+03  0.14781317606E+03  0.47000000000E+01 0.  1.
         -5    1    5    5    0  501  0.79093692879E+02  0.10546189791E+03  0.75009181637E+02  0.15174482362E+03  0.47000000000E+01 0.  1.
          1    1    1    2  502    0  0.12809981077E+02 -0.71523377852E+02  0.13219660272E+04  0.13239614293E+04  0.00000000000E+00 0. -1.
          1    1    1    2  503    0 -0.23341609228E+02 -0.37027800978E+02 -0.51355404694E+03  0.51541599499E+03  0.00000000000E+00 0. -1.
<mgrwt>
<rscale>  0 0.56515171E+02</rscale>
<asrwt>0</asrwt>
<pdfrwt beam="1">  1        2 0.24395393E+00 0.72970100E+02</pdfrwt>
<pdfrwt beam="2">  1        2 0.95702520E-01 0.43770867E+02</pdfrwt>
<totfact> 0.10821461E+02</totfact>
</mgrwt>
</event>
<event>
13    1  0.1942437E-008  0.2133330E+03  0.7546771E-02  0.1261222E+00
          2   -1    0    0  503    0  0.00000000000E+00  0.00000000000E+00  0.25456712817E+04  0.25456712817E+04  0.00000000000E+00 0. -1.
          2   -1    0    0  502    0 -0.00000000000E+00 -0.00000000000E+00 -0.61132252003E+03  0.61132252003E+03  0.00000000000E+00 0. -1.
         24    2    1    2    0    0 -0.27004397529E+02  0.24145968443E+02  0.23084591210E+02  0.89042085929E+02  0.77995701403E+02 0.  0.
         24    2    1    2    0    0 -0.37409612688E+02  0.57812587878E+02  0.29827961857E+03  0.31678352173E+03  0.81481865153E+02 0.  0.
         25    2    1    2    0    0 -0.15524102056E+03  0.80097419060E+02  0.67593595704E+03  0.70924578401E+03  0.12499917249E+03 0.  0.
        -13    1    3    3    0    0  0.12877548676E+02 -0.10996128597E+02 -0.15817291819E+02  0.23171810989E+02  0.00000000000E+00 0.  1.
         14    1    3    3    0    0 -0.39881946205E+02  0.35142097039E+02  0.38901883029E+02  0.65870274940E+02  0.00000000000E+00 0. -1.
        -13    1    4    4    0    0  0.12901178220E+02 -0.85555645288E+00  0.56325733900E+01  0.14103129416E+02  0.00000000000E+00 0.  1.
         14    1    4    4    0    0 -0.50310790909E+02  0.58668144331E+02  0.29264704518E+03  0.30268039231E+03  0.00000000000E+00 0. -1.
          5    1    5    5  501    0 -0.18693962272E+02 -0.18577503610E+02  0.24607369246E+03  0.24752563501E+03  0.47000000000E+01 0.  1.
         -5    1    5    5    0  501 -0.13654705828E+03  0.98674922670E+02  0.42986226458E+03  0.46172014900E+03  0.47000000000E+01 0.  1.
          1    1    1    2  502    0  0.10450672556E+02 -0.55379433187E+02 -0.54171004627E+03  0.54463370481E+03  0.00000000000E+00 0. -1.
          1    1    1    2  503    0  0.20920435822E+03 -0.10667654219E+03  0.14787586412E+04  0.14972887053E+04  0.00000000000E+00 0. -1.
<mgrwt>
<rscale>  0 0.10964845E+03</rscale>
<asrwt>0</asrwt>
<pdfrwt beam="1">  1        2 0.37436342E+00 0.21333299E+03</pdfrwt>
<pdfrwt beam="2">  1        2 0.89900371E-01 0.56356882E+02</pdfrwt>
<totfact> 0.37761920E+01</totfact>
</mgrwt>
</event>
<event>
13    1  0.1942437E-008  0.2504292E+03  0.7546771E-02  0.1228213E+00
          2   -1    0    0  502    0  0.00000000000E+00  0.00000000000E+00  0.36613136018E+04  0.36613136018E+04  0.00000000000E+00 0. -1.
          2   -1    0    0  503    0 -0.00000000000E+00 -0.00000000000E+00 -0.38301532937E+03  0.38301532937E+03  0.00000000000E+00 0. -1.
         24    2    1    2    0    0 -0.28381926471E+02  0.37791511198E+03  0.73324708754E+03  0.82873504111E+03  0.74331092867E+02 0.  0.
         24    2    1    2    0    0  0.23695103486E+01 -0.59281636848E+02  0.12205503469E+03  0.15787339868E+03  0.80663817596E+02 0.  0.
         25    2    1    2    0    0 -0.10104925454E+02 -0.13631410884E+03  0.94641423277E+03  0.96436906800E+03  0.12499661412E+03 0.  0.
        -11    1    4    4    0    0  0.12890432076E+02 -0.36379821439E+01 -0.82943554866E+01  0.15754189479E+02  0.00000000000E+00 0.  1.
         12    1    4    4    0    0 -0.10520921728E+02 -0.55643654704E+02  0.13034939018E+03  0.14211920920E+03  0.00000000000E+00 0. -1.
        -13    1    3    3    0    0  0.24423930710E+02  0.80679727369E+02  0.15706494444E+03  0.17825583741E+03  0.00000000000E+00 0.  1.
         14    1    3    3    0    0 -0.52805857180E+02  0.29723538461E+03  0.57618214310E+03  0.65047920370E+03  0.00000000000E+00 0. -1.
          5    1    5    5  501    0  0.16791282687E+02 -0.28642383659E+02  0.59214564261E+03  0.59309433093E+03  0.47000000000E+01 0. -1.
         -5    1    5    5    0  501 -0.26896208141E+02 -0.10767172519E+03  0.35426859016E+03  0.37127473708E+03  0.47000000000E+01 0. -1.
          1    1    1    2  502    0  0.29370733055E+02  0.60170736639E+02  0.17365156682E+04  0.17378060373E+04  0.00000000000E+00 0. -1.
          1    1    1    2  503    0  0.67466085214E+01 -0.24249010293E+03 -0.25993375077E+03  0.35554538604E+03  0.00000000000E+00 0. -1.
<mgrwt>
<rscale>  0 0.12949067E+03</rscale>
<asrwt>0</asrwt>
<pdfrwt beam="1">  1        2 0.53842845E+00 0.66956385E+02</pdfrwt>
<pdfrwt beam="2">  1        2 0.56325786E-01 0.25042919E+03</pdfrwt>
<totfact> 0.17946515E+01</totfact>
</mgrwt>
</event>
<event>
13    1  0.1942437E-008  0.1257663E+03  0.7546771E-02  0.1273570E+00
          2   -1    0    0  502    0  0.00000000000E+00  0.00000000000E+00  0.17333950173E+04  0.17333950173E+04  0.00000000000E+00 0. -1.
          2   -1    0    0  503    0 -0.00000000000E+00 -0.00000000000E+00 -0.23052857510E+04  0.23052857510E+04  0.00000000000E+00 0. -1.
         24    2    1    2    0    0  0.73336936281E+02 -0.31606448059E+02 -0.46972343607E+03  0.48308388193E+03  0.79703555802E+02 0.  0.
         24    2    1    2    0    0 -0.66358473506E+02  0.22350118829E+01 -0.55361132889E+03  0.56332326329E+03  0.80244334435E+02 0.  0.
         25    2    1    2    0    0  0.10397118609E+03 -0.54260836727E+02  0.26003959754E+02  0.17336525707E+03  0.12500024200E+03 0.  0.
        -11    1    3    3    0    0  0.63433572217E+02  0.11586506851E+02 -0.33829696878E+03  0.34438772381E+03  0.00000000000E+00 0.  1.
         12    1    3    3    0    0  0.99033640638E+01 -0.43192954910E+02 -0.13142646729E+03  0.13869615812E+03  0.00000000000E+00 0. -1.
        -13    1    4    4    0    0 -0.53883951898E+01  0.19356288294E+02 -0.31347637413E+02  0.37234057939E+02  0.00000000000E+00 0.  1.
         14    1    4    4    0    0 -0.60970078316E+02 -0.17121276411E+02 -0.52226369147E+03  0.52608920535E+03  0.00000000000E+00 0. -1.
          5    1    5    5  501    0  0.10375181323E+03 -0.11597971551E+02 -0.24245991442E+02  0.10727958703E+03  0.47000000000E+01 0. -1.
         -5    1    5    5    0  501  0.21937285203E+00 -0.42662865176E+02  0.50249951196E+02  0.66085670040E+02  0.47000000000E+01 0. -1.
          1    1    1    2  502    0 -0.30688926753E+00  0.84793548652E+02  0.16185043854E+04  0.16207240622E+04  0.00000000000E+00 0. -1.
          1    1    1    2  503    0 -0.11064275959E+03 -0.11612757482E+01 -0.11930643140E+04  0.11981843039E+04  0.00000000000E+00 0. -1.
<mgrwt>
<rscale>  0 0.10326783E+03</rscale>
<asrwt>0</asrwt>
<pdfrwt beam="1">  1        2 0.25491103E+00 0.84794104E+02</pdfrwt>
<pdfrwt beam="2">  1        2 0.33901261E+00 0.12576634E+03</pdfrwt>
<totfact> 0.12354877E+01</totfact>
</mgrwt>
</event>
<event>
13    1  0.1942437E-008  0.1214556E+03  0.7546771E-02  0.1291462E+00
         -1   -1    0    0    0  501 -0.00000000000E+00  0.00000000000E+00  0.29408041442E+03  0.29408041442E+03  0.00000000000E+00 0.  1.
          2   -1    0    0  503    0  0.00000000000E+00 -0.00000000000E+00 -0.27156796548E+04  0.27156796548E+04  0.00000000000E+00 0. -1.
         24    2    1    2    0    0 -0.47404903156E+02  0.15086689689E+03  0.47831721808E+02  0.18312113640E+03  0.78977411749E+02 0.  0.
         24    2    1    2    0    0 -0.70938157159E+02 -0.10383609626E+03 -0.10431177344E+03  0.18066909078E+03  0.77111719329E+02 0.  0.
         25    2    1    2    0    0  0.14673782084E+03 -0.14009208861E+03 -0.62983579618E+03  0.67340510606E+03  0.12499410132E+03 0.  0.
        -11    1    4    4    0    0 -0.72156038000E+02 -0.37784322462E+02 -0.57320529048E+02  0.99598152062E+02  0.00000000000E+00 0.  1.
         12    1    4    4    0    0  0.12178808402E+01 -0.66051773793E+02 -0.46991244396E+02  0.81070938719E+02  0.00000000000E+00 0. -1.
        -11    1    3    3    0    0 -0.61893135650E+02  0.77569644676E+02  0.11070278103E+02  0.99851695394E+02  0.00000000000E+00 0.  1.
         12    1    3    3    0    0  0.14488232495E+02  0.73297252210E+02  0.36761443705E+02  0.83269441007E+02  0.00000000000E+00 0. -1.
          5    1    5    5  502    0  0.79424367543E+02 -0.50028668747E+02 -0.46112121227E+03  0.47060170023E+03  0.47000000000E+01 0. -1.
         -5    1    5    5    0  502  0.67313453301E+02 -0.90063419861E+02 -0.16871458391E+03  0.20280340583E+03  0.47000000000E+01 0. -1.
          1    1    1    2  503    0 -0.99150358254E+02  0.71020824535E+02 -0.18401320266E+04  0.18441693595E+04  0.00000000000E+00 0. -1.
         -2    1    1    2    0  501  0.70755597725E+02  0.22040463443E+02  0.10484863406E+03  0.12839537648E+03  0.00000000000E+00 0.  1.
<mgrwt>
<rscale>  0 0.94873328E+02</rscale>
<asrwt>0</asrwt>
<pdfrwt beam="2">  1        2 0.39936467E+00 0.12145562E+03</pdfrwt>
<pdfrwt beam="1">  1       -1 0.43247118E-01 0.74108951E+02</pdfrwt>
<totfact> 0.24456050E+01</totfact>
</mgrwt>
</event>
<event>
13    1  0.1942437E-008  0.1036972E+03  0.7546771E-02  0.1487738E+00
          2   -1    0    0  503    0  0.00000000000E+00  0.00000000000E+00  0.24499753335E+04  0.24499753335E+04  0.00000000000E+00 0. -1.
         -3   -1    0    0    0  501 -0.00000000000E+00 -0.00000000000E+00 -0.14907659683E+03  0.14907659683E+03  0.00000000000E+00 0.  1.
         24    2    1    2    0    0  0.48529171898E+01  0.11784867532E+03  0.32783034054E+01  0.14169110751E+03  0.78445915079E+02 0.  0.
         24    2    1    2    0    0  0.44707521754E+02 -0.22859554696E+02  0.17186848199E+03  0.19655108337E+03  0.81069300791E+02 0.  0.
         25    2    1    2    0    0  0.61370336807E+02 -0.63113171664E+02  0.30562655844E+03  0.34173450175E+03  0.12500114314E+03 0.  0.
        -13    1    3    3    0    0 -0.31439786340E+02  0.20487043788E+02 -0.26264160233E+01  0.37617511739E+02  0.00000000000E+00 0.  1.
         14    1    3    3    0    0  0.36292703530E+02  0.97361631534E+02  0.59047194287E+01  0.10407359577E+03  0.00000000000E+00 0. -1.
        -13    1    4    4    0    0 -0.19649626041E+02  0.10126805419E+02  0.29451101304E+02  0.36824276769E+02  0.00000000000E+00 0.  1.
         14    1    4    4    0    0  0.64357147795E+02 -0.32986360115E+02  0.14241738069E+03  0.15972680660E+03  0.00000000000E+00 0. -1.
          5    1    5    5  502    0 -0.23785960928E+02  0.51640643325E+01  0.14731262690E+03  0.14938386640E+03  0.47000000000E+01 0.  1.
         -5    1    5    5    0  502  0.85156297735E+02 -0.68277235997E+02  0.15831393154E+03  0.19235063535E+03  0.47000000000E+01 0.  1.
          1    1    1    2  503    0 -0.13485629391E+02  0.11567844381E+02  0.18119874503E+04  0.18120745562E+04  0.00000000000E+00 0. -1.
         -4    1    1    2    0  501 -0.97445146360E+02 -0.43443793344E+02  0.81379425315E+01  0.10700068148E+03  0.00000000000E+00 0.  1.
<mgrwt>
<rscale>  0 0.42923421E+02</rscale>
<asrwt>0</asrwt>
<pdfrwt beam="1">  1        2 0.36029047E+00 0.17767308E+02</pdfrwt>
<pdfrwt beam="2">  1       -3 0.21923030E-01 0.10369720E+03</pdfrwt>
<totfact> 0.79174430E+01</totfact>
</mgrwt>
</event>
<event>
13    1  0.1942437E-008  0.9683869E+02  0.7546771E-02  0.1342861E+00
         -3   -1    0    0    0  501 -0.00000000000E+00  0.00000000000E+00  0.50077378994E+02  0.50077378994E+02  0.00000000000E+00 0.  1.
          2   -1    0    0  503    0  0.00000000000E+00 -0.00000000000E+00 -0.23382270617E+04  0.23382270617E+04  0.00000000000E+00 0. -1.
         24    2    1    2    0    0  0.42879527750E+02 -0.66557694262E+02 -0.17496765751E+03  0.20786196886E+03  0.79525696224E+02 0.  0.
         24    2    1    2    0    0  0.16707179510E+02 -0.70024201480E+00 -0.43906884781E+03  0.44679609274E+03  0.81028854010E+02 0.  0.
         25    2    1    2    0    0 -0.48544440547E+02 -0.17801416265E+02 -0.98161186645E+03  0.99089288826E+03  0.12503362155E+03 0.  0.
        -13    1    4    4    0    0 -0.28731235962E+02 -0.29019370671E+01 -0.27581046677E+03  0.27731808224E+03  0.00000000000E+00 0.  1.
         14    1    4    4    0    0  0.45438415472E+02  0.22016950523E+01 -0.16325838105E+03  0.16947801050E+03  0.00000000000E+00 0. -1.
        -13    1    3    3    0    0 -0.24279405461E+01 -0.21045276597E+02  0.31306073934E+00  0.21187179363E+02  0.00000000000E+00 0.  1.
         14    1    3    3    0    0  0.45307468297E+02 -0.45512417665E+02 -0.17528071825E+03  0.18667478950E+03  0.00000000000E+00 0. -1.
          5    1    5    5  502    0 -0.34856169692E+02 -0.27452414827E+02 -0.10472161013E+03  0.11383010706E+03  0.47000000000E+01 0.  1.
         -5    1    5    5    0  502 -0.13688270855E+02  0.96509985627E+01 -0.87689025632E+03  0.87706278119E+03  0.47000000000E+01 0.  1.
          1    1    1    2  503    0  0.57382546619E+02  0.11855041900E+02 -0.61041206393E+03  0.61321789477E+03  0.00000000000E+00 0. -1.
         -4    1    1    2    0  501 -0.68424813333E+02  0.73204310642E+02 -0.82089247031E+02  0.12953559609E+03  0.00000000000E+00 0.  1.
<mgrwt>
<rscale>  0 0.75327289E+02</rscale>
<asrwt>0</asrwt>
<pdfrwt beam="2">  1        2 0.34385690E+00 0.58594357E+02</pdfrwt>
<pdfrwt beam="1">  1       -3 0.73643209E-02 0.96838686E+02</pdfrwt>
<totfact> 0.46454096E+02</totfact>
</mgrwt>
</event>
<event>
13    1  0.1942437E-008  0.5093998E+02  0.7546771E-02  0.1564618E+00
          2   -1    0    0  502    0  0.00000000000E+00  0.00000000000E+00  0.45525406682E+03  0.45525406682E+03  0.00000000000E+00 0. -1.
          2   -1    0    0  503    0 -0.00000000000E+00 -0.00000000000E+00 -0.46975894200E+03  0.46975894200E+03  0.00000000000E+00 0. -1.
         24    2    1    2    0    0  0.36737140015E+02 -0.40692370257E+02 -0.33796917929E+02  0.10231325982E+03  0.79500220255E+02 0.  0.
         24    2    1    2    0    0 -0.75584093049E+02  0.74987197218E+02 -0.96804617936E+02  0.16485408874E+03  0.80434455630E+02 0.  0.
         25    2    1    2    0    0 -0.60906853111E+01 -0.32049062602E+02  0.83054571074E+02  0.15357817668E+03  0.12499582278E+03 0.  0.
        -13    1    4    4    0    0 -0.38993219874E+02 -0.10086009667E+02 -0.36394788258E+02  0.54284246329E+02  0.00000000000E+00 0.  1.
         14    1    4    4    0    0 -0.36590873175E+02  0.85073206886E+02 -0.60409829678E+02  0.11056984241E+03  0.00000000000E+00 0. -1.
        -13    1    3    3    0    0  0.61683839374E+02 -0.26408120371E+02 -0.29298199692E+02  0.73216592154E+02  0.00000000000E+00 0.  1.
         14    1    3    3    0    0 -0.24946699359E+02 -0.14284249886E+02 -0.44987182377E+01  0.29096667670E+02  0.00000000000E+00 0. -1.
          5    1    5    5  501    0  0.41146790511E+02  0.28757814120E+02  0.21182040780E+02  0.54688564563E+02  0.47000000000E+01 0. -1.
         -5    1    5    5    0  501 -0.47237475823E+02 -0.60806876722E+02  0.61872530294E+02  0.98889612112E+02  0.47000000000E+01 0. -1.
          1    1    1    2  502    0  0.47236397817E+02  0.19348516401E+02  0.26571989466E+03  0.27057846326E+03  0.00000000000E+00 0. -1.
          1    1    1    2  503    0 -0.22987594720E+01 -0.21594280761E+02 -0.23267780505E+03  0.23368902032E+03  0.00000000000E+00 0. -1.
<mgrwt>
<rscale>  0 0.33259996E+02</rscale>
<asrwt>0</asrwt>
<pdfrwt beam="1">  1        2 0.66949128E-01 0.50939978E+02</pdfrwt>
<pdfrwt beam="2">  1        2 0.69082197E-01 0.21716290E+02</pdfrwt>
<totfact> 0.81839017E+02</totfact>
</mgrwt>
</event>
<event>
13    1  0.1942437E-008  0.6552681E+02  0.7546771E-02  0.1555947E+00
          2   -1    0    0  502    0  0.00000000000E+00  0.00000000000E+00  0.20141067070E+04  0.20141067070E+04  0.00000000000E+00 0. -1.
          2   -1    0    0  503    0 -0.00000000000E+00 -0.00000000000E+00 -0.20959004533E+04  0.20959004533E+04  0.00000000000E+00 0. -1.
         24    2    1    2    0    0  0.56439205387E+03  0.64182920980E+01  0.26491837199E+03  0.62865338110E+03  0.80272939416E+02 0.  0.
         24    2    1    2    0    0 -0.69878690687E+03  0.16294526898E+03  0.35956212297E+03  0.80774411864E+03  0.91166545620E+02 0.  0.
         25    2    1    2    0    0  0.11369375251E+03 -0.12627822339E+03  0.36829727201E+03  0.42442950125E+03  0.12500024759E+03 0.  0.
        -11    1    4    4    0    0 -0.39251336718E+03  0.13116214920E+03  0.23207376248E+03  0.47447706376E+03  0.00000000000E+00 0.  1.
         12    1    4    4    0    0 -0.30627353969E+03  0.31783119781E+02  0.12748836049E+03  0.33326705489E+03  0.00000000000E+00 0. -1.
        -11    1    3    3    0    0  0.12371495781E+03  0.95422572987E+01  0.23901645119E+02  0.12636349988E+03  0.00000000000E+00 0.  1.
         12    1    3    3    0    0  0.44067709606E+03 -0.31239652007E+01  0.24101672687E+03  0.50228988122E+03  0.00000000000E+00 0. -1.
          5    1    5    5  501    0  0.81297438719E+02 -0.13569657595E+03  0.21251798707E+03  0.26496946823E+03  0.47000000000E+01 0.  1.
         -5    1    5    5    0  501  0.32396313788E+02  0.94183525650E+01  0.15577928494E+03  0.15946003302E+03  0.47000000000E+01 0.  1.
          1    1    1    2  502    0 -0.56628925384E+01  0.16912630788E+02  0.58652263244E+03  0.58679374894E+03  0.00000000000E+00 0. -1.
          1    1    1    2  503    0  0.26363993027E+02 -0.59997968477E+02 -0.16610941457E+04  0.16623864104E+04  0.00000000000E+00 0. -1.
<mgrwt>
<rscale>  0 0.34186314E+02</rscale>
<asrwt>0</asrwt>
<pdfrwt beam="1">  1        2 0.29619216E+00 0.17835510E+02</pdfrwt>
<pdfrwt beam="2">  1        2 0.30822065E+00 0.65526808E+02</pdfrwt>
<totfact> 0.14833663E+01</totfact>
</mgrwt>
</event>
<event>
13    1  0.2630844E-008  0.4162868E+02  0.7546771E-02  0.1592046E+00
          2   -1    0    0  503    0  0.00000000000E+00  0.00000000000E+00  0.57184643233E+03  0.57184643233E+03  0.00000000000E+00 0. -1.
          2   -1    0    0  502    0 -0.00000000000E+00 -0.00000000000E+00 -0.36936437695E+04  0.36936437695E+04  0.00000000000E+00 0. -1.
         24    2    1    2    0    0  0.50362458561E+03 -0.21297582762E+03 -0.76056942530E+03  0.94018928987E+03  0.80583023755E+02 0.  0.
         24    2    1    2    0    0 -0.54966564404E+03  0.48416224305E+03 -0.47660660710E+03  0.87938105218E+03  0.98039681636E+02 0.  0.
         25    2    1    2    0    0  0.44478335920E+02 -0.30400859259E+03 -0.37999642554E+02  0.33386994922E+03  0.12500249367E+03 0.  0.
        -11    1    4    4    0    0 -0.22670557752E+03  0.25713208435E+03 -0.24904412016E+03  0.42371606232E+03  0.00000000000E+00 0.  1.
         12    1    4    4    0    0 -0.32296006652E+03  0.22703015870E+03 -0.22756248694E+03  0.45566498986E+03  0.00000000000E+00 0. -1.
        -13    1    3    3    0    0  0.13637949907E+03 -0.40347941709E+02 -0.25421558876E+03  0.29129519346E+03  0.00000000000E+00 0.  1.
         14    1    3    3    0    0  0.36724508654E+03 -0.17262788591E+03 -0.50635383654E+03  0.64889409641E+03  0.00000000000E+00 0. -1.
          5    1    5    5  501    0 -0.21298750259E+02 -0.10641244415E+03  0.33432057086E+02  0.11365314546E+03  0.47000000000E+01 0.  1.
         -5    1    5    5    0  501  0.65777086178E+02 -0.19759614844E+03 -0.71431699639E+02  0.22021680376E+03  0.47000000000E+01 0.  1.
          1    1    1    2  502    0  0.23954177455E+02  0.34054674749E+02 -0.19781678324E+04  0.19786059478E+04  0.00000000000E+00 0. -1.
          1    1    1    2  503    0 -0.22391454946E+02 -0.12324975959E+01  0.13154617019E+03  0.13344396276E+03  0.00000000000E+00 0. -1.
<mgrwt>
<rscale>  0 0.30553849E+02</rscale>
<asrwt>0</asrwt>
<pdfrwt beam="1">  1        2 0.84095062E-01 0.22425350E+02</pdfrwt>
<pdfrwt beam="2">  1        2 0.54318291E+00 0.41628679E+02</pdfrwt>
<totfact> 0.12657583E+01</totfact>
</mgrwt>
</event>
<event>
13    1  0.1942437E-008  0.1764438E+03  0.7546771E-02  0.1259523E+00
          2   -1    0    0  502    0  0.00000000000E+00  0.00000000000E+00  0.28037410607E+04  0.28037410607E+04  0.00000000000E+00 0. -1.
          2   -1    0    0  503    0 -0.00000000000E+00 -0.00000000000E+00 -0.20863976691E+04  0.20863976691E+04  0.00000000000E+00 0. -1.
         24    2    1    2    0    0  0.16375678474E+03  0.32523939747E+03 -0.52467821751E+03  0.64402501663E+03  0.82970114512E+02 0.  0.
         24    2    1    2    0    0 -0.33661212437E+03 -0.51561571289E+03 -0.44796724305E+03  0.76564875583E+03  0.79850365065E+02 0.  0.
         25    2    1    2    0    0  0.24908742731E+03 -0.40115569951E+02  0.10461720379E+03  0.30037271937E+03  0.12500082327E+03 0.  0.
        -11    1    4    4    0    0 -0.19514614322E+03 -0.30452462730E+03 -0.21412994466E+03  0.42031999601E+03  0.00000000000E+00 0.  1.
         12    1    4    4    0    0 -0.14146598116E+03 -0.21109108559E+03 -0.23383729839E+03  0.34532875982E+03  0.00000000000E+00 0. -1.
        -11    1    3    3    0    0  0.34280974653E+02  0.15819442772E+03 -0.21576009397E+03  0.26972778933E+03  0.00000000000E+00 0.  1.
         12    1    3    3    0    0  0.12947581009E+03  0.16704496975E+03 -0.30891812354E+03  0.37429722730E+03  0.00000000000E+00 0. -1.
          5    1    5    5  501    0  0.31458863071E+02 -0.12358672796E+02 -0.27851281502E+02  0.44047482792E+02  0.47000000000E+01 0.  1.
         -5    1    5    5    0  501  0.21762856424E+03 -0.27756897155E+02  0.13246848529E+03  0.25632523658E+03  0.47000000000E+01 0.  1.
          1    1    1    2  502    0 -0.10035386191E+02  0.68555791869E+02  0.23726243086E+04  0.23736357588E+04  0.00000000000E+00 0. -1.
          1    1    1    2  503    0 -0.66196701485E+02  0.16193609351E+03 -0.78725266023E+03  0.80645647912E+03  0.00000000000E+00 0. -1.
<mgrwt>
<rscale>  0 0.11056743E+03</rscale>
<asrwt>0</asrwt>
<pdfrwt beam="1">  1        2 0.41231486E+00 0.69286403E+02</pdfrwt>
<pdfrwt beam="2">  1        2 0.30682318E+00 0.17644379E+03</pdfrwt>
<totfact> 0.47308672E+00</totfact>
</mgrwt>
</event>
<event>
13    1  0.1942437E-008  0.2612233E+03  0.7546771E-02  0.1269918E+00
          2   -1    0    0  503    0  0.00000000000E+00  0.00000000000E+00  0.21601187105E+04  0.21601187105E+04  0.00000000000E+00 0. -1.
          2   -1    0    0  502    0 -0.00000000000E+00 -0.00000000000E+00 -0.16957329512E+04  0.16957329512E+04  0.00000000000E+00 0. -1.
         24    2    1    2    0    0 -0.37083113387E+03 -0.16030914382E+03 -0.56403256663E+03  0.69877780538E+03  0.83324268022E+02 0.  0.
         24    2    1    2    0    0 -0.12814620572E+03  0.10383471095E+03 -0.82299403610E+02  0.20360187254E+03  0.86472154056E+02 0.  0.
         25    2    1    2    0    0  0.28448682409E+03 -0.39164255541E+02  0.36686494766E+03  0.48237130396E+03  0.12500237225E+03 0.  0.
        -11    1    3    3    0    0 -0.57458847498E+02 -0.52817004026E+02 -0.76129321771E+02  0.10902673389E+03  0.00000000000E+00 0.  1.
         12    1    3    3    0    0 -0.31337228637E+03 -0.10749213980E+03 -0.48790324486E+03  0.58975107149E+03  0.00000000000E+00 0. -1.
        -13    1    4    4    0    0 -0.92965886157E+02  0.11010744746E+03 -0.42778872964E+02  0.15032078349E+03  0.00000000000E+00 0.  1.
         14    1    4    4    0    0 -0.35180319560E+02 -0.62727365106E+01 -0.39520530646E+02  0.53281089049E+02  0.00000000000E+00 0. -1.
          5    1    5    5  501    0  0.21484166108E+03  0.17934737108E+02  0.20750782641E+03  0.29926607251E+03  0.47000000000E+01 0. -1.
         -5    1    5    5    0  501  0.69645163010E+02 -0.57098992649E+02  0.15935712125E+03  0.18310523145E+03  0.47000000000E+01 0. -1.
          1    1    1    2  502    0  0.22326612815E+03  0.54271780339E+02 -0.84805573782E+03  0.87863059619E+03  0.00000000000E+00 0. -1.
          1    1    1    2  503    0 -0.87756126589E+01  0.41366908069E+02  0.15919085197E+04  0.15924700837E+04  0.00000000000E+00 0. -1.
<mgrwt>
<rscale>  0 0.10510223E+03</rscale>
<asrwt>0</asrwt>
<pdfrwt beam="1">  1        2 0.31766452E+00 0.42287498E+02</pdfrwt>
<pdfrwt beam="2">  1        2 0.24937249E+00 0.26122330E+03</pdfrwt>
<totfact> 0.15672620E+01</totfact>
</mgrwt>
</event>
<event>
13    1  0.1942437E-008  0.5730470E+02  0.7546771E-02  0.1467296E+00
          2   -1    0    0  502    0  0.00000000000E+00  0.00000000000E+00  0.34115094649E+04  0.34115094649E+04  0.00000000000E+00 0. -1.
          2   -1    0    0  503    0 -0.00000000000E+00 -0.00000000000E+00 -0.68122953888E+03  0.68122953888E+03  0.00000000000E+00 0. -1.
         24    2    1    2    0    0  0.41395948277E+03  0.54439945923E+03 -0.10347689192E+02  0.68885513591E+03  0.81737989970E+02 0.  0.
         24    2    1    2    0    0 -0.27650648113E+03 -0.72519579925E+03  0.11650124882E+04  0.14032244936E+04  0.97057202676E+02 0.  0.
         25    2    1    2    0    0 -0.19449550622E+03  0.11130435619E+03  0.10969525870E+04  0.11265660026E+04  0.12501527278E+03 0.  0.
        -11    1    3    3    0    0  0.31004407043E+03  0.36221338034E+03 -0.32825945707E+02  0.47791568421E+03  0.00000000000E+00 0.  1.
         12    1    3    3    0    0  0.10391541234E+03  0.18218607889E+03  0.22478256515E+02  0.21093945169E+03  0.00000000000E+00 0. -1.
        -11    1    4    4    0    0 -0.78324268376E+02 -0.32477366094E+03  0.53873092087E+03  0.63391137153E+03  0.00000000000E+00 0.  1.
         12    1    4    4    0    0 -0.19818221275E+03 -0.40042213831E+03  0.62628156730E+03  0.76931312210E+03  0.00000000000E+00 0. -1.
          5    1    5    5  501    0 -0.17137559622E+03  0.13180362083E+03  0.10329057895E+04  0.10553000755E+04  0.47000000000E+01 0.  1.
         -5    1    5    5    0  501 -0.23119910001E+02 -0.20499264649E+02  0.64046797523E+02  0.71265927080E+02  0.47000000000E+01 0.  1.
          1    1    1    2  502    0  0.32697016496E+02  0.17666039836E+02  0.67170784902E+03  0.67273517694E+03  0.00000000000E+00 0. -1.
          1    1    1    2  503    0  0.24345488085E+02  0.51825943993E+02 -0.19304530897E+03  0.20135819471E+03  0.00000000000E+00 0. -1.
<mgrwt>
<rscale>  0 0.46148543E+02</rscale>
<asrwt>0</asrwt>
<pdfrwt beam="1">  1        2 0.50169256E+00 0.37164282E+02</pdfrwt>
<pdfrwt beam="2">  1        2 0.10018082E+00 0.57304699E+02</pdfrwt>
<totfact> 0.15317915E+01</totfact>
</mgrwt>
</event>
<event>
13    1  0.1942437E-008  0.5591346E+02  0.7546771E-02  0.1567261E+00
          2   -1    0    0  502    0  0.00000000000E+00  0.00000000000E+00  0.34637615859E+03  0.34637615859E+03  0.00000000000E+00 0. -1.
          2   -1    0    0  503    0 -0.00000000000E+00 -0.00000000000E+00 -0.21236454957E+04  0.21236454957E+04  0.00000000000E+00 0. -1.
         24    2    1    2    0    0 -0.27492280406E+01  0.38819712966E+02 -0.50828733020E+03  0.51654658926E+03  0.83365703175E+02 0.  0.
         24    2    1    2    0    0 -0.90546999233E+02  0.11620738139E+03 -0.25112387845E+03  0.30042382827E+03  0.74083464451E+02 0.  0.
         25    2    1    2    0    0  0.57591737137E+02 -0.17033291633E+03 -0.24776181591E+03  0.33066381696E+03  0.12499012702E+03 0.  0.
        -13    1    4    4    0    0 -0.96592145174E+02  0.11586173472E+03 -0.20834757313E+03  0.25722110200E+03  0.00000000000E+00 0.  1.
         14    1    4    4    0    0  0.60451459407E+01  0.34564667186E+00 -0.42776305312E+02  0.43202726270E+02  0.00000000000E+00 0. -1.
        -13    1    3    3    0    0  0.40211692629E+02  0.22226788343E+02 -0.25200786798E+03  0.25616201097E+03  0.00000000000E+00 0.  1.
         14    1    3    3    0    0 -0.42960920669E+02  0.16592924624E+02 -0.25627946223E+03  0.26038457829E+03  0.00000000000E+00 0. -1.
          5    1    5    5  501    0  0.87927038778E+02 -0.11792310846E+03 -0.21799786548E+03  0.26302506156E+03  0.47000000000E+01 0. -1.
         -5    1    5    5    0  501 -0.30335301641E+02 -0.52409807869E+02 -0.29763950435E+02  0.67638755400E+02  0.47000000000E+01 0. -1.
          1    1    1    2  502    0 -0.19142097655E+02  0.34945948658E+01  0.27504945360E+03  0.27573689275E+03  0.00000000000E+00 0. -1.
          1    1    1    2  503    0  0.54846587791E+02  0.11811227104E+02 -0.10451457661E+04  0.10466505270E+04  0.00000000000E+00 0. -1.
<mgrwt>
<rscale>  0 0.32984699E+02</rscale>
<asrwt>0</asrwt>
<pdfrwt beam="1">  1        2 0.50937671E-01 0.19458471E+02</pdfrwt>
<pdfrwt beam="2">  1        2 0.31230080E+00 0.55913456E+02</pdfrwt>
<totfact> 0.12798156E+02</totfact>
</mgrwt>
</event>
<event>
13    1  0.1942437E-008  0.1040618E+03  0.7546771E-02  0.1372911E+00
          2   -1    0    0  503    0  0.00000000000E+00  0.00000000000E+00  0.17452148460E+04  0.17452148460E+04  0.00000000000E+00 0. -1.
          2   -1    0    0  502    0 -0.00000000000E+00 -0.00000000000E+00 -0.28118346824E+04  0.28118346824E+04  0.00000000000E+00 0. -1.
         24    2    1    2    0    0 -0.14308966119E+02  0.35366956393E+02 -0.13075163579E+03  0.15821658170E+03  0.80504213229E+02 0.  0.
         24    2    1    2    0    0  0.54701546252E+02 -0.18193590115E+02  0.12977073108E+03  0.16344363120E+03  0.80932762541E+02 0.  0.
         25    2    1    2    0    0  0.49081741139E+01 -0.42500491566E+02  0.46575381471E+03  0.48412983049E+03  0.12499877957E+03 0.  0.
        -11    1    4    4    0    0  0.63112476610E+02 -0.12404630330E+02  0.13671899362E+03  0.15109315926E+03  0.00000000000E+00 0.  1.
         12    1    4    4    0    0 -0.84109303579E+01 -0.57889597851E+01 -0.69482625443E+01  0.12350471945E+02  0.00000000000E+00 0. -1.
        -11    1    3    3    0    0 -0.38047340394E+02  0.43901094859E+02 -0.61909051043E+02  0.84897802339E+02  0.00000000000E+00 0.  1.
         12    1    3    3    0    0  0.23738374276E+02 -0.85341384664E+01 -0.68842584744E+02  0.73318779360E+02  0.00000000000E+00 0. -1.
          5    1    5    5  501    0 -0.20906052302E+02  0.26326304651E+02  0.41905065687E+02  0.53928303048E+02  0.47000000000E+01 0.  1.
         -5    1    5    5    0  501  0.25814226416E+02 -0.68826796217E+02  0.42384874902E+03  0.43020152744E+03  0.47000000000E+01 0.  1.
          1    1    1    2  502    0 -0.60952697951E+02  0.64649833685E+02 -0.26401750274E+04  0.26416697386E+04  0.00000000000E+00 0. -1.
          1    1    1    2  503    0  0.15651943704E+02 -0.39322708396E+02  0.11087822810E+04  0.11095897465E+04  0.00000000000E+00 0. -1.
<mgrwt>
<rscale>  0 0.66364425E+02</rscale>
<asrwt>0</asrwt>
<pdfrwt beam="1">  1        2 0.25664924E+00 0.42323265E+02</pdfrwt>
<pdfrwt beam="2">  1        2 0.41350510E+00 0.10406184E+03</pdfrwt>
<totfact> 0.74189798E+00</totfact>
</mgrwt>
</event>
<event>
13    1  0.1942437E-008  0.7325612E+02  0.7546771E-02  0.1395737E+00
         -3   -1    0    0    0  501 -0.00000000000E+00  0.00000000000E+00  0.76953348660E+03  0.76953348660E+03  0.00000000000E+00 0.  1.
          2   -1    0    0  503    0  0.00000000000E+00 -0.00000000000E+00 -0.27791340625E+04  0.27791340625E+04  0.00000000000E+00 0. -1.
         24    2    1    2    0    0 -0.73039209945E+02 -0.26678978175E+03 -0.11251730538E+03  0.30617926917E+03  0.67631997041E+02 0.  0.
         24    2    1    2    0    0  0.25149313075E+03 -0.10787311788E+03 -0.17878828251E+03  0.33656512477E+03  0.80158772923E+02 0.  0.
         25    2    1    2    0    0 -0.79340401557E+02  0.30603597078E+03 -0.78524837657E+03  0.85568237843E+03  0.12499762048E+03 0.  0.
        -11    1    3    3    0    0 -0.30433869453E+02 -0.90897715680E+02 -0.56948078360E+01  0.96026277456E+02  0.00000000000E+00 0.  1.
         12    1    3    3    0    0 -0.42605340492E+02 -0.17589206607E+03 -0.10682249754E+03  0.21015299172E+03  0.00000000000E+00 0. -1.
        -13    1    4    4    0    0  0.21692115149E+03 -0.87840361094E+02 -0.11369576519E+03  0.26018732102E+03  0.00000000000E+00 0.  1.
         14    1    4    4    0    0  0.34571979262E+02 -0.20032756786E+02 -0.65092517322E+02  0.76377803751E+02  0.00000000000E+00 0. -1.
          5    1    5    5  502    0 -0.86384316264E+02  0.10212118048E+03 -0.35772703324E+03  0.38194463723E+03  0.47000000000E+01 0. -1.
         -5    1    5    5    0  502  0.70439147074E+01  0.20391479030E+03 -0.42752134333E+03  0.47373774120E+03  0.47000000000E+01 0. -1.
          1    1    1    2  503    0 -0.66107498917E+02  0.31111129325E+02 -0.14896291033E+04  0.14914197831E+04  0.00000000000E+00 0. -1.
         -4    1    1    2    0  501 -0.33006020328E+02  0.37515799529E+02  0.55658249193E+03  0.55882099363E+03  0.00000000000E+00 0.  1.
<mgrwt>
<rscale>  0 0.60501942E+02</rscale>
<asrwt>0</asrwt>
<pdfrwt beam="2">  1        2 0.40869618E+00 0.73256122E+02</pdfrwt>
<pdfrwt beam="1">  1       -3 0.11316669E+00 0.49968316E+02</pdfrwt>
<totfact> 0.16332043E+00</totfact>
</mgrwt>
</event>
<event>
13    1  0.1942437E-008  0.2567487E+03  0.7546771E-02  0.1166647E+00
          2   -1    0    0  502    0  0.00000000000E+00  0.00000000000E+00  0.10921971501E+04  0.10921971501E+04  0.00000000000E+00 0. -1.
          2   -1    0    0  503    0 -0.00000000000E+00 -0.00000000000E+00 -0.10014621106E+04  0.10014621106E+04  0.00000000000E+00 0. -1.
         24    2    1    2    0    0  0.51338703610E+02  0.48878947022E+02 -0.92341202113E+02  0.14035742992E+03  0.78412349635E+02 0.  0.
         24    2    1    2    0    0 -0.86981634340E+02 -0.21682672598E+03  0.60744708269E+02  0.25480169340E+03  0.81574196693E+02 0.  0.
         25    2    1    2    0    0  0.68445845103E+02  0.29624394473E+03  0.22655538037E+03  0.39924656088E+03  0.12500066997E+03 0.  0.
        -11    1    3    3    0    0  0.13051357846E+02  0.59877095602E+02 -0.75152301137E+02  0.96971505534E+02  0.00000000000E+00 0.  1.
         12    1    3    3    0    0  0.38287345764E+02 -0.10998148581E+02 -0.17188900976E+02  0.43385924384E+02  0.00000000000E+00 0. -1.
        -13    1    4    4    0    0 -0.94644622507E+01 -0.11958213745E+03  0.50063073341E+02  0.12998374881E+03  0.00000000000E+00 0.  1.
         14    1    4    4    0    0 -0.77517172090E+02 -0.97244588535E+02  0.10681634928E+02  0.12481794459E+03  0.00000000000E+00 0. -1.
          5    1    5    5  501    0  0.84490320280E+02  0.29516510102E+03  0.19564540415E+03  0.36408826573E+03  0.47000000000E+01 0. -1.
         -5    1    5    5    0  501 -0.16044475177E+02  0.10788437171E+01  0.30909976221E+02  0.35158295145E+02  0.47000000000E+01 0. -1.
          1    1    1    2  502    0 -0.26915777262E+02 -0.24199554880E+03  0.56772057462E+03  0.61773210662E+03  0.00000000000E+00 0. -1.
          1    1    1    2  503    0 -0.58871371113E+01  0.11369938302E+03 -0.67194442165E+03  0.68152146985E+03  0.00000000000E+00 0. -1.
<mgrwt>
<rscale>  0 0.18119970E+03</rscale>
<asrwt>0</asrwt>
<pdfrwt beam="1">  1        2 0.16061723E+00 0.25674870E+03</pdfrwt>
<pdfrwt beam="2">  1        2 0.14727384E+00 0.12788120E+03</pdfrwt>
<totfact> 0.11193884E+02</totfact>
</mgrwt>
</event>
<event>
13    1  0.1942437E-008  0.4076204E+03  0.7546771E-02  0.1276997E+00
          2   -1    0    0  502    0  0.00000000000E+00  0.00000000000E+00  0.36905577962E+04  0.36905577962E+04  0.00000000000E+00 0. -1.
          2   -1    0    0  503    0 -0.00000000000E+00 -0.00000000000E+00 -0.15584985252E+04  0.15584985252E+04  0.00000000000E+00 0. -1.
         24    2    1    2    0    0 -0.17470894177E+02 -0.17456303335E+03  0.30113819542E+03  0.35758484570E+03  0.80032645679E+02 0.  0.
         24    2    1    2    0    0  0.16305739551E+03  0.55553158033E+02  0.92088845189E+03  0.94038794984E+03  0.81363921869E+02 0.  0.
         25    2    1    2    0    0  0.19574781751E+03 -0.15092964498E+03  0.18026024536E+04  0.18237591347E+04  0.12499923851E+03 0.  0.
        -13    1    4    4    0    0  0.15457521820E+03  0.25944169736E+02  0.69799551171E+03  0.71537705610E+03  0.00000000000E+00 0.  1.
         14    1    4    4    0    0  0.84821773059E+01  0.29608988296E+02  0.22289294019E+03  0.22501089375E+03  0.00000000000E+00 0. -1.
        -13    1    3    3    0    0 -0.43945598991E+02 -0.66124117905E+02  0.14972837144E+03  0.16947625159E+03  0.00000000000E+00 0.  1.
         14    1    3    3    0    0  0.26474704814E+02 -0.10843891545E+03  0.15140982398E+03  0.18810859411E+03  0.00000000000E+00 0. -1.
          5    1    5    5  501    0  0.27630896606E+02 -0.83648930634E+02  0.40707417710E+03  0.41652381169E+03  0.47000000000E+01 0.  1.
         -5    1    5    5    0  501  0.16811692091E+03 -0.67280714345E+02  0.13955282765E+04  0.14072353230E+04  0.47000000000E+01 0.  1.
          1    1    1    2  502    0 -0.21729923257E+02  0.12989942257E+02  0.58925677115E+03  0.58980036497E+03  0.00000000000E+00 0. -1.
          1    1    1    2  503    0 -0.31960439559E+03  0.25694957804E+03 -0.14818266011E+04  0.15375240262E+04  0.00000000000E+00 0. -1.
<mgrwt>
<rscale>  0 0.10158517E+03</rscale>
<asrwt>0</asrwt>
<pdfrwt beam="1">  1        2 0.54272909E+00 0.25316559E+02</pdfrwt>
<pdfrwt beam="2">  1        2 0.22919096E+00 0.40762041E+03</pdfrwt>
<totfact> 0.32700640E+00</totfact>
</mgrwt>
</event>
<event>
13    1  0.1942437E-008  0.9380872E+02  0.7546771E-02  0.1307730E+00
          2   -1    0    0  502    0  0.00000000000E+00  0.00000000000E+00  0.14094434212E+04  0.14094434212E+04  0.00000000000E+00 0. -1.
          2   -1    0    0  503    0 -0.00000000000E+00 -0.00000000000E+00 -0.79827662600E+03  0.79827662600E+03  0.00000000000E+00 0. -1.
         24    2    1    2    0    0  0.90887338206E+00 -0.16391417061E+02 -0.24260670094E+03  0.25708818580E+03  0.83467474680E+02 0.  0.
         24    2    1    2    0    0  0.44153152646E+02 -0.15279528771E+02  0.12868100167E+03  0.15830765039E+03  0.79495579079E+02 0.  0.
         25    2    1    2    0    0  0.98916321379E+02  0.33282622326E+02  0.52148063756E+03  0.54631534554E+03  0.12500491924E+03 0.  0.
        -13    1    3    3    0    0  0.41187158751E+02 -0.16659607144E+02 -0.13897127720E+03  0.14590044703E+03  0.00000000000E+00 0.  1.
         14    1    3    3    0    0 -0.40278285369E+02  0.26819008250E+00 -0.10363542374E+03  0.11118773877E+03  0.00000000000E+00 0. -1.
        -13    1    4    4    0    0 -0.92362494209E+01 -0.33962453250E+02  0.57093908694E+02  0.67070641447E+02  0.00000000000E+00 0.  1.
         14    1    4    4    0    0  0.53389402067E+02  0.18682924479E+02  0.71587092979E+02  0.91237008946E+02  0.00000000000E+00 0. -1.
          5    1    5    5  501    0  0.48841963306E+02  0.43453971010E+02  0.46660803499E+03  0.47118885099E+03  0.47000000000E+01 0.  1.
         -5    1    5    5    0  501  0.50074358074E+02 -0.10171348683E+02  0.54872602570E+02  0.75126494550E+02  0.47000000000E+01 0.  1.
          1    1    1    2  502    0 -0.76318328640E+02  0.62324480603E+02  0.71725850887E+03  0.72399488722E+03  0.00000000000E+00 0. -1.
          1    1    1    2  503    0 -0.67660018767E+02 -0.63936157098E+02 -0.51364665201E+03  0.52201397821E+03  0.00000000000E+00 0. -1.
<mgrwt>
<rscale>  0 0.88015616E+02</rscale>
<asrwt>0</asrwt>
<pdfrwt beam="1">  1        2 0.20727109E+00 0.82580258E+02</pdfrwt>
<pdfrwt beam="2">  1        2 0.11739362E+00 0.93808724E+02</pdfrwt>
<totfact> 0.10975496E+02</totfact>
</mgrwt>
</event>
<event>
13    1  0.1942437E-008  0.8935802E+02  0.7546771E-02  0.1338173E+00
          2   -1    0    0  503    0  0.00000000000E+00  0.00000000000E+00  0.20043994742E+04  0.20043994742E+04  0.00000000000E+00 0. -1.
          2   -1    0    0  502    0 -0.00000000000E+00 -0.00000000000E+00 -0.22597678180E+04  0.22597678180E+04  0.00000000000E+00 0. -1.
         24    2    1    2    0    0 -0.14027001663E+03 -0.62392216931E+00 -0.35204455232E+03  0.38686081872E+03  0.77780842081E+02 0.  0.
         24    2    1    2    0    0 -0.68434707759E+02  0.11850949890E+03 -0.52429130869E+02  0.16581625604E+03  0.77578389057E+02 0.  0.
         25    2    1    2    0    0  0.18713675973E+03 -0.55140706016E+02  0.19240662778E+03  0.30117289119E+03  0.12499654263E+03 0.  0.
        -11    1    3    3    0    0 -0.80641514857E+02  0.29771375401E+02 -0.25398833791E+03  0.26814075503E+03  0.00000000000E+00 0.  1.
         12    1    3    3    0    0 -0.59628501775E+02 -0.30395297570E+02 -0.98056214415E+02  0.11872006369E+03  0.00000000000E+00 0. -1.
        -11    1    4    4    0    0 -0.37754554424E+02  0.52039984020E+01 -0.23181998521E+01  0.38181959479E+02  0.00000000000E+00 0.  1.
         12    1    4    4    0    0 -0.30680153335E+02  0.11330550050E+03 -0.50110931017E+02  0.12763429656E+03  0.00000000000E+00 0. -1.
          5    1    5    5  501    0  0.17535943954E+03 -0.27133744990E+02  0.20205312019E+03  0.26895116012E+03  0.47000000000E+01 0.  1.
         -5    1    5    5    0  501  0.11777320192E+02 -0.28006961026E+02 -0.96464924119E+01  0.32221731062E+02  0.47000000000E+01 0.  1.
          1    1    1    2  502    0 -0.42599129681E+02 -0.78733013440E+02 -0.17249988584E+04  0.17273200731E+04  0.00000000000E+00 0. -1.
          1    1    1    2  503    0  0.64167094340E+02  0.15988142725E+02  0.16816975701E+04  0.16829972531E+04  0.00000000000E+00 0. -1.
<mgrwt>
<rscale>  0 0.76871003E+02</rscale>
<asrwt>0</asrwt>
<pdfrwt beam="1">  1        2 0.29476463E+00 0.66128940E+02</pdfrwt>
<pdfrwt beam="2">  1        2 0.33231880E+00 0.89358019E+02</pdfrwt>
<totfact> 0.10317238E+01</totfact>
</mgrwt>
</event>
<event>
13    1  0.1942437E-008  0.7497976E+02  0.7546771E-02  0.1376238E+00
          2   -1    0    0  503    0  0.00000000000E+00  0.00000000000E+00  0.85964274241E+03  0.85964274241E+03  0.00000000000E+00 0. -1.
          2   -1    0    0  502    0 -0.00000000000E+00 -0.00000000000E+00 -0.22759575989E+04  0.22759575989E+04  0.00000000000E+00 0. -1.
         24    2    1    2    0    0  0.22914340293E+02 -0.33790358684E+02 -0.78231442919E+02  0.11765052122E+03  0.77811510401E+02 0.  0.
         24    2    1    2    0    0 -0.79467573458E+01  0.46429570033E+02 -0.25625147243E+02  0.10031049898E+03  0.84774359969E+02 0.  0.
         25    2    1    2    0    0  0.91915764364E+01 -0.33171780264E+02  0.44671935284E+02  0.13713424431E+03  0.12500146830E+03 0.  0.
        -11    1    4    4    0    0  0.24436208621E+02  0.19912711765E+02 -0.44388604754E+02  0.54442562519E+02  0.00000000000E+00 0.  1.
         12    1    4    4    0    0 -0.32382965967E+02  0.26516858268E+02  0.18763457511E+02  0.45867936458E+02  0.00000000000E+00 0. -1.
        -13    1    3    3    0    0  0.61573099165E+01  0.16463262960E+02 -0.58561927253E+02  0.61142872162E+02  0.00000000000E+00 0.  1.
         14    1    3    3    0    0  0.16757030377E+02 -0.50253621644E+02 -0.19669515666E+02  0.56507649057E+02  0.00000000000E+00 0. -1.
          5    1    5    5  501    0  0.33232799198E+02  0.75616076703E+00  0.77166044046E+02  0.84152712822E+02  0.47000000000E+01 0. -1.
         -5    1    5    5    0  501 -0.24041222761E+02 -0.33927941031E+02 -0.32494108762E+02  0.52981531487E+02  0.47000000000E+01 0. -1.
          1    1    1    2  502    0 -0.66221112045E+01  0.74929933202E+02 -0.20669848978E+04  0.20683531892E+04  0.00000000000E+00 0. -1.
          1    1    1    2  503    0 -0.17537048179E+02 -0.54397364288E+02  0.70985469623E+03  0.71215188763E+03  0.00000000000E+00 0. -1.
<mgrwt>
<rscale>  0 0.65463122E+02</rscale>
<asrwt>0</asrwt>
<pdfrwt beam="1">  1        2 0.12641805E+00 0.57154364E+02</pdfrwt>
<pdfrwt beam="2">  1        2 0.33469964E+00 0.74979759E+02</pdfrwt>
<totfact> 0.39569670E+01</totfact>
</mgrwt>
</event>
<event>
13    1  0.1942437E-008  0.8058724E+02  0.7546771E-02  0.1451061E+00
          2   -1    0    0  503    0  0.00000000000E+00  0.00000000000E+00  0.20893679248E+04  0.20893679248E+04  0.00000000000E+00 0. -1.
          2   -1    0    0  502    0 -0.00000000000E+00 -0.00000000000E+00 -0.53160139798E+03  0.53160139798E+03  0.00000000000E+00 0. -1.
         24    2    1    2    0    0  0.85950634933E+02  0.12954775611E+02 -0.18856032398E+03  0.22281016630E+03  0.80833387712E+02 0.  0.
         24    2    1    2    0    0  0.64414252272E+02 -0.43666243551E+02 -0.25092760962E+02  0.11265544758E+03  0.77496235359E+02 0.  0.
         25    2    1    2    0    0 -0.46537758392E+02 -0.11322760686E+01  0.10605680284E+03  0.17041288862E+03  0.12500184868E+03 0.  0.
        -11    1    3    3    0    0 -0.73226344061E+01  0.20794964689E+02 -0.18885298468E+02  0.29029399395E+02  0.00000000000E+00 0.  1.
         12    1    3    3    0    0  0.93273269339E+02 -0.78401890776E+01 -0.16967502551E+03  0.19378076690E+03  0.00000000000E+00 0. -1.
        -11    1    4    4    0    0  0.70919999291E+02 -0.11124642851E+02 -0.32263336351E+02  0.78704045960E+02  0.00000000000E+00 0.  1.
         12    1    4    4    0    0 -0.65057470199E+01 -0.32541600700E+02  0.71705753890E+01  0.33951401618E+02  0.00000000000E+00 0. -1.
          5    1    5    5  501    0 -0.82952655292E+02 -0.28141523156E+02  0.72661816551E+02  0.11390749725E+03  0.47000000000E+01 0.  1.
         -5    1    5    5    0  501  0.36414896900E+02  0.27009247087E+02  0.33394986293E+02  0.56505391371E+02  0.47000000000E+01 0.  1.
          1    1    1    2  502    0 -0.77571481531E+02  0.17877549043E+02 -0.21769761098E+03  0.23179558092E+03  0.00000000000E+00 0. -1.
          1    1    1    2  503    0 -0.26255647281E+02  0.13966194966E+02  0.18830604199E+04  0.18832952394E+04  0.00000000000E+00 0. -1.
<mgrwt>
<rscale>  0 0.48954992E+02</rscale>
<asrwt>0</asrwt>
<pdfrwt beam="1">  1        2 0.30725999E+00 0.29739092E+02</pdfrwt>
<pdfrwt beam="2">  1        2 0.78176677E-01 0.80587236E+02</pdfrwt>
<totfact> 0.92577147E+01</totfact>
</mgrwt>
</event>
<event>
13    1  0.1942437E-008  0.1013147E+03  0.7546771E-02  0.1388678E+00
          2   -1    0    0  502    0  0.00000000000E+00  0.00000000000E+00  0.15196554787E+04  0.15196554787E+04  0.00000000000E+00 0. -1.
          2   -1    0    0  503    0 -0.00000000000E+00 -0.00000000000E+00 -0.37005571875E+04  0.37005571875E+04  0.00000000000E+00 0. -1.
         24    2    1    2    0    0 -0.82357001988E+01  0.88743223346E+02 -0.11154578168E+04  0.11218927445E+04  0.80336807673E+02 0.  0.
         24    2    1    2    0    0 -0.93509601623E+02 -0.88670814976E+02 -0.80132407122E+03  0.81544237338E+03  0.78863414605E+02 0.  0.
         25    2    1    2    0    0  0.15590809673E+03  0.10083691745E+03  0.40941980113E+03  0.46660996697E+03  0.12499947666E+03 0.  0.
        -11    1    4    4    0    0 -0.22077882103E+02 -0.70479535763E+02 -0.48846716235E+03  0.49401919652E+03  0.00000000000E+00 0.  1.
         12    1    4    4    0    0 -0.71431719519E+02 -0.18191279212E+02 -0.31285690888E+03  0.32142317686E+03  0.00000000000E+00 0. -1.
        -13    1    3    3    0    0 -0.32659773303E+01  0.45054688403E+02 -0.18642213032E+03  0.19181710619E+03  0.00000000000E+00 0.  1.
         14    1    3    3    0    0 -0.49697228685E+01  0.43688534943E+02 -0.92903568646E+03  0.93007563829E+03  0.00000000000E+00 0. -1.
          5    1    5    5  501    0  0.86366582351E+02 -0.29801861212E+00  0.25517206243E+03  0.26943300987E+03  0.47000000000E+01 0. -1.
         -5    1    5    5    0  501  0.69541514381E+02  0.10113493606E+03  0.15424773870E+03  0.19717695710E+03  0.47000000000E+01 0. -1.
          1    1    1    2  502    0 -0.74566036280E+02 -0.68577528533E+02  0.10687589701E+04  0.10735495831E+04  0.00000000000E+00 0. -1.
          1    1    1    2  503    0  0.20403241369E+02 -0.32331797289E+02 -0.17422985921E+04  0.17427179982E+04  0.00000000000E+00 0. -1.
<mgrwt>
<rscale>  0 0.62236652E+02</rscale>
<asrwt>0</asrwt>
<pdfrwt beam="1">  1        2 0.22347875E+00 0.10131474E+03</pdfrwt>
<pdfrwt beam="2">  1        2 0.54419958E+00 0.38231366E+02</pdfrwt>
<totfact> 0.34114879E+00</totfact>
</mgrwt>
</event>
<event>
13    1  0.1942437E-008  0.6765938E+02  0.7546771E-02  0.1438471E+00
          2   -1    0    0  503    0  0.00000000000E+00  0.00000000000E+00  0.11297542639E+04  0.11297542639E+04  0.00000000000E+00 0. -1.
          2   -1    0    0  502    0 -0.00000000000E+00 -0.00000000000E+00 -0.20794084574E+04  0.20794084574E+04  0.00000000000E+00 0. -1.
         24    2    1    2    0    0 -0.20391924450E+02 -0.71964111950E+00 -0.24155499664E+03  0.25485924789E+03  0.78664295386E+02 0.  0.
         24    2    1    2    0    0  0.10051751503E+03  0.11977967727E+03  0.34356760581E+03  0.38602437676E+03  0.80778572489E+02 0.  0.
         25    2    1    2    0    0 -0.84160178170E+02 -0.62663375338E+02  0.39252892937E+03  0.42510414714E+03  0.12499976530E+03 0.  0.
        -11    1    3    3    0    0  0.24774274206E+02 -0.87312435473E+01 -0.37970808993E+02  0.46171220602E+02  0.00000000000E+00 0.  1.
         12    1    3    3    0    0 -0.45166198656E+02  0.80116024278E+01 -0.20358418765E+03  0.20868802729E+03  0.00000000000E+00 0. -1.
        -13    1    4    4    0    0  0.40810689353E+02 -0.12340839769E+01  0.71721368296E+02  0.82528722267E+02  0.00000000000E+00 0.  1.
         14    1    4    4    0    0  0.59706825678E+02  0.12101376125E+03  0.27184623752E+03  0.30349565449E+03  0.00000000000E+00 0. -1.
          5    1    5    5  501    0  0.27194887628E+02 -0.36819646776E+02  0.79971570464E+02  0.92264784096E+02  0.47000000000E+01 0. -1.
         -5    1    5    5    0  501 -0.11135506580E+03 -0.25843728563E+02  0.31255735891E+03  0.33283936304E+03  0.47000000000E+01 0. -1.
          1    1    1    2  502    0 -0.34822131230E+02 -0.58030846595E+02 -0.17919626551E+04  0.17932401728E+04  0.00000000000E+00 0. -1.
          1    1    1    2  503    0  0.38856718819E+02  0.16341857822E+01  0.34776692307E+03  0.34993477670E+03  0.00000000000E+00 0. -1.
<mgrwt>
<rscale>  0 0.51296644E+02</rscale>
<asrwt>0</asrwt>
<pdfrwt beam="1">  1        2 0.16614033E+00 0.38891068E+02</pdfrwt>
<pdfrwt beam="2">  1        2 0.30579536E+00 0.67659384E+02</pdfrwt>
<totfact> 0.35808258E+01</totfact>
</mgrwt>
</event>
<event>
13    1  0.1942437E-008  0.4980381E+02  0.7546771E-02  0.1491037E+00
          2   -1    0    0  502    0  0.00000000000E+00  0.00000000000E+00  0.34655751077E+04  0.34655751077E+04  0.00000000000E+00 0. -1.
          2   -1    0    0  503    0 -0.00000000000E+00 -0.00000000000E+00 -0.11363815219E+04  0.11363815219E+04  0.00000000000E+00 0. -1.
         24    2    1    2    0    0 -0.91482545367E+03 -0.58464417606E+03  0.25991416869E+03  0.11191646148E+04  0.79117866078E+02 0.  0.
         24    2    1    2    0    0  0.78775580946E+03  0.40481194182E+03  0.27844284346E+03  0.93181798533E+03  0.79513628594E+02 0.  0.
         25    2    1    2    0    0  0.13089033901E+03  0.16432600579E+03  0.59421885156E+03  0.64253778539E+03  0.12499378019E+03 0.  0.
        -11    1    4    4    0    0  0.30490222562E+03  0.19472952241E+03  0.13389655172E+03  0.38576319245E+03  0.00000000000E+00 0.  1.
         12    1    4    4    0    0  0.48285358384E+03  0.21008241941E+03  0.14454629174E+03  0.54605479288E+03  0.00000000000E+00 0. -1.
        -11    1    3    3    0    0 -0.21612780541E+03 -0.17732780144E+03  0.77174864584E+02  0.29002127019E+03  0.00000000000E+00 0.  1.
         12    1    3    3    0    0 -0.69869764826E+03 -0.40731637462E+03  0.18273930411E+03  0.82914334465E+03  0.00000000000E+00 0. -1.
          5    1    5    5  501    0  0.11701808729E+03  0.18500484697E+03  0.52521195508E+03  0.56902523135E+03  0.47000000000E+01 0.  1.
         -5    1    5    5    0  501  0.13872251713E+02 -0.20678841179E+02  0.69006896477E+02  0.73512554040E+02  0.47000000000E+01 0.  1.
          1    1    1    2  502    0  0.28051878307E+02 -0.22805403461E+02  0.15505706750E+04  0.15509920737E+04  0.00000000000E+00 0. -1.
          1    1    1    2  503    0 -0.31872573108E+02  0.38311631917E+02 -0.35395295291E+03  0.35744417037E+03  0.00000000000E+00 0. -1.
<mgrwt>
<rscale>  0 0.42432608E+02</rscale>
<asrwt>0</asrwt>
<pdfrwt beam="1">  1        2 0.50964340E+00 0.36152376E+02</pdfrwt>
<pdfrwt beam="2">  1        2 0.16711493E+00 0.49803815E+02</pdfrwt>
<totfact> 0.77307147E+00</totfact>
</mgrwt>
</event>
<event>
13    1  0.1942437E-008  0.8844025E+02  0.7546771E-02  0.1348673E+00
          2   -1    0    0  502    0  0.00000000000E+00  0.00000000000E+00  0.31057850953E+04  0.31057850953E+04  0.00000000000E+00 0. -1.
          2   -1    0    0  503    0 -0.00000000000E+00 -0.00000000000E+00 -0.10322284284E+04  0.10322284284E+04  0.00000000000E+00 0. -1.
         24    2    1    2    0    0 -0.24002904760E+03 -0.11595540491E+03 -0.22981426366E+03  0.36104562352E+03  0.80496874845E+02 0.  0.
         24    2    1    2    0    0  0.27213664672E+03 -0.14139584566E+02 -0.17528751045E+03  0.33385998830E+03  0.80489118073E+02 0.  0.
         25    2    1    2    0    0  0.10914855048E+02  0.15593946148E+00  0.21574006041E+04  0.21610462794E+04  0.12499798848E+03 0.  0.
        -11    1    3    3    0    0 -0.92921357275E+01  0.82782501331E+01 -0.26810420344E+02  0.29557940569E+02  0.00000000000E+00 0.  1.
         12    1    3    3    0    0 -0.23073691187E+03 -0.12423365504E+03 -0.20300384332E+03  0.33148768295E+03  0.00000000000E+00 0. -1.
        -13    1    4    4    0    0  0.34860947434E+01  0.10662414345E+02 -0.19010754305E+02  0.22073710958E+02  0.00000000000E+00 0.  1.
         14    1    4    4    0    0  0.26865055198E+03 -0.24801998911E+02 -0.15627675614E+03  0.31178627734E+03  0.00000000000E+00 0. -1.
          5    1    5    5  501    0  0.50146611251E+02 -0.38416359487E+02  0.14976206039E+04  0.14989596601E+04  0.47000000000E+01 0. -1.
         -5    1    5    5    0  501 -0.39231756203E+02  0.38572298949E+02  0.65978000012E+03  0.66208661933E+03  0.47000000000E+01 0. -1.
          1    1    1    2  502    0 -0.44675014245E+02  0.41586201201E+02  0.79641840079E+03  0.79875374062E+03  0.00000000000E+00 0. -1.
          1    1    1    2  503    0  0.16525600768E+01  0.88352848810E+02 -0.47516056386E+03  0.48330789182E+03  0.00000000000E+00 0. -1.
<mgrwt>
<rscale>  0 0.73470734E+02</rscale>
<asrwt>0</asrwt>
<pdfrwt beam="1">  1        2 0.45673310E+00 0.61034982E+02</pdfrwt>
<pdfrwt beam="2">  1        2 0.15179830E+00 0.88440245E+02</pdfrwt>
<totfact> 0.12144854E+01</totfact>
</mgrwt>
</event>
<event>
13    1  0.1942437E-008  0.8413341E+02  0.7546771E-02  0.1543284E+00
         -3   -1    0    0    0  501 -0.00000000000E+00  0.00000000000E+00  0.61614559816E+02  0.61614559816E+02  0.00000000000E+00 0.  1.
          2   -1    0    0  503    0  0.00000000000E+00 -0.00000000000E+00 -0.37227221844E+04  0.37227221844E+04  0.00000000000E+00 0. -1.
         24    2    1    2    0    0  0.93957158948E+01  0.40539664650E+02 -0.34927935277E+03  0.36062595223E+03  0.79518974229E+02 0.  0.
         24    2    1    2    0    0  0.10221010305E+03  0.34385911619E+02 -0.74356891951E+03  0.75567997564E+03  0.80797224169E+02 0.  0.
         25    2    1    2    0    0 -0.75796196204E+02  0.11277000697E+02 -0.10240930875E+04  0.10345345062E+04  0.12499103424E+03 0.  0.
        -11    1    4    4    0    0  0.10074173718E+03  0.54529142597E+02 -0.63152632313E+03  0.64183161484E+03  0.00000000000E+00 0.  1.
         12    1    4    4    0    0  0.14683658746E+01 -0.20143230978E+02 -0.11204259638E+03  0.11384836080E+03  0.00000000000E+00 0. -1.
        -13    1    3    3    0    0  0.19370317355E+02 -0.25545844898E+01 -0.18515941380E+02  0.26917934199E+02  0.00000000000E+00 0.  1.
         14    1    3    3    0    0 -0.99746014599E+01  0.43094249140E+02 -0.33076341139E+03  0.33370801803E+03  0.00000000000E+00 0. -1.
          5    1    5    5  502    0 -0.78649950381E+02  0.32854806560E+02 -0.99086363203E+03  0.99453410213E+03  0.47000000000E+01 0. -1.
         -5    1    5    5    0  502  0.28537541770E+01 -0.21577805863E+02 -0.33229455459E+02  0.40000404109E+02  0.47000000000E+01 0. -1.
          1    1    1    2  503    0 -0.14196072170E+02 -0.50536615502E+01 -0.15492890036E+04  0.15493622832E+04  0.00000000000E+00 0. -1.
         -4    1    1    2    0  501 -0.21613550574E+02 -0.81148915417E+02  0.51227387248E+01  0.84134026967E+02  0.00000000000E+00 0.  1.
<mgrwt>
<rscale>  0 0.35606001E+02</rscale>
<asrwt>0</asrwt>
<pdfrwt beam="2">  1        2 0.54745904E+00 0.15068774E+02</pdfrwt>
<pdfrwt beam="1">  1       -3 0.90609664E-02 0.84133407E+02</pdfrwt>
<totfact> 0.82446606E+01</totfact>
</mgrwt>
</event>
<event>
13    1  0.1942437E-008  0.1004102E+03  0.7546771E-02  0.1347382E+00
          2   -1    0    0  503    0  0.00000000000E+00  0.00000000000E+00  0.70286512562E+03  0.70286512562E+03  0.00000000000E+00 0. -1.
          2   -1    0    0  502    0 -0.00000000000E+00 -0.00000000000E+00 -0.18948657547E+04  0.18948657547E+04  0.00000000000E+00 0. -1.
         24    2    1    2    0    0 -0.21378979949E+02 -0.66372812759E+02 -0.21405469665E+03  0.23864767551E+03  0.79188943731E+02 0.  0.
         24    2    1    2    0    0 -0.76624605545E+02 -0.93412700626E+02 -0.42415043720E+02  0.15190677175E+03  0.81727403945E+02 0.  0.
         25    2    1    2    0    0 -0.62662669046E+02  0.12957219777E+03  0.18492609079E+03  0.26558928827E+03  0.12499778583E+03 0.  0.
        -11    1    3    3    0    0  0.28987508763E+02 -0.33580798120E+02 -0.10784272758E+03  0.11661046076E+03  0.00000000000E+00 0.  1.
         12    1    3    3    0    0 -0.50366488713E+02 -0.32792014638E+02 -0.10621196907E+03  0.12203721475E+03  0.00000000000E+00 0. -1.
        -13    1    4    4    0    0  0.81428288471E+01 -0.46220047827E+02 -0.25540204350E+02  0.53431269131E+02  0.00000000000E+00 0.  1.
         14    1    4    4    0    0 -0.84767434392E+02 -0.47192652799E+02 -0.16874839369E+02  0.98475502615E+02  0.00000000000E+00 0. -1.
          5    1    5    5  501    0 -0.84686214071E+02  0.96628017987E+02  0.75469903930E+02  0.14908563014E+03  0.47000000000E+01 0.  1.
         -5    1    5    5    0  501  0.22023545024E+02  0.32944179786E+02  0.10945618686E+03  0.11650365814E+03  0.47000000000E+01 0.  1.
          1    1    1    2  502    0  0.10651937493E+03  0.25446825870E+02 -0.15272535230E+04  0.15311751179E+04  0.00000000000E+00 0. -1.
          1    1    1    2  503    0  0.54146879611E+02  0.47664897418E+01  0.40679654351E+03  0.41041202688E+03  0.00000000000E+00 0. -1.
<mgrwt>
<rscale>  0 0.73877773E+02</rscale>
<asrwt>0</asrwt>
<pdfrwt beam="1">  1        2 0.10336252E+00 0.54356269E+02</pdfrwt>
<pdfrwt beam="2">  1        2 0.27865673E+00 0.10041023E+03</pdfrwt>
<totfact> 0.73920669E+01</totfact>
</mgrwt>
</event>
<event>
13    1  0.1942437E-008  0.2114272E+02  0.7546771E-02  0.1761524E+00
          2   -1    0    0  503    0  0.00000000000E+00  0.00000000000E+00  0.37942368546E+03  0.37942368546E+03  0.00000000000E+00 0. -1.
          2   -1    0    0  502    0 -0.00000000000E+00 -0.00000000000E+00 -0.17178889533E+04  0.17178889533E+04  0.00000000000E+00 0. -1.
         24    2    1    2    0    0 -0.15943626292E+03 -0.80906692870E+02 -0.88563854946E+03  0.90696185842E+03  0.79109780949E+02 0.  0.
         24    2    1    2    0    0  0.10696866272E+03  0.16465649996E+03 -0.94039220331E+02  0.23157763660E+03  0.78935220456E+02 0.  0.
         25    2    1    2    0    0  0.57773279433E+02 -0.93247738534E+02  0.25157434034E+03  0.30157089236E+03  0.12498984695E+03 0.  0.
        -13    1    4    4    0    0  0.10083686994E+03  0.15112815562E+03 -0.10786291204E+03  0.21128701227E+03  0.00000000000E+00 0.  1.
         14    1    4    4    0    0  0.61317927760E+01  0.13528344342E+02  0.13823691705E+02  0.20290624329E+02  0.00000000000E+00 0. -1.
        -13    1    3    3    0    0  0.27726049847E+01 -0.10260483099E+02 -0.14882766309E+03  0.14920669607E+03  0.00000000000E+00 0.  1.
         14    1    3    3    0    0 -0.16220886791E+03 -0.70646209771E+02 -0.73681088638E+03  0.75775516235E+03  0.00000000000E+00 0. -1.
          5    1    5    5  501    0  0.81540090768E+02 -0.93781974660E+02  0.24751387216E+03  0.27700009401E+03  0.47000000000E+01 0.  1.
         -5    1    5    5    0  501 -0.23766811335E+02  0.53423612581E+00  0.40604681816E+01  0.24570798342E+02  0.47000000000E+01 0.  1.
          1    1    1    2  502    0 -0.21057122090E+02  0.19818713390E+01 -0.63032840669E+03  0.63068314587E+03  0.00000000000E+00 0. -1.
          1    1    1    2  503    0  0.15751442861E+02  0.75160601036E+01  0.19966568264E+02  0.26519105564E+02  0.00000000000E+00 0. -1.
<mgrwt>
<rscale>  0 0.19209348E+02</rscale>
<asrwt>0</asrwt>
<pdfrwt beam="1">  1        2 0.55797601E-01 0.17452768E+02</pdfrwt>
<pdfrwt beam="2">  1        2 0.25263073E+00 0.21142724E+02</pdfrwt>
<totfact> 0.19969271E+02</totfact>
</mgrwt>
</event>
<event>
13    1  0.1942437E-008  0.4374501E+02  0.7546771E-02  0.1509647E+00
          2   -1    0    0  503    0  0.00000000000E+00  0.00000000000E+00  0.20199489922E+04  0.20199489922E+04  0.00000000000E+00 0. -1.
          2   -1    0    0  502    0 -0.00000000000E+00 -0.00000000000E+00 -0.19168270997E+04  0.19168270997E+04  0.00000000000E+00 0. -1.
         24    2    1    2    0    0  0.46519995950E+03 -0.23653525023E+03 -0.28051020274E+03  0.60029584051E+03  0.96484171581E+02 0.  0.
         24    2    1    2    0    0 -0.46676031533E+03  0.41044106903E+03 -0.13499163322E+03  0.64103247150E+03  0.79829977856E+02 0.  0.
         25    2    1    2    0    0  0.29923127070E+02 -0.12801664319E+03  0.49189023548E+03  0.52427598252E+03  0.12500259043E+03 0.  0.
        -11    1    3    3    0    0  0.11678974260E+03 -0.48875969178E+02 -0.24449335093E+02  0.12894368665E+03  0.00000000000E+00 0.  1.
         12    1    3    3    0    0  0.34841021690E+03 -0.18765928105E+03 -0.25606086765E+03  0.47135215386E+03  0.00000000000E+00 0. -1.
        -11    1    4    4    0    0 -0.35648863306E+03  0.30845731048E+03 -0.66969262136E+02  0.47614592297E+03  0.00000000000E+00 0.  1.
         12    1    4    4    0    0 -0.11027168227E+03  0.10198375855E+03 -0.68022371082E+02  0.16488654853E+03  0.00000000000E+00 0. -1.
          5    1    5    5  501    0  0.49537259731E+02 -0.11347284505E+03  0.23037548293E+03  0.26158168858E+03  0.47000000000E+01 0. -1.
         -5    1    5    5    0  501 -0.19614132661E+02 -0.14543798143E+02  0.26151475255E+03  0.26269429394E+03  0.47000000000E+01 0. -1.
          1    1    1    2  502    0  0.13612481354E+02 -0.33565779655E+02 -0.10714776417E+04  0.10720896875E+04  0.00000000000E+00 0. -1.
          1    1    1    2  503    0 -0.41975252595E+02 -0.12323395955E+02  0.10982111347E+04  0.10990821099E+04  0.00000000000E+00 0. -1.
<mgrwt>
<rscale>  0 0.39805630E+02</rscale>
<asrwt>0</asrwt>
<pdfrwt beam="1">  1        2 0.29705132E+00 0.43745008E+02</pdfrwt>
<pdfrwt beam="2">  1        2 0.28188634E+00 0.36221005E+02</pdfrwt>
<totfact> 0.17100199E+01</totfact>
</mgrwt>
</event>
<event>
13    1  0.1942437E-008  0.1810187E+03  0.7546771E-02  0.1294915E+00
          2   -1    0    0  503    0  0.00000000000E+00  0.00000000000E+00  0.28754072929E+04  0.28754072929E+04  0.00000000000E+00 0. -1.
          2   -1    0    0  502    0 -0.00000000000E+00 -0.00000000000E+00 -0.21259177127E+04  0.21259177127E+04  0.00000000000E+00 0. -1.
         24    2    1    2    0    0 -0.89639026079E+02 -0.11160527352E+02 -0.12388781984E+03  0.17308213352E+03  0.80308907795E+02 0.  0.
         24    2    1    2    0    0 -0.21163897991E+02  0.27435267974E+02  0.59206055057E+01  0.85990851372E+02  0.78477821346E+02 0.  0.
         25    2    1    2    0    0 -0.20953002626E+03  0.20485491595E+02  0.61916792217E+03  0.66581746651E+03  0.12498598158E+03 0.  0.
        -11    1    4    4    0    0  0.42422337315E+01 -0.25403382818E+02  0.89957014192E+01  0.27280964969E+02  0.00000000000E+00 0.  1.
         12    1    4    4    0    0 -0.25406131722E+02  0.52838650792E+02 -0.30750959135E+01  0.58709886403E+02  0.00000000000E+00 0. -1.
        -13    1    3    3    0    0 -0.12033778214E+02 -0.38171359624E+01 -0.85066661965E+02  0.85998368141E+02  0.00000000000E+00 0.  1.
         14    1    3    3    0    0 -0.77605247865E+02 -0.73433913895E+01 -0.38821157871E+02  0.87083765374E+02  0.00000000000E+00 0. -1.
          5    1    5    5  501    0 -0.10315482823E+03 -0.35364625031E+01  0.13782721172E+03  0.17225520441E+03  0.47000000000E+01 0.  1.
         -5    1    5    5    0  501 -0.10637519803E+03  0.24021954098E+02  0.48134071045E+03  0.49356226210E+03  0.47000000000E+01 0.  1.
          1    1    1    2  502    0  0.35688456016E+03 -0.54177051517E+01 -0.18971609964E+04  0.19304444532E+04  0.00000000000E+00 0. -1.
          1    1    1    2  503    0 -0.36551609833E+02 -0.31342527065E+02  0.21454498687E+04  0.21459901010E+04  0.00000000000E+00 0. -1.
<mgrwt>
<rscale>  0 0.93359295E+02</rscale>
<asrwt>0</asrwt>
<pdfrwt beam="1">  1        2 0.42285401E+00 0.48149498E+02</pdfrwt>
<pdfrwt beam="2">  1        2 0.31263496E+00 0.18101867E+03</pdfrwt>
<totfact> 0.43931551E+00</totfact>
</mgrwt>
</event>
<event>
13    1  0.1942437E-008  0.1558574E+03  0.7546771E-02  0.1392242E+00
          2   -1    0    0  502    0  0.00000000000E+00  0.00000000000E+00  0.18187148897E+04  0.18187148897E+04  0.00000000000E+00 0. -1.
          2   -1    0    0  503    0 -0.00000000000E+00 -0.00000000000E+00 -0.33457261178E+04  0.33457261178E+04  0.00000000000E+00 0. -1.
         24    2    1    2    0    0 -0.17253895636E+03 -0.40921296843E+03 -0.49141850076E+03  0.66744382885E+03  0.82244615584E+02 0.  0.
         24    2    1    2    0    0  0.29183272951E+03  0.38328351224E+03 -0.58832920029E+03  0.76510035380E+03  0.84703664035E+02 0.  0.
         25    2    1    2    0    0 -0.14454456739E+03 -0.11623615608E+03  0.17922902203E+03  0.28662189976E+03  0.12500038057E+03 0.  0.
        -11    1    4    4    0    0  0.29853021454E+02  0.57832752354E+02 -0.42512362487E+02  0.77737578423E+02  0.00000000000E+00 0.  1.
         12    1    4    4    0    0  0.26197970806E+03  0.32545075989E+03 -0.54581683780E+03  0.68736277538E+03  0.00000000000E+00 0. -1.
        -11    1    3    3    0    0 -0.79964414739E+02 -0.99648998201E+02 -0.15724537064E+03  0.20260882768E+03  0.00000000000E+00 0.  1.
         12    1    3    3    0    0 -0.92574541625E+02 -0.30956397022E+03 -0.33417313012E+03  0.46483500117E+03  0.00000000000E+00 0. -1.
          5    1    5    5  501    0 -0.16690554539E+03 -0.97709097257E+02  0.16331274363E+03  0.25317517848E+03  0.47000000000E+01 0. -1.
         -5    1    5    5    0  501  0.22360978004E+02 -0.18527058828E+02  0.15916278398E+02  0.33446721276E+02  0.47000000000E+01 0. -1.
          1    1    1    2  502    0 -0.23392547439E+02 -0.60055612972E+01  0.14063008283E+04  0.14065081933E+04  0.00000000000E+00 0. -1.
          1    1    1    2  503    0  0.48643341680E+02  0.14817117357E+03 -0.20327933775E+04  0.20387667318E+04  0.00000000000E+00 0. -1.
<mgrwt>
<rscale>  0 0.61352548E+02</rscale>
<asrwt>0</asrwt>
<pdfrwt beam="1">  1        2 0.26745808E+00 0.24151150E+02</pdfrwt>
<pdfrwt beam="2">  1        2 0.49201854E+00 0.15585739E+03</pdfrwt>
<totfact> 0.34994694E+00</totfact>
</mgrwt>
</event>
<event>
13    1  0.1942437E-008  0.1843094E+03  0.7546771E-02  0.1215428E+00
          2   -1    0    0  503    0  0.00000000000E+00  0.00000000000E+00  0.21624382095E+04  0.21624382095E+04  0.00000000000E+00 0. -1.
          2   -1    0    0  502    0 -0.00000000000E+00 -0.00000000000E+00 -0.17492654022E+04  0.17492654022E+04  0.00000000000E+00 0. -1.
         24    2    1    2    0    0  0.21871221838E+03  0.22471820088E+03 -0.30344695437E+03  0.44386636165E+03  0.81264928551E+02 0.  0.
         24    2    1    2    0    0 -0.23185149641E+03 -0.27976800448E+03 -0.90828394582E+02  0.38299121226E+03  0.80045104085E+02 0.  0.
         25    2    1    2    0    0 -0.24060294245E+03  0.15512048169E+03  0.38361827670E+03  0.49471192433E+03  0.12499906438E+03 0.  0.
        -11    1    3    3    0    0  0.57798786114E+02  0.19216262770E+02 -0.78073330629E+02  0.99022267125E+02  0.00000000000E+00 0.  1.
         12    1    3    3    0    0  0.16091343227E+03  0.20550193811E+03 -0.22537362374E+03  0.34484409453E+03  0.00000000000E+00 0. -1.
        -13    1    4    4    0    0 -0.18749188119E+02  0.14614541585E+01 -0.86429488055E+01  0.20697064222E+02  0.00000000000E+00 0.  1.
         14    1    4    4    0    0 -0.21310230829E+03 -0.28122945864E+03 -0.82185445776E+02  0.36229414804E+03  0.00000000000E+00 0. -1.
          5    1    5    5  501    0 -0.23665907549E+03  0.16029453675E+03  0.31403314308E+03  0.42466547007E+03  0.47000000000E+01 0.  1.
         -5    1    5    5    0  501 -0.39438669668E+01 -0.51740550531E+01  0.69585133622E+02  0.70046454254E+02  0.47000000000E+01 0.  1.
          1    1    1    2  502    0  0.71797797129E+02 -0.75245072333E+02 -0.10750392380E+04  0.10800583817E+04  0.00000000000E+00 0. -1.
          1    1    1    2  503    0  0.18194442335E+03 -0.24825605762E+02  0.14988691176E+04  0.15100757318E+04  0.00000000000E+00 0. -1.
<mgrwt>
<rscale>  0 0.13845156E+03</rscale>
<asrwt>0</asrwt>
<pdfrwt beam="1">  1        2 0.31800562E+00 0.18430937E+03</pdfrwt>
<pdfrwt beam="2">  1        2 0.25724491E+00 0.10400358E+03</pdfrwt>
<totfact> 0.13444087E+01</totfact>
</mgrwt>
</event>
<event>
13    1  0.1942437E-008  0.1046666E+03  0.7546771E-02  0.1412930E+00
         -1   -1    0    0    0  501 -0.00000000000E+00  0.00000000000E+00  0.12227554309E+03  0.12227554309E+03  0.00000000000E+00 0.  1.
          2   -1    0    0  503    0  0.00000000000E+00 -0.00000000000E+00 -0.20179442586E+04  0.20179442586E+04  0.00000000000E+00 0. -1.
         24    2    1    2    0    0  0.45598258885E+02  0.16703749392E+02  0.13741820099E+02  0.92832735339E+02  0.77915740860E+02 0.  0.
         24    2    1    2    0    0  0.68160369616E+01 -0.25280490495E+01 -0.23046305810E+03  0.24293742097E+03  0.76501764463E+02 0.  0.
         25    2    1    2    0    0 -0.17225729124E+03  0.75559691361E+02 -0.77375726481E+03  0.80604413842E+03  0.12500002758E+03 0.  0.
        -11    1    3    3    0    0  0.58172172356E+02 -0.70916182919E+01 -0.67720064086E+01  0.58992819542E+02  0.00000000000E+00 0.  1.
         12    1    3    3    0    0 -0.12573913471E+02  0.23795367683E+02  0.20513826508E+02  0.33839915797E+02  0.00000000000E+00 0. -1.
        -13    1    4    4    0    0 -0.15458592904E+02  0.31886134628E+02 -0.94341590793E+02  0.10077712751E+03  0.00000000000E+00 0.  1.
         14    1    4    4    0    0  0.22274629866E+02 -0.34414183678E+02 -0.13612146731E+03  0.14216029346E+03  0.00000000000E+00 0. -1.
          5    1    5    5  502    0 -0.97158422303E+02  0.80681914865E+01 -0.19004425471E+03  0.21364401112E+03  0.47000000000E+01 0.  1.
         -5    1    5    5    0  502 -0.75098868933E+02  0.67491499874E+02 -0.58371301010E+03  0.59240012730E+03  0.47000000000E+01 0.  1.
          1    1    1    2  503    0  0.90428779473E+02 -0.81490115794E+02 -0.94241880191E+03  0.95024796834E+03  0.00000000000E+00 0. -1.
         -2    1    1    2    0  501  0.29414215916E+02 -0.82452759085E+01  0.37228589203E+02  0.48157538629E+02  0.00000000000E+00 0.  1.
<mgrwt>
<rscale>  0 0.56545163E+02</rscale>
<asrwt>0</asrwt>
<pdfrwt beam="2">  1        2 0.29675648E+00 0.10466658E+03</pdfrwt>
<pdfrwt beam="1">  1       -1 0.17981699E-01 0.30548006E+02</pdfrwt>
<totfact> 0.22256468E+02</totfact>
</mgrwt>
</event>
<event>
13    1  0.1942437E-008  0.1678001E+03  0.7546771E-02  0.1220375E+00
          2   -1    0    0  503    0  0.00000000000E+00  0.00000000000E+00  0.14899755340E+04  0.14899755340E+04  0.00000000000E+00 0. -1.
          2   -1    0    0  502    0 -0.00000000000E+00 -0.00000000000E+00 -0.14397953026E+04  0.14397953026E+04  0.00000000000E+00 0. -1.
         24    2    1    2    0    0  0.17239296693E+03  0.27230858747E+03 -0.43857273324E+03  0.54996397651E+03  0.79012855048E+02 0.  0.
         24    2    1    2    0    0  0.13143317561E+03  0.31561089629E+01  0.15967977092E+02  0.15425190382E+03  0.79082443456E+02 0.  0.
         25    2    1    2    0    0 -0.33995180137E+02 -0.25633911073E+03  0.83456930283E+03  0.88260786970E+03  0.12500127389E+03 0.  0.
        -11    1    3    3    0    0  0.14995616043E+03  0.26831267359E+03 -0.39222435414E+03  0.49831564780E+03  0.00000000000E+00 0.  1.
         12    1    3    3    0    0  0.22436806497E+02  0.39959138771E+01 -0.46348379104E+02  0.51648328715E+02  0.00000000000E+00 0. -1.
        -11    1    4    4    0    0  0.60043870400E+02  0.67971575807E+01 -0.31794344172E+02  0.68281388717E+02  0.00000000000E+00 0.  1.
         12    1    4    4    0    0  0.71389305214E+02 -0.36410486178E+01  0.47762321264E+02  0.85970515100E+02  0.00000000000E+00 0. -1.
          5    1    5    5  501    0 -0.11888941075E+02 -0.20226503374E+03  0.44914644741E+03  0.49275461643E+03  0.47000000000E+01 0.  1.
         -5    1    5    5    0  501 -0.22106239061E+02 -0.54074076997E+02  0.38542285541E+03  0.38985325327E+03  0.47000000000E+01 0.  1.
          1    1    1    2  502    0 -0.16334309149E+03 -0.39578038422E+02 -0.83792549096E+03  0.85461483434E+03  0.00000000000E+00 0. -1.
          1    1    1    2  503    0 -0.10648787092E+03  0.20452452728E+02  0.47614117563E+03  0.48833225227E+03  0.00000000000E+00 0. -1.
<mgrwt>
<rscale>  0 0.13488983E+03</rscale>
<asrwt>0</asrwt>
<pdfrwt beam="1">  1        2 0.21911405E+00 0.10843417E+03</pdfrwt>
<pdfrwt beam="2">  1        2 0.21173460E+00 0.16780011E+03</pdfrwt>
<totfact> 0.41451104E+01</totfact>
</mgrwt>
</event>
<event>
13    1  0.1942437E-008  0.7099924E+02  0.7546771E-02  0.1437344E+00
          2   -1    0    0  503    0  0.00000000000E+00  0.00000000000E+00  0.13338934220E+04  0.13338934220E+04  0.00000000000E+00 0. -1.
         -1   -1    0    0    0  501 -0.00000000000E+00 -0.00000000000E+00 -0.24221116872E+03  0.24221116872E+03  0.00000000000E+00 0.  1.
         24    2    1    2    0    0  0.56819388249E+02  0.46068250392E+02  0.23726720747E+02  0.10485725827E+03  0.71283664042E+02 0.  0.
         24    2    1    2    0    0 -0.48106182741E+02 -0.56911392718E+02  0.50359574718E+02  0.11420551656E+03  0.70382539083E+02 0.  0.
         25    2    1    2    0    0  0.38117741794E+02  0.10074813058E+03  0.86894093690E+03  0.88446710514E+03  0.12498223951E+03 0.  0.
        -11    1    4    4    0    0 -0.59504955892E+02 -0.28507468880E+02  0.51311990260E+02  0.83584902357E+02  0.00000000000E+00 0.  1.
         12    1    4    4    0    0  0.11398773151E+02 -0.28403923838E+02 -0.95241554191E+00  0.30620614202E+02  0.00000000000E+00 0. -1.
        -11    1    3    3    0    0 -0.10121681118E+02  0.74624316890E+01  0.24543317066E+02  0.27577358974E+02  0.00000000000E+00 0.  1.
         12    1    3    3    0    0  0.66941069367E+02  0.38605818703E+02 -0.81659631873E+00  0.77279899296E+02  0.00000000000E+00 0. -1.
          5    1    5    5  502    0 -0.26360479741E+02 -0.13479486292E+02  0.99718987589E+02  0.10412750803E+03  0.47000000000E+01 0. -1.
         -5    1    5    5    0  502  0.64478221535E+02  0.11422761687E+03  0.76922194931E+03  0.78033959711E+03  0.47000000000E+01 0. -1.
          1    1    1    2  503    0 -0.30979390917E+02 -0.20909948765E+02  0.30167026798E+03  0.30397680701E+03  0.00000000000E+00 0. -1.
         -2    1    1    2    0  501 -0.15851556386E+02 -0.68995039489E+02 -0.15301524706E+03  0.16859790375E+03  0.00000000000E+00 0.  1.
<mgrwt>
<rscale>  0 0.51513607E+02</rscale>
<asrwt>0</asrwt>
<pdfrwt beam="1">  1        2 0.19616079E+00 0.37375776E+02</pdfrwt>
<pdfrwt beam="2">  1       -1 0.35619290E-01 0.70999240E+02</pdfrwt>
<totfact> 0.17921755E+02</totfact>
</mgrwt>
</event>
<event>
13    1  0.1942437E-008  0.7236885E+02  0.7546771E-02  0.1369956E+00
          2   -1    0    0  503    0  0.00000000000E+00  0.00000000000E+00  0.17066951688E+04  0.17066951688E+04  0.00000000000E+00 0. -1.
          2   -1    0    0  502    0 -0.00000000000E+00 -0.00000000000E+00 -0.43877158083E+04  0.43877158083E+04  0.00000000000E+00 0. -1.
         24    2    1    2    0    0  0.10629401857E+03 -0.93878690034E+02 -0.14842632094E+04  0.14931626769E+04  0.79911689855E+02 0.  0.
         24    2    1    2    0    0 -0.11076871585E+03 -0.10602321620E+02 -0.17544530128E+03  0.22251784100E+03  0.79693275672E+02 0.  0.
         25    2    1    2    0    0  0.52505324156E+02  0.21910686483E+03  0.24281096123E+03  0.35404168834E+03  0.12499490755E+03 0.  0.
        -13    1    4    4    0    0 -0.10941869816E+03 -0.87473094725E+01 -0.18367441234E+03  0.21397489731E+03  0.00000000000E+00 0.  1.
         14    1    4    4    0    0 -0.13500176826E+01 -0.18550121476E+01  0.82291110664E+01  0.85429436820E+01  0.00000000000E+00 0. -1.
        -13    1    3    3    0    0  0.91392259901E+02 -0.62199295341E+02 -0.13461393087E+04  0.13506710687E+04  0.00000000000E+00 0.  1.
         14    1    3    3    0    0  0.14901758667E+02 -0.31679394693E+02 -0.13812390069E+03  0.14249160818E+03  0.00000000000E+00 0. -1.
          5    1    5    5  501    0  0.18804578072E+02  0.13074823497E+03  0.53927306298E+02  0.14275488597E+03  0.47000000000E+01 0. -1.
         -5    1    5    5    0  501  0.33700746084E+02  0.88358629862E+02  0.18888365493E+03  0.21128680237E+03  0.47000000000E+01 0. -1.
          1    1    1    2  502    0 -0.45809199895E+02 -0.42314875071E+02 -0.26430899199E+04  0.26438255155E+04  0.00000000000E+00 0. -1.
          1    1    1    2  503    0 -0.22214269819E+01 -0.72310978107E+02  0.13789668299E+04  0.13808632554E+04  0.00000000000E+00 0. -1.
<mgrwt>
<rscale>  0 0.67179413E+02</rscale>
<asrwt>0</asrwt>
<pdfrwt beam="1">  1        2 0.25098458E+00 0.72368853E+02</pdfrwt>
<pdfrwt beam="2">  1        2 0.64525232E+00 0.62362099E+02</pdfrwt>
<totfact> 0.88909274E-01</totfact>
</mgrwt>
</event>
<event>
13    1  0.1942437E-008  0.9587391E+02  0.7546771E-02  0.1320653E+00
         -3   -1    0    0    0  502 -0.00000000000E+00  0.00000000000E+00  0.48447340864E+03  0.48447340864E+03  0.00000000000E+00 0.  1.
         -1   -1    0    0    0  501  0.00000000000E+00 -0.00000000000E+00 -0.17567804932E+04  0.17567804932E+04  0.00000000000E+00 0.  1.
         24    2    1    2    0    0 -0.10044507354E+03  0.37732431741E+02  0.13530218814E+03  0.18894703742E+03  0.76689970875E+02 0.  0.
         24    2    1    2    0    0  0.70591860580E+02  0.89868050522E+00 -0.33018076827E+02  0.11140608641E+03  0.79605931216E+02 0.  0.
         25    2    1    2    0    0 -0.32383963234E+02 -0.53846662396E+02 -0.27550222857E+03  0.30898561231E+03  0.12498978577E+03 0.  0.
        -13    1    3    3    0    0 -0.81829149085E+02  0.54945364508E+02  0.12983574961E+03  0.16301019784E+03  0.00000000000E+00 0.  1.
         14    1    3    3    0    0 -0.18615924453E+02 -0.17212932768E+02  0.54664385278E+01  0.25936839589E+02  0.00000000000E+00 0. -1.
        -13    1    4    4    0    0  0.62891584307E+02 -0.25491229586E+02 -0.44991802263E+02  0.81421228395E+02  0.00000000000E+00 0.  1.
         14    1    4    4    0    0  0.77002762736E+01  0.26389910092E+02  0.11973725436E+02  0.29984858014E+02  0.00000000000E+00 0. -1.
          5    1    5    5  503    0 -0.29057808270E+02 -0.20213658786E+02 -0.27239129714E+03  0.27472178105E+03  0.47000000000E+01 0.  1.
         -5    1    5    5    0  503 -0.33261549638E+01 -0.33633003610E+02 -0.31109314220E+01  0.34263831265E+02  0.47000000000E+01 0.  1.
         -2    1    1    2    0  501  0.45119206555E+02  0.85064067121E+02 -0.13589140464E+04  0.13623211897E+04  0.00000000000E+00 0.  1.
         -4    1    1    2    0  502  0.17117969636E+02 -0.69848516971E+02  0.25982507907E+03  0.26959397605E+03  0.00000000000E+00 0.  1.
<mgrwt>
<rscale>  0 0.83035059E+02</rscale>
<asrwt>0</asrwt>
<pdfrwt beam="2">  1       -1 0.25835007E+00 0.95873911E+02</pdfrwt>
<pdfrwt beam="1">  1       -3 0.71246089E-01 0.71915507E+02</pdfrwt>
<totfact> 0.66803362E-01</totfact>
</mgrwt>
</event>
<event>
13    1  0.1942437E-008  0.1411325E+03  0.7546771E-02  0.1283324E+00
         -1   -1    0    0    0  501 -0.00000000000E+00  0.00000000000E+00  0.41668325603E+03  0.41668325603E+03  0.00000000000E+00 0.  1.
          2   -1    0    0  503    0  0.00000000000E+00 -0.00000000000E+00 -0.14022834878E+04  0.14022834878E+04  0.00000000000E+00 0. -1.
         24    2    1    2    0    0  0.42821849751E+02  0.84652046197E+02  0.29885945287E+02  0.12594094868E+03  0.77254599127E+02 0.  0.
         24    2    1    2    0    0 -0.45929637132E+02  0.97706812499E+01 -0.33786644942E+02  0.99316247903E+02  0.80729065038E+02 0.  0.
         25    2    1    2    0    0 -0.15655085655E+03  0.52872482803E+02 -0.36524565459E+03  0.41992025795E+03  0.12499985886E+03 0.  0.
        -11    1    4    4    0    0 -0.20569024071E+02 -0.14744487217E+02  0.21853712307E+02  0.33437544708E+02  0.00000000000E+00 0.  1.
         12    1    4    4    0    0 -0.25360613062E+02  0.24515168467E+02 -0.55640357249E+02  0.65878703195E+02  0.00000000000E+00 0. -1.
        -11    1    3    3    0    0  0.30353293063E+02 -0.53027498322E+01  0.13584681791E+02  0.33674695766E+02  0.00000000000E+00 0.  1.
         12    1    3    3    0    0  0.12468556688E+02  0.89954796030E+02  0.16301263496E+02  0.92266252911E+02  0.00000000000E+00 0. -1.
          5    1    5    5  502    0 -0.47566431838E+02  0.75416465531E+02 -0.11181919296E+03  0.14309378262E+03  0.47000000000E+01 0. -1.
         -5    1    5    5    0  502 -0.10898442471E+03 -0.22543982728E+02 -0.25342646163E+03  0.27682647533E+03  0.47000000000E+01 0. -1.
          1    1    1    2  503    0  0.24035760510E+02 -0.64516919635E+02 -0.87100354234E+03  0.87372039090E+03  0.00000000000E+00 0. -1.
         -2    1    1    2    0  501  0.13562288342E+03 -0.82778290615E+02  0.25454966484E+03  0.30006889837E+03  0.00000000000E+00 0.  1.
<mgrwt>
<rscale>  0 0.98573829E+02</rscale>
<asrwt>0</asrwt>
<pdfrwt beam="2">  1        2 0.20621816E+00 0.68848752E+02</pdfrwt>
<pdfrwt beam="1">  1       -1 0.61276950E-01 0.14113255E+03</pdfrwt>
<totfact> 0.59882390E+01</totfact>
</mgrwt>
</event>
<event>
13    1  0.1942437E-008  0.2966468E+03  0.7546771E-02  0.1358381E+00
          2   -1    0    0  503    0  0.00000000000E+00  0.00000000000E+00  0.23645205793E+04  0.23645205793E+04  0.00000000000E+00 0. -1.
          2   -1    0    0  502    0 -0.00000000000E+00 -0.00000000000E+00 -0.20450212908E+04  0.20450212908E+04  0.00000000000E+00 0. -1.
         24    2    1    2    0    0 -0.29253208429E+03  0.97652395891E+02 -0.18323062772E+03  0.36786981419E+03  0.81509057771E+02 0.  0.
         24    2    1    2    0    0  0.36936917953E+03  0.11411532393E+02 -0.60309341238E+03  0.71157496034E+03  0.77803896140E+02 0.  0.
         25    2    1    2    0    0 -0.32991715708E+03  0.36919619528E+02  0.82951557970E+03  0.90217379814E+03  0.12495229585E+03 0.  0.
        -13    1    3    3    0    0 -0.28662854126E+02 -0.14266385338E+02 -0.23761851871E+02  0.39871224732E+02  0.00000000000E+00 0.  1.
         14    1    3    3    0    0 -0.26386923016E+03  0.11191878123E+03 -0.15946877585E+03  0.32799858946E+03  0.00000000000E+00 0. -1.
        -13    1    4    4    0    0  0.32775325817E+03  0.34576125704E+02 -0.53791478230E+03  0.63084865042E+03  0.00000000000E+00 0.  1.
         14    1    4    4    0    0  0.41615921360E+02 -0.23164593311E+02 -0.65178630082E+02  0.80726309919E+02  0.00000000000E+00 0. -1.
          5    1    5    5  501    0 -0.10306460960E+03 -0.30138774026E+02  0.37037204778E+03  0.38565295698E+03  0.47000000000E+01 0.  1.
         -5    1    5    5    0  501 -0.22685254748E+03  0.67058393555E+02  0.45914353192E+03  0.51652084116E+03  0.47000000000E+01 0.  1.
          1    1    1    2  502    0  0.24854859294E+03 -0.16211677431E+03 -0.10552907654E+04  0.10962193444E+04  0.00000000000E+00 0. -1.
          1    1    1    2  503    0  0.45314688930E+01  0.16133226499E+02  0.13315985143E+04  0.13317039530E+04  0.00000000000E+00 0. -1.
<mgrwt>
<rscale>  0 0.70505829E+02</rscale>
<asrwt>0</asrwt>
<pdfrwt beam="1">  1        2 0.34772362E+00 0.16757542E+02</pdfrwt>
<pdfrwt beam="2">  1        2 0.30073842E+00 0.29664685E+03</pdfrwt>
<totfact> 0.95025453E+00</totfact>
</mgrwt>
</event>
<event>
13    1  0.1942437E-008  0.3928633E+02  0.7546771E-02  0.1643656E+00
          2   -1    0    0  502    0  0.00000000000E+00  0.00000000000E+00  0.88413600035E+03  0.88413600035E+03  0.00000000000E+00 0. -1.
          4   -1    0    0  503    0 -0.00000000000E+00 -0.00000000000E+00 -0.28728830477E+03  0.28728830477E+03  0.00000000000E+00 0. -1.
         24    2    1    2    0    0 -0.40327120669E+02 -0.18804569426E+02  0.14370423873E+02  0.92762757686E+02  0.80115739018E+02 0.  0.
         24    2    1    2    0    0  0.11537001234E+03  0.14366116582E+03 -0.64760849786E+02  0.21093621505E+03  0.79695350187E+02 0.  0.
         25    2    1    2    0    0 -0.11682516174E+03 -0.14801344971E+03  0.49094893297E+03  0.54056738192E+03  0.12500455952E+03 0.  0.
        -11    1    3    3    0    0 -0.35504008900E+02 -0.26620386557E+02  0.43547910366E+02  0.62173950539E+02  0.00000000000E+00 0.  1.
         12    1    3    3    0    0 -0.48231117693E+01  0.78158171316E+01 -0.29177486493E+02  0.30588807146E+02  0.00000000000E+00 0. -1.
        -11    1    4    4    0    0 -0.50970158207E+01 -0.43014407210E+01 -0.10726706213E+02  0.12631080268E+02  0.00000000000E+00 0.  1.
         12    1    4    4    0    0  0.12046702816E+03  0.14796260654E+03 -0.54034143572E+02  0.19830513478E+03  0.00000000000E+00 0. -1.
          5    1    5    5  501    0 -0.73867493794E+02 -0.30628934531E+02  0.89642276377E+02  0.12021799360E+03  0.47000000000E+01 0. -1.
         -5    1    5    5    0  501 -0.42957667950E+02 -0.11738451518E+03  0.40130665659E+03  0.42034938832E+03  0.47000000000E+01 0. -1.
          1    1    1    2  502    0  0.16236204563E+02 -0.66385180831E+01  0.23687465343E+03  0.23752323191E+03  0.00000000000E+00 0. -1.
          3    1    1    2  503    0  0.25546065509E+02  0.29795371400E+02 -0.80585464901E+02  0.89634718571E+02  0.00000000000E+00 0. -1.
<mgrwt>
<rscale>  0 0.26251072E+02</rscale>
<asrwt>0</asrwt>
<pdfrwt beam="1">  1        2 0.13002000E+00 0.17540931E+02</pdfrwt>
<pdfrwt beam="2">  1        4 0.42248280E-01 0.39286329E+02</pdfrwt>
<totfact> 0.91368481E+01</totfact>
</mgrwt>
</event>
<event>
13    1  0.1942437E-008  0.3972095E+02  0.7546771E-02  0.1552971E+00
          2   -1    0    0  503    0  0.00000000000E+00  0.00000000000E+00  0.35880400438E+04  0.35880400438E+04  0.00000000000E+00 0. -1.
          2   -1    0    0  502    0 -0.00000000000E+00 -0.00000000000E+00 -0.49443437273E+03  0.49443437273E+03  0.00000000000E+00 0. -1.
         24    2    1    2    0    0 -0.13396763342E+03 -0.71192094525E+02 -0.14187905984E+03  0.22288437863E+03  0.80821639966E+02 0.  0.
         24    2    1    2    0    0  0.44419615604E+02  0.39305860510E+02  0.11584721638E+03  0.15908888859E+03  0.91491223668E+02 0.  0.
         25    2    1    2    0    0  0.79073757941E+02  0.96786359211E+02  0.18693739629E+04  0.18777117237E+04  0.12498818242E+03 0.  0.
        -11    1    3    3    0    0 -0.50707321058E+02 -0.72419375823E+02 -0.78669389187E+02  0.11834133343E+03  0.00000000000E+00 0.  1.
         12    1    3    3    0    0 -0.83260312363E+02  0.12272812985E+01 -0.63209670656E+02  0.10454304519E+03  0.00000000000E+00 0. -1.
        -11    1    4    4    0    0  0.56740641360E+01 -0.23249527648E+02  0.66018011593E+02  0.70221886862E+02  0.00000000000E+00 0.  1.
         12    1    4    4    0    0  0.38745551468E+02  0.62555388158E+02  0.49829204787E+02  0.88867001727E+02  0.00000000000E+00 0. -1.
          5    1    5    5  501    0  0.10296859067E+02 -0.19674723375E+02  0.78071306674E+02  0.81303991121E+02  0.47000000000E+01 0.  1.
         -5    1    5    5    0  501  0.68776898874E+02  0.11646108259E+03  0.17913026562E+04  0.17964077326E+04  0.47000000000E+01 0.  1.
          1    1    1    2  502    0 -0.68589310741E+01 -0.29192421339E+02 -0.28522043465E+03  0.28679250119E+03  0.00000000000E+00 0. -1.
          1    1    1    2  503    0  0.17333190949E+02 -0.35707703857E+02  0.15354839863E+04  0.15359969244E+04  0.00000000000E+00 0. -1.
<mgrwt>
<rscale>  0 0.34512705E+02</rscale>
<asrwt>0</asrwt>
<pdfrwt beam="1">  1        2 0.52765293E+00 0.39720948E+02</pdfrwt>
<pdfrwt beam="2">  1        2 0.72710939E-01 0.29987371E+02</pdfrwt>
<totfact> 0.17060938E+01</totfact>
</mgrwt>
</event>
<event>
13    1  0.1942437E-008  0.2598626E+03  0.7546771E-02  0.1200270E+00
         -1   -1    0    0    0  501 -0.00000000000E+00  0.00000000000E+00  0.32834887217E+03  0.32834887217E+03  0.00000000000E+00 0.  1.
          2   -1    0    0  503    0  0.00000000000E+00 -0.00000000000E+00 -0.33983987259E+04  0.33983987259E+04  0.00000000000E+00 0. -1.
         24    2    1    2    0    0  0.13725107644E+03  0.18559496450E+02  0.75509160198E+02  0.17778608193E+03  0.81999663185E+02 0.  0.
         24    2    1    2    0    0  0.67558243810E+01  0.29562841322E+02 -0.70386626103E+02  0.11074739149E+03  0.79944385899E+02 0.  0.
         25    2    1    2    0    0 -0.11425989631E+03 -0.27361782898E+03 -0.86056093144E+03  0.91875584196E+03  0.12500056071E+03 0.  0.
        -11    1    4    4    0    0 -0.19908225615E+02 -0.17683300845E+02 -0.74384364218E+01  0.27647186336E+02  0.00000000000E+00 0.  1.
         12    1    4    4    0    0  0.26664049996E+02  0.47246142166E+02 -0.62948189681E+02  0.83100205150E+02  0.00000000000E+00 0. -1.
        -13    1    3    3    0    0  0.94180526411E+02  0.50027831246E+02  0.40989850362E+02  0.11424939075E+03  0.00000000000E+00 0.  1.
         14    1    3    3    0    0  0.43070550029E+02 -0.31468334797E+02  0.34519309835E+02  0.63536691181E+02  0.00000000000E+00 0. -1.
          5    1    5    5  502    0 -0.52642863381E+02 -0.31756990625E+02 -0.28159184284E+03  0.28826347926E+03  0.47000000000E+01 0. -1.
         -5    1    5    5    0  502 -0.61617032925E+02 -0.24186083835E+03 -0.57896908859E+03  0.63049236270E+03  0.47000000000E+01 0. -1.
          1    1    1    2  503    0 -0.11444218514E+03  0.24532332293E+03 -0.23461742205E+04  0.23617396172E+04  0.00000000000E+00 0. -1.
         -2    1    1    2    0  501  0.84695180626E+02 -0.19827831720E+02  0.13156276413E+03  0.15771866547E+03  0.00000000000E+00 0.  1.
<mgrwt>
<rscale>  0 0.15016567E+03</rscale>
<asrwt>0</asrwt>
<pdfrwt beam="2">  1        2 0.49976450E+00 0.25986260E+03</pdfrwt>
<pdfrwt beam="1">  1       -1 0.48286601E-01 0.86775589E+02</pdfrwt>
<totfact> 0.75607227E+00</totfact>
</mgrwt>
</event>
<event>
13    1  0.1942437E-008  0.3880281E+03  0.7546771E-02  0.1211918E+00
          2   -1    0    0  503    0  0.00000000000E+00  0.00000000000E+00  0.35143691264E+04  0.35143691264E+04  0.00000000000E+00 0. -1.
         -3   -1    0    0    0  501 -0.00000000000E+00 -0.00000000000E+00 -0.81372787880E+03  0.81372787880E+03  0.00000000000E+00 0.  1.
         24    2    1    2    0    0 -0.27061751866E+03 -0.18288973975E+03 -0.65429011204E+02  0.34306850565E+03  0.82052091705E+02 0.  0.
         24    2    1    2    0    0  0.22141370876E+02  0.19449150945E+02  0.35353471580E+02  0.95327854377E+02  0.83480668964E+02 0.  0.
         25    2    1    2    0    0 -0.19969074177E+03  0.43601790076E+01  0.10060619065E+04  0.10332869762E+04  0.12500404735E+03 0.  0.
        -11    1    3    3    0    0 -0.18428974391E+03 -0.76902276002E+02 -0.30782864910E+02  0.20205012878E+03  0.00000000000E+00 0.  1.
         12    1    3    3    0    0 -0.86327774744E+02 -0.10598746375E+03 -0.34646146294E+02  0.14101837688E+03  0.00000000000E+00 0. -1.
        -13    1    4    4    0    0 -0.23929488774E+02 -0.10146197559E+02  0.30916673078E+02  0.40390672588E+02  0.00000000000E+00 0.  1.
         14    1    4    4    0    0  0.46070859650E+02  0.29595348505E+02  0.44367985022E+01  0.54937181789E+02  0.00000000000E+00 0. -1.
          5    1    5    5  502    0 -0.16937787363E+03  0.39225677630E+02  0.91141147443E+03  0.92785800831E+03  0.47000000000E+01 0.  1.
         -5    1    5    5    0  502 -0.30312868132E+02 -0.34865498622E+02  0.94650432114E+02  0.10542896788E+03  0.47000000000E+01 0.  1.
          1    1    1    2  503    0  0.51219900436E+02  0.23745981017E+01  0.22097341166E+04  0.22103289309E+04  0.00000000000E+00 0. -1.
         -4    1    1    2    0  501  0.39694698911E+03  0.15670581170E+03 -0.48507923593E+03  0.64608473802E+03  0.00000000000E+00 0.  1.
<mgrwt>
<rscale>  0 0.14105357E+03</rscale>
<asrwt>0</asrwt>
<pdfrwt beam="1">  1        2 0.51681898E+00 0.51274915E+02</pdfrwt>
<pdfrwt beam="2">  1       -3 0.11966587E+00 0.38802813E+03</pdfrwt>
<totfact> 0.61744437E-01</totfact>
</mgrwt>
</event>
<event>
13    1  0.1942437E-008  0.1207764E+03  0.7546771E-02  0.1251517E+00
          2   -1    0    0  503    0  0.00000000000E+00  0.00000000000E+00  0.22203090613E+04  0.22203090613E+04  0.00000000000E+00 0. -1.
          2   -1    0    0  502    0 -0.00000000000E+00 -0.00000000000E+00 -0.39056710458E+04  0.39056710458E+04  0.00000000000E+00 0. -1.
         24    2    1    2    0    0  0.19551648769E+03 -0.69898182759E+03 -0.11889321072E+04  0.13938870741E+04  0.50589796608E+02 0.  0.
         24    2    1    2    0    0 -0.32628958571E+03  0.42417570207E+03  0.25173463904E+03  0.59639673139E+03  0.76998784091E+02 0.  0.
         25    2    1    2    0    0  0.11059941717E+03  0.27285228663E+03  0.11302122979E+03  0.33923087076E+03  0.12499273538E+03 0.  0.
        -13    1    3    3    0    0  0.15366405517E+03 -0.46757081510E+03 -0.78787727074E+03  0.92897023781E+03  0.00000000000E+00 0.  1.
         14    1    3    3    0    0  0.41852432522E+02 -0.23141101248E+03 -0.40105483643E+03  0.46491683625E+03  0.00000000000E+00 0. -1.
        -13    1    4    4    0    0 -0.19117805530E+03  0.25136636631E+03  0.10634906595E+03  0.33323298572E+03  0.00000000000E+00 0.  1.
         14    1    4    4    0    0 -0.13511153041E+03  0.17280933576E+03  0.14538557309E+03  0.26316374567E+03  0.00000000000E+00 0. -1.
          5    1    5    5  501    0  0.44513800134E+02  0.14570095735E+03 -0.65148597778E+01  0.15256074453E+03  0.47000000000E+01 0.  1.
         -5    1    5    5    0  501  0.66085617040E+02  0.12715132928E+03  0.11953608957E+03  0.18667012623E+03  0.47000000000E+01 0.  1.
          1    1    1    2  502    0  0.65674188330E+02  0.10162926705E+03 -0.23252051981E+04  0.23283515242E+04  0.00000000000E+00 0. -1.
          1    1    1    2  503    0 -0.45500507490E+02 -0.99675428169E+02  0.14640194520E+04  0.14681139066E+04  0.00000000000E+00 0. -1.
<mgrwt>
<rscale>  0 0.11503658E+03</rscale>
<asrwt>0</asrwt>
<pdfrwt beam="1">  1        2 0.32651604E+00 0.10956955E+03</pdfrwt>
<pdfrwt beam="2">  1        2 0.57436339E+00 0.12077639E+03</pdfrwt>
<totfact> 0.90762687E-01</totfact>
</mgrwt>
</event>
<event>
13    1  0.1942437E-008  0.2813030E+03  0.7546771E-02  0.1281995E+00
          2   -1    0    0  502    0  0.00000000000E+00  0.00000000000E+00  0.15813869636E+04  0.15813869636E+04  0.00000000000E+00 0. -1.
          2   -1    0    0  503    0 -0.00000000000E+00 -0.00000000000E+00 -0.27470816272E+04  0.27470816272E+04  0.00000000000E+00 0. -1.
         24    2    1    2    0    0 -0.13013083060E+03 -0.15350744049E+03 -0.22032802378E+03  0.30913727645E+03  0.80764164513E+02 0.  0.
         24    2    1    2    0    0  0.80967465552E+02  0.67193799230E+02 -0.12317991637E+03  0.18124906485E+03  0.81284651568E+02 0.  0.
         25    2    1    2    0    0 -0.18988229700E+03 -0.81103909147E+02  0.10269423001E+03  0.26230591574E+03  0.12500063106E+03 0.  0.
        -13    1    4    4    0    0  0.31844061094E+02 -0.13907592147E+02 -0.52617274403E+02  0.63055871352E+02  0.00000000000E+00 0.  1.
         14    1    4    4    0    0  0.49123404459E+02  0.81101391377E+02 -0.70562641963E+02  0.11819319350E+03  0.00000000000E+00 0. -1.
        -13    1    3    3    0    0 -0.27529824930E+02 -0.77860909863E+02 -0.50536355095E+02  0.96820120489E+02  0.00000000000E+00 0.  1.
         14    1    3    3    0    0 -0.10260100567E+03 -0.75646530630E+02 -0.16979166868E+03  0.21231715596E+03  0.00000000000E+00 0. -1.
          5    1    5    5  501    0 -0.22601124411E+02  0.11719976429E+02  0.61258064884E+02  0.66504204269E+02  0.47000000000E+01 0. -1.
         -5    1    5    5    0  501 -0.16728117259E+03 -0.92823885576E+02  0.41436165122E+02  0.19580171148E+03  0.47000000000E+01 0. -1.
          1    1    1    2  502    0 -0.26468362993E+02  0.22869366945E+02  0.13150609027E+04  0.13155260393E+04  0.00000000000E+00 0. -1.
          1    1    1    2  503    0  0.26551402504E+03  0.14454818346E+03 -0.22399418562E+04  0.22602502945E+04  0.00000000000E+00 0. -1.
<mgrwt>
<rscale>  0 0.99196293E+02</rscale>
<asrwt>0</asrwt>
<pdfrwt beam="1">  1        2 0.23255691E+00 0.34979740E+02</pdfrwt>
<pdfrwt beam="2">  1        2 0.40398259E+00 0.28130297E+03</pdfrwt>
<totfact> 0.85096932E+00</totfact>
</mgrwt>
</event>
<event>
13    1  0.1942437E-008  0.2956084E+03  0.7546771E-02  0.1295823E+00
          2   -1    0    0  503    0  0.00000000000E+00  0.00000000000E+00  0.18983690757E+04  0.18983690757E+04  0.00000000000E+00 0. -1.
          2   -1    0    0  502    0 -0.00000000000E+00 -0.00000000000E+00 -0.30762171848E+04  0.30762171848E+04  0.00000000000E+00 0. -1.
         24    2    1    2    0    0  0.46048971431E+02 -0.32167269878E+03 -0.16971070010E+03  0.37521939113E+03  0.79962721542E+02 0.  0.
         24    2    1    2    0    0 -0.17234344642E+02  0.38742202849E+03  0.59156278409E+03  0.70975298030E+03  0.58394475092E+02 0.  0.
         25    2    1    2    0    0  0.85989420700E+02 -0.36442783843E+03  0.48804594597E+03  0.62770100267E+03  0.12497149067E+03 0.  0.
        -11    1    3    3    0    0  0.14375625960E+02 -0.24676757078E+03 -0.95086777696E+02  0.26484408225E+03  0.00000000000E+00 0.  1.
         12    1    3    3    0    0  0.31673345471E+02 -0.74905128000E+02 -0.74623922400E+02  0.11037530887E+03  0.00000000000E+00 0. -1.
        -11    1    4    4    0    0 -0.12722330748E+01  0.14267801751E+03  0.26941665944E+03  0.30486713769E+03  0.00000000000E+00 0.  1.
         12    1    4    4    0    0 -0.15962111567E+02  0.24474401099E+03  0.32214612465E+03  0.40488584261E+03  0.00000000000E+00 0. -1.
          5    1    5    5  501    0  0.78854070799E+02 -0.11000918340E+03  0.21751895136E+03  0.25623537834E+03  0.47000000000E+01 0.  1.
         -5    1    5    5    0  501  0.71353499014E+01 -0.25441865503E+03  0.27052699461E+03  0.37146562433E+03  0.47000000000E+01 0.  1.
          1    1    1    2  502    0 -0.12013724468E+03  0.26993195187E+03 -0.26663002048E+04  0.26826205469E+04  0.00000000000E+00 0. -1.
          1    1    1    2  503    0  0.53331971923E+01  0.28746556846E+02  0.57855406584E+03  0.57929233952E+03  0.00000000000E+00 0. -1.
<mgrwt>
<rscale>  0 0.92966277E+02</rscale>
<asrwt>0</asrwt>
<pdfrwt beam="1">  1        2 0.27917192E+00 0.29237092E+02</pdfrwt>
<pdfrwt beam="2">  1        2 0.45238488E+00 0.29560836E+03</pdfrwt>
<totfact> 0.40811281E+00</totfact>
</mgrwt>
</event>
<event>
13    1  0.1942437E-008  0.1605383E+03  0.7546771E-02  0.1239651E+00
          2   -1    0    0  502    0  0.00000000000E+00  0.00000000000E+00  0.20706949906E+04  0.20706949906E+04  0.00000000000E+00 0. -1.
          2   -1    0    0  503    0 -0.00000000000E+00 -0.00000000000E+00 -0.58236080444E+03  0.58236080444E+03  0.00000000000E+00 0. -1.
         24    2    1    2    0    0 -0.57038367410E+02  0.13381734392E+03  0.51940999454E+02  0.17504702382E+03  0.82359797427E+02 0.  0.
         24    2    1    2    0    0  0.16798789649E+03 -0.19837826452E+03  0.20481723600E+03  0.33978752677E+03  0.77016842237E+02 0.  0.
         25    2    1    2    0    0  0.45100244496E+02  0.14048469195E+02  0.60868470345E+03  0.62318004926E+03  0.12499965616E+03 0.  0.
        -11    1    4    4    0    0  0.65510614519E+02 -0.63559600215E+02  0.11889636071E+03  0.14989265487E+03  0.00000000000E+00 0.  1.
         12    1    4    4    0    0  0.10247728197E+03 -0.13481866431E+03  0.85920875289E+02  0.18989487190E+03  0.00000000000E+00 0. -1.
        -11    1    3    3    0    0 -0.99739231739E+01  0.76634391321E+02  0.63585026778E+02  0.10007679405E+03  0.00000000000E+00 0.  1.
         12    1    3    3    0    0 -0.47064444236E+02  0.57182952600E+02 -0.11644027324E+02  0.74970229769E+02  0.00000000000E+00 0. -1.
          5    1    5    5  501    0  0.81501676837E+02  0.37577571551E+02  0.42387083910E+03  0.43329340574E+03  0.47000000000E+01 0. -1.
         -5    1    5    5    0  501 -0.36401432341E+02 -0.23529102356E+02  0.18481386434E+03  0.18988664352E+03  0.47000000000E+01 0. -1.
          1    1    1    2  502    0  0.15860619605E+01  0.92872198451E+02  0.10519187658E+04  0.10560117664E+04  0.00000000000E+00 0. -1.
          1    1    1    2  503    0 -0.15763583553E+03 -0.42359747045E+02 -0.42902751857E+03  0.45902942880E+03  0.00000000000E+00 0. -1.
<mgrwt>
<rscale>  0 0.12211355E+03</rscale>
<asrwt>0</asrwt>
<pdfrwt beam="1">  1        2 0.30451397E+00 0.92885741E+02</pdfrwt>
<pdfrwt beam="2">  1        2 0.85641295E-01 0.16053830E+03</pdfrwt>
<totfact> 0.73899048E+01</totfact>
</mgrwt>
</event>
<event>
13    1  0.1942437E-008  0.1212859E+03  0.7546771E-02  0.1325997E+00
          2   -1    0    0  502    0  0.00000000000E+00  0.00000000000E+00  0.13867217438E+04  0.13867217438E+04  0.00000000000E+00 0. -1.
          2   -1    0    0  503    0 -0.00000000000E+00 -0.00000000000E+00 -0.17977088875E+04  0.17977088875E+04  0.00000000000E+00 0. -1.
         24    2    1    2    0    0  0.43751517622E+02 -0.11150400520E+03 -0.79898995540E+02  0.16487579021E+03  0.80329560191E+02 0.  0.
         24    2    1    2    0    0  0.29487739132E+02  0.12421550815E+03 -0.31862760095E+02  0.15439554726E+03  0.80769612528E+02 0.  0.
         25    2    1    2    0    0 -0.73373451129E+02 -0.92557070216E+02  0.17886253852E+03  0.24812772521E+03  0.12500034302E+03 0.  0.
        -11    1    4    4    0    0  0.24107671609E+02  0.13352192123E+03 -0.39377830045E+02  0.14127949879E+03  0.00000000000E+00 0.  1.
         12    1    4    4    0    0  0.53800675231E+01 -0.93064130809E+01  0.75150699508E+01  0.13116048466E+02  0.00000000000E+00 0. -1.
        -13    1    3    3    0    0  0.20156875796E+02 -0.11634698825E+03 -0.55094586434E+02  0.13030093925E+03  0.00000000000E+00 0.  1.
         14    1    3    3    0    0  0.23594641826E+02  0.48429830499E+01 -0.24804409106E+02  0.34574850959E+02  0.00000000000E+00 0. -1.
          5    1    5    5  501    0 -0.21698235472E+02  0.30507202484E+02  0.30587994376E+02  0.48571784257E+02  0.47000000000E+01 0. -1.
         -5    1    5    5    0  501 -0.51675215656E+02 -0.12306427270E+03  0.14827454415E+03  0.19955594095E+03  0.47000000000E+01 0. -1.
          1    1    1    2  502    0  0.41903786891E+02 -0.34392632480E+02  0.10663921841E+04  0.10677692030E+04  0.00000000000E+00 0. -1.
          1    1    1    2  503    0 -0.41769592517E+02  0.11423819974E+03 -0.15444801107E+04  0.15492623656E+04  0.00000000000E+00 0. -1.
<mgrwt>
<rscale>  0 0.81086187E+02</rscale>
<asrwt>0</asrwt>
<pdfrwt beam="1">  1        2 0.20392967E+00 0.54210520E+02</pdfrwt>
<pdfrwt beam="2">  1        2 0.26436895E+00 0.12128586E+03</pdfrwt>
<totfact> 0.33469772E+01</totfact>
</mgrwt>
</event>
<event>
13    1  0.1942437E-008  0.3352980E+03  0.7546771E-02  0.1212849E+00
          2   -1    0    0  503    0  0.00000000000E+00  0.00000000000E+00  0.14863534791E+04  0.14863534791E+04  0.00000000000E+00 0. -1.
          2   -1    0    0  502    0 -0.00000000000E+00 -0.00000000000E+00 -0.96248630555E+03  0.96248630555E+03  0.00000000000E+00 0. -1.
         24    2    1    2    0    0 -0.17891691223E+03  0.18162468943E+03  0.35060214636E+02  0.26693549325E+03  0.70898163691E+02 0.  0.
         24    2    1    2    0    0 -0.10471935054E+03  0.91375878610E+01  0.92993268559E+02  0.15845826733E+03  0.73563826704E+02 0.  0.
         25    2    1    2    0    0 -0.86561766063E+02 -0.17245056806E+02  0.51265081070E+03  0.53500074395E+03  0.12499844393E+03 0.  0.
        -13    1    4    4    0    0 -0.74460122939E+02  0.35374438296E+02  0.38901515416E+02  0.91153654312E+02  0.00000000000E+00 0.  1.
         14    1    4    4    0    0 -0.30259227602E+02 -0.26236850435E+02  0.54091753143E+02  0.67304613021E+02  0.00000000000E+00 0. -1.
        -13    1    3    3    0    0 -0.76990614876E+02  0.33434016513E+02  0.21020189380E+02  0.86528819480E+02  0.00000000000E+00 0.  1.
         14    1    3    3    0    0 -0.10192629735E+03  0.14819067292E+03  0.14040025257E+02  0.18040667377E+03  0.00000000000E+00 0. -1.
          5    1    5    5  501    0 -0.42850924997E+02 -0.68389080522E+02  0.21229512781E+03  0.22716641345E+03  0.47000000000E+01 0.  1.
         -5    1    5    5    0  501 -0.43710841066E+02  0.51144023715E+02  0.30035568290E+03  0.30783433050E+03  0.47000000000E+01 0.  1.
          1    1    1    2  502    0  0.34189457858E+03 -0.12202971815E+03 -0.76018725869E+03  0.84241784362E+03  0.00000000000E+00 0. -1.
          1    1    1    2  503    0  0.28303450253E+02 -0.51487502332E+02  0.64335013831E+03  0.64602743646E+03  0.00000000000E+00 0. -1.
<mgrwt>
<rscale>  0 0.14035721E+03</rscale>
<asrwt>0</asrwt>
<pdfrwt beam="1">  1        2 0.21858139E+00 0.58754133E+02</pdfrwt>
<pdfrwt beam="2">  1        2 0.14154210E+00 0.33529805E+03</pdfrwt>
<totfact> 0.77323877E+01</totfact>
</mgrwt>
</event>
<event>
13    1  0.1942437E-008  0.1564380E+03  0.7546771E-02  0.1258206E+00
          2   -1    0    0  503    0  0.00000000000E+00  0.00000000000E+00  0.15825875396E+04  0.15825875396E+04  0.00000000000E+00 0. -1.
          2   -1    0    0  502    0 -0.00000000000E+00 -0.00000000000E+00 -0.21639477538E+04  0.21639477538E+04  0.00000000000E+00 0. -1.
         24    2    1    2    0    0 -0.26554344222E+02  0.46046613017E+02 -0.47861375153E+03  0.48820750019E+03  0.80311993589E+02 0.  0.
         24    2    1    2    0    0 -0.26750529505E+03 -0.83796233300E+02 -0.13399792826E+03  0.32174058458E+03  0.83550388334E+02 0.  0.
         25    2    1    2    0    0  0.16745490994E+03  0.18593419973E+02 -0.41586593549E+02  0.21386916518E+03  0.12499485159E+03 0.  0.
        -11    1    4    4    0    0 -0.13635022410E+03 -0.46254157468E+02 -0.11444270385E+03  0.18392379715E+03  0.00000000000E+00 0.  1.
         12    1    4    4    0    0 -0.13115507095E+03 -0.37542075832E+02 -0.19555224412E+02  0.13781678743E+03  0.00000000000E+00 0. -1.
        -13    1    3    3    0    0  0.16277095978E+02  0.41127331723E+02 -0.34466363064E+03  0.34749017188E+03  0.00000000000E+00 0.  1.
         14    1    3    3    0    0 -0.42831440200E+02  0.49192812943E+01 -0.13395012089E+03  0.14071732831E+03  0.00000000000E+00 0. -1.
          5    1    5    5  501    0  0.16766402365E+03  0.20075883027E+02  0.30561697428E+01  0.16895471607E+03  0.47000000000E+01 0. -1.
         -5    1    5    5    0  501 -0.20911371516E+00 -0.14824630533E+01 -0.44642763292E+02  0.44914449118E+02  0.47000000000E+01 0. -1.
          1    1    1    2  502    0  0.42373152644E+01 -0.79053037078E+02 -0.13193465252E+04  0.13217195584E+04  0.00000000000E+00 0. -1.
          1    1    1    2  503    0  0.12236741407E+03  0.98209237387E+02  0.13921845843E+04  0.14009984851E+04  0.00000000000E+00 0. -1.
<mgrwt>
<rscale>  0 0.11128636E+03</rscale>
<asrwt>0</asrwt>
<pdfrwt beam="1">  1        2 0.23273346E+00 0.15643802E+03</pdfrwt>
<pdfrwt beam="2">  1        2 0.31822761E+00 0.79166518E+02</pdfrwt>
<totfact> 0.17186486E+01</totfact>
</mgrwt>
</event>
<event>
13    1  0.1942437E-008  0.7486851E+02  0.7546771E-02  0.1606093E+00
          2   -1    0    0  503    0  0.00000000000E+00  0.00000000000E+00  0.16150125517E+04  0.16150125517E+04  0.00000000000E+00 0. -1.
         -1   -1    0    0    0  501 -0.00000000000E+00 -0.00000000000E+00 -0.11508615729E+04  0.11508615729E+04  0.00000000000E+00 0.  1.
         24    2    1    2    0    0 -0.32343272589E+02  0.27986481786E+03 -0.97560916668E+03  0.10185448720E+04  0.79056983674E+02 0.  0.
         24    2    1    2    0    0 -0.68066273700E+02 -0.89041350450E+02  0.17021432837E+03  0.21635217030E+03  0.72622064886E+02 0.  0.
         25    2    1    2    0    0  0.13558555027E+03 -0.12289653562E+03  0.91090628034E+03  0.93747511645E+03  0.12498936956E+03 0.  0.
        -11    1    4    4    0    0 -0.69482890496E+01 -0.68085750417E+02  0.96876159218E+02  0.11861255564E+03  0.00000000000E+00 0.  1.
         12    1    4    4    0    0 -0.61117984651E+02 -0.20955600033E+02  0.73338169148E+02  0.97739614663E+02  0.00000000000E+00 0. -1.
        -13    1    3    3    0    0  0.15105520612E+01  0.23556492761E+03 -0.82387184329E+03  0.85688851728E+03  0.00000000000E+00 0.  1.
         14    1    3    3    0    0 -0.33853824650E+02  0.44299890250E+02 -0.15173732339E+03  0.16165635474E+03  0.00000000000E+00 0. -1.
          5    1    5    5  502    0 -0.27652840541E+01  0.10872224159E+02  0.21761052110E+03  0.21795017997E+03  0.47000000000E+01 0.  1.
         -5    1    5    5    0  502  0.13835083432E+03 -0.13376875978E+03  0.69329575924E+03  0.71952493649E+03  0.47000000000E+01 0.  1.
          1    1    1    2  503    0 -0.11071985442E+02  0.29467043758E+01  0.46406230497E+03  0.46420372125E+03  0.00000000000E+00 0. -1.
         -2    1    1    2    0  501 -0.24104018537E+02 -0.70873636167E+02 -0.10542276818E+03  0.12929824463E+03  0.00000000000E+00 0.  1.
<mgrwt>
<rscale>  0 0.29288192E+02</rscale>
<asrwt>0</asrwt>
<pdfrwt beam="1">  1        2 0.23750185E+00 0.11457396E+02</pdfrwt>
<pdfrwt beam="2">  1       -1 0.16924435E+00 0.74868512E+02</pdfrwt>
<totfact> 0.59685038E+00</totfact>
</mgrwt>
</event>
<event>
13    1  0.1942437E-008  0.9096875E+02  0.7546771E-02  0.1430391E+00
          2   -1    0    0  503    0  0.00000000000E+00  0.00000000000E+00  0.18947781293E+03  0.18947781293E+03  0.00000000000E+00 0. -1.
          2   -1    0    0  502    0 -0.00000000000E+00 -0.00000000000E+00 -0.24994301973E+04  0.24994301973E+04  0.00000000000E+00 0. -1.
         24    2    1    2    0    0  0.86997164539E+02  0.20803059345E+02 -0.58172237612E+03  0.59377377035E+03  0.78518109714E+02 0.  0.
         24    2    1    2    0    0  0.48984227845E+02  0.11839924506E+02 -0.12157271775E+03  0.15493044988E+03  0.81755001134E+02 0.  0.
         25    2    1    2    0    0 -0.17212433288E+03  0.65951770440E+02  0.18966176951E+02  0.22351929650E+03  0.12499895218E+03 0.  0.
        -11    1    3    3    0    0  0.72163683188E+02  0.48839041264E+02 -0.41217308794E+03  0.42128316314E+03  0.00000000000E+00 0.  1.
         12    1    3    3    0    0  0.14833481351E+02 -0.28035981919E+02 -0.16954928818E+03  0.17249060720E+03  0.00000000000E+00 0. -1.
        -13    1    4    4    0    0  0.55525802919E+02  0.22262513732E+02 -0.38924574521E+02  0.71371260386E+02  0.00000000000E+00 0.  1.
         14    1    4    4    0    0 -0.65415750734E+01 -0.10422589227E+02 -0.82648143225E+02  0.83559189496E+02  0.00000000000E+00 0. -1.
          5    1    5    5  501    0 -0.85631062989E+01  0.35379910769E+02  0.41656719685E+02  0.55519700741E+02  0.47000000000E+01 0.  1.
         -5    1    5    5    0  501 -0.16356122658E+03  0.30571859671E+02 -0.22690542735E+02  0.16799959576E+03  0.47000000000E+01 0.  1.
          1    1    1    2  502    0  0.64452737620E+01 -0.90653972006E+02 -0.16645803070E+04  0.16670594719E+04  0.00000000000E+00 0. -1.
          1    1    1    2  503    0  0.29697666737E+02 -0.79407822839E+01  0.38956839520E+02  0.49625021695E+02  0.00000000000E+00 0. -1.
<mgrwt>
<rscale>  0 0.52881641E+02</rscale>
<asrwt>0</asrwt>
<pdfrwt beam="1">  1        2 0.27864387E-01 0.30740973E+02</pdfrwt>
<pdfrwt beam="2">  1        2 0.36756323E+00 0.90968751E+02</pdfrwt>
<totfact> 0.14699444E+02</totfact>
</mgrwt>
</event>
<event>
13    1  0.1942437E-008  0.1070969E+03  0.7546771E-02  0.1274833E+00
          2   -1    0    0  502    0  0.00000000000E+00  0.00000000000E+00  0.30718561283E+04  0.30718561283E+04  0.00000000000E+00 0. -1.
          2   -1    0    0  503    0 -0.00000000000E+00 -0.00000000000E+00 -0.14103789999E+04  0.14103789999E+04  0.00000000000E+00 0. -1.
         24    2    1    2    0    0 -0.16646098416E+02  0.28836520225E+02  0.86879762159E+02  0.12197580917E+03  0.78875645532E+02 0.  0.
         24    2    1    2    0    0 -0.32349148053E+02 -0.37013146935E+02  0.53448256523E+02  0.10856998528E+03  0.80711121618E+02 0.  0.
         25    2    1    2    0    0 -0.34401217403E+02 -0.19304239858E+03  0.16315456168E+04  0.16480340968E+04  0.12500589155E+03 0.  0.
        -11    1    3    3    0    0 -0.15954140775E+02  0.46888152186E+02  0.90855789764E+02  0.10347853863E+03  0.00000000000E+00 0.  1.
         12    1    3    3    0    0 -0.69195764109E+00 -0.18051631961E+02 -0.39760276044E+01  0.18497270538E+02  0.00000000000E+00 0. -1.
        -13    1    4    4    0    0 -0.59574707229E+02 -0.27869628407E+02  0.36428612038E+02  0.75185807863E+02  0.00000000000E+00 0.  1.
         14    1    4    4    0    0  0.27225559176E+02 -0.91435185275E+01  0.17019644485E+02  0.33384177419E+02  0.00000000000E+00 0. -1.
          5    1    5    5  501    0  0.39634810942E+02 -0.12664133696E+03  0.89861968804E+03  0.90837678317E+03  0.47000000000E+01 0. -1.
         -5    1    5    5    0  501 -0.74036028345E+02 -0.66401061625E+02  0.73292592880E+03  0.73965731362E+03  0.47000000000E+01 0. -1.
          1    1    1    2  502    0 -0.20919235467E+02  0.92816364311E+02  0.12406326884E+04  0.12442756766E+04  0.00000000000E+00 0. -1.
          1    1    1    2  503    0  0.10431569934E+03  0.10840266098E+03 -0.13510291955E+04  0.13593795603E+04  0.00000000000E+00 0. -1.
<mgrwt>
<rscale>  0 0.10264386E+03</rscale>
<asrwt>0</asrwt>
<pdfrwt beam="1">  1        2 0.45174355E+00 0.10709690E+03</pdfrwt>
<pdfrwt beam="2">  1        2 0.20740868E+00 0.98375965E+02</pdfrwt>
<totfact> 0.72505561E+00</totfact>
</mgrwt>
</event>
<event>
13    1  0.1942437E-008  0.2056674E+03  0.7546771E-02  0.1217324E+00
          2   -1    0    0  503    0  0.00000000000E+00  0.00000000000E+00  0.34514249517E+04  0.34514249517E+04  0.00000000000E+00 0. -1.
          2   -1    0    0  502    0 -0.00000000000E+00 -0.00000000000E+00 -0.21346661394E+04  0.21346661394E+04  0.00000000000E+00 0. -1.
         24    2    1    2    0    0 -0.10191350754E+03 -0.14296881428E+03 -0.21408542994E+03  0.28918721740E+03  0.83487906435E+02 0.  0.
         24    2    1    2    0    0  0.27479636010E+03  0.19530062390E+03 -0.38928496245E+03  0.52126189926E+03  0.80720582310E+02 0.  0.
         25    2    1    2    0    0  0.25877050388E+01  0.84667806897E+02  0.10389390328E+04  0.10498549949E+04  0.12500345048E+03 0.  0.
        -11    1    4    4    0    0  0.17535853757E+03  0.15132672095E+03 -0.21612659150E+03  0.31679819558E+03  0.00000000000E+00 0.  1.
         12    1    4    4    0    0  0.99437822531E+02  0.43973902956E+02 -0.17315837096E+03  0.20446370368E+03  0.00000000000E+00 0. -1.
        -11    1    3    3    0    0 -0.28838396661E+02 -0.21798560813E+02 -0.46733283519E+01  0.36450931036E+02  0.00000000000E+00 0.  1.
         12    1    3    3    0    0 -0.73075110876E+02 -0.12117025347E+03 -0.20941210158E+03  0.25273628636E+03  0.00000000000E+00 0. -1.
          5    1    5    5  501    0  0.46805756195E+02  0.83287482001E+02  0.86672529504E+03  0.87198762063E+03  0.47000000000E+01 0.  1.
         -5    1    5    5    0  501 -0.44218051156E+02  0.13803248964E+01  0.17221373777E+03  0.17786737425E+03  0.47000000000E+01 0.  1.
          1    1    1    2  502    0  0.23248850813E+02 -0.88347243904E+02 -0.14162811250E+04  0.14192244254E+04  0.00000000000E+00 0. -1.
          1    1    1    2  503    0 -0.19871940841E+03 -0.48652372613E+02  0.22974712969E+04  0.23065625542E+04  0.00000000000E+00 0. -1.
<mgrwt>
<rscale>  0 0.13707209E+03</rscale>
<asrwt>0</asrwt>
<pdfrwt beam="1">  1        2 0.50756250E+00 0.20566743E+03</pdfrwt>
<pdfrwt beam="2">  1        2 0.31392149E+00 0.91355047E+02</pdfrwt>
<totfact> 0.17830348E+00</totfact>
</mgrwt>
</event>
<event>
13    1  0.1942437E-008  0.1294298E+03  0.7546771E-02  0.1325581E+00
          2   -1    0    0  503    0  0.00000000000E+00  0.00000000000E+00  0.22350360138E+03  0.22350360138E+03  0.00000000000E+00 0. -1.
          2   -1    0    0  502    0 -0.00000000000E+00 -0.00000000000E+00 -0.59796869356E+03  0.59796869356E+03  0.00000000000E+00 0. -1.
         24    2    1    2    0    0  0.43566663822E+02  0.11041807883E+03 -0.84140511081E+02  0.16591948996E+03  0.79746129781E+02 0.  0.
         24    2    1    2    0    0  0.33582095355E+01 -0.43701947568E+02 -0.39028258229E+02  0.10153721045E+03  0.82858085743E+02 0.  0.
         25    2    1    2    0    0  0.12934986410E+02  0.39891338160E+02  0.23907603563E+02  0.13399878492E+03  0.12500187246E+03 0.  0.
        -11    1    4    4    0    0 -0.18733670373E+02 -0.62169055517E+02 -0.26263632087E+02  0.70040846939E+02  0.00000000000E+00 0.  1.
         12    1    4    4    0    0  0.22091879908E+02  0.18467107949E+02 -0.12764626142E+02  0.31496363511E+02  0.00000000000E+00 0. -1.
        -11    1    3    3    0    0 -0.22300289292E+02  0.20603235367E+02 -0.27510543700E+02  0.40971041295E+02  0.00000000000E+00 0.  1.
         12    1    3    3    0    0  0.65866953114E+02  0.89814843459E+02 -0.56629967380E+02  0.12494844866E+03  0.00000000000E+00 0. -1.
          5    1    5    5  501    0  0.56874066373E+02  0.58311398770E+02  0.27215171852E+02  0.86009500819E+02  0.47000000000E+01 0.  1.
         -5    1    5    5    0  501 -0.43939079962E+02 -0.18420060609E+02 -0.33075682885E+01  0.47989284103E+02  0.47000000000E+01 0.  1.
          1    1    1    2  502    0 -0.16182055138E+02 -0.13291156810E+03 -0.32329746035E+03  0.34992655188E+03  0.00000000000E+00 0. -1.
          1    1    1    2  503    0 -0.43677804630E+02  0.26304098680E+02  0.48093533918E+02  0.70090257734E+02  0.00000000000E+00 0. -1.
<mgrwt>
<rscale>  0 0.81235564E+02</rscale>
<asrwt>0</asrwt>
<pdfrwt beam="1">  1        2 0.32868177E-01 0.50986824E+02</pdfrwt>
<pdfrwt beam="2">  1        2 0.87936571E-01 0.12942985E+03</pdfrwt>
<totfact> 0.12884721E+03</totfact>
</mgrwt>
</event>
<event>
13    1  0.1942437E-008  0.1473255E+03  0.7546771E-02  0.1327232E+00
          2   -1    0    0  503    0  0.00000000000E+00  0.00000000000E+00  0.98535574280E+03  0.98535574280E+03  0.00000000000E+00 0. -1.
          2   -1    0    0  502    0 -0.00000000000E+00 -0.00000000000E+00 -0.11275569858E+04  0.11275569858E+04  0.00000000000E+00 0. -1.
         24    2    1    2    0    0  0.18640219443E+03  0.91863733764E+02 -0.12597956544E+03  0.25606443683E+03  0.80705769521E+02 0.  0.
         24    2    1    2    0    0 -0.20344326403E+03 -0.82242560454E+02  0.13194524802E+03  0.26842053432E+03  0.80542127718E+02 0.  0.
         25    2    1    2    0    0 -0.32915171389E+02 -0.13268083369E+03  0.35366904538E+03  0.39924031118E+03  0.12499368092E+03 0.  0.
        -13    1    4    4    0    0 -0.11211899377E+02 -0.27439798343E+02  0.13953934184E+01  0.29674843614E+02  0.00000000000E+00 0.  1.
         14    1    4    4    0    0 -0.19223136466E+03 -0.54802762111E+02  0.13054985460E+03  0.23874569070E+03  0.00000000000E+00 0. -1.
        -13    1    3    3    0    0  0.38551264273E+02 -0.97391801432E+01 -0.59211629751E+01  0.40200892750E+02  0.00000000000E+00 0.  1.
         14    1    3    3    0    0  0.14785093016E+03  0.10160291391E+03 -0.12005840246E+03  0.21586354408E+03  0.00000000000E+00 0. -1.
          5    1    5    5  501    0  0.40238038790E+02 -0.49140209582E+02  0.19783341004E+03  0.20783168212E+03  0.47000000000E+01 0.  1.
         -5    1    5    5    0  501 -0.73153210179E+02 -0.83540624111E+02  0.15583563534E+03  0.19140862906E+03  0.47000000000E+01 0.  1.
          1    1    1    2  502    0  0.12847779423E+02  0.14696926433E+03 -0.83762058769E+03  0.85051353841E+03  0.00000000000E+00 0. -1.
          1    1    1    2  503    0  0.37108461572E+02 -0.23909603948E+02  0.33578461669E+03  0.33867390789E+03  0.00000000000E+00 0. -1.
<mgrwt>
<rscale>  0 0.80644659E+02</rscale>
<asrwt>0</asrwt>
<pdfrwt beam="1">  1        2 0.14490526E+00 0.44144162E+02</pdfrwt>
<pdfrwt beam="2">  1        2 0.16581720E+00 0.14732551E+03</pdfrwt>
<totfact> 0.11832525E+02</totfact>
</mgrwt>
</event>
<event>
13    1  0.1942437E-008  0.1735139E+03  0.7546771E-02  0.1195234E+00
          2   -1    0    0  502    0  0.00000000000E+00  0.00000000000E+00  0.11580966610E+04  0.11580966610E+04  0.00000000000E+00 0. -1.
          2   -1    0    0  503    0 -0.00000000000E+00 -0.00000000000E+00 -0.24719244000E+04  0.24719244000E+04  0.00000000000E+00 0. -1.
         24    2    1    2    0    0 -0.22177961952E+02 -0.40499895967E+02 -0.14212371964E+03  0.16983198294E+03  0.80694777864E+02 0.  0.
         24    2    1    2    0    0 -0.36719591374E+02  0.21779390643E+03 -0.92755961738E+02  0.25258910265E+03  0.80094146298E+02 0.  0.
         25    2    1    2    0    0  0.37204285073E+03  0.51750025657E+02  0.65678214125E+03  0.76686463297E+03  0.12499854520E+03 0.  0.
        -11    1    3    3    0    0 -0.52478805882E+02 -0.19842987530E+02 -0.80513922265E+02  0.98133892715E+02  0.00000000000E+00 0.  1.
         12    1    3    3    0    0  0.30300843930E+02 -0.20656908437E+02 -0.61609797377E+02  0.71698090224E+02  0.00000000000E+00 0. -1.
        -11    1    4    4    0    0 -0.29214675791E+02  0.64781401626E+02 -0.66173774283E+02  0.97103530734E+02  0.00000000000E+00 0.  1.
         12    1    4    4    0    0 -0.75049155839E+01  0.15301250481E+03 -0.26582187455E+02  0.15548557192E+03  0.00000000000E+00 0. -1.
          5    1    5    5  501    0  0.27837850474E+03  0.65602171092E+01  0.55661102881E+03  0.62239501584E+03  0.47000000000E+01 0.  1.
         -5    1    5    5    0  501  0.93664345993E+02  0.45189808548E+02  0.10017111244E+03  0.14446961713E+03  0.47000000000E+01 0.  1.
          1    1    1    2  502    0 -0.13706182898E+03 -0.49963099104E+01  0.32899489450E+03  0.35643870256E+03  0.00000000000E+00 0. -1.
          1    1    1    2  503    0 -0.17608346843E+03 -0.22404772621E+03 -0.20647250934E+04  0.20842966398E+04  0.00000000000E+00 0. -1.
<mgrwt>
<rscale>  0 0.15434462E+03</rscale>
<asrwt>0</asrwt>
<pdfrwt beam="1">  1        2 0.17030833E+00 0.13729312E+03</pdfrwt>
<pdfrwt beam="2">  1        2 0.36351829E+00 0.17351386E+03</pdfrwt>
<totfact> 0.18500929E+01</totfact>
</mgrwt>
</event>
<event>
13    1  0.1942437E-008  0.7397509E+02  0.7546771E-02  0.1441039E+00
          2   -1    0    0  503    0  0.00000000000E+00  0.00000000000E+00  0.10304943173E+04  0.10304943173E+04  0.00000000000E+00 0. -1.
          2   -1    0    0  502    0 -0.00000000000E+00 -0.00000000000E+00 -0.29943557842E+04  0.29943557842E+04  0.00000000000E+00 0. -1.
         24    2    1    2    0    0  0.63360555886E+02 -0.32194013491E+02 -0.41417283139E+03  0.42794613677E+03  0.80918151013E+02 0.  0.
         24    2    1    2    0    0 -0.52332279978E+02  0.79825085984E+02 -0.13221172737E+03  0.18221736209E+03  0.81317367845E+02 0.  0.
         25    2    1    2    0    0  0.27816127843E+02 -0.69532731023E+02  0.47573585444E+02  0.15328362643E+03  0.12499634573E+03 0.  0.
        -13    1    3    3    0    0  0.45906860219E+02  0.17298008073E+02 -0.12958907394E+03  0.13856402485E+03  0.00000000000E+00 0.  1.
         14    1    3    3    0    0  0.17453695667E+02 -0.49492021564E+02 -0.28458375745E+03  0.28938211191E+03  0.00000000000E+00 0. -1.
        -13    1    4    4    0    0 -0.35851723556E+02  0.68075558671E+01 -0.82578679094E+01  0.37414987388E+02  0.00000000000E+00 0.  1.
         14    1    4    4    0    0 -0.16480556422E+02  0.73017530117E+02 -0.12395385946E+03  0.14480237470E+03  0.00000000000E+00 0. -1.
          5    1    5    5  501    0  0.70048159960E+02 -0.27090734258E+02 -0.21968865039E+01  0.75283257811E+02  0.47000000000E+01 0.  1.
         -5    1    5    5    0  501 -0.42232032117E+02 -0.42441996765E+02  0.49770471948E+02  0.78000368615E+02  0.47000000000E+01 0.  1.
          1    1    1    2  502    0  0.33923676262E+02  0.81726823433E+01 -0.23615712878E+04  0.23618290700E+04  0.00000000000E+00 0. -1.
          1    1    1    2  503    0 -0.72768080013E+02  0.13728976186E+02  0.89652079422E+03  0.89957390621E+03  0.00000000000E+00 0. -1.
<mgrwt>
<rscale>  0 0.50806546E+02</rscale>
<asrwt>0</asrwt>
<pdfrwt beam="1">  1        2 0.15154328E+00 0.73975090E+02</pdfrwt>
<pdfrwt beam="2">  1        2 0.44034644E+00 0.34894248E+02</pdfrwt>
<totfact> 0.15473218E+01</totfact>
</mgrwt>
</event>
<event>
13    1  0.1942437E-008  0.1593017E+03  0.7546771E-02  0.1285470E+00
          2   -1    0    0  502    0  0.00000000000E+00  0.00000000000E+00  0.36939876740E+03  0.36939876740E+03  0.00000000000E+00 0. -1.
          2   -1    0    0  503    0 -0.00000000000E+00 -0.00000000000E+00 -0.36009938750E+04  0.36009938750E+04  0.00000000000E+00 0. -1.
         24    2    1    2    0    0  0.45711265249E+02  0.52171313766E+02 -0.52649605445E+03  0.53710197771E+03  0.80430549941E+02 0.  0.
         24    2    1    2    0    0  0.20169733099E+02  0.50883455315E+01 -0.18029818410E+03  0.19864041222E+03  0.80733318922E+02 0.  0.
         25    2    1    2    0    0  0.89367615683E+01  0.45861645216E+02 -0.10859436979E+01  0.13342275334E+03  0.12496917870E+03 0.  0.
        -11    1    4    4    0    0 -0.21946538170E+02 -0.23717471878E+02 -0.67264474829E+02  0.74623579276E+02  0.00000000000E+00 0.  1.
         12    1    4    4    0    0  0.42116271269E+02  0.28805817409E+02 -0.11303370927E+03  0.12401683295E+03  0.00000000000E+00 0. -1.
        -13    1    3    3    0    0  0.28786292829E+02 -0.10648785950E+02 -0.76507371132E+02  0.82434368649E+02  0.00000000000E+00 0.  1.
         14    1    3    3    0    0  0.16924972420E+02  0.62820099717E+02 -0.44998868331E+03  0.45466760906E+03  0.00000000000E+00 0. -1.
          5    1    5    5  501    0  0.25735406613E+02 -0.36680672346E+02 -0.15878590432E+02  0.47770309936E+02  0.47000000000E+01 0. -1.
         -5    1    5    5    0  501 -0.16798645045E+02  0.82542317561E+02  0.14792646734E+02  0.85652443404E+02  0.47000000000E+01 0. -1.
          1    1    1    2  502    0 -0.47676126164E+02 -0.15637531335E+03  0.26527128055E+03  0.31160087278E+03  0.00000000000E+00 0. -1.
          1    1    1    2  503    0 -0.27141633752E+02  0.53254008836E+02 -0.27889862059E+04  0.27896266264E+04  0.00000000000E+00 0. -1.
<mgrwt>
<rscale>  0 0.97579370E+02</rscale>
<asrwt>0</asrwt>
<pdfrwt beam="1">  1        2 0.54323346E-01 0.15930166E+03</pdfrwt>
<pdfrwt beam="2">  1        2 0.52955794E+00 0.59771714E+02</pdfrwt>
<totfact> 0.20765496E+01</totfact>
</mgrwt>
</event>
<event>
13    1  0.1942437E-008  0.9880274E+02  0.7546771E-02  0.1388632E+00
          2   -1    0    0  502    0  0.00000000000E+00  0.00000000000E+00  0.33837031316E+03  0.33837031316E+03  0.00000000000E+00 0. -1.
          2   -1    0    0  503    0 -0.00000000000E+00 -0.00000000000E+00 -0.20933191000E+04  0.20933191000E+04  0.00000000000E+00 0. -1.
         24    2    1    2    0    0 -0.57551103943E+02 -0.69417916332E+02 -0.60884955267E+03  0.62095692693E+03  0.82211621074E+02 0.  0.
         24    2    1    2    0    0  0.18129483415E+02  0.20719622201E+02  0.10177988892E+02  0.85698848138E+02  0.80515341403E+02 0.  0.
         25    2    1    2    0    0 -0.78949996050E+02  0.26248569022E+02  0.97455478844E+01  0.15046941869E+03  0.12499592395E+03 0.  0.
        -11    1    3    3    0    0 -0.40933567973E+02 -0.58492852878E+01 -0.39711696175E+03  0.39926388821E+03  0.00000000000E+00 0.  1.
         12    1    3    3    0    0 -0.16617535970E+02 -0.63568631044E+02 -0.21173259092E+03  0.22169303871E+03  0.00000000000E+00 0. -1.
        -13    1    4    4    0    0  0.15586459197E+02  0.36267471227E+02 -0.25295542952E+02  0.46884236933E+02  0.00000000000E+00 0.  1.
         14    1    4    4    0    0  0.25430242179E+01 -0.15547849025E+02  0.35473531845E+02  0.38814611205E+02  0.00000000000E+00 0. -1.
          5    1    5    5  501    0 -0.30683665778E+02  0.50663118422E+02 -0.44106637916E+02  0.73998137964E+02  0.47000000000E+01 0.  1.
         -5    1    5    5    0  501 -0.48266330272E+02 -0.24414549401E+02  0.53852185801E+02  0.76471280726E+02  0.47000000000E+01 0.  1.
          1    1    1    2  502    0  0.12252786737E+03 -0.16547258337E+02  0.18525103210E+03  0.22272142900E+03  0.00000000000E+00 0. -1.
          1    1    1    2  503    0 -0.41562507930E+01  0.38996983445E+02 -0.13512738031E+04  0.13518427904E+04  0.00000000000E+00 0. -1.
<mgrwt>
<rscale>  0 0.62248134E+02</rscale>
<asrwt>0</asrwt>
<pdfrwt beam="1">  1        2 0.49760340E-01 0.98802737E+02</pdfrwt>
<pdfrwt beam="2">  1        2 0.30784104E+00 0.39217842E+02</pdfrwt>
<totfact> 0.14346408E+02</totfact>
</mgrwt>
</event>
<event>
13    1  0.1942437E-008  0.6573166E+02  0.7546771E-02  0.1421825E+00
          2   -1    0    0  502    0  0.00000000000E+00  0.00000000000E+00  0.10305562557E+04  0.10305562557E+04  0.00000000000E+00 0. -1.
          2   -1    0    0  503    0 -0.00000000000E+00 -0.00000000000E+00 -0.81345044400E+03  0.81345044400E+03  0.00000000000E+00 0. -1.
         24    2    1    2    0    0 -0.11731351498E+02 -0.68311615982E+02 -0.35066713733E+02  0.11755232199E+03  0.88231357849E+02 0.  0.
         24    2    1    2    0    0  0.75579812879E+02 -0.19827961680E+03 -0.30871125526E+03  0.38335613280E+03  0.81438141452E+02 0.  0.
         25    2    1    2    0    0 -0.10143237585E+03  0.37036245571E+03  0.28397572916E+03  0.49368324679E+03  0.12499623169E+03 0.  0.
        -13    1    4    4    0    0  0.11247664892E+02  0.55301466247E+01 -0.98583851455E+01  0.15946167091E+02  0.00000000000E+00 0.  1.
         14    1    4    4    0    0  0.64332147988E+02 -0.20380976342E+03 -0.29885287011E+03  0.36740996571E+03  0.00000000000E+00 0. -1.
        -13    1    3    3    0    0 -0.26858209466E+02 -0.84984871480E+02 -0.32608876597E+02  0.94905904080E+02  0.00000000000E+00 0.  1.
         14    1    3    3    0    0  0.15126857968E+02  0.16673255499E+02 -0.24578371358E+01  0.22646417913E+02  0.00000000000E+00 0. -1.
          5    1    5    5  501    0 -0.56850773485E+02  0.77476875379E+02  0.23190461423E+02  0.98967490447E+02  0.47000000000E+01 0. -1.
         -5    1    5    5    0  501 -0.44581602364E+02  0.29288558033E+03  0.26078526774E+03  0.39471575634E+03  0.47000000000E+01 0. -1.
          1    1    1    2  502    0  0.19852903312E+02 -0.40845255131E+02  0.55849499650E+03  0.56033841002E+03  0.00000000000E+00 0. -1.
          1    1    1    2  503    0  0.17731011156E+02 -0.62925967801E+02 -0.28158694499E+03  0.28907658806E+03  0.00000000000E+00 0. -1.
<mgrwt>
<rscale>  0 0.54636685E+02</rscale>
<asrwt>0</asrwt>
<pdfrwt beam="1">  1        2 0.15155239E+00 0.45414454E+02</pdfrwt>
<pdfrwt beam="2">  1        2 0.11962506E+00 0.65731659E+02</pdfrwt>
<totfact> 0.17710264E+02</totfact>
</mgrwt>
</event>
<event>
13    1  0.1942437E-008  0.1548476E+03  0.7546771E-02  0.1363160E+00
          2   -1    0    0  502    0  0.00000000000E+00  0.00000000000E+00  0.17904854883E+04  0.17904854883E+04  0.00000000000E+00 0. -1.
          2   -1    0    0  503    0 -0.00000000000E+00 -0.00000000000E+00 -0.18780307624E+04  0.18780307624E+04  0.00000000000E+00 0. -1.
         24    2    1    2    0    0 -0.16174563397E+03 -0.44070413917E+02 -0.25471009895E+03  0.31698998436E+03  0.86611570742E+02 0.  0.
         24    2    1    2    0    0 -0.28367842773E+02 -0.10010992962E+03  0.26640616349E+03  0.29735058377E+03  0.81353507672E+02 0.  0.
         25    2    1    2    0    0  0.95829495570E+02  0.59449246883E+02  0.23315997059E+03  0.28758342236E+03  0.12499259079E+03 0.  0.
        -11    1    4    4    0    0 -0.24731115899E+02  0.62887560450E+01  0.47040564279E+02  0.53516270740E+02  0.00000000000E+00 0.  1.
         12    1    4    4    0    0 -0.36367268736E+01 -0.10639868566E+03  0.21936559921E+03  0.24383431303E+03  0.00000000000E+00 0. -1.
        -13    1    3    3    0    0 -0.15756495062E+02 -0.15697577961E+02 -0.99790790139E+02  0.10223934119E+03  0.00000000000E+00 0.  1.
         14    1    3    3    0    0 -0.14598913891E+03 -0.28372835956E+02 -0.15491930881E+03  0.21475064317E+03  0.00000000000E+00 0. -1.
          5    1    5    5  501    0 -0.53701251436E+01  0.66351342613E+02  0.88449264801E+02  0.11080027687E+03  0.47000000000E+01 0.  1.
         -5    1    5    5    0  501  0.10119962071E+03 -0.69020957306E+01  0.14471070579E+03  0.17678314549E+03  0.47000000000E+01 0.  1.
          1    1    1    2  502    0 -0.30032651511E+02 -0.70140163794E+01  0.12130474544E+04  0.12134394436E+04  0.00000000000E+00 0. -1.
          1    1    1    2  503    0  0.12431663268E+03  0.91745113031E+02 -0.15454487636E+04  0.15531528166E+04  0.00000000000E+00 0. -1.
<mgrwt>
<rscale>  0 0.69105909E+02</rscale>
<asrwt>0</asrwt>
<pdfrwt beam="1">  1        2 0.26330669E+00 0.30840827E+02</pdfrwt>
<pdfrwt beam="2">  1        2 0.27618099E+00 0.15484756E+03</pdfrwt>
<totfact> 0.20357686E+01</totfact>
</mgrwt>
</event>
<event>
13    1  0.1942437E-008  0.1397779E+03  0.7546771E-02  0.1305038E+00
          2   -1    0    0  502    0  0.00000000000E+00  0.00000000000E+00  0.19580699463E+04  0.19580699463E+04  0.00000000000E+00 0. -1.
          2   -1    0    0  503    0 -0.00000000000E+00 -0.00000000000E+00 -0.20158965051E+04  0.20158965051E+04  0.00000000000E+00 0. -1.
         24    2    1    2    0    0 -0.56214621739E+01 -0.10731049889E+03 -0.15213136086E+03  0.20496056720E+03  0.85543784934E+02 0.  0.
         24    2    1    2    0    0  0.67972202983E+02  0.18411937800E+03  0.14861010111E+03  0.25883350347E+03  0.79935315291E+02 0.  0.
         25    2    1    2    0    0 -0.33478835595E+02  0.74199209249E+02  0.17578784519E+03  0.23055137768E+03  0.12500486450E+03 0.  0.
        -11    1    3    3    0    0  0.29706471454E+02 -0.92511337651E+01 -0.21389555658E+02  0.37756734677E+02  0.00000000000E+00 0.  1.
         12    1    3    3    0    0 -0.35327933628E+02 -0.98059365123E+02 -0.13074180520E+03  0.16720383252E+03  0.00000000000E+00 0. -1.
        -11    1    4    4    0    0  0.85681048572E+02  0.16444127836E+03  0.13126121617E+03  0.22718204810E+03  0.00000000000E+00 0.  1.
         12    1    4    4    0    0 -0.17708845588E+02  0.19678099646E+02  0.17348884942E+02  0.31651455361E+02  0.00000000000E+00 0. -1.
          5    1    5    5  501    0 -0.47164482163E+02  0.99393769897E+02  0.97616619599E+02  0.14715537467E+03  0.47000000000E+01 0. -1.
         -5    1    5    5    0  501  0.13685646568E+02 -0.25194560648E+02  0.78171225589E+02  0.83396003012E+02  0.47000000000E+01 0. -1.
          1    1    1    2  502    0 -0.75019882806E+02 -0.11789269631E+03  0.15211009135E+04  0.15275060260E+04  0.00000000000E+00 0. -1.
          1    1    1    2  503    0  0.46147977591E+02 -0.33115392050E+02 -0.17511940577E+04  0.17521149770E+04  0.00000000000E+00 0. -1.
<mgrwt>
<rscale>  0 0.89103396E+02</rscale>
<asrwt>0</asrwt>
<pdfrwt beam="1">  1        2 0.28795146E+00 0.13977789E+03</pdfrwt>
<pdfrwt beam="2">  1        2 0.29645537E+00 0.56800220E+02</pdfrwt>
<totfact> 0.13837017E+01</totfact>
</mgrwt>
</event>
<event>
13    1  0.1942437E-008  0.5105482E+02  0.7546771E-02  0.1526569E+00
          2   -1    0    0  503    0  0.00000000000E+00  0.00000000000E+00  0.12393277631E+04  0.12393277631E+04  0.00000000000E+00 0. -1.
          2   -1    0    0  502    0 -0.00000000000E+00 -0.00000000000E+00 -0.12291585955E+04  0.12291585955E+04  0.00000000000E+00 0. -1.
         24    2    1    2    0    0 -0.48849112175E+02 -0.40596295105E+01 -0.53162553134E+03  0.53904483167E+03  0.74437279801E+02 0.  0.
         24    2    1    2    0    0 -0.37750565882E+02 -0.23862023112E+01 -0.14411256894E+03  0.16878333632E+03  0.79300585800E+02 0.  0.
         25    2    1    2    0    0  0.70202711190E+02 -0.23057772543E+02 -0.70849751012E+02  0.16156527841E+03  0.12499428161E+03 0.  0.
        -11    1    4    4    0    0 -0.51835079955E+02 -0.18713902306E+02 -0.57978539618E+02  0.79991228954E+02  0.00000000000E+00 0.  1.
         12    1    4    4    0    0  0.14084514072E+02  0.16327699995E+02 -0.86134029323E+02  0.88792107370E+02  0.00000000000E+00 0. -1.
        -13    1    3    3    0    0  0.10634722497E+02 -0.23727900261E+02 -0.13179433411E+03  0.13433486918E+03  0.00000000000E+00 0.  1.
         14    1    3    3    0    0 -0.59483834671E+02  0.19668270750E+02 -0.39983119722E+03  0.40470996249E+03  0.00000000000E+00 0. -1.
          5    1    5    5  501    0 -0.85002234757E+00  0.40730674035E+02 -0.48261057384E+02  0.63331903533E+02  0.47000000000E+01 0.  1.
         -5    1    5    5    0  501  0.71052733537E+02 -0.63788446578E+02 -0.22588693628E+02  0.98233374877E+02  0.47000000000E+01 0.  1.
          1    1    1    2  502    0 -0.27497352393E+02  0.33996784958E+01 -0.42015791508E+03  0.42107046418E+03  0.00000000000E+00 0. -1.
          1    1    1    2  503    0  0.43894319261E+02  0.26103925868E+02  0.11769149339E+04  0.11780224480E+04  0.00000000000E+00 0. -1.
<mgrwt>
<rscale>  0 0.37610657E+02</rscale>
<asrwt>0</asrwt>
<pdfrwt beam="1">  1        2 0.18225408E+00 0.51054822E+02</pdfrwt>
<pdfrwt beam="2">  1        2 0.18075862E+00 0.27706718E+02</pdfrwt>
<totfact> 0.84457414E+01</totfact>
</mgrwt>
</event>
<event>
13    1  0.1942437E-008  0.1243124E+03  0.7546771E-02  0.1341907E+00
          2   -1    0    0  502    0  0.00000000000E+00  0.00000000000E+00  0.24521386018E+04  0.24521386018E+04  0.00000000000E+00 0. -1.
          2   -1    0    0  503    0 -0.00000000000E+00 -0.00000000000E+00 -0.16992140845E+04  0.16992140845E+04  0.00000000000E+00 0. -1.
         24    2    1    2    0    0  0.71360965856E+02 -0.16443845775E+02 -0.46321052881E+03  0.47608239826E+03  0.82022365382E+02 0.  0.
         24    2    1    2    0    0 -0.63779343817E+02 -0.50650505223E+01 -0.41984841150E+03  0.43221268930E+03  0.80259957101E+02 0.  0.
         25    2    1    2    0    0  0.83075897375E+02 -0.88813949458E+02  0.24056785516E+03  0.29713265479E+03  0.12500159704E+03 0.  0.
        -11    1    4    4    0    0 -0.49781900912E+01  0.31478939564E+02 -0.16937953374E+03  0.17235176954E+03  0.00000000000E+00 0.  1.
         12    1    4    4    0    0 -0.58801153726E+02 -0.36543990086E+02 -0.25046887776E+03  0.25986091976E+03  0.00000000000E+00 0. -1.
        -13    1    3    3    0    0  0.52812411531E+02  0.28683844967E+02 -0.28809069185E+03  0.29429264433E+03  0.00000000000E+00 0.  1.
         14    1    3    3    0    0  0.18548554325E+02 -0.45127690742E+02 -0.17511983696E+03  0.18178975393E+03  0.00000000000E+00 0. -1.
          5    1    5    5  501    0  0.49553973883E+02 -0.10250725058E+02  0.10798769131E+02  0.51955530087E+02  0.47000000000E+01 0.  1.
         -5    1    5    5    0  501  0.33521923491E+02 -0.78563224400E+02  0.22976908603E+03  0.24517712470E+03  0.47000000000E+01 0.  1.
          1    1    1    2  502    0  0.97839335868E+01  0.44969917699E+02  0.21657937827E+04  0.21662826981E+04  0.00000000000E+00 0. -1.
          1    1    1    2  503    0 -0.10044145300E+03  0.65352928057E+02 -0.77037818029E+03  0.77964224575E+03  0.00000000000E+00 0. -1.
<mgrwt>
<rscale>  0 0.75637924E+02</rscale>
<asrwt>0</asrwt>
<pdfrwt beam="1">  1        2 0.36060862E+00 0.46021939E+02</pdfrwt>
<pdfrwt beam="2">  1        2 0.24988442E+00 0.12431235E+03</pdfrwt>
<totfact> 0.11972804E+01</totfact>
</mgrwt>
</event>
<event>
13    1  0.1942437E-008  0.1031941E+03  0.7546771E-02  0.1317745E+00
          2   -1    0    0  502    0  0.00000000000E+00  0.00000000000E+00  0.11041851108E+04  0.11041851108E+04  0.00000000000E+00 0. -1.
          2   -1    0    0  503    0 -0.00000000000E+00 -0.00000000000E+00 -0.13185460665E+04  0.13185460665E+04  0.00000000000E+00 0. -1.
         24    2    1    2    0    0 -0.37858101297E+02  0.44570804631E+02 -0.11000762568E+03  0.14728755931E+03  0.78563063596E+02 0.  0.
         24    2    1    2    0    0  0.13257642934E+02  0.35251233802E+02 -0.85172989061E+02  0.13188002374E+03  0.93378198827E+02 0.  0.
         25    2    1    2    0    0 -0.98709799014E+02 -0.72979474202E+02  0.58745309942E+02  0.18480064889E+03  0.12502255922E+03 0.  0.
        -11    1    4    4    0    0  0.37072565037E+02 -0.12630109177E+02 -0.11450823485E+02  0.40804608743E+02  0.00000000000E+00 0.  1.
         12    1    4    4    0    0 -0.23814922102E+02  0.47881342978E+02 -0.73722165576E+02  0.91075415000E+02  0.00000000000E+00 0. -1.
        -13    1    3    3    0    0 -0.34262936899E+02  0.57490094077E+02 -0.44379085351E+02  0.80302945018E+02  0.00000000000E+00 0.  1.
         14    1    3    3    0    0 -0.35951643981E+01 -0.12919289446E+02 -0.65628540325E+02  0.66984614294E+02  0.00000000000E+00 0. -1.
          5    1    5    5  501    0  0.89865853102E+01  0.25801040897E+02  0.17865303446E+02  0.32980471405E+02  0.47000000000E+01 0. -1.
         -5    1    5    5    0  501 -0.10769638432E+03 -0.98780515099E+02  0.40880006496E+02  0.15182017748E+03  0.47000000000E+01 0. -1.
          1    1    1    2  502    0  0.34790754148E+02 -0.59093778844E+02  0.93656799805E+03  0.93907512279E+03  0.00000000000E+00 0. -1.
          1    1    1    2  503    0  0.88519503229E+02  0.52251214614E+02 -0.10144936489E+04  0.10196878226E+04  0.00000000000E+00 0. -1.
<mgrwt>
<rscale>  0 0.84121897E+02</rscale>
<asrwt>0</asrwt>
<pdfrwt beam="1">  1        2 0.16238016E+00 0.68574567E+02</pdfrwt>
<pdfrwt beam="2">  1        2 0.19390383E+00 0.10319414E+03</pdfrwt>
<totfact> 0.80481239E+01</totfact>
</mgrwt>
</event>
<event>
13    1  0.1942437E-008  0.1607012E+03  0.7546771E-02  0.1377243E+00
          2   -1    0    0  503    0  0.00000000000E+00  0.00000000000E+00  0.11475583498E+04  0.11475583498E+04  0.00000000000E+00 0. -1.
          2   -1    0    0  502    0 -0.00000000000E+00 -0.00000000000E+00 -0.12026947165E+04  0.12026947165E+04  0.00000000000E+00 0. -1.
         24    2    1    2    0    0  0.89720298235E+01 -0.10898492755E+03 -0.80772427393E+02  0.15351966039E+03  0.71315421512E+02 0.  0.
         24    2    1    2    0    0 -0.53884049159E+03  0.39736558382E+02 -0.32595699208E+03  0.63353681702E+03  0.56505472104E+02 0.  0.
         25    2    1    2    0    0  0.62617507223E+03  0.17317168618E+03 -0.23458151773E+02  0.66200961472E+03  0.12499116417E+03 0.  0.
        -11    1    4    4    0    0 -0.40779657414E+03  0.66162698942E+01 -0.23668373573E+03  0.47155170625E+03  0.00000000000E+00 0.  1.
         12    1    4    4    0    0 -0.13104391745E+03  0.33120288488E+02 -0.89273256351E+02  0.16198511077E+03  0.00000000000E+00 0. -1.
        -13    1    3    3    0    0 -0.29739335115E+02 -0.63016223320E+02 -0.35007216423E+02  0.77980623595E+02  0.00000000000E+00 0.  1.
         14    1    3    3    0    0  0.38711364939E+02 -0.45968704233E+02 -0.45765210970E+02  0.75539036792E+02  0.00000000000E+00 0. -1.
          5    1    5    5  501    0  0.30251816340E+03  0.74795899174E+02  0.50452235872E+02  0.31572010361E+03  0.47000000000E+01 0.  1.
         -5    1    5    5    0  501  0.32365690882E+03  0.98375787008E+02 -0.73910387644E+02  0.34628951110E+03  0.47000000000E+01 0.  1.
          1    1    1    2  502    0  0.26428827864E+02 -0.10139147800E+01 -0.25231502463E+03  0.25369742336E+03  0.00000000000E+00 0. -1.
          1    1    1    2  503    0 -0.12273543832E+03 -0.10290940223E+03  0.62736622922E+03  0.64748955085E+03  0.00000000000E+00 0. -1.
<mgrwt>
<rscale>  0 0.65194084E+02</rscale>
<asrwt>0</asrwt>
<pdfrwt beam="1">  1        2 0.16875858E+00 0.16070120E+03</pdfrwt>
<pdfrwt beam="2">  1        2 0.17686687E+00 0.26448270E+02</pdfrwt>
<totfact> 0.91101592E+01</totfact>
</mgrwt>
</event>
<event>
13    1  0.1942437E-008  0.1562366E+03  0.7546771E-02  0.1199107E+00
          2   -1    0    0  503    0  0.00000000000E+00  0.00000000000E+00  0.13933002933E+04  0.13933002933E+04  0.00000000000E+00 0. -1.
          2   -1    0    0  502    0 -0.00000000000E+00 -0.00000000000E+00 -0.36650518072E+04  0.36650518072E+04  0.00000000000E+00 0. -1.
         24    2    1    2    0    0  0.44497491973E+02 -0.79740318534E+02 -0.54983243790E+02  0.13105595592E+03  0.76249336339E+02 0.  0.
         24    2    1    2    0    0  0.36861132139E+02  0.69164952236E+02 -0.10488736658E+03  0.15282530026E+03  0.78814205894E+02 0.  0.
         25    2    1    2    0    0  0.92215899372E+01 -0.20824396410E+03  0.12971245798E+03  0.27550184587E+03  0.12500143606E+03 0.  0.
        -11    1    3    3    0    0  0.25787168009E+01 -0.76902045472E+02 -0.36095150819E+02  0.84990789447E+02  0.00000000000E+00 0.  1.
         12    1    3    3    0    0  0.41918775172E+02 -0.28382730616E+01 -0.18888092972E+02  0.46065166471E+02  0.00000000000E+00 0. -1.
        -13    1    4    4    0    0  0.47274453231E+02  0.23490515175E+02 -0.88776802720E+02  0.10328600550E+03  0.00000000000E+00 0.  1.
         14    1    4    4    0    0 -0.10413321093E+02  0.45674437061E+02 -0.16110563859E+02  0.49539294756E+02  0.00000000000E+00 0. -1.
          5    1    5    5  501    0 -0.29037636841E+01 -0.17040094751E+02 -0.23915950266E+02  0.29880752162E+02  0.47000000000E+01 0.  1.
         -5    1    5    5    0  501  0.12125353621E+02 -0.19120386935E+03  0.15362840825E+03  0.24562109371E+03  0.47000000000E+01 0.  1.
          1    1    1    2  502    0  0.12054383001E+03  0.10211417030E+03 -0.33555118377E+04  0.33592287525E+04  0.00000000000E+00 0. -1.
          1    1    1    2  503    0 -0.21112404406E+03  0.11670516010E+03  0.11139184762E+04  0.11397402458E+04  0.00000000000E+00 0. -1.
<mgrwt>
<rscale>  0 0.15111671E+03</rscale>
<asrwt>0</asrwt>
<pdfrwt beam="1">  1        2 0.20489711E+00 0.14616462E+03</pdfrwt>
<pdfrwt beam="2">  1        2 0.53897819E+00 0.15623659E+03</pdfrwt>
<totfact> 0.30624849E+00</totfact>
</mgrwt>
</event>
<event>
13    1  0.1942437E-008  0.8692140E+02  0.7546771E-02  0.1388901E+00
          2   -1    0    0  502    0  0.00000000000E+00  0.00000000000E+00  0.18199042024E+04  0.18199042024E+04  0.00000000000E+00 0. -1.
          2   -1    0    0  503    0 -0.00000000000E+00 -0.00000000000E+00 -0.39928206202E+03  0.39928206202E+03  0.00000000000E+00 0. -1.
         24    2    1    2    0    0 -0.15985444698E+02  0.74304337655E+02 -0.34124934888E+02  0.11655238749E+03  0.81506311480E+02 0.  0.
         24    2    1    2    0    0  0.63299897313E+02 -0.80108076158E+02 -0.33901801831E+02  0.13459974610E+03  0.80892389122E+02 0.  0.
         25    2    1    2    0    0  0.75766643203E+02 -0.34539748823E+02  0.20292222362E+03  0.25246014133E+03  0.12500046260E+03 0.  0.
        -11    1    3    3    0    0 -0.27659501592E+02  0.78304268183E+02 -0.49622443035E+02  0.96741890083E+02  0.00000000000E+00 0.  1.
         12    1    3    3    0    0  0.11674056894E+02 -0.39999305284E+01  0.15497508147E+02  0.19810497403E+02  0.00000000000E+00 0. -1.
        -11    1    4    4    0    0  0.28946423966E+02 -0.84039110915E+02 -0.41454877127E+01  0.88981192913E+02  0.00000000000E+00 0.  1.
         12    1    4    4    0    0  0.34353473347E+02  0.39310347566E+01 -0.29756314118E+02  0.45618553190E+02  0.00000000000E+00 0. -1.
          5    1    5    5  501    0  0.10598715290E+03 -0.39402023771E+01  0.13215908390E+03  0.16951966031E+03  0.47000000000E+01 0. -1.
         -5    1    5    5    0  501 -0.30220509695E+02 -0.30599546446E+02  0.70763139727E+02  0.82940481027E+02  0.47000000000E+01 0. -1.
          1    1    1    2  502    0 -0.39748831329E+02  0.19967759229E+02  0.14917450409E+04  0.14924081037E+04  0.00000000000E+00 0. -1.
          1    1    1    2  503    0 -0.83332264489E+02  0.20375728097E+02 -0.20601838744E+03  0.22316588575E+03  0.00000000000E+00 0. -1.
<mgrwt>
<rscale>  0 0.62180941E+02</rscale>
<asrwt>0</asrwt>
<pdfrwt beam="1">  1        2 0.26763297E+00 0.44482367E+02</pdfrwt>
<pdfrwt beam="2">  1        2 0.58717951E-01 0.86921396E+02</pdfrwt>
<totfact> 0.15886307E+02</totfact>
</mgrwt>
</event>
<event>
13    1  0.1942437E-008  0.7620567E+02  0.7546771E-02  0.1453772E+00
          2   -1    0    0  502    0  0.00000000000E+00  0.00000000000E+00  0.85684728930E+03  0.85684728930E+03  0.00000000000E+00 0. -1.
          2   -1    0    0  503    0 -0.00000000000E+00 -0.00000000000E+00 -0.34354500511E+04  0.34354500511E+04  0.00000000000E+00 0. -1.
         24    2    1    2    0    0 -0.69770833167E+03  0.61053323371E+03 -0.91116452442E+03  0.13022482220E+04  0.77986509240E+02 0.  0.
         24    2    1    2    0    0  0.63991893696E+03 -0.83079172881E+03 -0.46844698811E+03  0.11512393452E+04  0.78729326041E+02 0.  0.
         25    2    1    2    0    0  0.69438775342E+02  0.11401905114E+03 -0.81425627379E+02  0.20019591737E+03  0.12500473989E+03 0.  0.
        -11    1    4    4    0    0  0.30974878629E+03 -0.33818805127E+03 -0.20308037581E+03  0.50155469061E+03  0.00000000000E+00 0.  1.
         12    1    4    4    0    0  0.33017015067E+03 -0.49260367754E+03 -0.26536661230E+03  0.64968465461E+03  0.00000000000E+00 0. -1.
        -11    1    3    3    0    0 -0.62556265662E+03  0.52830661224E+03 -0.77318153402E+03  0.11261643745E+04  0.00000000000E+00 0.  1.
         12    1    3    3    0    0 -0.72145675050E+02  0.82226621469E+02 -0.13798299040E+03  0.17608384749E+03  0.00000000000E+00 0. -1.
          5    1    5    5  501    0  0.10312713148E+02 -0.17263305741E+02 -0.48080720801E+02  0.52327999105E+02  0.47000000000E+01 0. -1.
         -5    1    5    5    0  501  0.59126062194E+02  0.13128235688E+03 -0.33344906578E+02  0.14786791827E+03  0.47000000000E+01 0. -1.
          1    1    1    2  502    0 -0.64825648053E+01  0.75846271739E+02  0.25478670146E+03  0.26591529445E+03  0.00000000000E+00 0. -1.
          1    1    1    2  503    0 -0.51668158225E+01  0.30393172219E+02 -0.13723523234E+04  0.13726985613E+04  0.00000000000E+00 0. -1.
<mgrwt>
<rscale>  0 0.48470212E+02</rscale>
<asrwt>0</asrwt>
<pdfrwt beam="1">  1        2 0.12600695E+00 0.76205668E+02</pdfrwt>
<pdfrwt beam="2">  1        2 0.50521324E+00 0.30829222E+02</pdfrwt>
<totfact> 0.11707630E+01</totfact>
</mgrwt>
</event>
<event>
13    1  0.1942437E-008  0.1491983E+03  0.7546771E-02  0.1358752E+00
          2   -1    0    0  503    0  0.00000000000E+00  0.00000000000E+00  0.10776844436E+04  0.10776844436E+04  0.00000000000E+00 0. -1.
          2   -1    0    0  502    0 -0.00000000000E+00 -0.00000000000E+00 -0.31568702762E+04  0.31568702762E+04  0.00000000000E+00 0. -1.
         24    2    1    2    0    0  0.15600608237E+03 -0.99512822404E+02 -0.48574979472E+03  0.52549832189E+03  0.77168151993E+02 0.  0.
         24    2    1    2    0    0  0.43050878719E+02 -0.16801201765E+03 -0.48594992212E+03  0.52231377034E+03  0.81135267599E+02 0.  0.
         25    2    1    2    0    0 -0.36563203198E+02  0.34856306542E+03  0.65049043448E+03  0.74939682460E+03  0.12499886791E+03 0.  0.
        -11    1    3    3    0    0  0.12115492515E+03 -0.10101379290E+03 -0.44345113916E+03  0.47067102637E+03  0.00000000000E+00 0.  1.
         12    1    3    3    0    0  0.34851157221E+02  0.15009704932E+01 -0.42298655566E+02  0.54827295527E+02  0.00000000000E+00 0. -1.
        -11    1    4    4    0    0  0.11334805255E+02  0.49183837999E+01 -0.64316632881E+02  0.65492729173E+02  0.00000000000E+00 0.  1.
         12    1    4    4    0    0  0.31716073464E+02 -0.17293040145E+03 -0.42163328924E+03  0.45682104117E+03  0.00000000000E+00 0. -1.
          5    1    5    5  501    0 -0.71980246027E+02  0.12709660231E+03  0.22295103994E+03  0.26657824057E+03  0.47000000000E+01 0.  1.
         -5    1    5    5    0  501  0.35417042829E+02  0.22146646310E+03  0.42753939453E+03  0.48281858403E+03  0.47000000000E+01 0.  1.
          1    1    1    2  502    0 -0.13607118184E+03 -0.60911798685E+02 -0.20941929541E+04  0.20994927346E+04  0.00000000000E+00 0. -1.
          1    1    1    2  503    0 -0.26422576044E+02 -0.20126426682E+02  0.33621640387E+03  0.33785306837E+03  0.00000000000E+00 0. -1.
<mgrwt>
<rscale>  0 0.70396001E+02</rscale>
<asrwt>0</asrwt>
<pdfrwt beam="1">  1        2 0.15848301E+00 0.33214840E+02</pdfrwt>
<pdfrwt beam="2">  1        2 0.46424563E+00 0.14919828E+03</pdfrwt>
<totfact> 0.98121215E+00</totfact>
</mgrwt>
</event>
<event>
13    1  0.1942437E-008  0.1705647E+03  0.7546771E-02  0.1327937E+00
          2   -1    0    0  502    0  0.00000000000E+00  0.00000000000E+00  0.19273347197E+04  0.19273347197E+04  0.00000000000E+00 0. -1.
          2   -1    0    0  503    0 -0.00000000000E+00 -0.00000000000E+00 -0.28208253453E+04  0.28208253453E+04  0.00000000000E+00 0. -1.
         24    2    1    2    0    0 -0.43199514639E+02  0.27371598938E+03 -0.16750811728E+04  0.16997941520E+04  0.81342381156E+02 0.  0.
         24    2    1    2    0    0  0.32535184182E+02 -0.16141719066E+03 -0.70973211611E+03  0.73297986577E+03  0.80160834113E+02 0.  0.
         25    2    1    2    0    0 -0.11499233956E+03  0.65081299893E+02  0.93216636444E+03  0.94974776472E+03  0.12501148687E+03 0.  0.
        -11    1    3    3    0    0  0.95602362808E+01  0.61299354617E+02 -0.22950808722E+03  0.23774560162E+03  0.00000000000E+00 0.  1.
         12    1    3    3    0    0 -0.52759750920E+02  0.21241663476E+03 -0.14455730856E+04  0.14620485504E+04  0.00000000000E+00 0. -1.
        -13    1    4    4    0    0 -0.35903120528E+01  0.39393652877E+01 -0.10141158087E+03  0.10155155180E+03  0.00000000000E+00 0.  1.
         14    1    4    4    0    0  0.36125496235E+02 -0.16535655594E+03 -0.60832053524E+03  0.63142831396E+03  0.00000000000E+00 0. -1.
          5    1    5    5  501    0 -0.95721274319E+02  0.98409651628E+02  0.61116375903E+03  0.62641060994E+03  0.47000000000E+01 0.  1.
         -5    1    5    5    0  501 -0.19271065243E+02 -0.33328351735E+02  0.32100260540E+03  0.32333715478E+03  0.47000000000E+01 0.  1.
          1    1    1    2  502    0  0.15468757145E+03 -0.20173319513E+03  0.94466477619E+03  0.97827197964E+03  0.00000000000E+00 0. -1.
          1    1    1    2  503    0 -0.29030901432E+02  0.24353096515E+02 -0.38550847729E+03  0.38736630288E+03  0.00000000000E+00 0. -1.
<mgrwt>
<rscale>  0 0.80393905E+02</rscale>
<asrwt>0</asrwt>
<pdfrwt beam="1">  1        2 0.28343158E+00 0.17056472E+03</pdfrwt>
<pdfrwt beam="2">  1        2 0.41482726E+00 0.37892830E+02</pdfrwt>
<totfact> 0.61360399E+00</totfact>
</mgrwt>
</event>
<event>
13    1  0.1942437E-008  0.9184368E+02  0.7546771E-02  0.1451368E+00
          2   -1    0    0  502    0  0.00000000000E+00  0.00000000000E+00  0.15901805412E+04  0.15901805412E+04  0.00000000000E+00 0. -1.
          2   -1    0    0  503    0 -0.00000000000E+00 -0.00000000000E+00 -0.15490229695E+04  0.15490229695E+04  0.00000000000E+00 0. -1.
         24    2    1    2    0    0  0.16722383166E+02 -0.31223946124E+01 -0.92827903756E+02  0.12443030938E+03  0.81095590073E+02 0.  0.
         24    2    1    2    0    0 -0.27177897381E+02  0.53733709993E+02  0.25924051121E+01  0.10215600058E+03  0.82481380892E+02 0.  0.
         25    2    1    2    0    0 -0.28358821325E+02  0.15298329502E+01  0.73419180038E+03  0.74530197083E+03  0.12502345716E+03 0.  0.
        -13    1    3    3    0    0 -0.28807363886E+02  0.14658752311E+02 -0.49464851444E+02  0.59089040961E+02  0.00000000000E+00 0.  1.
         14    1    3    3    0    0  0.45529747052E+02 -0.17781146923E+02 -0.43363052312E+02  0.65341268417E+02  0.00000000000E+00 0. -1.
        -13    1    4    4    0    0 -0.38597716442E+02 -0.77998002168E+01  0.37937499349E+01  0.39560246922E+02  0.00000000000E+00 0.  1.
         14    1    4    4    0    0  0.11419819061E+02  0.61533510210E+02 -0.12013448228E+01  0.62595753654E+02  0.00000000000E+00 0. -1.
          5    1    5    5  501    0  0.19987400269E+02  0.50384562448E+02  0.22574136956E+03  0.23220541819E+03  0.47000000000E+01 0.  1.
         -5    1    5    5    0  501 -0.48346221594E+02 -0.48854729498E+02  0.50845043081E+03  0.51309655264E+03  0.47000000000E+01 0.  1.
          1    1    1    2  502    0 -0.19860163624E+02  0.16834858069E+02  0.78056082522E+03  0.78099490422E+03  0.00000000000E+00 0. -1.
          1    1    1    2  503    0  0.58674499165E+02 -0.68976006399E+02 -0.13833595553E+04  0.13863203257E+04  0.00000000000E+00 0. -1.
<mgrwt>
<rscale>  0 0.48899702E+02</rscale>
<asrwt>0</asrwt>
<pdfrwt beam="1">  1        2 0.23385008E+00 0.26035333E+02</pdfrwt>
<pdfrwt beam="2">  1        2 0.22779750E+00 0.91843682E+02</pdfrwt>
<totfact> 0.38679304E+01</totfact>
</mgrwt>
</event>
<event>
13    1  0.1942437E-008  0.1551089E+03  0.7546771E-02  0.1384201E+00
          2   -1    0    0  503    0  0.00000000000E+00  0.00000000000E+00  0.46118570194E+03  0.46118570194E+03  0.00000000000E+00 0. -1.
          2   -1    0    0  502    0 -0.00000000000E+00 -0.00000000000E+00 -0.31680847295E+04  0.31680847295E+04  0.00000000000E+00 0. -1.
         24    2    1    2    0    0 -0.19033656751E+02  0.89481413999E+02 -0.34117528621E+03  0.36214817850E+03  0.79884439818E+02 0.  0.
         24    2    1    2    0    0  0.67515756770E+01 -0.26427455720E+02 -0.23751843495E+03  0.25196536165E+03  0.79545850561E+02 0.  0.
         25    2    1    2    0    0  0.31618686219E+02  0.82798142198E+02 -0.10524542611E+03  0.18589371973E+03  0.12499840658E+03 0.  0.
        -13    1    4    4    0    0 -0.62390616608E+01  0.15755862827E+02 -0.89310224252E+01  0.19155580528E+02  0.00000000000E+00 0.  1.
         14    1    4    4    0    0  0.12990637338E+02 -0.42183318547E+02 -0.22858741253E+03  0.23280978112E+03  0.00000000000E+00 0. -1.
        -13    1    3    3    0    0 -0.89025038222E+01  0.78401508495E+02 -0.14234446070E+03  0.16275133364E+03  0.00000000000E+00 0.  1.
         14    1    3    3    0    0 -0.10131152929E+02  0.11079905503E+02 -0.19883082551E+03  0.19939684486E+03  0.00000000000E+00 0. -1.
          5    1    5    5  501    0  0.67082966780E+02  0.30407188175E+02 -0.97053690634E+02  0.12192715198E+03  0.47000000000E+01 0. -1.
         -5    1    5    5    0  501 -0.35464280561E+02  0.52390954023E+02 -0.81917354715E+01  0.63966567746E+02  0.47000000000E+01 0. -1.
          1    1    1    2  502    0  0.24574305372E+01 -0.15983085257E+03 -0.24230596091E+04  0.24283265451E+04  0.00000000000E+00 0. -1.
          1    1    1    2  503    0 -0.21794035682E+02  0.13978752096E+02  0.40009972877E+03  0.40093662649E+03  0.00000000000E+00 0. -1.
<mgrwt>
<rscale>  0 0.63372304E+02</rscale>
<asrwt>0</asrwt>
<pdfrwt beam="1">  1        2 0.67821428E-01 0.25891804E+02</pdfrwt>
<pdfrwt beam="2">  1        2 0.46589480E+00 0.15510889E+03</pdfrwt>
<totfact> 0.24807440E+01</totfact>
</mgrwt>
</event>
<event>
13    1  0.1942437E-008  0.5504531E+02  0.7546771E-02  0.1440936E+00
          2   -1    0    0  502    0  0.00000000000E+00  0.00000000000E+00  0.21708767232E+04  0.21708767232E+04  0.00000000000E+00 0. -1.
          2   -1    0    0  503    0 -0.00000000000E+00 -0.00000000000E+00 -0.17083909999E+04  0.17083909999E+04  0.00000000000E+00 0. -1.
         24    2    1    2    0    0 -0.56484787696E+01  0.12055618912E+03 -0.69493167999E+03  0.70982748880E+03  0.79745369525E+02 0.  0.
         24    2    1    2    0    0  0.45748184336E+02  0.55375380485E+02 -0.35327074542E+02  0.11388981567E+03  0.81015793424E+02 0.  0.
         25    2    1    2    0    0 -0.96278131269E+02 -0.23759170591E+03 -0.75166419167E+01  0.28530800651E+03  0.12499944558E+03 0.  0.
        -11    1    3    3    0    0  0.15937646616E+02 -0.46421916723E+01 -0.11104993307E+03  0.11228377513E+03  0.00000000000E+00 0.  1.
         12    1    3    3    0    0 -0.21586125386E+02  0.12519838079E+03 -0.58388174692E+03  0.59754371367E+03  0.00000000000E+00 0. -1.
        -13    1    4    4    0    0  0.11404105958E+02  0.40332205443E+02  0.20486005228E+02  0.46652082899E+02  0.00000000000E+00 0.  1.
         14    1    4    4    0    0  0.34344078378E+02  0.15043175042E+02 -0.55813079770E+02  0.67237732773E+02  0.00000000000E+00 0. -1.
          5    1    5    5  501    0 -0.50495855030E+02 -0.23344570510E+03 -0.92026039947E+01  0.23906799561E+03  0.47000000000E+01 0. -1.
         -5    1    5    5    0  501 -0.45782276239E+02 -0.41460008166E+01  0.16859620780E+01  0.46240010905E+02  0.47000000000E+01 0. -1.
          1    1    1    2  502    0  0.98528149325E+01  0.54149747210E+02  0.19841683864E+04  0.19849316005E+04  0.00000000000E+00 0. -1.
          1    1    1    2  503    0  0.46325610770E+02  0.75103891017E+01 -0.78390726665E+03  0.78531081163E+03  0.00000000000E+00 0. -1.
<mgrwt>
<rscale>  0 0.50826193E+02</rscale>
<asrwt>0</asrwt>
<pdfrwt beam="1">  1        2 0.31924658E+00 0.55045314E+02</pdfrwt>
<pdfrwt beam="2">  1        2 0.25123397E+00 0.46930461E+02</pdfrwt>
<totfact> 0.17184988E+01</totfact>
</mgrwt>
</event>
<event>
13    1  0.1942437E-008  0.5198361E+02  0.7546771E-02  0.1580959E+00
          2   -1    0    0  502    0  0.00000000000E+00  0.00000000000E+00  0.29810201143E+03  0.29810201143E+03  0.00000000000E+00 0. -1.
          2   -1    0    0  503    0 -0.00000000000E+00 -0.00000000000E+00 -0.25951613068E+04  0.25951613068E+04  0.00000000000E+00 0. -1.
         24    2    1    2    0    0  0.36632912028E+01  0.27848367790E+01 -0.66598852009E+03  0.67085220958E+03  0.80503435922E+02 0.  0.
         24    2    1    2    0    0 -0.17100308948E+02 -0.76015069707E+02 -0.40371699705E+03  0.41930824034E+03  0.82226974407E+02 0.  0.
         25    2    1    2    0    0 -0.11651290622E+02  0.12227549074E+03 -0.19559579174E+03  0.26262473554E+03  0.12500795880E+03 0.  0.
        -11    1    4    4    0    0 -0.76961602756E+01 -0.86690153329E+02 -0.38983216446E+03  0.39942900498E+03  0.00000000000E+00 0.  1.
         12    1    4    4    0    0 -0.94041486719E+01  0.10675083622E+02 -0.13884832586E+02  0.19879235361E+02  0.00000000000E+00 0. -1.
        -11    1    3    3    0    0 -0.36650042564E+02  0.13041655817E+02 -0.30242475077E+03  0.30491644804E+03  0.00000000000E+00 0.  1.
         12    1    3    3    0    0  0.40313333767E+02 -0.10256819038E+02 -0.36356376932E+03  0.36593576154E+03  0.00000000000E+00 0. -1.
          5    1    5    5  501    0 -0.23397654375E+01 -0.20766435570E+02 -0.17517167466E+01  0.21491343842E+02  0.47000000000E+01 0.  1.
         -5    1    5    5    0  501 -0.93115251841E+01  0.14304192631E+03 -0.19384407499E+03  0.24113339170E+03  0.47000000000E+01 0.  1.
          1    1    1    2  502    0  0.19044354715E+02  0.25895720087E+01  0.25347075431E+03  0.25419838045E+03  0.00000000000E+00 0. -1.
          1    1    1    2  503    0  0.60439536509E+01 -0.51634829819E+02 -0.12852287408E+04  0.12862797523E+04  0.00000000000E+00 0. -1.
<mgrwt>
<rscale>  0 0.31608615E+02</rscale>
<asrwt>0</asrwt>
<pdfrwt beam="1">  1        2 0.43838531E-01 0.19219608E+02</pdfrwt>
<pdfrwt beam="2">  1        2 0.38164137E+00 0.51983606E+02</pdfrwt>
<totfact> 0.89078819E+01</totfact>
</mgrwt>
</event>
<event>
13    1  0.1942437E-008  0.1525940E+03  0.7546771E-02  0.1382658E+00
          2   -1    0    0  502    0  0.00000000000E+00  0.00000000000E+00  0.20154079139E+04  0.20154079139E+04  0.00000000000E+00 0. -1.
          2   -1    0    0  503    0 -0.00000000000E+00 -0.00000000000E+00 -0.19177274484E+04  0.19177274484E+04  0.00000000000E+00 0. -1.
         24    2    1    2    0    0 -0.22116021934E+03  0.76573290540E+02  0.40197494841E+02  0.25067478114E+03  0.80291318738E+02 0.  0.
         24    2    1    2    0    0  0.16236415720E+02  0.70225974462E+01 -0.78630734035E+02  0.11467274634E+03  0.81572718161E+02 0.  0.
         25    2    1    2    0    0 -0.86314140018E+02 -0.13411877908E+02  0.53913889094E+03  0.56029334331E+03  0.12501150986E+03 0.  0.
        -13    1    4    4    0    0  0.46986802198E+02  0.16574610526E+02 -0.37091720393E+02  0.62114998323E+02  0.00000000000E+00 0.  1.
         14    1    4    4    0    0 -0.30750386478E+02 -0.95520130797E+01 -0.41539013642E+02  0.52557748018E+02  0.00000000000E+00 0. -1.
        -13    1    3    3    0    0 -0.28577065109E+02  0.28685742418E+02 -0.17349778951E+02  0.44051507330E+02  0.00000000000E+00 0.  1.
         14    1    3    3    0    0 -0.19258315423E+03  0.47887548122E+02  0.57547273793E+02  0.20662327381E+03  0.00000000000E+00 0. -1.
          5    1    5    5  501    0  0.13193343114E+02 -0.43614865758E+02  0.12069213135E+03  0.12909299512E+03  0.47000000000E+01 0.  1.
         -5    1    5    5    0  501 -0.99507483132E+02  0.30202987850E+02  0.41844675959E+03  0.43120034819E+03  0.47000000000E+01 0.  1.
          1    1    1    2  502    0  0.26540355843E+02  0.24161496253E+01  0.12910516556E+04  0.12913266843E+04  0.00000000000E+00 0. -1.
          1    1    1    2  503    0  0.26469758779E+03 -0.72600159704E+02 -0.16940768419E+04  0.17161678072E+04  0.00000000000E+00 0. -1.
<mgrwt>
<rscale>  0 0.63770265E+02</rscale>
<asrwt>0</asrwt>
<pdfrwt beam="1">  1        2 0.29638352E+00 0.26650108E+02</pdfrwt>
<pdfrwt beam="2">  1        2 0.28201874E+00 0.15259400E+03</pdfrwt>
<totfact> 0.15703345E+01</totfact>
</mgrwt>
</event>
<event>
13    1  0.1942437E-008  0.3414158E+02  0.7546771E-02  0.1639019E+00
          2   -1    0    0  502    0  0.00000000000E+00  0.00000000000E+00  0.33343945035E+04  0.33343945035E+04  0.00000000000E+00 0. -1.
          2   -1    0    0  503    0 -0.00000000000E+00 -0.00000000000E+00 -0.10317608076E+04  0.10317608076E+04  0.00000000000E+00 0. -1.
         24    2    1    2    0    0 -0.36910334929E+02  0.21066435266E+03 -0.62386981367E+02  0.23830457497E+03  0.84587781042E+02 0.  0.
         24    2    1    2    0    0 -0.11345003047E+03 -0.22494666715E+03  0.56547312320E+03  0.62709376471E+03  0.10007409355E+03 0.  0.
         25    2    1    2    0    0  0.13907254184E+03  0.22040194272E+02  0.28747039349E+03  0.34364266220E+03  0.12499644033E+03 0.  0.
        -11    1    3    3    0    0 -0.50586383553E+02  0.15320017319E+03 -0.13991068497E+02  0.16194142541E+03  0.00000000000E+00 0.  1.
         12    1    3    3    0    0  0.13676048624E+02  0.57464179469E+02 -0.48395912870E+02  0.76363149559E+02  0.00000000000E+00 0. -1.
        -11    1    4    4    0    0 -0.78009531277E+02 -0.11436814202E+03  0.41203215495E+03  0.43466775311E+03  0.00000000000E+00 0.  1.
         12    1    4    4    0    0 -0.35440499194E+02 -0.11057852513E+03  0.15344096825E+03  0.19242601160E+03  0.00000000000E+00 0. -1.
          5    1    5    5  501    0  0.97758523929E+02 -0.24079189431E+02  0.84945318004E+02  0.13181173474E+03  0.47000000000E+01 0. -1.
         -5    1    5    5    0  501  0.41314017906E+02  0.46119383703E+02  0.20252507549E+03  0.21183092746E+03  0.47000000000E+01 0. -1.
          1    1    1    2  502    0 -0.19508174574E+02  0.69985685391E+01  0.23341952661E+04  0.23342872765E+04  0.00000000000E+00 0. -1.
          1    1    1    2  503    0  0.30795998138E+02 -0.14756448320E+02 -0.82211810557E+03  0.82282703272E+03  0.00000000000E+00 0. -1.
<mgrwt>
<rscale>  0 0.26600814E+02</rscale>
<asrwt>0</asrwt>
<pdfrwt beam="1">  1        2 0.49035213E+00 0.20725560E+02</pdfrwt>
<pdfrwt beam="2">  1        2 0.15172953E+00 0.34141577E+02</pdfrwt>
<totfact> 0.11891656E+01</totfact>
</mgrwt>
</event>
<event>
13    1  0.1942437E-008  0.6560401E+02  0.7546771E-02  0.1542795E+00
          2   -1    0    0  503    0  0.00000000000E+00  0.00000000000E+00  0.90518358052E+03  0.90518358052E+03  0.00000000000E+00 0. -1.
          2   -1    0    0  502    0 -0.00000000000E+00 -0.00000000000E+00 -0.17536735568E+04  0.17536735568E+04  0.00000000000E+00 0. -1.
         24    2    1    2    0    0 -0.14838627347E+03  0.14568179821E+03 -0.25251119132E+03  0.33917955620E+03  0.89661569931E+02 0.  0.
         24    2    1    2    0    0  0.92543755676E+01 -0.49803336968E+03 -0.20029906561E+03  0.54294155947E+03  0.80888445035E+02 0.  0.
         25    2    1    2    0    0  0.16842168899E+03  0.27424790538E+03  0.35210015798E+03  0.49313047309E+03  0.12500145325E+03 0.  0.
        -11    1    3    3    0    0 -0.10698167917E+03  0.14587847087E+03 -0.17716157999E+03  0.25320314643E+03  0.00000000000E+00 0.  1.
         12    1    3    3    0    0 -0.41404594303E+02 -0.19667265831E+00 -0.75349611329E+02  0.85976409770E+02  0.00000000000E+00 0. -1.
        -13    1    4    4    0    0 -0.30755863592E+02 -0.10112040332E+03 -0.44185463284E+02  0.11455834443E+03  0.00000000000E+00 0.  1.
         14    1    4    4    0    0  0.40010239159E+02 -0.39691296636E+03 -0.15611360233E+03  0.42838321505E+03  0.00000000000E+00 0. -1.
          5    1    5    5  501    0  0.15416659492E+03  0.28602899989E+03  0.32190110223E+03  0.45740828303E+03  0.47000000000E+01 0.  1.
         -5    1    5    5    0  501  0.14255094068E+02 -0.11781094508E+02  0.30199055756E+02  0.35722190068E+02  0.47000000000E+01 0.  1.
          1    1    1    2  502    0 -0.16614081559E+02  0.63435574720E+02 -0.10142818404E+04  0.10163994056E+04  0.00000000000E+00 0. -1.
          1    1    1    2  503    0 -0.12675709521E+02  0.14668091365E+02  0.26650196309E+03  0.26720614298E+03  0.00000000000E+00 0. -1.
<mgrwt>
<rscale>  0 0.35662522E+02</rscale>
<asrwt>0</asrwt>
<pdfrwt beam="1">  1        2 0.13311523E+00 0.19386246E+02</pdfrwt>
<pdfrwt beam="2">  1        2 0.25789317E+00 0.65604011E+02</pdfrwt>
<totfact> 0.69940995E+01</totfact>
</mgrwt>
</event>
<event>
13    1  0.1942437E-008  0.7321180E+02  0.7546771E-02  0.1431704E+00
          2   -1    0    0  503    0  0.00000000000E+00  0.00000000000E+00  0.91398427046E+03  0.91398427046E+03  0.00000000000E+00 0. -1.
          2   -1    0    0  502    0 -0.00000000000E+00 -0.00000000000E+00 -0.90292034409E+03  0.90292034409E+03  0.00000000000E+00 0. -1.
         24    2    1    2    0    0 -0.17845537458E+02  0.25503284601E+02 -0.65737791315E+02  0.10797502590E+03  0.79801430309E+02 0.  0.
         24    2    1    2    0    0 -0.21640986181E+03 -0.50136986943E+02  0.15285821044E+03  0.28097537376E+03  0.78959371938E+02 0.  0.
         25    2    1    2    0    0  0.16545510362E+03  0.69952679885E+02  0.30957431656E+03  0.37911665814E+03  0.12499765706E+03 0.  0.
        -11    1    3    3    0    0 -0.67088055566E+01 -0.20683665411E+02 -0.55173870248E+02  0.59304114907E+02  0.00000000000E+00 0.  1.
         12    1    3    3    0    0 -0.11136731901E+02  0.46186950013E+02 -0.10563921068E+02  0.48670910997E+02  0.00000000000E+00 0. -1.
        -13    1    4    4    0    0 -0.14500940681E+03 -0.58179178353E+02  0.69731975852E+02  0.17109965901E+03  0.00000000000E+00 0.  1.
         14    1    4    4    0    0 -0.71400454998E+02  0.80421914096E+01  0.83126234586E+02  0.10987571476E+03  0.00000000000E+00 0. -1.
          5    1    5    5  501    0  0.63275957814E+02 -0.17048316433E+02  0.18356899575E+03  0.19497219836E+03  0.47000000000E+01 0.  1.
         -5    1    5    5    0  501  0.10217914580E+03  0.87000996317E+02  0.12600532081E+03  0.18414445979E+03  0.47000000000E+01 0.  1.
          1    1    1    2  502    0  0.47626071724E+02 -0.76654950594E+02 -0.71330347158E+03  0.71898961517E+03  0.00000000000E+00 0. -1.
          1    1    1    2  503    0  0.21174223923E+02  0.31335973051E+02  0.32767266226E+03  0.32984794157E+03  0.00000000000E+00 0. -1.
<mgrwt>
<rscale>  0 0.52619491E+02</rscale>
<asrwt>0</asrwt>
<pdfrwt beam="1">  1        2 0.13440945E+00 0.37819188E+02</pdfrwt>
<pdfrwt beam="2">  1        2 0.13278240E+00 0.73211800E+02</pdfrwt>
<totfact> 0.18204313E+02</totfact>
</mgrwt>
</event>
<event>
13    1  0.1942437E-008  0.6461279E+02  0.7546771E-02  0.1557165E+00
          2   -1    0    0  502    0  0.00000000000E+00  0.00000000000E+00  0.23952157986E+04  0.23952157986E+04  0.00000000000E+00 0. -1.
          2   -1    0    0  503    0 -0.00000000000E+00 -0.00000000000E+00 -0.27637826296E+03  0.27637826296E+03  0.00000000000E+00 0. -1.
         24    2    1    2    0    0 -0.59513225762E+01  0.24590832214E+02 -0.12444794347E+03  0.15891050145E+03  0.95525544059E+02 0.  0.
         24    2    1    2    0    0  0.68232734355E+02  0.42683848001E+02  0.26318085282E+03  0.28681761384E+03  0.80762400901E+02 0.  0.
         25    2    1    2    0    0 -0.12160176716E+03 -0.47811860581E+02  0.14299607617E+04  0.14413486148E+04  0.12500034228E+03 0.  0.
        -11    1    4    4    0    0  0.61661030365E+02 -0.79590714150E+01  0.16096686949E+03  0.17255654887E+03  0.00000000000E+00 0.  1.
         12    1    4    4    0    0  0.65717039904E+01  0.50642919416E+02  0.10221398333E+03  0.11426106497E+03  0.00000000000E+00 0. -1.
        -13    1    3    3    0    0 -0.19488091366E+02 -0.18501608419E+02 -0.10727186743E+03  0.11058638597E+03  0.00000000000E+00 0.  1.
         14    1    3    3    0    0  0.13536768790E+02  0.43092440633E+02 -0.17176076037E+02  0.48324115481E+02  0.00000000000E+00 0. -1.
          5    1    5    5  501    0 -0.63899084995E+02 -0.56316273092E+02  0.36720041548E+03  0.37697858136E+03  0.47000000000E+01 0.  1.
         -5    1    5    5    0  501 -0.57702682163E+02  0.85044125113E+01  0.10627603462E+04  0.10643700334E+04  0.47000000000E+01 0.  1.
          1    1    1    2  502    0  0.59134338855E+01  0.16945949893E+02  0.65828606304E+03  0.65853069383E+03  0.00000000000E+00 0. -1.
          1    1    1    2  503    0  0.53406921493E+02 -0.36408769527E+02 -0.10814219850E+03  0.12598663761E+03  0.00000000000E+00 0. -1.
<mgrwt>
<rscale>  0 0.34054017E+02</rscale>
<asrwt>0</asrwt>
<pdfrwt beam="1">  1        2 0.35223761E+00 0.17948090E+02</pdfrwt>
<pdfrwt beam="2">  1        2 0.40643863E-01 0.64612785E+02</pdfrwt>
<totfact> 0.14348253E+02</totfact>
</mgrwt>
</event>
<event>
13    1  0.1942437E-008  0.1673003E+03  0.7546771E-02  0.1357861E+00
         -3   -1    0    0    0  501 -0.00000000000E+00  0.00000000000E+00  0.28948507437E+03  0.28948507437E+03  0.00000000000E+00 0.  1.
          2   -1    0    0  503    0  0.00000000000E+00 -0.00000000000E+00 -0.21401852145E+04  0.21401852145E+04  0.00000000000E+00 0. -1.
         24    2    1    2    0    0  0.10106616065E+03 -0.53705306618E+02  0.64505012533E+02  0.15416734792E+03  0.80672459583E+02 0.  0.
         24    2    1    2    0    0  0.52702696845E+02  0.67736998710E+02 -0.19381604995E+01  0.11114665403E+03  0.70597074914E+02 0.  0.
         25    2    1    2    0    0  0.87463296189E+01  0.56310180722E+02 -0.37627049136E+03  0.40054923748E+03  0.12495148757E+03 0.  0.
        -13    1    3    3    0    0  0.67060887380E+01 -0.36071477853E+02 -0.30037399656E+01  0.36812302216E+02  0.00000000000E+00 0.  1.
         14    1    3    3    0    0  0.94360071912E+02 -0.17633828765E+02  0.67508752498E+02  0.11735504570E+03  0.00000000000E+00 0. -1.
        -13    1    4    4    0    0  0.67830866462E+02  0.41316322333E+02  0.61027694765E+01  0.79657446176E+02  0.00000000000E+00 0.  1.
         14    1    4    4    0    0 -0.15128169617E+02  0.26420676377E+02 -0.80409299760E+01  0.31489207851E+02  0.00000000000E+00 0. -1.
          5    1    5    5  502    0  0.61660261314E+02  0.51098746235E+02 -0.26940678055E+03  0.28109637689E+03  0.47000000000E+01 0.  1.
         -5    1    5    5    0  502 -0.52913931695E+02  0.52114344877E+01 -0.10686371080E+03  0.11945286059E+03  0.47000000000E+01 0.  1.
          1    1    1    2  503    0 -0.16566305059E+03 -0.40664204112E+02 -0.16439456485E+04  0.16527719501E+04  0.00000000000E+00 0. -1.
         -4    1    1    2    0  501  0.31478634778E+01 -0.29677668702E+02  0.10694914776E+03  0.11103509928E+03  0.00000000000E+00 0.  1.
<mgrwt>
<rscale>  0 0.70660696E+02</rscale>
<asrwt>0</asrwt>
<pdfrwt beam="2">  1        2 0.31473311E+00 0.16730028E+03</pdfrwt>
<pdfrwt beam="1">  1       -3 0.42571335E-01 0.29844146E+02</pdfrwt>
<totfact> 0.22116531E+01</totfact>
</mgrwt>
</event>
<event>
13    1  0.1942437E-008  0.4296781E+02  0.7546771E-02  0.1548024E+00
          2   -1    0    0  503    0  0.00000000000E+00  0.00000000000E+00  0.41648501667E+03  0.41648501667E+03  0.00000000000E+00 0. -1.
          2   -1    0    0  502    0 -0.00000000000E+00 -0.00000000000E+00 -0.17985047597E+04  0.17985047597E+04  0.00000000000E+00 0. -1.
         24    2    1    2    0    0  0.93593224664E+02  0.97144799614E+02 -0.54874639031E+03  0.57065963675E+03  0.79580250971E+02 0.  0.
         24    2    1    2    0    0 -0.55582044309E+02 -0.39588601482E+02 -0.19965128157E+03  0.22587728882E+03  0.80643005602E+02 0.  0.
         25    2    1    2    0    0 -0.23844083394E+02 -0.40407337495E+02 -0.77276844390E+02  0.15419934162E+03  0.12491770507E+03 0.  0.
        -11    1    3    3    0    0 -0.12405111078E+02  0.34180169475E+01 -0.24739922145E+02  0.27886078398E+02  0.00000000000E+00 0.  1.
         12    1    3    3    0    0  0.10599833574E+03  0.93726782666E+02 -0.52400646816E+03  0.54277355835E+03  0.00000000000E+00 0. -1.
        -13    1    4    4    0    0  0.19601083438E+02 -0.13568384811E+02 -0.28624156103E+02  0.37251118788E+02  0.00000000000E+00 0.  1.
         14    1    4    4    0    0 -0.75183127746E+02 -0.26020216671E+02 -0.17102712547E+03  0.18862617003E+03  0.00000000000E+00 0. -1.
          5    1    5    5  501    0 -0.16809389431E+02  0.44657563735E+02 -0.27055611395E+02  0.55054061428E+02  0.47000000000E+01 0.  1.
         -5    1    5    5    0  501 -0.70346939635E+01 -0.85064901229E+02 -0.50221232995E+02  0.99145280190E+02  0.47000000000E+01 0.  1.
          1    1    1    2  502    0 -0.41938937776E+02 -0.10250969754E+02 -0.90920793309E+03  0.91023240025E+03  0.00000000000E+00 0. -1.
          1    1    1    2  503    0  0.27771840815E+02 -0.68978908826E+01  0.35286270633E+03  0.35402110892E+03  0.00000000000E+00 0. -1.
<mgrwt>
<rscale>  0 0.35064973E+02</rscale>
<asrwt>0</asrwt>
<pdfrwt beam="1">  1        2 0.61247796E-01 0.28615661E+02</pdfrwt>
<pdfrwt beam="2">  1        2 0.26448600E+00 0.42967813E+02</pdfrwt>
<totfact> 0.15614417E+02</totfact>
</mgrwt>
</event>
<event>
13    1  0.1942437E-008  0.5919237E+02  0.7546771E-02  0.1422987E+00
          2   -1    0    0  503    0  0.00000000000E+00  0.00000000000E+00  0.30913135791E+04  0.30913135791E+04  0.00000000000E+00 0. -1.
          2   -1    0    0  502    0 -0.00000000000E+00 -0.00000000000E+00 -0.72889014729E+03  0.72889014729E+03  0.00000000000E+00 0. -1.
         24    2    1    2    0    0 -0.84784191545E+02 -0.49967104855E+03 -0.66294622941E+02  0.51886569118E+03  0.89258683365E+02 0.  0.
         24    2    1    2    0    0  0.22923423931E+03  0.48410978854E+03  0.10230859389E+04  0.11576346754E+04  0.80638572190E+02 0.  0.
         25    2    1    2    0    0 -0.19530175865E+03 -0.79677428534E+02  0.69958754916E+03  0.74129557185E+03  0.12492044007E+03 0.  0.
        -13    1    4    4    0    0  0.29109248133E+02  0.20838910002E+02  0.50268582170E+02  0.61713360388E+02  0.00000000000E+00 0.  1.
         14    1    4    4    0    0  0.20012499117E+03  0.46327087854E+03  0.97281735678E+03  0.10959213150E+04  0.00000000000E+00 0. -1.
        -13    1    3    3    0    0 -0.43046317318E+01 -0.17070027878E+03  0.12288860981E+02  0.17119617733E+03  0.00000000000E+00 0.  1.
         14    1    3    3    0    0 -0.80479559813E+02 -0.32897076977E+03 -0.78583483922E+02  0.34766951384E+03  0.00000000000E+00 0. -1.
          5    1    5    5  501    0 -0.10394269926E+03 -0.55058231541E+02  0.56232929448E+03  0.57451877168E+03  0.47000000000E+01 0.  1.
         -5    1    5    5    0  501 -0.91359059391E+02 -0.24619196994E+02  0.13725825469E+03  0.16677680016E+03  0.47000000000E+01 0.  1.
          1    1    1    2  502    0  0.20649236471E+02  0.55410845759E+02 -0.34507269562E+03  0.35010272501E+03  0.00000000000E+00 0. -1.
          1    1    1    2  503    0  0.30202474415E+02  0.39827842781E+02  0.10511172623E+04  0.10523050630E+04  0.00000000000E+00 0. -1.
<mgrwt>
<rscale>  0 0.54393925E+02</rscale>
<asrwt>0</asrwt>
<pdfrwt beam="1">  1        2 0.45460493E+00 0.49984463E+02</pdfrwt>
<pdfrwt beam="2">  1        2 0.10718973E+00 0.59192375E+02</pdfrwt>
<totfact> 0.19948305E+01</totfact>
</mgrwt>
</event>
<event>
13    1  0.1942437E-008  0.5106931E+02  0.7546771E-02  0.1508905E+00
          2   -1    0    0  502    0  0.00000000000E+00  0.00000000000E+00  0.12599484120E+04  0.12599484120E+04  0.00000000000E+00 0. -1.
          2   -1    0    0  503    0 -0.00000000000E+00 -0.00000000000E+00 -0.17515163803E+04  0.17515163803E+04  0.00000000000E+00 0. -1.
         24    2    1    2    0    0  0.73607293355E+02  0.45556635462E+02 -0.58932608166E+02  0.13055525137E+03  0.77962687777E+02 0.  0.
         24    2    1    2    0    0 -0.90201822292E+02  0.50559513430E+02 -0.11631022265E+03  0.17587909649E+03  0.81931407579E+02 0.  0.
         25    2    1    2    0    0  0.51338912368E+02 -0.58888625014E+02  0.43762254544E+02  0.15377027473E+03  0.12500643339E+03 0.  0.
        -11    1    3    3    0    0  0.16305710451E+01  0.42820962471E+02 -0.32680597300E+02  0.53891697215E+02  0.00000000000E+00 0.  1.
         12    1    3    3    0    0  0.71976722310E+02  0.27356729909E+01 -0.26252010867E+02  0.76663554155E+02  0.00000000000E+00 0. -1.
        -11    1    4    4    0    0 -0.10971627267E+02  0.34032842963E+02 -0.19954311330E+01  0.35813304098E+02  0.00000000000E+00 0.  1.
         12    1    4    4    0    0 -0.79230195025E+02  0.16526670467E+02 -0.11431479151E+03  0.14006579239E+03  0.00000000000E+00 0. -1.
          5    1    5    5  501    0  0.65709630473E+02 -0.72955437495E+02 -0.74218688194E+01  0.98577003067E+02  0.47000000000E+01 0.  1.
         -5    1    5    5    0  501 -0.14370718105E+02  0.14066812481E+02  0.51184123363E+02  0.55193271661E+02  0.47000000000E+01 0.  1.
          1    1    1    2  502    0  0.15346542465E+02 -0.27144855261E+02  0.10949159718E+04  0.10953599156E+04  0.00000000000E+00 0. -1.
          1    1    1    2  503    0 -0.50090925896E+02 -0.10082668616E+02 -0.14550033638E+04  0.14559002541E+04  0.00000000000E+00 0. -1.
<mgrwt>
<rscale>  0 0.39905863E+02</rscale>
<asrwt>0</asrwt>
<pdfrwt beam="1">  1        2 0.18528653E+00 0.31182680E+02</pdfrwt>
<pdfrwt beam="2">  1        2 0.25757594E+00 0.51069309E+02</pdfrwt>
<totfact> 0.45877590E+01</totfact>
</mgrwt>
</event>
<event>
13    1  0.1942437E-008  0.2081126E+03  0.7546771E-02  0.1326649E+00
          2   -1    0    0  502    0  0.00000000000E+00  0.00000000000E+00  0.18611143890E+04  0.18611143890E+04  0.00000000000E+00 0. -1.
          2   -1    0    0  503    0 -0.00000000000E+00 -0.00000000000E+00 -0.78981785172E+03  0.78981785172E+03  0.00000000000E+00 0. -1.
         24    2    1    2    0    0  0.62762637887E+02 -0.30400497461E+03 -0.20210262782E+03  0.37902389192E+03  0.80345909472E+02 0.  0.
         24    2    1    2    0    0 -0.30413289379E+03  0.26994403815E+03  0.84642547890E+02  0.42296676010E+03  0.79811768697E+02 0.  0.
         25    2    1    2    0    0  0.56060079806E+02 -0.54745223612E+02  0.30628557977E+03  0.33996238561E+03  0.12499518071E+03 0.  0.
        -11    1    3    3    0    0  0.37065623241E+02 -0.24305497342E+03 -0.11998661582E+03  0.27358064352E+03  0.00000000000E+00 0.  1.
         12    1    3    3    0    0  0.25697014645E+02 -0.60950001191E+02 -0.82116011994E+02  0.10544324840E+03  0.00000000000E+00 0. -1.
        -13    1    4    4    0    0 -0.10043145810E+03  0.48885979717E+02  0.41454228608E+01  0.11177433211E+03  0.00000000000E+00 0.  1.
         14    1    4    4    0    0 -0.20370143569E+03  0.22105805843E+03  0.80497125030E+02  0.31119242799E+03  0.00000000000E+00 0. -1.
          5    1    5    5  501    0  0.83868660969E+02 -0.47189589828E+00  0.20638571805E+03  0.22282578305E+03  0.47000000000E+01 0. -1.
         -5    1    5    5    0  501 -0.27808581163E+02 -0.54273327714E+02  0.99899861719E+02  0.11713660256E+03  0.47000000000E+01 0. -1.
          1    1    1    2  502    0 -0.10790915629E+02  0.29500034886E+02  0.11619927098E+04  0.11624172029E+04  0.00000000000E+00 0. -1.
          1    1    1    2  503    0  0.19610109172E+03  0.59306125191E+02 -0.27952167236E+03  0.34656200020E+03  0.00000000000E+00 0. -1.
<mgrwt>
<rscale>  0 0.80852791E+02</rscale>
<asrwt>0</asrwt>
<pdfrwt beam="1">  1        2 0.27369329E+00 0.31411716E+02</pdfrwt>
<pdfrwt beam="2">  1        2 0.11614968E+00 0.20811259E+03</pdfrwt>
<totfact> 0.72337229E+01</totfact>
</mgrwt>
</event>
<event>
13    1  0.1942437E-008  0.8331522E+02  0.7546771E-02  0.1445001E+00
          2   -1    0    0  502    0  0.00000000000E+00  0.00000000000E+00  0.81075492084E+03  0.81075492084E+03  0.00000000000E+00 0. -1.
          2   -1    0    0  503    0 -0.00000000000E+00 -0.00000000000E+00 -0.27839943035E+03  0.27839943035E+03  0.00000000000E+00 0. -1.
         24    2    1    2    0    0  0.27331376943E+02  0.32523548283E+02  0.18644302157E+02  0.95184764735E+02  0.83112839418E+02 0.  0.
         24    2    1    2    0    0 -0.75327440414E+02  0.54068755865E+02  0.16374557280E+03  0.20452990414E+03  0.80138726194E+02 0.  0.
         25    2    1    2    0    0  0.52996262925E+02  0.23911204775E+02  0.43515288950E+03  0.45644726660E+03  0.12492285758E+03 0.  0.
        -11    1    4    4    0    0 -0.28221041723E+02  0.22783303523E+01  0.21185424751E+01  0.28392009569E+02  0.00000000000E+00 0.  1.
         12    1    4    4    0    0 -0.47106398691E+02  0.51790425513E+02  0.16162703033E+03  0.17613789457E+03  0.00000000000E+00 0. -1.
        -13    1    3    3    0    0 -0.14998943845E+02  0.11387556723E+02  0.39284405372E+02  0.43565000516E+02  0.00000000000E+00 0.  1.
         14    1    3    3    0    0  0.42330320788E+02  0.21135991560E+02 -0.20640103214E+02  0.51619764218E+02  0.00000000000E+00 0. -1.
          5    1    5    5  501    0  0.67838125217E+02  0.28669750708E+02  0.43388777491E+03  0.44011891241E+03  0.47000000000E+01 0.  1.
         -5    1    5    5    0  501 -0.14841862293E+02 -0.47585459327E+01  0.12651145887E+01  0.16328354192E+02  0.47000000000E+01 0.  1.
          1    1    1    2  502    0  0.28510671648E+02 -0.95966074692E+01  0.10819944374E+03  0.11230348569E+03  0.00000000000E+00 0. -1.
          1    1    1    2  503    0 -0.33510871101E+02 -0.10090690145E+03 -0.19338671771E+03  0.22068893002E+03  0.00000000000E+00 0. -1.
<mgrwt>
<rscale>  0 0.50063211E+02</rscale>
<asrwt>0</asrwt>
<pdfrwt beam="1">  1        2 0.11922866E+00 0.30082441E+02</pdfrwt>
<pdfrwt beam="2">  1        2 0.40941093E-01 0.83315217E+02</pdfrwt>
<totfact> 0.76337566E+02</totfact>
</mgrwt>
</event>
<event>
13    1  0.1942437E-008  0.8766849E+02  0.7546771E-02  0.1455867E+00
          2   -1    0    0  502    0  0.00000000000E+00  0.00000000000E+00  0.27115869120E+04  0.27115869120E+04  0.00000000000E+00 0. -1.
          2   -1    0    0  503    0 -0.00000000000E+00 -0.00000000000E+00 -0.14363287810E+04  0.14363287810E+04  0.00000000000E+00 0. -1.
         24    2    1    2    0    0  0.22740337916E+02 -0.10526904996E+03 -0.88279176930E+02  0.16089270238E+03  0.80588788004E+02 0.  0.
         24    2    1    2    0    0  0.42148692248E+00  0.34207479539E+02 -0.54646952376E+02  0.10316754776E+03  0.80541443984E+02 0.  0.
         25    2    1    2    0    0  0.65897079724E+02  0.19101617047E+02  0.97341419777E+03  0.98380179140E+03  0.12499386966E+03 0.  0.
        -13    1    4    4    0    0 -0.18414751986E+02  0.52275173428E+01 -0.64456477411E+02  0.67238883903E+02  0.00000000000E+00 0.  1.
         14    1    4    4    0    0  0.18836238908E+02  0.28979962197E+02  0.98095250351E+01  0.35928663857E+02  0.00000000000E+00 0. -1.
        -13    1    3    3    0    0  0.51565247275E+02 -0.83242724096E+02 -0.59437920259E+02  0.11454777259E+03  0.00000000000E+00 0.  1.
         14    1    3    3    0    0 -0.28824909359E+02 -0.22026325866E+02 -0.28841256670E+02  0.46344929788E+02  0.00000000000E+00 0. -1.
          5    1    5    5  501    0  0.76703313399E+02 -0.42568311091E+01  0.29472956231E+03  0.30461307227E+03  0.47000000000E+01 0. -1.
         -5    1    5    5    0  501 -0.10806233675E+02  0.23358448156E+02  0.67868463546E+03  0.67918871913E+03  0.47000000000E+01 0. -1.
          1    1    1    2  502    0 -0.53942512886E+01  0.25833284511E+02  0.16707430589E+04  0.16709514731E+04  0.00000000000E+00 0. -1.
          1    1    1    2  503    0 -0.83664653274E+02  0.26126668865E+02 -0.12259729963E+04  0.12291021783E+04  0.00000000000E+00 0. -1.
<mgrwt>
<rscale>  0 0.48100022E+02</rscale>
<asrwt>0</asrwt>
<pdfrwt beam="1">  1        2 0.39876278E+00 0.26390463E+02</pdfrwt>
<pdfrwt beam="2">  1        2 0.21122482E+00 0.87668494E+02</pdfrwt>
<totfact> 0.13594082E+01</totfact>
</mgrwt>
</event>
<event>
13    1  0.1942437E-008  0.6581570E+02  0.7546771E-02  0.1471174E+00
          2   -1    0    0  502    0  0.00000000000E+00  0.00000000000E+00  0.29435128504E+03  0.29435128504E+03  0.00000000000E+00 0. -1.
          2   -1    0    0  503    0 -0.00000000000E+00 -0.00000000000E+00 -0.14297447712E+04  0.14297447712E+04  0.00000000000E+00 0. -1.
         24    2    1    2    0    0  0.24928376501E+02  0.17768466919E+02 -0.12673458460E+03  0.15292709431E+03  0.79924332140E+02 0.  0.
         24    2    1    2    0    0  0.61376715983E+02 -0.43060587456E+02 -0.36489606663E+03  0.38113520518E+03  0.80582812846E+02 0.  0.
         25    2    1    2    0    0 -0.43327278858E+02  0.69064436620E+02  0.11331483870E+03  0.18738241101E+03  0.12499906315E+03 0.  0.
        -11    1    4    4    0    0  0.73819197119E+02 -0.35505640725E+02 -0.20774238416E+03  0.22330880539E+03  0.00000000000E+00 0.  1.
         12    1    4    4    0    0 -0.12442481136E+02 -0.75549467308E+01 -0.15715368247E+03  0.15782639979E+03  0.00000000000E+00 0. -1.
        -11    1    3    3    0    0 -0.15840301503E+02  0.35334378418E+02 -0.77495281744E+02  0.86631126868E+02  0.00000000000E+00 0.  1.
         12    1    3    3    0    0  0.40768678004E+02 -0.17565911499E+02 -0.49239302858E+02  0.66295967441E+02  0.00000000000E+00 0. -1.
          5    1    5    5  501    0 -0.76170464914E+02  0.21821715640E+02  0.27591343830E+02  0.84032727274E+02  0.47000000000E+01 0. -1.
         -5    1    5    5    0  501  0.32843186056E+02  0.47242720981E+02  0.85723494872E+02  0.10334968374E+03  0.47000000000E+01 0. -1.
          1    1    1    2  502    0 -0.24673829160E+02  0.19535329819E+02  0.11951292872E+03  0.12358708301E+03  0.00000000000E+00 0. -1.
          1    1    1    2  503    0 -0.18303984466E+02 -0.63307645902E+02 -0.87659060240E+03  0.87906426277E+03  0.00000000000E+00 0. -1.
<mgrwt>
<rscale>  0 0.45511416E+02</rscale>
<asrwt>0</asrwt>
<pdfrwt beam="1">  1        2 0.43286953E-01 0.31471049E+02</pdfrwt>
<pdfrwt beam="2">  1        2 0.21025659E+00 0.65815695E+02</pdfrwt>
<totfact> 0.31819905E+02</totfact>
</mgrwt>
</event>
<event>
13    1  0.1942437E-008  0.8360845E+02  0.7546771E-02  0.1513360E+00
          2   -1    0    0  503    0  0.00000000000E+00  0.00000000000E+00  0.77717318279E+03  0.77717318279E+03  0.00000000000E+00 0. -1.
         -1   -1    0    0    0  501 -0.00000000000E+00 -0.00000000000E+00 -0.12075975619E+04  0.12075975619E+04  0.00000000000E+00 0.  1.
         24    2    1    2    0    0 -0.78075934132E+02  0.65086995290E+01 -0.10083453705E+03  0.15031949727E+03  0.79310357073E+02 0.  0.
         24    2    1    2    0    0  0.16002849966E+03 -0.19006137786E+03 -0.46368535658E+03  0.53225626980E+03  0.80994930565E+02 0.  0.
         25    2    1    2    0    0 -0.14694112438E+03  0.15516714331E+03  0.24055345223E+03  0.34520009422E+03  0.12501442026E+03 0.  0.
        -11    1    4    4    0    0  0.37665564390E+02 -0.29971514821E+01 -0.68990471913E+02  0.78659791969E+02  0.00000000000E+00 0.  1.
         12    1    4    4    0    0  0.12236293527E+03 -0.18706422638E+03 -0.39469488467E+03  0.45359647783E+03  0.00000000000E+00 0. -1.
        -11    1    3    3    0    0  0.15558551290E+02 -0.55759396887E+01 -0.10061355840E+02  0.19349173186E+02  0.00000000000E+00 0.  1.
         12    1    3    3    0    0 -0.93634485422E+02  0.12084639218E+02 -0.90773181206E+02  0.13097032409E+03  0.00000000000E+00 0. -1.
          5    1    5    5  502    0 -0.50463028166E+02  0.52787893680E+01  0.71175621916E+01  0.51450291743E+02  0.47000000000E+01 0. -1.
         -5    1    5    5    0  502 -0.96478096215E+02  0.14988835394E+03  0.23343589004E+03  0.29374980248E+03  0.47000000000E+01 0. -1.
          1    1    1    2  503    0 -0.48352168018E+01 -0.17837453129E+02  0.42176808848E+03  0.42217280173E+03  0.00000000000E+00 0. -1.
         -2    1    1    2    0  501  0.69823775654E+02  0.46222988159E+02 -0.52822602620E+03  0.53482208167E+03  0.00000000000E+00 0.  1.
<mgrwt>
<rscale>  0 0.39308815E+02</rscale>
<asrwt>0</asrwt>
<pdfrwt beam="1">  1        2 0.11429017E+00 0.18481181E+02</pdfrwt>
<pdfrwt beam="2">  1       -1 0.17758788E+00 0.83608453E+02</pdfrwt>
<totfact> 0.12807057E+01</totfact>
</mgrwt>
</event>
<event>
13    1  0.1942437E-008  0.1235659E+03  0.7546771E-02  0.1356442E+00
          2   -1    0    0  503    0  0.00000000000E+00  0.00000000000E+00  0.21657631709E+04  0.21657631709E+04  0.00000000000E+00 0. -1.
          2   -1    0    0  502    0 -0.00000000000E+00 -0.00000000000E+00 -0.91042752815E+03  0.91042752815E+03  0.00000000000E+00 0. -1.
         24    2    1    2    0    0  0.27223226502E+02  0.57625383366E+02 -0.90946409967E+02  0.13682268634E+03  0.79921268397E+02 0.  0.
         24    2    1    2    0    0  0.12310167013E+03 -0.32939816379E+02 -0.24412090737E+03  0.28697092108E+03  0.80735614464E+02 0.  0.
         25    2    1    2    0    0 -0.18097852507E+03 -0.92724815133E+02  0.56164632456E+03  0.61026976555E+03  0.12502589719E+03 0.  0.
        -13    1    3    3    0    0  0.37977770263E+02 -0.31176401545E+01 -0.20809575013E+02  0.43417382769E+02  0.00000000000E+00 0.  1.
         14    1    3    3    0    0 -0.10754543761E+02  0.60743023520E+02 -0.70136834954E+02  0.93405303572E+02  0.00000000000E+00 0. -1.
        -13    1    4    4    0    0  0.14567047191E+02  0.23768874524E+02 -0.36516628329E+02  0.45941510690E+02  0.00000000000E+00 0.  1.
         14    1    4    4    0    0  0.10853462294E+03 -0.56708690903E+02 -0.20760427904E+03  0.24102941039E+03  0.00000000000E+00 0. -1.
          5    1    5    5  501    0 -0.14693087477E+03 -0.76512427142E+02  0.27471005498E+03  0.32082789432E+03  0.47000000000E+01 0.  1.
         -5    1    5    5    0  501 -0.34047650296E+02 -0.16212387991E+02  0.28693626958E+03  0.28944187122E+03  0.47000000000E+01 0.  1.
          1    1    1    2  502    0  0.27287731260E+02  0.10879406548E+03 -0.50020122035E+03  0.51262269731E+03  0.00000000000E+00 0. -1.
          1    1    1    2  503    0  0.33658971779E+01 -0.40754817336E+02  0.15289578559E+04  0.15295046288E+04  0.00000000000E+00 0. -1.
<mgrwt>
<rscale>  0 0.71084821E+02</rscale>
<asrwt>0</asrwt>
<pdfrwt beam="1">  1        2 0.31849458E+00 0.40893574E+02</pdfrwt>
<pdfrwt beam="2">  1        2 0.13388640E+00 0.12356591E+03</pdfrwt>
<totfact> 0.43389800E+01</totfact>
</mgrwt>
</event>
<event>
13    1  0.1942437E-008  0.6429454E+02  0.7546771E-02  0.1406738E+00
         -1   -1    0    0    0  501 -0.00000000000E+00  0.00000000000E+00  0.99761699976E+02  0.99761699976E+02  0.00000000000E+00 0.  1.
          4   -1    0    0  503    0  0.00000000000E+00 -0.00000000000E+00 -0.19362733965E+04  0.19362733965E+04  0.00000000000E+00 0. -1.
         24    2    1    2    0    0 -0.15289849667E+03 -0.14936644808E+02 -0.38167206727E+03  0.41916790399E+03  0.80169265647E+02 0.  0.
         24    2    1    2    0    0  0.14929323333E+03 -0.41205082158E+02 -0.22858043821E+03  0.28748452837E+03  0.80075021143E+02 0.  0.
         25    2    1    2    0    0 -0.34052752602E+02 -0.29998759613E+02 -0.45847677375E+03  0.47737214905E+03  0.12499480420E+03 0.  0.
        -11    1    3    3    0    0 -0.12121197857E+03  0.18129973625E+02 -0.31746157998E+03  0.34029824339E+03  0.00000000000E+00 0.  1.
         12    1    3    3    0    0 -0.31686518103E+02 -0.33066618433E+02 -0.64210487292E+02  0.78869660595E+02  0.00000000000E+00 0. -1.
        -11    1    4    4    0    0  0.10180166696E+03  0.12233052447E+02 -0.12596427861E+03  0.16241990781E+03  0.00000000000E+00 0.  1.
         12    1    4    4    0    0  0.47491566368E+02 -0.53438134605E+02 -0.10261615960E+03  0.12506462056E+03  0.00000000000E+00 0. -1.
          5    1    5    5  502    0  0.30590448712E+02  0.88407888697E+01 -0.30089079011E+03  0.30260748945E+03  0.47000000000E+01 0.  1.
         -5    1    5    5    0  502 -0.64643201314E+02 -0.38839548483E+02 -0.15758598365E+03  0.17476465960E+03  0.47000000000E+01 0.  1.
          3    1    1    2  503    0 -0.15072445591E+02  0.49968407199E+02 -0.78424571815E+03  0.78598051297E+03  0.00000000000E+00 0. -1.
         -2    1    1    2    0  501  0.52730461540E+02  0.36172079381E+02  0.16463300862E+02  0.66030002092E+02  0.00000000000E+00 0.  1.
<mgrwt>
<rscale>  0 0.57928146E+02</rscale>
<asrwt>0</asrwt>
<pdfrwt beam="2">  1        4 0.28474607E+00 0.52192148E+02</pdfrwt>
<pdfrwt beam="1">  1       -1 0.14670839E-01 0.64294538E+02</pdfrwt>
<totfact> 0.59325121E+00</totfact>
</mgrwt>
</event>
<event>
13    1  0.1942437E-008  0.1396322E+03  0.7546771E-02  0.1309778E+00
          2   -1    0    0  502    0  0.00000000000E+00  0.00000000000E+00  0.14212189396E+04  0.14212189396E+04  0.00000000000E+00 0. -1.
          4   -1    0    0  503    0 -0.00000000000E+00 -0.00000000000E+00 -0.50974807306E+03  0.50974807306E+03  0.00000000000E+00 0. -1.
         24    2    1    2    0    0 -0.77768705796E+02  0.47910117593E+02  0.94534321109E+02  0.15476767325E+03  0.81688088761E+02 0.  0.
         24    2    1    2    0    0 -0.27856393730E+02 -0.72665196422E+02 -0.34801412411E+02  0.11918905103E+03  0.83298752314E+02 0.  0.
         25    2    1    2    0    0 -0.54442830289E+01  0.74579681107E+02  0.54775923097E+03  0.56679333740E+03  0.12499097230E+03 0.  0.
        -11    1    3    3    0    0 -0.24167709586E+02  0.62482946820E+02  0.51853741887E+02  0.84717220077E+02  0.00000000000E+00 0.  1.
         12    1    3    3    0    0 -0.53600996210E+02 -0.14572829227E+02  0.42680579223E+02  0.70050453169E+02  0.00000000000E+00 0. -1.
        -11    1    4    4    0    0 -0.30385800440E+02 -0.88765201688E+02 -0.17536095667E+02  0.95446700049E+02  0.00000000000E+00 0.  1.
         12    1    4    4    0    0  0.25294067101E+01  0.16100005265E+02 -0.17265316744E+02  0.23742350981E+02  0.00000000000E+00 0. -1.
          5    1    5    5  501    0 -0.43338152918E+02  0.58969062235E+02  0.15068093174E+03  0.16757797883E+03  0.47000000000E+01 0. -1.
         -5    1    5    5    0  501  0.37893869889E+02  0.15610618873E+02  0.39707829924E+03  0.39921535857E+03  0.47000000000E+01 0. -1.
          1    1    1    2  502    0  0.91668292530E+01  0.53679034375E+02  0.68255979024E+03  0.68472865921E+03  0.00000000000E+00 0. -1.
          3    1    1    2  503    0  0.10190255330E+03 -0.10350363665E+03 -0.37858106340E+03  0.40548829174E+03  0.00000000000E+00 0. -1.
<mgrwt>
<rscale>  0 0.87199949E+02</rscale>
<asrwt>0</asrwt>
<pdfrwt beam="1">  1        2 0.20900279E+00 0.54456124E+02</pdfrwt>
<pdfrwt beam="2">  1        4 0.74962952E-01 0.13963225E+03</pdfrwt>
<totfact> 0.15585008E+01</totfact>
</mgrwt>
</event>
<event>
13    1  0.1942437E-008  0.1079108E+03  0.7546771E-02  0.1330541E+00
          2   -1    0    0  503    0  0.00000000000E+00  0.00000000000E+00  0.17934007806E+04  0.17934007806E+04  0.00000000000E+00 0. -1.
          2   -1    0    0  502    0 -0.00000000000E+00 -0.00000000000E+00 -0.17241531829E+04  0.17241531829E+04  0.00000000000E+00 0. -1.
         24    2    1    2    0    0  0.44486212489E+02 -0.74041311316E+01 -0.37627694148E+03  0.38712671018E+03  0.79050039762E+02 0.  0.
         24    2    1    2    0    0 -0.31837995777E+02  0.51366956840E+02  0.78002276366E+01  0.10618716748E+03  0.86963490933E+02 0.  0.
         25    2    1    2    0    0 -0.69209331040E+02 -0.60133555914E+01  0.55592341133E+03  0.57402308892E+03  0.12500230161E+03 0.  0.
        -11    1    4    4    0    0  0.29331238966E+02  0.70531828347E+01  0.51717020652E+01  0.30607441409E+02  0.00000000000E+00 0.  1.
         12    1    4    4    0    0 -0.61169234743E+02  0.44313774005E+02  0.26285255714E+01  0.75579726067E+02  0.00000000000E+00 0. -1.
        -13    1    3    3    0    0  0.65283663200E+01  0.32037734827E+02 -0.19646707935E+03  0.19916914743E+03  0.00000000000E+00 0.  1.
         14    1    3    3    0    0  0.37957846169E+02 -0.39441865958E+02 -0.17980986213E+03  0.18795756276E+03  0.00000000000E+00 0. -1.
          5    1    5    5  501    0  0.12280681223E+02 -0.36092471061E+02  0.32492325190E+03  0.32718601929E+03  0.47000000000E+01 0.  1.
         -5    1    5    5    0  501 -0.81490012263E+02  0.30079115470E+02  0.23100015943E+03  0.24683706963E+03  0.47000000000E+01 0.  1.
          1    1    1    2  502    0 -0.54350016105E+02  0.21738242893E+02 -0.12801359582E+04  0.12814735842E+04  0.00000000000E+00 0. -1.
          1    1    1    2  503    0  0.11091113043E+03 -0.59687713011E+02  0.11619368584E+04  0.11687434127E+04  0.00000000000E+00 0. -1.
<mgrwt>
<rscale>  0 0.79477539E+02</rscale>
<asrwt>0</asrwt>
<pdfrwt beam="1">  1        2 0.26373541E+00 0.10791082E+03</pdfrwt>
<pdfrwt beam="2">  1        2 0.25355194E+00 0.58536104E+02</pdfrwt>
<totfact> 0.23291050E+01</totfact>
</mgrwt>
</event>
<event>
13    1  0.1942437E-008  0.3843572E+03  0.7546771E-02  0.1170002E+00
         -3   -1    0    0    0  501 -0.00000000000E+00  0.00000000000E+00  0.61347059127E+03  0.61347059127E+03  0.00000000000E+00 0.  1.
          2   -1    0    0  503    0  0.00000000000E+00 -0.00000000000E+00 -0.22159601118E+04  0.22159601118E+04  0.00000000000E+00 0. -1.
         24    2    1    2    0    0 -0.36914062852E+01  0.16892485487E+01  0.33243689335E+00  0.77862322995E+02  0.77755712246E+02 0.  0.
         24    2    1    2    0    0 -0.53044932738E+02  0.54930045628E+02  0.71821365740E+01  0.11130410542E+03  0.80659444559E+02 0.  0.
         25    2    1    2    0    0  0.49955026418E+03 -0.12447039267E+03 -0.88866214382E+02  0.53718140088E+03  0.12499323299E+03 0.  0.
        -13    1    3    3    0    0  0.37037963944E+01 -0.37415844408E+02  0.44068616954E+01  0.37856095289E+02  0.00000000000E+00 0.  1.
         14    1    3    3    0    0 -0.73952026795E+01  0.39105092957E+02 -0.40744248021E+01  0.40006227706E+02  0.00000000000E+00 0. -1.
        -13    1    4    4    0    0 -0.46632010620E+02 -0.47551265209E+01  0.18180622682E+02  0.50276144281E+02  0.00000000000E+00 0.  1.
         14    1    4    4    0    0 -0.64129221182E+01  0.59685172149E+02 -0.10998486108E+02  0.61027961143E+02  0.00000000000E+00 0. -1.
          5    1    5    5  502    0  0.49734602697E+03 -0.11334299914E+03 -0.70326469694E+02  0.51494427693E+03  0.47000000000E+01 0. -1.
         -5    1    5    5    0  502  0.22042372092E+01 -0.11127393532E+02 -0.18539744689E+02  0.22237123951E+02  0.47000000000E+01 0. -1.
          1    1    1    2  503    0 -0.37334776038E+03  0.19058045195E+02 -0.17861266203E+04  0.18248287763E+04  0.00000000000E+00 0. -1.
         -4    1    1    2    0  501 -0.69466164778E+02  0.48793053300E+02  0.26498874063E+03  0.27825409748E+03  0.00000000000E+00 0.  1.
<mgrwt>
<rscale>  0 0.17774655E+03</rscale>
<asrwt>0</asrwt>
<pdfrwt beam="2">  1        2 0.32587648E+00 0.38435717E+03</pdfrwt>
<pdfrwt beam="1">  1       -3 0.90216265E-01 0.82199162E+02</pdfrwt>
<totfact> 0.43322389E+00</totfact>
</mgrwt>
</event>
<event>
13    1  0.1942437E-008  0.1127053E+03  0.7546771E-02  0.1416659E+00
          2   -1    0    0  503    0  0.00000000000E+00  0.00000000000E+00  0.16199908324E+04  0.16199908324E+04  0.00000000000E+00 0. -1.
          2   -1    0    0  502    0 -0.00000000000E+00 -0.00000000000E+00 -0.10721996096E+04  0.10721996096E+04  0.00000000000E+00 0. -1.
         24    2    1    2    0    0 -0.61919005607E+02  0.12744136077E+03  0.51705720564E+02  0.17390867154E+03  0.86576444876E+02 0.  0.
         24    2    1    2    0    0  0.20355055015E+03  0.24896723134E+02  0.50542499634E+03  0.55122906535E+03  0.79664184370E+02 0.  0.
         25    2    1    2    0    0 -0.19446907167E+03 -0.65328488497E+02  0.33710491406E+03  0.41394740938E+03  0.12500681343E+03 0.  0.
        -11    1    4    4    0    0  0.98994426723E+02  0.43311467765E+01  0.34254347317E+03  0.35658755779E+03  0.00000000000E+00 0.  1.
         12    1    4    4    0    0  0.10455612343E+03  0.20565576358E+02  0.16288152316E+03  0.19464150756E+03  0.00000000000E+00 0. -1.
        -11    1    3    3    0    0 -0.31500656361E+02  0.56056400951E+02  0.69097436648E+02  0.94387855099E+02  0.00000000000E+00 0.  1.
         12    1    3    3    0    0 -0.30418349245E+02  0.71384959815E+02 -0.17391716084E+02  0.79520816438E+02  0.00000000000E+00 0. -1.
          5    1    5    5  501    0 -0.16266306178E+03 -0.10039944191E+03  0.25054358983E+03  0.31517217518E+03  0.47000000000E+01 0.  1.
         -5    1    5    5    0  501 -0.31806009890E+02  0.35070953416E+02  0.86561324231E+02  0.98775234200E+02  0.47000000000E+01 0.  1.
          1    1    1    2  502    0 -0.26801189132E+02 -0.64273218274E+01 -0.94425326782E+03  0.94465541231E+03  0.00000000000E+00 0. -1.
          1    1    1    2  503    0  0.79638716261E+02 -0.80582273576E+02  0.59780885963E+03  0.60844988339E+03  0.00000000000E+00 0. -1.
<mgrwt>
<rscale>  0 0.55734040E+02</rscale>
<asrwt>0</asrwt>
<pdfrwt beam="1">  1        2 0.23823395E+00 0.11270534E+03</pdfrwt>
<pdfrwt beam="2">  1        2 0.15767641E+00 0.27561099E+02</pdfrwt>
<totfact> 0.61840620E+01</totfact>
</mgrwt>
</event>
<event>
13    1  0.1942437E-008  0.4233040E+02  0.7546771E-02  0.1493381E+00
         -1   -1    0    0    0  501 -0.00000000000E+00  0.00000000000E+00  0.10838088285E+04  0.10838088285E+04  0.00000000000E+00 0.  1.
          2   -1    0    0  503    0  0.00000000000E+00 -0.00000000000E+00 -0.20412089397E+04  0.20412089397E+04  0.00000000000E+00 0. -1.
         24    2    1    2    0    0  0.31313018311E+02 -0.24609960618E+02  0.24654651485E+03  0.26180053936E+03  0.78537781675E+02 0.  0.
         24    2    1    2    0    0  0.32381446385E+02  0.66520836623E+02 -0.82142906048E+01  0.11111231036E+03  0.82491764240E+02 0.  0.
         25    2    1    2    0    0 -0.45363695481E+02  0.39814149912E+02 -0.13205054520E+04  0.13277816105E+04  0.12500529928E+03 0.  0.
        -11    1    4    4    0    0 -0.14847989798E+00 -0.99568885518E+01 -0.24479172950E+02  0.26427099429E+02  0.00000000000E+00 0.  1.
         12    1    4    4    0    0  0.32529926283E+02  0.76477725175E+02  0.16264882346E+02  0.84685210926E+02  0.00000000000E+00 0. -1.
        -13    1    3    3    0    0  0.31031248618E+02 -0.31692238205E+02  0.25000836107E+03  0.25391241986E+03  0.00000000000E+00 0.  1.
         14    1    3    3    0    0  0.28176969301E+00  0.70822775871E+01 -0.34618462265E+01  0.78881195019E+01  0.00000000000E+00 0. -1.
          5    1    5    5  502    0 -0.73042228696E+02  0.55005547189E+02 -0.11864704545E+04  0.11899979020E+04  0.47000000000E+01 0.  1.
         -5    1    5    5    0  502  0.27678533214E+02 -0.15191397277E+02 -0.13403499755E+03  0.13778370847E+03  0.47000000000E+01 0.  1.
          1    1    1    2  503    0 -0.50864100218E+01 -0.41537889807E+02 -0.64852230267E+03  0.64987109869E+03  0.00000000000E+00 0. -1.
         -2    1    1    2    0  501 -0.13244359193E+02 -0.40187136111E+02  0.77329541927E+03  0.77445220926E+03  0.00000000000E+00 0.  1.
<mgrwt>
<rscale>  0 0.42088584E+02</rscale>
<asrwt>0</asrwt>
<pdfrwt beam="2">  1        2 0.30017778E+00 0.41848152E+02</pdfrwt>
<pdfrwt beam="1">  1       -1 0.15938365E+00 0.42330396E+02</pdfrwt>
<totfact> 0.40813706E+00</totfact>
</mgrwt>
</event>
<event>
13    1  0.1942437E-008  0.8666178E+02  0.7546771E-02  0.1436899E+00
          2   -1    0    0  503    0  0.00000000000E+00  0.00000000000E+00  0.18281176630E+04  0.18281176630E+04  0.00000000000E+00 0. -1.
          2   -1    0    0  502    0 -0.00000000000E+00 -0.00000000000E+00 -0.41451529089E+04  0.41451529089E+04  0.00000000000E+00 0. -1.
         24    2    1    2    0    0 -0.86171487220E+03  0.51303831778E+03 -0.21335572846E+04  0.23586421096E+04  0.73246691163E+02 0.  0.
         24    2    1    2    0    0  0.83177509768E+03 -0.27262300912E+03 -0.41288235286E+03  0.96990528454E+03  0.63806782193E+02 0.  0.
         25    2    1    2    0    0  0.18857577531E+02 -0.12367738468E+03  0.37156339077E+03  0.41150512741E+03  0.12500165124E+03 0.  0.
        -11    1    3    3    0    0 -0.65344286891E+03  0.38356074924E+03 -0.15359515065E+04  0.17126743595E+04  0.00000000000E+00 0.  1.
         12    1    3    3    0    0 -0.20827200329E+03  0.12947756855E+03 -0.59760577813E+03  0.64596775009E+03  0.00000000000E+00 0. -1.
        -13    1    4    4    0    0  0.49969456445E+03 -0.13121104039E+03 -0.24888721491E+03  0.57345953703E+03  0.00000000000E+00 0.  1.
         14    1    4    4    0    0  0.33208053322E+03 -0.14141196873E+03 -0.16399513796E+03  0.39644574751E+03  0.00000000000E+00 0. -1.
          5    1    5    5  501    0 -0.45703331370E+02 -0.92466797719E+02  0.24675073474E+03  0.26748255695E+03  0.47000000000E+01 0. -1.
         -5    1    5    5    0  501  0.64560908901E+02 -0.31210586959E+02  0.12481265603E+03  0.14402257046E+03  0.47000000000E+01 0. -1.
          1    1    1    2  502    0  0.50549122369E+01 -0.30304598266E+02 -0.11856941588E+04  0.11860921376E+04  0.00000000000E+00 0. -1.
          1    1    1    2  503    0  0.60272847563E+01 -0.86433325718E+02  0.10435351596E+04  0.10471259128E+04  0.00000000000E+00 0. -1.
<mgrwt>
<rscale>  0 0.51599760E+02</rscale>
<asrwt>0</asrwt>
<pdfrwt beam="1">  1        2 0.26884084E+00 0.86661777E+02</pdfrwt>
<pdfrwt beam="2">  1        2 0.60958130E+00 0.30723294E+02</pdfrwt>
<totfact> 0.13558972E+00</totfact>
</mgrwt>
</event>
<event>
13    1  0.1942437E-008  0.1131898E+03  0.7546771E-02  0.1362965E+00
         -1   -1    0    0    0  501 -0.00000000000E+00  0.00000000000E+00  0.15283899136E+03  0.15283899136E+03  0.00000000000E+00 0.  1.
          2   -1    0    0  503    0  0.00000000000E+00 -0.00000000000E+00 -0.30307547034E+04  0.30307547034E+04  0.00000000000E+00 0. -1.
         24    2    1    2    0    0 -0.31550528822E+01 -0.10926894368E+02  0.49665315488E+02  0.91906384354E+02  0.76490447399E+02 0.  0.
         24    2    1    2    0    0  0.10768734001E+03  0.34390088150E+02 -0.51431913166E+03  0.53276581004E+03  0.80845518109E+02 0.  0.
         25    2    1    2    0    0 -0.12909094608E+03  0.47592197023E+02 -0.11003875965E+04  0.11159784475E+04  0.12500217219E+03 0.  0.
        -11    1    4    4    0    0  0.97649950059E+01  0.34894756735E+02 -0.84652417920E+02  0.92081654171E+02  0.00000000000E+00 0.  1.
         12    1    4    4    0    0  0.97922345000E+02 -0.50466858447E+00 -0.42966671374E+03  0.44068415587E+03  0.00000000000E+00 0. -1.
        -13    1    3    3    0    0 -0.36518034164E+02  0.13831735188E+01  0.85225744836E+01  0.37524848621E+02  0.00000000000E+00 0.  1.
         14    1    3    3    0    0  0.33362981282E+02 -0.12310067887E+02  0.41142741004E+02  0.54381535733E+02  0.00000000000E+00 0. -1.
          5    1    5    5  502    0 -0.85035609351E+02  0.52405385481E+02 -0.10126089780E+04  0.10175344769E+04  0.47000000000E+01 0. -1.
         -5    1    5    5    0  502 -0.44055336728E+02 -0.48131884588E+01 -0.87778618505E+02  0.98443970583E+02  0.47000000000E+01 0. -1.
          1    1    1    2  503    0  0.39077014189E+02 -0.11074350876E+03 -0.13682519248E+04  0.13732823699E+04  0.00000000000E+00 0. -1.
         -2    1    1    2    0  501 -0.14518355235E+02  0.39688117960E+02  0.55377625483E+02  0.69660682957E+02  0.00000000000E+00 0.  1.
<mgrwt>
<rscale>  0 0.69162357E+02</rscale>
<asrwt>0</asrwt>
<pdfrwt beam="2">  1        2 0.44569918E+00 0.11318984E+03</pdfrwt>
<pdfrwt beam="1">  1       -1 0.22476325E-01 0.42260257E+02</pdfrwt>
<totfact> 0.49055250E+01</totfact>
</mgrwt>
</event>
<event>
13    1  0.1942437E-008  0.1484703E+03  0.7546771E-02  0.1291239E+00
          2   -1    0    0  503    0  0.00000000000E+00  0.00000000000E+00  0.12011762013E+04  0.12011762013E+04  0.00000000000E+00 0. -1.
          2   -1    0    0  502    0 -0.00000000000E+00 -0.00000000000E+00 -0.20641297461E+04  0.20641297461E+04  0.00000000000E+00 0. -1.
         24    2    1    2    0    0  0.40217112937E+02 -0.23470975678E+02 -0.21216248953E+03  0.23215470558E+03  0.81942556039E+02 0.  0.
         24    2    1    2    0    0 -0.18308890325E+03  0.10816191745E+03 -0.39515511853E+03  0.45590256985E+03  0.80492475546E+02 0.  0.
         25    2    1    2    0    0 -0.41578064607E+01 -0.26470873244E+03  0.17315770678E+03  0.34014430450E+03  0.12500622417E+03 0.  0.
        -11    1    3    3    0    0  0.41952063875E+02 -0.50323793233E+02 -0.12796713706E+03  0.14376386193E+03  0.00000000000E+00 0.  1.
         12    1    3    3    0    0 -0.17349509382E+01  0.26852817555E+02 -0.84195352467E+02  0.88390843657E+02  0.00000000000E+00 0. -1.
        -13    1    4    4    0    0 -0.62896054069E+01  0.35646767879E+02 -0.67602182068E+02  0.76683154713E+02  0.00000000000E+00 0.  1.
         14    1    4    4    0    0 -0.17679929784E+03  0.72515149573E+02 -0.32755293646E+03  0.37921941514E+03  0.00000000000E+00 0. -1.
          5    1    5    5  501    0 -0.34788447369E+02 -0.25230795425E+03  0.17076693028E+03  0.30668057377E+03  0.47000000000E+01 0.  1.
         -5    1    5    5    0  501  0.30630640908E+02 -0.12400778188E+02  0.23907764968E+01  0.33463730730E+02  0.47000000000E+01 0.  1.
          1    1    1    2  502    0  0.95550404166E+02  0.21227511410E+03 -0.13217453845E+04  0.13420884715E+04  0.00000000000E+00 0. -1.
          1    1    1    2  503    0  0.51479192610E+02 -0.32257323429E+02  0.89295174107E+03  0.89501589599E+03  0.00000000000E+00 0. -1.
<mgrwt>
<rscale>  0 0.94971935E+02</rscale>
<asrwt>0</asrwt>
<pdfrwt beam="1">  1        2 0.17664356E+00 0.60750656E+02</pdfrwt>
<pdfrwt beam="2">  1        2 0.30354849E+00 0.14847031E+03</pdfrwt>
<totfact> 0.29911019E+01</totfact>
</mgrwt>
</event>
<event>
13    1  0.1942437E-008  0.2350760E+03  0.7546771E-02  0.1328903E+00
          2   -1    0    0  502    0  0.00000000000E+00  0.00000000000E+00  0.18726420180E+04  0.18726420180E+04  0.00000000000E+00 0. -1.
          2   -1    0    0  503    0 -0.00000000000E+00 -0.00000000000E+00 -0.16263149842E+04  0.16263149842E+04  0.00000000000E+00 0. -1.
         24    2    1    2    0    0  0.87372646957E+02 -0.84406031120E+02  0.67445076177E+02  0.16001175874E+03  0.79350911203E+02 0.  0.
         24    2    1    2    0    0  0.71701040496E+02 -0.72958491299E+02  0.16622987735E+03  0.21086889378E+03  0.79808129777E+02 0.  0.
         25    2    1    2    0    0 -0.19368200268E+03 -0.56438361518E+02  0.39007129998E+03  0.45659509521E+03  0.12500182036E+03 0.  0.
        -11    1    4    4    0    0 -0.67562953499E+01 -0.11703793345E+02 -0.36301355965E+01  0.13993005037E+02  0.00000000000E+00 0.  1.
         12    1    4    4    0    0  0.78457335846E+02 -0.61254697954E+02  0.16986001294E+03  0.19687588874E+03  0.00000000000E+00 0. -1.
        -13    1    3    3    0    0  0.15184743722E+02 -0.55605352863E+02  0.57910891024E+02  0.81708035150E+02  0.00000000000E+00 0.  1.
         14    1    3    3    0    0  0.72187903235E+02 -0.28800678257E+02  0.95341851536E+01  0.78303723590E+02  0.00000000000E+00 0. -1.
          5    1    5    5  501    0 -0.32071499035E+01 -0.11779070001E+02 -0.63199862356E+01  0.14528059974E+02  0.47000000000E+01 0.  1.
         -5    1    5    5    0  501 -0.19047485278E+03 -0.44659291517E+02  0.39639128621E+03  0.44206703524E+03  0.47000000000E+01 0.  1.
          1    1    1    2  502    0  0.13222847869E+02 -0.23839395046E+02  0.11375303651E+04  0.11378569734E+04  0.00000000000E+00 0. -1.
          1    1    1    2  503    0  0.21385467357E+02  0.23764227898E+03 -0.15149495848E+04  0.15336242810E+04  0.00000000000E+00 0. -1.
<mgrwt>
<rscale>  0 0.80052485E+02</rscale>
<asrwt>0</asrwt>
<pdfrwt beam="1">  1        2 0.27538853E+00 0.27260970E+02</pdfrwt>
<pdfrwt beam="2">  1        2 0.23916397E+00 0.23507602E+03</pdfrwt>
<totfact> 0.24410757E+01</totfact>
</mgrwt>
</event>
<event>
13    1  0.1942437E-008  0.7887952E+02  0.7546771E-02  0.1357436E+00
          2   -1    0    0  503    0  0.00000000000E+00  0.00000000000E+00  0.18056350460E+04  0.18056350460E+04  0.00000000000E+00 0. -1.
          2   -1    0    0  502    0 -0.00000000000E+00 -0.00000000000E+00 -0.17740323479E+04  0.17740323479E+04  0.00000000000E+00 0. -1.
         24    2    1    2    0    0  0.11352266101E+03  0.17814683717E+02 -0.11327549766E+03  0.18009858921E+03  0.79996287076E+02 0.  0.
         24    2    1    2    0    0 -0.26435342032E+03  0.82560950738E+02 -0.14659276813E+03  0.32345647768E+03  0.80222265373E+02 0.  0.
         25    2    1    2    0    0  0.15956237021E+03 -0.23796757243E+03 -0.62614997196E+01  0.31265687980E+03  0.12500561025E+03 0.  0.
        -11    1    4    4    0    0 -0.16968485631E+02 -0.11785582427E+02  0.32118901835E+00  0.20662347885E+02  0.00000000000E+00 0.  1.
         12    1    4    4    0    0 -0.24738493469E+03  0.94346533165E+02 -0.14691395715E+03  0.30279412979E+03  0.00000000000E+00 0. -1.
        -11    1    3    3    0    0  0.18777619714E+02 -0.28350551139E+02 -0.20629347369E+02  0.39773392172E+02  0.00000000000E+00 0.  1.
         12    1    3    3    0    0  0.94745041301E+02  0.46165234855E+02 -0.92646150293E+02  0.14032519704E+03  0.00000000000E+00 0. -1.
          5    1    5    5  501    0  0.10287262596E+03 -0.20427457162E+03  0.39637261967E+02  0.23217252275E+03  0.47000000000E+01 0.  1.
         -5    1    5    5    0  501  0.56689744244E+02 -0.33693000814E+02 -0.45898761687E+02  0.80484357056E+02  0.47000000000E+01 0.  1.
          1    1    1    2  502    0  0.12316912921E+02  0.77654914087E+02 -0.12309475565E+04  0.12334560709E+04  0.00000000000E+00 0. -1.
          1    1    1    2  503    0 -0.21048523825E+02  0.59937023892E+02  0.15286800201E+04  0.15299993762E+04  0.00000000000E+00 0. -1.
<mgrwt>
<rscale>  0 0.70787428E+02</rscale>
<asrwt>0</asrwt>
<pdfrwt beam="1">  1        2 0.26553457E+00 0.63525485E+02</pdfrwt>
<pdfrwt beam="2">  1        2 0.26088711E+00 0.78879524E+02</pdfrwt>
<totfact> 0.22251538E+01</totfact>
</mgrwt>
</event>
<event>
13    1  0.1942437E-008  0.1386287E+03  0.7546771E-02  0.1403471E+00
          2   -1    0    0  502    0  0.00000000000E+00  0.00000000000E+00  0.11909325911E+04  0.11909325911E+04  0.00000000000E+00 0. -1.
          2   -1    0    0  503    0 -0.00000000000E+00 -0.00000000000E+00 -0.28948082851E+04  0.28948082851E+04  0.00000000000E+00 0. -1.
         24    2    1    2    0    0 -0.38787494471E+02  0.86258140924E+02 -0.73959051358E+03  0.75033379299E+03  0.84034138969E+02 0.  0.
         24    2    1    2    0    0 -0.28451731952E+00  0.49263915348E+02 -0.89834824553E+01  0.93893697760E+02  0.79424865228E+02 0.  0.
         25    2    1    2    0    0  0.50326968053E+00  0.11050815078E+03  0.27397555081E+03  0.32079071925E+03  0.12502711086E+03 0.  0.
        -11    1    3    3    0    0 -0.39532412070E+02  0.35488826022E+00 -0.28085619640E+03  0.28362499997E+03  0.00000000000E+00 0.  1.
         12    1    3    3    0    0  0.74491759969E+00  0.85903252664E+02 -0.45873431718E+03  0.46670879301E+03  0.00000000000E+00 0. -1.
        -11    1    4    4    0    0 -0.37899726477E+02  0.15639107236E+02  0.55872006954E+01  0.41378590524E+02  0.00000000000E+00 0.  1.
         12    1    4    4    0    0  0.37615209157E+02  0.33624808112E+02 -0.14570683151E+02  0.52515107236E+02  0.00000000000E+00 0. -1.
          5    1    5    5  501    0 -0.15217957742E+02  0.19551594792E+02 -0.60272867489E+01  0.25928156169E+02  0.47000000000E+01 0. -1.
         -5    1    5    5    0  501  0.15721227423E+02  0.90956555988E+02  0.28000283756E+03  0.29486256309E+03  0.47000000000E+01 0. -1.
          1    1    1    2  502    0  0.22019105820E+02 -0.11487977339E+02  0.83887762079E+03  0.83924518307E+03  0.00000000000E+00 0. -1.
          1    1    1    2  503    0  0.16549636290E+02 -0.23454222971E+03 -0.20681548696E+04  0.20814774831E+04  0.00000000000E+00 0. -1.
<mgrwt>
<rscale>  0 0.58676650E+02</rscale>
<asrwt>0</asrwt>
<pdfrwt beam="1">  1        2 0.17513715E+00 0.24835753E+02</pdfrwt>
<pdfrwt beam="2">  1        2 0.42570710E+00 0.13862874E+03</pdfrwt>
<totfact> 0.12282218E+01</totfact>
</mgrwt>
</event>
<event>
13    1  0.1942437E-008  0.3212195E+02  0.7546771E-02  0.1624369E+00
          2   -1    0    0  503    0  0.00000000000E+00  0.00000000000E+00  0.33862755005E+04  0.33862755005E+04  0.00000000000E+00 0. -1.
         -3   -1    0    0    0  501 -0.00000000000E+00 -0.00000000000E+00 -0.23483607269E+04  0.23483607269E+04  0.00000000000E+00 0.  1.
         24    2    1    2    0    0  0.23815090041E+02 -0.38809196424E+02 -0.16093358272E+03  0.18424760563E+03  0.77293271966E+02 0.  0.
         24    2    1    2    0    0  0.12779563216E+03  0.30989783781E+03 -0.15475204127E+04  0.15855218239E+04  0.81802401729E+02 0.  0.
         25    2    1    2    0    0 -0.13391787486E+03 -0.32412419423E+03  0.11735716966E+04  0.12312133068E+04  0.12500075723E+03 0.  0.
        -13    1    4    4    0    0  0.10799356540E+03  0.27667225387E+03 -0.14589546929E+04  0.14888784175E+04  0.00000000000E+00 0.  1.
         14    1    4    4    0    0  0.19802066755E+02  0.33225583944E+02 -0.88565719754E+02  0.96643406354E+02  0.00000000000E+00 0. -1.
        -13    1    3    3    0    0  0.17733065064E+02  0.20798921606E+02 -0.32083715539E+02  0.42147616057E+02  0.00000000000E+00 0.  1.
         14    1    3    3    0    0  0.60820249769E+01 -0.59608118030E+02 -0.12884986718E+03  0.14209998957E+03  0.00000000000E+00 0. -1.
          5    1    5    5  502    0  0.24348080438E+02 -0.47087377920E+02  0.16900703809E+03  0.17718780744E+03  0.47000000000E+01 0.  1.
         -5    1    5    5    0  502 -0.15826595530E+03 -0.27703681631E+03  0.10045646585E+04  0.10540254994E+04  0.47000000000E+01 0.  1.
          1    1    1    2  503    0 -0.12281519414E+02  0.29679638553E+02  0.21528578618E+04  0.21530974640E+04  0.00000000000E+00 0. -1.
         -4    1    1    2    0  501 -0.54113279195E+01  0.23355914294E+02 -0.58006078934E+03  0.58055602704E+03  0.00000000000E+00 0.  1.
<mgrwt>
<rscale>  0 0.27750869E+02</rscale>
<asrwt>0</asrwt>
<pdfrwt beam="1">  1        2 0.49798169E+00 0.32121949E+02</pdfrwt>
<pdfrwt beam="2">  1       -3 0.34534716E+00 0.23974595E+02</pdfrwt>
<totfact> 0.43405781E-02</totfact>
</mgrwt>
</event>
<event>
13    1  0.1942437E-008  0.1940118E+03  0.7546771E-02  0.1441519E+00
          2   -1    0    0  502    0  0.00000000000E+00  0.00000000000E+00  0.20213895276E+04  0.20213895276E+04  0.00000000000E+00 0. -1.
          2   -1    0    0  503    0 -0.00000000000E+00 -0.00000000000E+00 -0.43124932526E+03  0.43124932526E+03  0.00000000000E+00 0. -1.
         24    2    1    2    0    0 -0.35396870438E+02 -0.94111718475E+01  0.97900865943E+02  0.13222043398E+03  0.80970087174E+02 0.  0.
         24    2    1    2    0    0  0.42058103639E+02  0.33865877806E+02  0.73032101454E+02  0.12086397955E+03  0.79741030527E+02 0.  0.
         25    2    1    2    0    0 -0.13263241814E+03  0.13169757356E+03  0.14134099570E+04  0.14311842869E+04  0.12500059020E+03 0.  0.
        -13    1    3    3    0    0 -0.19689994043E+02  0.33859689122E+02  0.26586879326E+02  0.47339587716E+02  0.00000000000E+00 0.  1.
         14    1    3    3    0    0 -0.15706876395E+02 -0.43270860969E+02  0.71313986618E+02  0.84880846263E+02  0.00000000000E+00 0. -1.
        -13    1    4    4    0    0  0.41424844283E+02  0.37590075522E+02  0.88635002923E+02  0.10481028215E+03  0.00000000000E+00 0.  1.
         14    1    4    4    0    0  0.63325935620E+00 -0.37241977154E+01 -0.15602901469E+02  0.16053697402E+02  0.00000000000E+00 0. -1.
          5    1    5    5  501    0 -0.10075050388E+03  0.16512264984E+02  0.76977272742E+03  0.77652782359E+03  0.47000000000E+01 0.  1.
         -5    1    5    5    0  501 -0.31881914267E+02  0.11518530858E+03  0.64363722954E+03  0.65465646336E+03  0.47000000000E+01 0.  1.
          1    1    1    2  502    0 -0.45626111675E+01 -0.12447466265E+02  0.36224210878E+03  0.36248462342E+03  0.00000000000E+00 0. -1.
          1    1    1    2  503    0  0.13053379611E+03 -0.14370481326E+03 -0.35644483076E+03  0.40588552900E+03  0.00000000000E+00 0. -1.
<mgrwt>
<rscale>  0 0.50715670E+02</rscale>
<asrwt>0</asrwt>
<pdfrwt beam="1">  1        2 0.29726316E+00 0.13257331E+02</pdfrwt>
<pdfrwt beam="2">  1        2 0.63419019E-01 0.19401184E+03</pdfrwt>
<totfact> 0.13699861E+02</totfact>
</mgrwt>
</event>
<event>
13    1  0.1942437E-008  0.6404913E+02  0.7546771E-02  0.1646834E+00
          2   -1    0    0  502    0  0.00000000000E+00  0.00000000000E+00  0.11019810879E+04  0.11019810879E+04  0.00000000000E+00 0. -1.
          2   -1    0    0  503    0 -0.00000000000E+00 -0.00000000000E+00 -0.46451485645E+04  0.46451485645E+04  0.00000000000E+00 0. -1.
         24    2    1    2    0    0  0.41075712936E+02 -0.40587462076E+02 -0.11757895179E+03  0.15408478378E+03  0.81134175409E+02 0.  0.
         24    2    1    2    0    0  0.29644161550E+02 -0.81482266295E+02 -0.98059137891E+02  0.15610158339E+03  0.85052770551E+02 0.  0.
         25    2    1    2    0    0 -0.13403960112E+03  0.15615244137E+03  0.20927947738E+03  0.31901890802E+03  0.12499985762E+03 0.  0.
        -13    1    3    3    0    0 -0.57114533442E+01  0.14720858284E+02  0.22158151945E+00  0.15791563137E+02  0.00000000000E+00 0.  1.
         14    1    3    3    0    0  0.46787166280E+02 -0.55308320360E+02 -0.11780053330E+03  0.13829322065E+03  0.00000000000E+00 0. -1.
        -13    1    4    4    0    0  0.52853366573E+02 -0.72054164102E+02 -0.51258316040E+02  0.10301793963E+03  0.00000000000E+00 0.  1.
         14    1    4    4    0    0 -0.23209205023E+02 -0.94281021926E+01 -0.46800821852E+02  0.53083643759E+02  0.00000000000E+00 0. -1.
          5    1    5    5  501    0  0.14051070287E+02 -0.10087681613E+02  0.18876084646E+02  0.26030567955E+02  0.47000000000E+01 0. -1.
         -5    1    5    5    0  501 -0.14809067141E+03  0.16624012298E+03  0.19040339273E+03  0.29298834006E+03  0.47000000000E+01 0. -1.
          1    1    1    2  502    0  0.40799338174E+01 -0.97473640420E+01  0.79028547955E+03  0.79035611983E+03  0.00000000000E+00 0. -1.
          1    1    1    2  503    0  0.59239792817E+02 -0.24335348958E+02 -0.43270943439E+04  0.43275682574E+04  0.00000000000E+00 0. -1.
<mgrwt>
<rscale>  0 0.26015253E+02</rscale>
<asrwt>0</asrwt>
<pdfrwt beam="1">  1        2 0.16205604E+00 0.10566786E+02</pdfrwt>
<pdfrwt beam="2">  1        2 0.68311010E+00 0.64049126E+02</pdfrwt>
<totfact> 0.12469474E+00</totfact>
</mgrwt>
</event>
<event>
13    1  0.1942437E-008  0.1618878E+03  0.7546771E-02  0.1226436E+00
          2   -1    0    0  503    0  0.00000000000E+00  0.00000000000E+00  0.26238166855E+04  0.26238166855E+04  0.00000000000E+00 0. -1.
          2   -1    0    0  502    0 -0.00000000000E+00 -0.00000000000E+00 -0.19093329742E+04  0.19093329742E+04  0.00000000000E+00 0. -1.
         24    2    1    2    0    0 -0.10289999775E+02  0.51204215547E+02 -0.83393565843E+02  0.12668976042E+03  0.79800080121E+02 0.  0.
         24    2    1    2    0    0 -0.10879643665E+03 -0.15980508128E+03  0.30608113930E+03  0.37091390009E+03  0.80728736000E+02 0.  0.
         25    2    1    2    0    0  0.91336960921E+01  0.12072224478E+02  0.19918546592E+03  0.23564168385E+03  0.12499196104E+03 0.  0.
        -11    1    4    4    0    0 -0.88733298592E+02 -0.13964031598E+03  0.29880661872E+03  0.34155294102E+03  0.00000000000E+00 0.  1.
         12    1    4    4    0    0 -0.20063138056E+02 -0.20164765295E+02  0.72745205797E+01  0.29360959073E+02  0.00000000000E+00 0. -1.
        -11    1    3    3    0    0  0.34362663177E+02  0.14853666245E+02 -0.27561050359E+02  0.46486939224E+02  0.00000000000E+00 0.  1.
         12    1    3    3    0    0 -0.44652662952E+02  0.36350549302E+02 -0.55832515484E+02  0.80202821200E+02  0.00000000000E+00 0. -1.
          5    1    5    5  501    0  0.64919267169E+02  0.10969413555E+02  0.13628845233E+03  0.15143140864E+03  0.47000000000E+01 0.  1.
         -5    1    5    5    0  501 -0.55785571077E+02  0.11028109239E+01  0.62897013593E+02  0.84210275212E+02  0.47000000000E+01 0.  1.
          1    1    1    2  502    0  0.17062136053E+03  0.18287720944E+03 -0.17433553335E+04  0.17612051389E+04  0.00000000000E+00 0. -1.
          1    1    1    2  503    0 -0.60668620199E+02 -0.86348568190E+02  0.20359660054E+04  0.20386991764E+04  0.00000000000E+00 0. -1.
<mgrwt>
<rscale>  0 0.13068948E+03</rscale>
<asrwt>0</asrwt>
<pdfrwt beam="1">  1        2 0.38585540E+00 0.10550358E+03</pdfrwt>
<pdfrwt beam="2">  1        2 0.28078426E+00 0.16188778E+03</pdfrwt>
<totfact> 0.67755419E+00</totfact>
</mgrwt>
</event>
<event>
13    1  0.1942437E-008  0.8143129E+02  0.7546771E-02  0.1332697E+00
          2   -1    0    0  503    0  0.00000000000E+00  0.00000000000E+00  0.35695972209E+04  0.35695972209E+04  0.00000000000E+00 0. -1.
          2   -1    0    0  502    0 -0.00000000000E+00 -0.00000000000E+00 -0.14845395131E+04  0.14845395131E+04  0.00000000000E+00 0. -1.
         24    2    1    2    0    0 -0.37508832521E+02 -0.17538615473E+03 -0.26321021740E+03  0.32865601949E+03  0.81042857890E+02 0.  0.
         24    2    1    2    0    0 -0.48037585587E+02  0.18849252044E+03 -0.60994141514E+02  0.21954438254E+03  0.81500985979E+02 0.  0.
         25    2    1    2    0    0  0.19278303578E+03  0.98563588210E+01  0.18818494323E+04  0.18958492527E+04  0.12499862422E+03 0.  0.
        -11    1    3    3    0    0 -0.24200641583E+02 -0.14511841716E+02 -0.78133714174E+02  0.83073111737E+02  0.00000000000E+00 0.  1.
         12    1    3    3    0    0 -0.13308190938E+02 -0.16087431302E+03 -0.18507650322E+03  0.24558290775E+03  0.00000000000E+00 0. -1.
        -11    1    4    4    0    0  0.20417848092E+02  0.26044241070E+02 -0.26623281923E+00  0.33094741177E+02  0.00000000000E+00 0.  1.
         12    1    4    4    0    0 -0.68455433680E+02  0.16244827937E+03 -0.60727908694E+02  0.18644964137E+03  0.00000000000E+00 0. -1.
          5    1    5    5  501    0  0.14108384248E+02  0.39475091081E+02  0.20877616493E+03  0.21299508531E+03  0.47000000000E+01 0. -1.
         -5    1    5    5    0  501  0.17867465153E+03 -0.29618732260E+02  0.16730732674E+04  0.16828541673E+04  0.47000000000E+01 0. -1.
          1    1    1    2  502    0 -0.45524252937E+02 -0.67519707802E+02 -0.10388195321E+04  0.10420064246E+04  0.00000000000E+00 0. -1.
          1    1    1    2  503    0 -0.61712364734E+02  0.44556983271E+02  0.15662321664E+04  0.15680806547E+04  0.00000000000E+00 0. -1.
<mgrwt>
<rscale>  0 0.78729126E+02</rscale>
<asrwt>0</asrwt>
<pdfrwt beam="1">  1        2 0.52494077E+00 0.76116626E+02</pdfrwt>
<pdfrwt beam="2">  1        2 0.21831463E+00 0.81431293E+02</pdfrwt>
<totfact> 0.37510081E+00</totfact>
</mgrwt>
</event>
<event>
13    1  0.1942437E-008  0.2799112E+03  0.7546771E-02  0.1363644E+00
          2   -1    0    0  503    0  0.00000000000E+00  0.00000000000E+00  0.53586414876E+03  0.53586414876E+03  0.00000000000E+00 0. -1.
          2   -1    0    0  502    0 -0.00000000000E+00 -0.00000000000E+00 -0.33563550081E+04  0.33563550081E+04  0.00000000000E+00 0. -1.
         24    2    1    2    0    0 -0.93813336108E+02 -0.10801806985E+03 -0.25017741065E+03  0.29931578607E+03  0.80823001355E+02 0.  0.
         24    2    1    2    0    0  0.36172161841E+03  0.37023502798E+03 -0.97359153877E+03  0.11055622950E+04  0.80442516871E+02 0.  0.
         25    2    1    2    0    0 -0.30007086315E+03  0.13723381120E+02 -0.37462090218E+02  0.32750523562E+03  0.12500166822E+03 0.  0.
        -11    1    3    3    0    0 -0.51904075193E+02 -0.15199010272E+02 -0.45405289711E+02  0.70616451827E+02  0.00000000000E+00 0.  1.
         12    1    3    3    0    0 -0.41909260915E+02 -0.92819059582E+02 -0.20477212094E+03  0.22869933425E+03  0.00000000000E+00 0. -1.
        -13    1    4    4    0    0  0.34955375468E+03  0.33877221043E+03 -0.87403330547E+03  0.10004442298E+04  0.00000000000E+00 0.  1.
         14    1    4    4    0    0  0.12167863725E+02  0.31462817558E+02 -0.99558233298E+02  0.10511806512E+03  0.00000000000E+00 0. -1.
          5    1    5    5  501    0 -0.15395719019E+03 -0.49123603527E+02  0.84349435564E+01  0.16189250479E+03  0.47000000000E+01 0. -1.
         -5    1    5    5    0  501 -0.14611367295E+03  0.62846984647E+02 -0.45897033774E+02  0.16561273083E+03  0.47000000000E+01 0. -1.
          1    1    1    2  502    0  0.48514867213E+02 -0.27132077715E+03 -0.18490842904E+04  0.18695136719E+04  0.00000000000E+00 0. -1.
          1    1    1    2  503    0 -0.16352286365E+02 -0.46195621020E+01  0.28982447067E+03  0.29032216832E+03  0.00000000000E+00 0. -1.
<mgrwt>
<rscale>  0 0.68966144E+02</rscale>
<asrwt>0</asrwt>
<pdfrwt beam="1">  1        2 0.78803549E-01 0.16992281E+02</pdfrwt>
<pdfrwt beam="2">  1        2 0.49358163E+00 0.27991115E+03</pdfrwt>
<totfact> 0.15227535E+01</totfact>
</mgrwt>
</event>
<event>
13    1  0.1942437E-008  0.5163333E+02  0.7546771E-02  0.1555753E+00
          2   -1    0    0  503    0  0.00000000000E+00  0.00000000000E+00  0.44004165071E+04  0.44004165071E+04  0.00000000000E+00 0. -1.
          2   -1    0    0  502    0 -0.00000000000E+00 -0.00000000000E+00 -0.51957852695E+03  0.51957852695E+03  0.00000000000E+00 0. -1.
         24    2    1    2    0    0  0.31646775191E+01 -0.26582599856E+02  0.22757335595E+02  0.86706745707E+02  0.79268616923E+02 0.  0.
         24    2    1    2    0    0 -0.15309438519E+03  0.23795615751E+03 -0.60902303942E+02  0.30080985748E+03  0.81953987442E+02 0.  0.
         25    2    1    2    0    0  0.16410115393E+03 -0.18603559698E+03  0.32228410258E+04  0.32347914448E+04  0.12503192114E+03 0.  0.
        -11    1    3    3    0    0  0.39574973001E+02 -0.23121491249E+02  0.20063492266E+02  0.50033244623E+02  0.00000000000E+00 0.  1.
         12    1    3    3    0    0 -0.36410295482E+02 -0.34611086070E+01  0.26938433283E+01  0.36673501084E+02  0.00000000000E+00 0. -1.
        -13    1    4    4    0    0 -0.14191616435E+03  0.22311272409E+03 -0.77866016762E+02  0.27564941851E+03  0.00000000000E+00 0.  1.
         14    1    4    4    0    0 -0.11178220840E+02  0.14843433422E+02  0.16963712820E+02  0.25160438978E+02  0.00000000000E+00 0. -1.
          5    1    5    5  501    0  0.15219457554E+03 -0.82094133308E+02  0.19689244420E+04  0.19765090902E+04  0.47000000000E+01 0.  1.
         -5    1    5    5    0  501  0.11906578393E+02 -0.10394146368E+03  0.12539165839E+04  0.12582823545E+04  0.47000000000E+01 0.  1.
          1    1    1    2  502    0 -0.23506725234E+02 -0.45988664666E+02 -0.29842526876E+03  0.30286162590E+03  0.00000000000E+00 0. -1.
          1    1    1    2  503    0  0.93352789760E+01  0.20650703995E+02  0.99456719140E+03  0.99482536016E+03  0.00000000000E+00 0. -1.
<mgrwt>
<rscale>  0 0.34207482E+02</rscale>
<asrwt>0</asrwt>
<pdfrwt beam="1">  1        2 0.64712005E+00 0.22662723E+02</pdfrwt>
<pdfrwt beam="2">  1        2 0.76408609E-01 0.51633329E+02</pdfrwt>
<totfact> 0.55927439E+00</totfact>
</mgrwt>
</event>
<event>
13    1  0.1942437E-008  0.1165167E+03  0.7546771E-02  0.1294382E+00
          2   -1    0    0  503    0  0.00000000000E+00  0.00000000000E+00  0.27765430525E+03  0.27765430525E+03  0.00000000000E+00 0. -1.
          2   -1    0    0  502    0 -0.00000000000E+00 -0.00000000000E+00 -0.13783842739E+04  0.13783842739E+04  0.00000000000E+00 0. -1.
         24    2    1    2    0    0 -0.26555859107E+01 -0.26684155383E+02 -0.12727246133E+03  0.14782383718E+03  0.70246075621E+02 0.  0.
         24    2    1    2    0    0  0.39918163387E+02  0.45197937342E+02 -0.15121380434E+03  0.18152196615E+03  0.80301284334E+02 0.  0.
         25    2    1    2    0    0 -0.21181578622E+03 -0.75258890167E+02 -0.24808390905E+03  0.35735297362E+03  0.12500277591E+03 0.  0.
        -11    1    4    4    0    0 -0.23438273703E+02  0.69374118436E+01 -0.54558914119E+02  0.59784240959E+02  0.00000000000E+00 0.  1.
         12    1    4    4    0    0  0.63356437090E+02  0.38260525498E+02 -0.96654890217E+02  0.12173772519E+03  0.00000000000E+00 0. -1.
        -13    1    3    3    0    0  0.19024754746E+02  0.14275571671E+02 -0.20397602380E+02  0.31333614897E+02  0.00000000000E+00 0.  1.
         14    1    3    3    0    0 -0.21680340657E+02 -0.40959727054E+02 -0.10687485895E+03  0.11649022228E+03  0.00000000000E+00 0. -1.
          5    1    5    5  501    0  0.14724885329E+02 -0.16989223846E+02 -0.17655732807E+02  0.28970172174E+02  0.47000000000E+01 0. -1.
         -5    1    5    5    0  501 -0.22654067155E+03 -0.58269666321E+02 -0.23042817624E+03  0.32838280144E+03  0.47000000000E+01 0. -1.
          1    1    1    2  502    0  0.10131737491E+03  0.39777362690E+02 -0.76058191374E+03  0.76833085097E+03  0.00000000000E+00 0. -1.
          1    1    1    2  503    0  0.73235833828E+02  0.16967745518E+02  0.18642211977E+03  0.20100895126E+03  0.00000000000E+00 0. -1.
<mgrwt>
<rscale>  0 0.93590773E+02</rscale>
<asrwt>0</asrwt>
<pdfrwt beam="1">  1        2 0.40831515E-01 0.75175739E+02</pdfrwt>
<pdfrwt beam="2">  1        2 0.20270357E+00 0.11651675E+03</pdfrwt>
<totfact> 0.34856938E+02</totfact>
</mgrwt>
</event>
<event>
13    1  0.1942437E-008  0.1087952E+03  0.7546771E-02  0.1312308E+00
          2   -1    0    0  502    0  0.00000000000E+00  0.00000000000E+00  0.28623448218E+04  0.28623448218E+04  0.00000000000E+00 0. -1.
          2   -1    0    0  503    0 -0.00000000000E+00 -0.00000000000E+00 -0.11482620862E+04  0.11482620862E+04  0.00000000000E+00 0. -1.
         24    2    1    2    0    0 -0.34554772495E+02  0.39208764431E+02 -0.16190960246E+03  0.18620989777E+03  0.75683863193E+02 0.  0.
         24    2    1    2    0    0 -0.42474212517E+02 -0.81328898620E+02 -0.11282274254E+03  0.16776284115E+03  0.83647780348E+02 0.  0.
         25    2    1    2    0    0 -0.48274106824E+02  0.17356613440E+03  0.75086345006E+03  0.78222443859E+03  0.12499423701E+03 0.  0.
        -11    1    3    3    0    0 -0.27169398403E+02  0.60658229504E+02 -0.13844224070E+03  0.15357034553E+03  0.00000000000E+00 0.  1.
         12    1    3    3    0    0 -0.73853740916E+01 -0.21449465072E+02 -0.23467361759E+02  0.32639552238E+02  0.00000000000E+00 0. -1.
        -13    1    4    4    0    0 -0.37014679763E+02 -0.93170746416E+02 -0.11699325081E+03  0.15407237014E+03  0.00000000000E+00 0.  1.
         14    1    4    4    0    0 -0.54595327545E+01  0.11841847796E+02  0.41705082751E+01  0.13690471007E+02  0.00000000000E+00 0. -1.
          5    1    5    5  501    0 -0.64095856739E+02  0.13618017299E+03  0.70453162293E+03  0.72044445732E+03  0.47000000000E+01 0.  1.
         -5    1    5    5    0  501  0.15821749916E+02  0.37385961405E+02  0.46331827127E+02  0.61779981269E+02  0.47000000000E+01 0.  1.
          1    1    1    2  502    0  0.63534083076E+02  0.25085689842E+02  0.20469528605E+04  0.20480922549E+04  0.00000000000E+00 0. -1.
          1    1    1    2  503    0  0.61769008760E+02 -0.15653169005E+03 -0.80900122998E+03  0.82631747563E+03  0.00000000000E+00 0. -1.
<mgrwt>
<rscale>  0 0.86206122E+02</rscale>
<asrwt>0</asrwt>
<pdfrwt beam="1">  1        2 0.42093306E+00 0.68307185E+02</pdfrwt>
<pdfrwt beam="2">  1        2 0.16886207E+00 0.10879522E+03</pdfrwt>
<totfact> 0.13635682E+01</totfact>
</mgrwt>
</event>
<event>
13    1  0.1942437E-008  0.1688433E+03  0.7546771E-02  0.1355980E+00
          2   -1    0    0  503    0  0.00000000000E+00  0.00000000000E+00  0.22029603079E+04  0.22029603079E+04  0.00000000000E+00 0. -1.
         -1   -1    0    0    0  501 -0.00000000000E+00 -0.00000000000E+00 -0.67322142881E+03  0.67322142881E+03  0.00000000000E+00 0.  1.
         24    2    1    2    0    0  0.11980424547E+03  0.60686205341E+02 -0.40114270369E+02  0.16176908976E+03  0.80772587940E+02 0.  0.
         24    2    1    2    0    0  0.20346352093E+02 -0.94982643439E+02  0.47063311010E+02  0.13926169751E+03  0.87995389385E+02 0.  0.
         25    2    1    2    0    0  0.19034353917E+02  0.14435574768E+03  0.28130458674E+03  0.34052560815E+03  0.12499812305E+03 0.  0.
        -11    1    3    3    0    0  0.56696720025E+02  0.72941218070E+02 -0.25567576067E+02  0.95857395652E+02  0.00000000000E+00 0.  1.
         12    1    3    3    0    0  0.63107525447E+02 -0.12255012729E+02 -0.14546694302E+02  0.65911694108E+02  0.00000000000E+00 0. -1.
        -13    1    4    4    0    0  0.54805134000E+02 -0.64412559228E+02  0.25031042233E+02  0.88199396677E+02  0.00000000000E+00 0.  1.
         14    1    4    4    0    0 -0.34458781907E+02 -0.30570084211E+02  0.22032268777E+02  0.51062300836E+02  0.00000000000E+00 0. -1.
          5    1    5    5  502    0 -0.54373494502E+01  0.11276030471E+03  0.27807842434E+03  0.30015687760E+03  0.47000000000E+01 0. -1.
         -5    1    5    5    0  502  0.24471703367E+02  0.31595442969E+02  0.32261624009E+01  0.40368730547E+02  0.47000000000E+01 0. -1.
          1    1    1    2  503    0 -0.30208230666E+00 -0.30043072287E+02  0.17219875716E+04  0.17222496550E+04  0.00000000000E+00 0. -1.
         -2    1    1    2    0  501 -0.15888286918E+03 -0.80016237291E+02 -0.48050231995E+03  0.51237568621E+03  0.00000000000E+00 0.  1.
<mgrwt>
<rscale>  0 0.71223784E+02</rscale>
<asrwt>0</asrwt>
<pdfrwt beam="1">  1        2 0.32396475E+00 0.30044591E+02</pdfrwt>
<pdfrwt beam="2">  1       -1 0.99003152E-01 0.16884328E+03</pdfrwt>
<totfact> 0.10291931E+01</totfact>
</mgrwt>
</event>
<event>
13    1  0.1942437E-008  0.5641935E+02  0.7546771E-02  0.1644085E+00
          2   -1    0    0  502    0  0.00000000000E+00  0.00000000000E+00  0.20724070927E+04  0.20724070927E+04  0.00000000000E+00 0. -1.
          2   -1    0    0  503    0 -0.00000000000E+00 -0.00000000000E+00 -0.34188142982E+04  0.34188142982E+04  0.00000000000E+00 0. -1.
         24    2    1    2    0    0  0.43063678385E+02  0.97969727766E+01 -0.16373100025E+04  0.16398483547E+04  0.79800507252E+02 0.  0.
         24    2    1    2    0    0 -0.15604352631E+02 -0.79219823141E+01 -0.59902905259E+03  0.60465778437E+03  0.80429949204E+02 0.  0.
         25    2    1    2    0    0 -0.67476491176E+01 -0.43353834616E+02 -0.32514383968E+03  0.35109532753E+03  0.12499730713E+03 0.  0.
        -13    1    3    3    0    0 -0.13580861474E+02  0.26596931942E+02 -0.73468572852E+03  0.73529242909E+03  0.00000000000E+00 0.  1.
         14    1    3    3    0    0  0.56644539859E+02 -0.16799959165E+02 -0.90262427399E+03  0.90455592559E+03  0.00000000000E+00 0. -1.
        -13    1    4    4    0    0 -0.31601151076E+02 -0.28450696949E+02 -0.18552331406E+03  0.19033385134E+03  0.00000000000E+00 0.  1.
         14    1    4    4    0    0  0.15996798445E+02  0.20528714635E+02 -0.41350573852E+03  0.41432393303E+03  0.00000000000E+00 0. -1.
          5    1    5    5  501    0  0.49334911950E+02 -0.49148337222E+02 -0.12565145164E+03  0.14373541627E+03  0.47000000000E+01 0. -1.
         -5    1    5    5    0  501 -0.56082561068E+02  0.57945026063E+01 -0.19949238804E+03  0.20735991127E+03  0.47000000000E+01 0. -1.
          1    1    1    2  502    0 -0.31748807128E+02  0.46640472549E+02  0.20549164080E+04  0.20556908241E+04  0.00000000000E+00 0. -1.
          1    1    1    2  503    0  0.11037130491E+02 -0.51616283950E+01 -0.83984071869E+03  0.83992910024E+03  0.00000000000E+00 0. -1.
<mgrwt>
<rscale>  0 0.26219046E+02</rscale>
<asrwt>0</asrwt>
<pdfrwt beam="1">  1        2 0.30476575E+00 0.56419349E+02</pdfrwt>
<pdfrwt beam="2">  1        2 0.50276681E+00 0.12184443E+02</pdfrwt>
<totfact> 0.36768291E+00</totfact>
</mgrwt>
</event>
<event>
13    1  0.1942437E-008  0.5656668E+02  0.7546771E-02  0.1498396E+00
          2   -1    0    0  503    0  0.00000000000E+00  0.00000000000E+00  0.17825737881E+04  0.17825737881E+04  0.00000000000E+00 0. -1.
         -1   -1    0    0    0  501 -0.00000000000E+00 -0.00000000000E+00 -0.27051205905E+04  0.27051205905E+04  0.00000000000E+00 0.  1.
         24    2    1    2    0    0 -0.52842670331E+03 -0.60901572226E+03 -0.14724309483E+03  0.82455096438E+03  0.89826683938E+02 0.  0.
         24    2    1    2    0    0  0.51584288248E+03  0.69194958564E+03  0.86222816247E+02  0.87108485740E+03  0.80413595055E+02 0.  0.
         25    2    1    2    0    0 -0.15310408437E+02 -0.14147644836E+03  0.29828607641E+03  0.35334018953E+03  0.12499884846E+03 0.  0.
        -13    1    4    4    0    0  0.34423086221E+03  0.51285109431E+03  0.81266534624E+02  0.62298906979E+03  0.00000000000E+00 0.  1.
         14    1    4    4    0    0  0.17161202028E+03  0.17909849133E+03  0.49562816231E+01  0.24809578761E+03  0.00000000000E+00 0. -1.
        -13    1    3    3    0    0 -0.29399062074E+03 -0.39268261432E+03 -0.11566757529E+03  0.50399316329E+03  0.00000000000E+00 0.  1.
         14    1    3    3    0    0 -0.23443608256E+03 -0.21633310794E+03 -0.31575519538E+02  0.32055780108E+03  0.00000000000E+00 0. -1.
          5    1    5    5  502    0 -0.45747463462E+02 -0.38773983587E+01  0.98848868678E+02  0.10909194961E+03  0.47000000000E+01 0. -1.
         -5    1    5    5    0  502  0.30437055025E+02 -0.13759905000E+03  0.19943720773E+03  0.24424823992E+03  0.47000000000E+01 0. -1.
          1    1    1    2  503    0 -0.17442261851E+02  0.24714246853E+02  0.63865021638E+03  0.63936619036E+03  0.00000000000E+00 0. -1.
         -2    1    1    2    0  501  0.45336491110E+02  0.33828338125E+02 -0.17984628166E+04  0.17993521769E+04  0.00000000000E+00 0.  1.
<mgrwt>
<rscale>  0 0.41365546E+02</rscale>
<asrwt>0</asrwt>
<pdfrwt beam="1">  1        2 0.26214321E+00 0.30249405E+02</pdfrwt>
<pdfrwt beam="2">  1       -1 0.39781185E+00 0.56566680E+02</pdfrwt>
<totfact> 0.17715316E-01</totfact>
</mgrwt>
</event>
<event>
13    1  0.1942437E-008  0.7475145E+02  0.7546771E-02  0.1388755E+00
          2   -1    0    0  503    0  0.00000000000E+00  0.00000000000E+00  0.38281720145E+04  0.38281720145E+04  0.00000000000E+00 0. -1.
         -3   -1    0    0    0  501 -0.00000000000E+00 -0.00000000000E+00 -0.78029221159E+02  0.78029221159E+02  0.00000000000E+00 0.  1.
         24    2    1    2    0    0 -0.48938506618E+02 -0.16726708355E+01  0.14227334161E+03  0.17124115106E+03  0.81756056809E+02 0.  0.
         24    2    1    2    0    0  0.13871299843E+03 -0.57159577093E+02  0.34453251816E+03  0.37959709313E+03  0.53691562212E+02 0.  0.
         25    2    1    2    0    0 -0.43995116609E+02 -0.28079694924E+02  0.12497396320E+04  0.12570591935E+04  0.12499851397E+03 0.  0.
        -11    1    3    3    0    0  0.15796695023E+02  0.21293589816E+02  0.43149576788E+02  0.50644234794E+02  0.00000000000E+00 0.  1.
         12    1    3    3    0    0 -0.64735201640E+02 -0.22966260652E+02  0.99123764826E+02  0.12059691627E+03  0.00000000000E+00 0. -1.
        -13    1    4    4    0    0  0.58750225639E+02 -0.19309763001E+01  0.16939014676E+03  0.17929958032E+03  0.00000000000E+00 0.  1.
         14    1    4    4    0    0  0.79962772793E+02 -0.55228600793E+02  0.17514237140E+03  0.20029751281E+03  0.00000000000E+00 0. -1.
          5    1    5    5  502    0 -0.45021931102E-01 -0.24733075316E+01  0.10748251546E+04  0.10748382773E+04  0.47000000000E+01 0.  1.
         -5    1    5    5    0  502 -0.43950094678E+02 -0.25606387392E+02  0.17491447739E+03  0.18222091619E+03  0.47000000000E+01 0.  1.
          1    1    1    2  503    0  0.44797168366E+01  0.74433802241E+02  0.20391809650E+04  0.20405439144E+04  0.00000000000E+00 0. -1.
         -4    1    1    2    0  501 -0.50259092042E+02  0.12478140611E+02 -0.25583663370E+02  0.57759883634E+02  0.00000000000E+00 0.  1.
<mgrwt>
<rscale>  0 0.62217357E+02</rscale>
<asrwt>0</asrwt>
<pdfrwt beam="1">  1        2 0.56296635E+00 0.74751448E+02</pdfrwt>
<pdfrwt beam="2">  1       -3 0.11474888E-01 0.51784943E+02</pdfrwt>
<totfact> 0.31431948E+01</totfact>
</mgrwt>
</event>
<event>
13    1  0.1942437E-008  0.1136795E+03  0.7546771E-02  0.1302221E+00
          2   -1    0    0  502    0  0.00000000000E+00  0.00000000000E+00  0.10719378886E+04  0.10719378886E+04  0.00000000000E+00 0. -1.
          2   -1    0    0  503    0 -0.00000000000E+00 -0.00000000000E+00 -0.13007220239E+04  0.13007220239E+04  0.00000000000E+00 0. -1.
         24    2    1    2    0    0 -0.19416554248E+01 -0.76705805634E+02 -0.12949721490E+03  0.17096344806E+03  0.81064303238E+02 0.  0.
         24    2    1    2    0    0 -0.78502248992E+02  0.31336731857E+02 -0.22431715990E+03  0.25335321148E+03  0.82006509995E+02 0.  0.
         25    2    1    2    0    0 -0.49147734526E+02 -0.87446010428E+02 -0.13746334027E+03  0.21114584046E+03  0.12499636586E+03 0.  0.
        -11    1    3    3    0    0 -0.28293721460E+02  0.13223497236E+01 -0.23995265235E+02  0.37122177153E+02  0.00000000000E+00 0.  1.
         12    1    3    3    0    0  0.26352066036E+02 -0.78028155358E+02 -0.10550194967E+03  0.13384127090E+03  0.00000000000E+00 0. -1.
        -13    1    4    4    0    0 -0.17832426703E+02 -0.27804544382E+02 -0.61322784418E+02  0.69653226912E+02  0.00000000000E+00 0.  1.
         14    1    4    4    0    0 -0.60669822289E+02  0.59141276239E+02 -0.16299437548E+03  0.18369998457E+03  0.00000000000E+00 0. -1.
          5    1    5    5  501    0 -0.74673554210E+02 -0.75529324788E+02 -0.46926186874E+02  0.11621091005E+03  0.47000000000E+01 0.  1.
         -5    1    5    5    0  501  0.25525819684E+02 -0.11916685640E+02 -0.90537153394E+02  0.94934930410E+02  0.47000000000E+01 0.  1.
          1    1    1    2  502    0  0.81796101964E+02  0.79413965310E+02  0.99484088323E+03  0.10013518678E+04  0.00000000000E+00 0. -1.
          1    1    1    2  503    0  0.47795536980E+02  0.53401118895E+02 -0.73234730344E+03  0.73584554473E+03  0.00000000000E+00 0. -1.
<mgrwt>
<rscale>  0 0.90260817E+02</rscale>
<asrwt>0</asrwt>
<pdfrwt beam="1">  1        2 0.15763793E+00 0.11367948E+03</pdfrwt>
<pdfrwt beam="2">  1        2 0.19128265E+00 0.71666539E+02</pdfrwt>
<totfact> 0.85376810E+01</totfact>
</mgrwt>
</event>
<event>
13    1  0.1942437E-008  0.6542695E+02  0.7546771E-02  0.1405048E+00
          2   -1    0    0  502    0  0.00000000000E+00  0.00000000000E+00  0.24649867529E+04  0.24649867529E+04  0.00000000000E+00 0. -1.
          2   -1    0    0  503    0 -0.00000000000E+00 -0.00000000000E+00 -0.90876773693E+03  0.90876773693E+03  0.00000000000E+00 0. -1.
         24    2    1    2    0    0  0.91873220688E-01  0.41050926959E+02 -0.19461564978E+03  0.21502400717E+03  0.81699972319E+02 0.  0.
         24    2    1    2    0    0 -0.27376694001E+02  0.81276957694E+02 -0.71583523963E+01  0.11446579134E+03  0.75470180545E+02 0.  0.
         25    2    1    2    0    0  0.10510080136E+02 -0.11031586273E+03  0.16636741149E+04  0.16720388235E+04  0.12498886115E+03 0.  0.
        -11    1    3    3    0    0  0.37444704369E+02  0.38932046846E+02 -0.11594076620E+03  0.12790649484E+03  0.00000000000E+00 0.  1.
         12    1    3    3    0    0 -0.37352831149E+02  0.21188801130E+01 -0.78674883580E+02  0.87117512327E+02  0.00000000000E+00 0. -1.
        -11    1    4    4    0    0  0.54699814391E+01 -0.85768298176E+01  0.13189378610E+02  0.16656602738E+02  0.00000000000E+00 0.  1.
         12    1    4    4    0    0 -0.32846675441E+02  0.89853787511E+02 -0.20347731006E+02  0.97809188601E+02  0.00000000000E+00 0. -1.
          5    1    5    5  501    0 -0.37734381277E+02 -0.12474531975E+01  0.20581081073E+03  0.20929792040E+03  0.47000000000E+01 0. -1.
         -5    1    5    5    0  501  0.48244461413E+02 -0.10906840954E+03  0.14578633041E+04  0.14627409031E+04  0.47000000000E+01 0. -1.
          1    1    1    2  502    0 -0.48307971404E+02 -0.19173300877E+02  0.73066950916E+03  0.73251567026E+03  0.00000000000E+00 0. -1.
          1    1    1    2  503    0  0.65082712049E+02  0.71612789581E+01 -0.63635060586E+03  0.63971019759E+03  0.00000000000E+00 0. -1.
<mgrwt>
<rscale>  0 0.58313696E+02</rscale>
<asrwt>0</asrwt>
<pdfrwt beam="1">  1        2 0.36249805E+00 0.51973797E+02</pdfrwt>
<pdfrwt beam="2">  1        2 0.13364232E+00 0.65426953E+02</pdfrwt>
<totfact> 0.31282772E+01</totfact>
</mgrwt>
</event>
<event>
13    1  0.1942437E-008  0.8305859E+02  0.7546771E-02  0.1468582E+00
          2   -1    0    0  503    0  0.00000000000E+00  0.00000000000E+00  0.27924644234E+04  0.27924644234E+04  0.00000000000E+00 0. -1.
          2   -1    0    0  502    0 -0.00000000000E+00 -0.00000000000E+00 -0.13245444859E+04  0.13245444859E+04  0.00000000000E+00 0. -1.
         24    2    1    2    0    0 -0.42597650889E+01 -0.17544033805E+02 -0.11516928240E+03  0.14177698095E+03  0.80689590394E+02 0.  0.
         24    2    1    2    0    0 -0.31129020341E+02  0.17770265585E+02 -0.31692557612E+03  0.32902529900E+03  0.80814777932E+02 0.  0.
         25    2    1    2    0    0  0.28414037717E+02 -0.75426130711E+02  0.21967617072E+04  0.22017906077E+04  0.12499369256E+03 0.  0.
        -11    1    4    4    0    0 -0.21943565548E+02  0.31728160114E+02 -0.30736074169E+03  0.30977220945E+03  0.00000000000E+00 0.  1.
         12    1    4    4    0    0 -0.91854547922E+01 -0.13957894529E+02 -0.95648344308E+01  0.19253089547E+02  0.00000000000E+00 0. -1.
        -11    1    3    3    0    0 -0.19456886089E+02  0.28275579748E+02 -0.44667638411E+02  0.56331844880E+02  0.00000000000E+00 0.  1.
         12    1    3    3    0    0  0.15197121000E+02 -0.45819613553E+02 -0.70501643993E+02  0.85445136073E+02  0.00000000000E+00 0. -1.
          5    1    5    5  501    0 -0.43407571741E+02 -0.14927272569E+01  0.50547886571E+03  0.50736320245E+03  0.47000000000E+01 0. -1.
         -5    1    5    5    0  501  0.71821609458E+02 -0.73933403454E+02  0.16912828415E+04  0.16944274052E+04  0.47000000000E+01 0. -1.
          1    1    1    2  502    0  0.24633349572E+02  0.93464350350E+02 -0.86761528780E+03  0.87298263117E+03  0.00000000000E+00 0. -1.
          1    1    1    2  503    0 -0.17658601860E+02 -0.18264451419E+02  0.57086837656E+03  0.57143339048E+03  0.00000000000E+00 0. -1.
<mgrwt>
<rscale>  0 0.45935906E+02</rscale>
<asrwt>0</asrwt>
<pdfrwt beam="1">  1        2 0.41065653E+00 0.25405047E+02</pdfrwt>
<pdfrwt beam="2">  1        2 0.19478595E+00 0.83058592E+02</pdfrwt>
<totfact> 0.14293576E+01</totfact>
</mgrwt>
</event>
<event>
13    1  0.1942437E-008  0.9679124E+02  0.7546771E-02  0.1289500E+00
          2   -1    0    0  503    0  0.00000000000E+00  0.00000000000E+00  0.14488838925E+04  0.14488838925E+04  0.00000000000E+00 0. -1.
          2   -1    0    0  502    0 -0.00000000000E+00 -0.00000000000E+00 -0.32818723001E+04  0.32818723001E+04  0.00000000000E+00 0. -1.
         24    2    1    2    0    0 -0.14500745586E+03  0.16669443871E+01 -0.17912822705E+04  0.17989263627E+04  0.80087106644E+02 0.  0.
         24    2    1    2    0    0  0.71202128521E+02  0.52916444388E+02 -0.87522000577E+02  0.14898831792E+03  0.81654914723E+02 0.  0.
         25    2    1    2    0    0  0.83841224798E+02 -0.14710973386E+02  0.16269494869E+03  0.22213066362E+03  0.12500648653E+03 0.  0.
        -11    1    4    4    0    0  0.19335339775E+02  0.46298389148E+02 -0.38484052155E+01  0.50321033620E+02  0.00000000000E+00 0.  1.
         12    1    4    4    0    0  0.51866788746E+02  0.66180552404E+01 -0.83673595361E+02  0.98667284298E+02  0.00000000000E+00 0. -1.
        -13    1    3    3    0    0 -0.19638608801E+02  0.29141061465E+02 -0.51852704626E+03  0.51971643626E+03  0.00000000000E+00 0.  1.
         14    1    3    3    0    0 -0.12536884706E+03 -0.27474117078E+02 -0.12727552243E+04  0.12792099264E+04  0.00000000000E+00 0. -1.
          5    1    5    5  501    0  0.89971932599E+02  0.35118584218E+02  0.13005526893E+03  0.16206395833E+03  0.47000000000E+01 0.  1.
         -5    1    5    5    0  501 -0.61307078016E+01 -0.49829557603E+02  0.32639679760E+02  0.60066705286E+02  0.47000000000E+01 0.  1.
          1    1    1    2  502    0  0.84238538445E+02 -0.49011759108E+02 -0.13351807159E+04  0.13387329189E+04  0.00000000000E+00 0. -1.
          1    1    1    2  503    0 -0.94274435906E+02  0.91393437187E+01  0.12183016308E+04  0.12219779296E+04  0.00000000000E+00 0. -1.
<mgrwt>
<rscale>  0 0.95748199E+02</rscale>
<asrwt>0</asrwt>
<pdfrwt beam="1">  1        2 0.21307116E+00 0.94716402E+02</pdfrwt>
<pdfrwt beam="2">  1        2 0.48262828E+00 0.96791236E+02</pdfrwt>
<totfact> 0.54177137E+00</totfact>
</mgrwt>
</event>
<event>
13    1  0.1942437E-008  0.6029078E+02  0.7546771E-02  0.1417230E+00
          2   -1    0    0  503    0  0.00000000000E+00  0.00000000000E+00  0.32920069944E+04  0.32920069944E+04  0.00000000000E+00 0. -1.
          2   -1    0    0  502    0 -0.00000000000E+00 -0.00000000000E+00 -0.25383956955E+04  0.25383956955E+04  0.00000000000E+00 0. -1.
         24    2    1    2    0    0 -0.64232827825E+01 -0.21024609865E+02 -0.28590377433E+03  0.29813517969E+03  0.81610810643E+02 0.  0.
         24    2    1    2    0    0  0.22963757419E+02  0.11299675340E+03  0.97918656575E+01  0.14067449114E+03  0.79986445052E+02 0.  0.
         25    2    1    2    0    0 -0.66021637662E+02 -0.93225363019E+02  0.31056637060E+03  0.35373167878E+03  0.12499922030E+03 0.  0.
        -11    1    3    3    0    0 -0.25236144512E+02 -0.41697510347E+02 -0.11412268439E+03  0.12409485264E+03  0.00000000000E+00 0.  1.
         12    1    3    3    0    0  0.18812861730E+02  0.20672900482E+02 -0.17178108994E+03  0.17404032706E+03  0.00000000000E+00 0. -1.
        -13    1    4    4    0    0 -0.25678951093E+02  0.12827731567E+02  0.55656096262E+01  0.29239275588E+02  0.00000000000E+00 0.  1.
         14    1    4    4    0    0  0.48642708512E+02  0.10016902183E+03  0.42262560313E+01  0.11143521555E+03  0.00000000000E+00 0. -1.
          5    1    5    5  501    0 -0.43351990682E+02 -0.35327599870E+02  0.27756583748E+03  0.28318248277E+03  0.47000000000E+01 0. -1.
         -5    1    5    5    0  501 -0.22669646980E+02 -0.57897763148E+02  0.33000533114E+02  0.70549196010E+02  0.47000000000E+01 0. -1.
          1    1    1    2  502    0  0.13326581197E+02  0.49533696679E+02 -0.21587315710E+04  0.21593409135E+04  0.00000000000E+00 0. -1.
          1    1    1    2  503    0  0.36154581828E+02 -0.48280477192E+02  0.28778884081E+04  0.28785204268E+04  0.00000000000E+00 0. -1.
<mgrwt>
<rscale>  0 0.55611333E+02</rscale>
<asrwt>0</asrwt>
<pdfrwt beam="1">  1        2 0.48411867E+00 0.60290783E+02</pdfrwt>
<pdfrwt beam="2">  1        2 0.37329349E+00 0.51295076E+02</pdfrwt>
<totfact> 0.18673725E+00</totfact>
</mgrwt>
</event>
<event>
13    1  0.1942437E-008  0.2211825E+03  0.7546771E-02  0.1160589E+00
          4   -1    0    0  503    0 -0.00000000000E+00  0.00000000000E+00  0.14047478232E+04  0.14047478232E+04  0.00000000000E+00 0. -1.
          2   -1    0    0  502    0  0.00000000000E+00 -0.00000000000E+00 -0.18953043827E+04  0.18953043827E+04  0.00000000000E+00 0. -1.
         24    2    1    2    0    0 -0.73610756391E+02 -0.35682635182E+03  0.14341137292E+03  0.39937684524E+03  0.78685791689E+02 0.  0.
         24    2    1    2    0    0  0.89215520593E+02  0.67965007397E+02  0.26827802061E+02  0.14106630237E+03  0.81248503714E+02 0.  0.
         25    2    1    2    0    0 -0.30693807781E+03  0.16587455935E+02 -0.24263181254E+03  0.41107163585E+03  0.12499426403E+03 0.  0.
        -13    1    4    4    0    0  0.42214968454E+02 -0.88018165555E+01 -0.92317117675E+01  0.44099887057E+02  0.00000000000E+00 0.  1.
         14    1    4    4    0    0  0.47000552139E+02  0.76766823953E+02  0.36059513828E+02  0.96966415313E+02  0.00000000000E+00 0. -1.
        -13    1    3    3    0    0  0.73382213595E+01 -0.63758096199E+02  0.49849049337E+02  0.81264211332E+02  0.00000000000E+00 0.  1.
         14    1    3    3    0    0 -0.80948977750E+02 -0.29306825563E+03  0.93562323587E+02  0.31811263390E+03  0.00000000000E+00 0. -1.
          5    1    5    5  501    0 -0.20614600494E+03 -0.10730998966E+01 -0.22830295354E+03  0.30763883937E+03  0.47000000000E+01 0. -1.
         -5    1    5    5    0  501 -0.10079207287E+03  0.17660555832E+02 -0.14328858993E+02  0.10343279647E+03  0.47000000000E+01 0. -1.
          1    1    1    2  502    0  0.15846071967E+03  0.11655196475E+02 -0.13564406199E+04  0.13657147574E+04  0.00000000000E+00 0. -1.
          3    1    1    2  503    0  0.13287259394E+03  0.26061869202E+03  0.93827669798E+03  0.98282266499E+03  0.00000000000E+00 0. -1.
<mgrwt>
<rscale>  0 0.18766038E+03</rscale>
<asrwt>0</asrwt>
<pdfrwt beam="2">  1        2 0.27872123E+00 0.15921880E+03</pdfrwt>
<pdfrwt beam="1">  1        4 0.20658056E+00 0.22118253E+03</pdfrwt>
<totfact> 0.67925367E-01</totfact>
</mgrwt>
</event>
<event>
13    1  0.1942437E-008  0.8628644E+02  0.7546771E-02  0.1457922E+00
          2   -1    0    0  502    0  0.00000000000E+00  0.00000000000E+00  0.10609247281E+04  0.10609247281E+04  0.00000000000E+00 0. -1.
          2   -1    0    0  503    0 -0.00000000000E+00 -0.00000000000E+00 -0.33157935339E+04  0.33157935339E+04  0.00000000000E+00 0. -1.
         24    2    1    2    0    0  0.23270308285E+03  0.12876023320E+03 -0.17193625719E+04  0.17416413071E+04  0.79855286232E+02 0.  0.
         24    2    1    2    0    0 -0.40129063477E+02  0.12889439759E+03 -0.41758720620E+03  0.44614511509E+03  0.80263824176E+02 0.  0.
         25    2    1    2    0    0 -0.17186300493E+03 -0.35951395050E+03  0.30608322142E+03  0.51778228508E+03  0.12499753296E+03 0.  0.
        -11    1    4    4    0    0 -0.91173180651E+01 -0.96338626608E+01 -0.59188639211E+02  0.60656671604E+02  0.00000000000E+00 0.  1.
         12    1    4    4    0    0 -0.31011745412E+02  0.13852826025E+03 -0.35839856698E+03  0.38548844348E+03  0.00000000000E+00 0. -1.
        -13    1    3    3    0    0  0.68178180496E+02  0.11081905800E+02 -0.29447552970E+03  0.30246803224E+03  0.00000000000E+00 0.  1.
         14    1    3    3    0    0  0.16452490235E+03  0.11767832740E+03 -0.14248870422E+04  0.14391732749E+04  0.00000000000E+00 0. -1.
          5    1    5    5  501    0 -0.19013007870E+03 -0.34361108888E+03  0.28387397590E+03  0.48458699056E+03  0.47000000000E+01 0. -1.
         -5    1    5    5    0  501  0.18267073773E+02 -0.15902861620E+02  0.22209245517E+02  0.33195294521E+02  0.47000000000E+01 0. -1.
          1    1    1    2  502    0 -0.21288101292E+02  0.15637472104E+02  0.62151843064E+03  0.62207947516E+03  0.00000000000E+00 0. -1.
          1    1    1    2  503    0  0.57708684830E+00  0.86221847608E+02 -0.10455206797E+04  0.10490700795E+04  0.00000000000E+00 0. -1.
<mgrwt>
<rscale>  0 0.47740901E+02</rscale>
<asrwt>0</asrwt>
<pdfrwt beam="1">  1        2 0.15601834E+00 0.26414272E+02</pdfrwt>
<pdfrwt beam="2">  1        2 0.48761669E+00 0.86286443E+02</pdfrwt>
<totfact> 0.90387352E+00</totfact>
</mgrwt>
</event>
<event>
13    1  0.1942437E-008  0.4018669E+03  0.7546771E-02  0.1154056E+00
          2   -1    0    0  502    0  0.00000000000E+00  0.00000000000E+00  0.15451205110E+04  0.15451205110E+04  0.00000000000E+00 0. -1.
          2   -1    0    0  503    0 -0.00000000000E+00 -0.00000000000E+00 -0.21583836130E+04  0.21583836130E+04  0.00000000000E+00 0. -1.
         24    2    1    2    0    0 -0.19135236650E+02  0.28404369848E+02  0.13939614484E+02  0.88433302344E+02  0.80331628911E+02 0.  0.
         24    2    1    2    0    0 -0.17422131440E+03  0.37850156972E+02  0.12260635995E+02  0.19478715233E+03  0.77498456390E+02 0.  0.
         25    2    1    2    0    0 -0.21583777375E+03  0.23033595481E+03  0.86195603353E+03  0.92640848247E+03  0.12499550393E+03 0.  0.
        -11    1    3    3    0    0 -0.42682359546E+02  0.21197730622E+02  0.32425576559E+02  0.57641526828E+02  0.00000000000E+00 0.  1.
         12    1    3    3    0    0  0.23547122896E+02  0.72066392264E+01 -0.18485962075E+02  0.30791775516E+02  0.00000000000E+00 0. -1.
        -13    1    4    4    0    0 -0.20196023791E+02 -0.14617836779E+02 -0.16015484941E+02  0.29632014561E+02  0.00000000000E+00 0.  1.
         14    1    4    4    0    0 -0.15402529061E+03  0.52467993751E+02  0.28276120936E+02  0.16515513777E+03  0.00000000000E+00 0. -1.
          5    1    5    5  501    0  0.13989181426E+02  0.33010796532E+02  0.10651621350E+03  0.11248645973E+03  0.47000000000E+01 0. -1.
         -5    1    5    5    0  501 -0.22982695518E+03  0.19732515828E+03  0.75543982003E+03  0.81392202274E+03  0.47000000000E+01 0. -1.
          1    1    1    2  502    0  0.57300927293E+02 -0.97783007532E+02  0.46896505119E+03  0.48246567968E+03  0.00000000000E+00 0. -1.
          1    1    1    2  503    0  0.35189339751E+03 -0.19880747410E+03 -0.19703844373E+04  0.20114095072E+04  0.00000000000E+00 0. -1.
<mgrwt>
<rscale>  0 0.19496682E+03</rscale>
<asrwt>0</asrwt>
<pdfrwt beam="1">  1        2 0.22722361E+00 0.94588689E+02</pdfrwt>
<pdfrwt beam="2">  1        2 0.31740935E+00 0.40186686E+03</pdfrwt>
<totfact> 0.15824717E+01</totfact>
</mgrwt>
</event>
<event>
13    1  0.1942437E-008  0.6335453E+02  0.7546771E-02  0.1502963E+00
          2   -1    0    0  502    0  0.00000000000E+00  0.00000000000E+00  0.21194518760E+04  0.21194518760E+04  0.00000000000E+00 0. -1.
          2   -1    0    0  503    0 -0.00000000000E+00 -0.00000000000E+00 -0.20129472402E+04  0.20129472402E+04  0.00000000000E+00 0. -1.
         24    2    1    2    0    0  0.37449015295E+03 -0.40871613767E+03 -0.16978643281E+03  0.58553835497E+03  0.82072995087E+02 0.  0.
         24    2    1    2    0    0 -0.83672326004E+03  0.26182750876E+03  0.59939926396E+03  0.10648360080E+04  0.77050555827E+02 0.  0.
         25    2    1    2    0    0  0.45090897018E+03  0.86334186794E+02  0.12927160895E+03  0.49306090850E+03  0.12500167763E+03 0.  0.
        -13    1    3    3    0    0  0.13096542826E+03 -0.19852241154E+03 -0.56178302364E+02  0.24437490243E+03  0.00000000000E+00 0.  1.
         14    1    3    3    0    0  0.24352472470E+03 -0.21019372613E+03 -0.11360813044E+03  0.34116345253E+03  0.00000000000E+00 0. -1.
        -13    1    4    4    0    0 -0.66032912905E+03  0.20118026189E+03  0.50830071933E+03  0.85725006720E+03  0.00000000000E+00 0.  1.
         14    1    4    4    0    0 -0.17639413100E+03  0.60647246873E+02  0.91098544625E+02  0.20758594084E+03  0.00000000000E+00 0. -1.
          5    1    5    5  501    0  0.24050614082E+03  0.88154593803E+02  0.22827708888E+02  0.25721125651E+03  0.47000000000E+01 0.  1.
         -5    1    5    5    0  501  0.21040282936E+03 -0.18204070097E+01  0.10644390006E+03  0.23584965199E+03  0.47000000000E+01 0.  1.
          1    1    1    2  502    0 -0.24763952460E+02  0.84776138497E+01  0.76724653470E+03  0.76769288669E+03  0.00000000000E+00 0. -1.
          1    1    1    2  503    0  0.36088089371E+02  0.52076828262E+02 -0.12196263390E+04  0.12212709581E+04  0.00000000000E+00 0. -1.
<mgrwt>
<rscale>  0 0.40722180E+02</rscale>
<asrwt>0</asrwt>
<pdfrwt beam="1">  1        2 0.31168410E+00 0.26174860E+02</pdfrwt>
<pdfrwt beam="2">  1        2 0.29602165E+00 0.63354530E+02</pdfrwt>
<totfact> 0.13917703E+01</totfact>
</mgrwt>
</event>
<event>
13    1  0.1942437E-008  0.1316234E+03  0.7546771E-02  0.1478187E+00
         -3   -1    0    0    0  501 -0.00000000000E+00  0.00000000000E+00  0.22367695796E+04  0.22367695796E+04  0.00000000000E+00 0.  1.
          2   -1    0    0  503    0  0.00000000000E+00 -0.00000000000E+00 -0.32125667972E+04  0.32125667972E+04  0.00000000000E+00 0. -1.
         24    2    1    2    0    0  0.76984142627E+03 -0.32891162659E+02  0.28181201171E+03  0.82444360452E+03  0.80941935432E+02 0.  0.
         24    2    1    2    0    0 -0.70860200366E+03  0.87144854815E+02 -0.69148652670E+03  0.99558835579E+03  0.57719427226E+02 0.  0.
         25    2    1    2    0    0  0.28273283977E+02  0.59254710063E+02 -0.95421874686E+03  0.96460796576E+03  0.12499844600E+03 0.  0.
        -11    1    4    4    0    0 -0.85029027586E+02 -0.50817159730E+01 -0.97458506622E+02  0.12943693400E+03  0.00000000000E+00 0.  1.
         12    1    4    4    0    0 -0.62357297607E+03  0.92226570788E+02 -0.59402802008E+03  0.86615142180E+03  0.00000000000E+00 0. -1.
        -13    1    3    3    0    0  0.22061196320E+03  0.26792558985E+02  0.75247776576E+02  0.23462674060E+03  0.00000000000E+00 0.  1.
         14    1    3    3    0    0  0.54922946307E+03 -0.59683721644E+02  0.20656423514E+03  0.58981686392E+03  0.00000000000E+00 0. -1.
          5    1    5    5  502    0  0.56076257498E+02  0.23850491919E+01 -0.71151335413E+03  0.71373915278E+03  0.47000000000E+01 0. -1.
         -5    1    5    5    0  502 -0.27802973520E+02  0.56869660871E+02 -0.24270539274E+03  0.25086881298E+03  0.47000000000E+01 0. -1.
          1    1    1    2  503    0 -0.25162087153E+01 -0.14757495220E+02 -0.11354139985E+04  0.11355126873E+04  0.00000000000E+00 0. -1.
         -4    1    1    2    0  501 -0.86996497875E+02 -0.98750906999E+02  0.15235100427E+04  0.15291837635E+04  0.00000000000E+00 0.  1.
<mgrwt>
<rscale>  0 0.44389905E+02</rscale>
<asrwt>0</asrwt>
<pdfrwt beam="2">  1        2 0.47243629E+00 0.14970470E+02</pdfrwt>
<pdfrwt beam="1">  1       -3 0.32893671E+00 0.13162337E+03</pdfrwt>
<totfact> 0.63963829E-02</totfact>
</mgrwt>
</event>
<event>
13    1  0.1942437E-008  0.1772641E+03  0.7546771E-02  0.1420132E+00
          2   -1    0    0  503    0  0.00000000000E+00  0.00000000000E+00  0.23017530344E+04  0.23017530344E+04  0.00000000000E+00 0. -1.
         -1   -1    0    0    0  501 -0.00000000000E+00 -0.00000000000E+00 -0.90683888410E+03  0.90683888410E+03  0.00000000000E+00 0.  1.
         24    2    1    2    0    0  0.47990136621E+02  0.10390271288E+03 -0.29153818299E+02  0.14319511158E+03  0.80969549221E+02 0.  0.
         24    2    1    2    0    0  0.77307035416E+02 -0.87033811102E+02  0.94730120468E+02  0.17019783231E+03  0.80263593236E+02 0.  0.
         25    2    1    2    0    0  0.16882298685E+03  0.45560981555E+02  0.69842322456E+03  0.73074909922E+03  0.12498896538E+03 0.  0.
        -13    1    3    3    0    0  0.68066920198E+02  0.77466091361E+02 -0.71512802190E+01  0.10336944299E+03  0.00000000000E+00 0.  1.
         14    1    3    3    0    0 -0.20076783577E+02  0.26436621523E+02 -0.22002538080E+02  0.39825668585E+02  0.00000000000E+00 0. -1.
        -13    1    4    4    0    0 -0.15993595079E+02 -0.54068168709E+01  0.16520997427E+02  0.23621433238E+02  0.00000000000E+00 0.  1.
         14    1    4    4    0    0  0.93300630495E+02 -0.81626994232E+02  0.78209123041E+02  0.14657639907E+03  0.00000000000E+00 0. -1.
          5    1    5    5  502    0  0.15574957171E+03  0.56108422851E+02  0.41552023479E+03  0.44730888625E+03  0.47000000000E+01 0. -1.
         -5    1    5    5    0  502  0.13073415147E+02 -0.10547441296E+02  0.28290298978E+03  0.28344021297E+03  0.47000000000E+01 0. -1.
          1    1    1    2  503    0 -0.15983427474E+02  0.59660356795E+01  0.13708793067E+04  0.13709854620E+04  0.00000000000E+00 0. -1.
         -2    1    1    2    0  501 -0.27813673142E+03 -0.68395919016E+02 -0.73996468310E+03  0.79346441340E+03  0.00000000000E+00 0.  1.
<mgrwt>
<rscale>  0 0.54992992E+02</rscale>
<asrwt>0</asrwt>
<pdfrwt beam="1">  1        2 0.33849309E+00 0.17060584E+02</pdfrwt>
<pdfrwt beam="2">  1       -1 0.13335866E+00 0.17726410E+03</pdfrwt>
<totfact> 0.50221935E+00</totfact>
</mgrwt>
</event>
<event>
13    1  0.1942437E-008  0.3356199E+03  0.7546771E-02  0.1222009E+00
          2   -1    0    0  503    0  0.00000000000E+00  0.00000000000E+00  0.22517897057E+04  0.22517897057E+04  0.00000000000E+00 0. -1.
         -3   -1    0    0    0  501 -0.00000000000E+00 -0.00000000000E+00 -0.68363912469E+03  0.68363912469E+03  0.00000000000E+00 0.  1.
         24    2    1    2    0    0 -0.77133434668E+00  0.10989236085E+01  0.36949769439E+02  0.87745506920E+02  0.79575033354E+02 0.  0.
         24    2    1    2    0    0  0.18324270647E+02  0.25101595031E+03  0.17764717273E+02  0.26496142405E+03  0.80896136204E+02 0.  0.
         25    2    1    2    0    0  0.22400590046E+03  0.11420298965E+03  0.10883918273E+04  0.11240305195E+04  0.12500749107E+03 0.  0.
        -11    1    3    3    0    0  0.30834650214E+02  0.25150647774E+02  0.20439954962E+02  0.44733907677E+02  0.00000000000E+00 0.  1.
         12    1    3    3    0    0 -0.31605984560E+02 -0.24051724166E+02  0.16509814478E+02  0.43011599243E+02  0.00000000000E+00 0. -1.
        -13    1    4    4    0    0 -0.27288488228E+02  0.41296547343E+02 -0.11111648565E+01  0.49510616029E+02  0.00000000000E+00 0.  1.
         14    1    4    4    0    0  0.45612758875E+02  0.20971940296E+03  0.18875882130E+02  0.21545080802E+03  0.00000000000E+00 0. -1.
          5    1    5    5  502    0  0.50624072498E+02  0.93069411566E+02  0.40471060825E+03  0.41837480626E+03  0.47000000000E+01 0. -1.
         -5    1    5    5    0  502  0.17338182796E+03  0.21133578079E+02  0.68368121901E+03  0.70565571323E+03  0.47000000000E+01 0. -1.
          1    1    1    2  503    0 -0.43461043681E+02 -0.30844445129E+02  0.86751160484E+03  0.86914706848E+03  0.00000000000E+00 0. -1.
         -4    1    1    2    0  501 -0.19809779307E+03 -0.33547341843E+03 -0.44246733782E+03  0.58954431142E+03  0.00000000000E+00 0.  1.
<mgrwt>
<rscale>  0 0.13374043E+03</rscale>
<asrwt>0</asrwt>
<pdfrwt beam="1">  1        2 0.33114554E+00 0.53293922E+02</pdfrwt>
<pdfrwt beam="2">  1       -3 0.10053517E+00 0.33561991E+03</pdfrwt>
<totfact> 0.41224287E+00</totfact>
</mgrwt>
</event>
<event>
13    1  0.1942437E-008  0.5984640E+02  0.7546771E-02  0.1493205E+00
          2   -1    0    0  503    0  0.00000000000E+00  0.00000000000E+00  0.15759435059E+04  0.15759435059E+04  0.00000000000E+00 0. -1.
          2   -1    0    0  502    0 -0.00000000000E+00 -0.00000000000E+00 -0.54308428414E+03  0.54308428414E+03  0.00000000000E+00 0. -1.
         24    2    1    2    0    0 -0.14973120653E+03 -0.36353082240E+02  0.25087124509E+02  0.17538006147E+03  0.79923847179E+02 0.  0.
         24    2    1    2    0    0  0.15130522886E+03  0.26575770013E+02  0.21495079238E+03  0.27674576978E+03  0.82370104513E+02 0.  0.
         25    2    1    2    0    0 -0.87053436418E+01  0.41941817761E+02  0.43864712931E+03  0.45811758659E+03  0.12500208002E+03 0.  0.
        -11    1    3    3    0    0 -0.56770215366E+02  0.15713879752E+02  0.34754272501E+02  0.68393295188E+02  0.00000000000E+00 0.  1.
         12    1    3    3    0    0 -0.92960991169E+02 -0.52066961991E+02 -0.96671479922E+01  0.10698676629E+03  0.00000000000E+00 0. -1.
        -13    1    4    4    0    0  0.15825974084E+03  0.19343873504E+02  0.21371696505E+03  0.26663696699E+03  0.00000000000E+00 0.  1.
         14    1    4    4    0    0 -0.69545119834E+01  0.72318965094E+01  0.12338273230E+01  0.10108802793E+02  0.00000000000E+00 0. -1.
          5    1    5    5  501    0  0.89984974502E+01 -0.38647209653E+02  0.72731985726E+02  0.82985610307E+02  0.47000000000E+01 0. -1.
         -5    1    5    5    0  501 -0.17703841092E+02  0.80589027414E+02  0.36591514358E+03  0.37513197629E+03  0.47000000000E+01 0. -1.
          1    1    1    2  502    0  0.28479735470E+02 -0.52720197048E+02 -0.42492131004E+03  0.42912542949E+03  0.00000000000E+00 0. -1.
          1    1    1    2  503    0 -0.21348414153E+02  0.20555691514E+02  0.77909548558E+03  0.77965894268E+03  0.00000000000E+00 0. -1.
<mgrwt>
<rscale>  0 0.42114211E+02</rscale>
<asrwt>0</asrwt>
<pdfrwt beam="1">  1        2 0.23175640E+00 0.29635979E+02</pdfrwt>
<pdfrwt beam="2">  1        2 0.79865336E-01 0.59846405E+02</pdfrwt>
<totfact> 0.15517275E+02</totfact>
</mgrwt>
</event>
<event>
13    1  0.1942437E-008  0.1734687E+03  0.7546771E-02  0.1290559E+00
          2   -1    0    0  503    0  0.00000000000E+00  0.00000000000E+00  0.70698331279E+03  0.70698331279E+03  0.00000000000E+00 0. -1.
          2   -1    0    0  502    0 -0.00000000000E+00 -0.00000000000E+00 -0.18917090530E+04  0.18917090530E+04  0.00000000000E+00 0. -1.
         24    2    1    2    0    0  0.63358973925E+02  0.43075902620E+02 -0.19995075205E+03  0.22834371355E+03  0.79313651458E+02 0.  0.
         24    2    1    2    0    0  0.17002243529E+03  0.17174362900E+03 -0.75146062288E+02  0.26530205717E+03  0.79591131780E+02 0.  0.
         25    2    1    2    0    0 -0.58956604250E+02  0.31190224764E+02  0.22018743598E+03  0.26182968954E+03  0.12499427208E+03 0.  0.
        -11    1    3    3    0    0  0.72192275208E+02  0.35510811808E+02 -0.10299631902E+03  0.13069423892E+03  0.00000000000E+00 0.  1.
         12    1    3    3    0    0 -0.88333012836E+01  0.75650908112E+01 -0.96954433037E+02  0.97649474633E+02  0.00000000000E+00 0. -1.
        -13    1    4    4    0    0  0.14507963435E+03  0.17439334941E+03 -0.78383924902E+02  0.24001079206E+03  0.00000000000E+00 0.  1.
         14    1    4    4    0    0  0.24942800936E+02 -0.26497204053E+01  0.32378626133E+01  0.25291265114E+02  0.00000000000E+00 0. -1.
          5    1    5    5  501    0 -0.10904992623E+02  0.19345486040E+02 -0.11094417577E+02  0.25265446673E+02  0.47000000000E+01 0. -1.
         -5    1    5    5    0  501 -0.48051611627E+02  0.11844738724E+02  0.23128185356E+03  0.23656424287E+03  0.47000000000E+01 0. -1.
          1    1    1    2  502    0 -0.16456913072E+03 -0.29740095653E+03 -0.14650305314E+04  0.15039430793E+04  0.00000000000E+00 0. -1.
          1    1    1    2  503    0 -0.98556742419E+01  0.51391200147E+02  0.33521416952E+03  0.33927382630E+03  0.00000000000E+00 0. -1.
<mgrwt>
<rscale>  0 0.95274439E+02</rscale>
<asrwt>0</asrwt>
<pdfrwt beam="1">  1        2 0.10396814E+00 0.52327715E+02</pdfrwt>
<pdfrwt beam="2">  1        2 0.27819251E+00 0.17346866E+03</pdfrwt>
<totfact> 0.70027397E+01</totfact>
</mgrwt>
</event>
<event>
13    1  0.1942437E-008  0.1463856E+03  0.7546771E-02  0.1251471E+00
          2   -1    0    0  503    0  0.00000000000E+00  0.00000000000E+00  0.25491886608E+04  0.25491886608E+04  0.00000000000E+00 0. -1.
          2   -1    0    0  502    0 -0.00000000000E+00 -0.00000000000E+00 -0.14814762387E+04  0.14814762387E+04  0.00000000000E+00 0. -1.
         24    2    1    2    0    0  0.15934217961E+03 -0.14098835946E+03 -0.92166070802E+03  0.94971853506E+03  0.85083414516E+02 0.  0.
         24    2    1    2    0    0 -0.75223177924E+02  0.72386321020E+02  0.17839296093E+02  0.13306302058E+03  0.80555701189E+02 0.  0.
         25    2    1    2    0    0  0.51451370003E+02  0.11825259888E+03  0.85471665542E+03  0.87338188923E+03  0.12499777107E+03 0.  0.
        -11    1    3    3    0    0  0.42278596906E+02  0.29504657206E+01 -0.13611943870E+03  0.14256467514E+03  0.00000000000E+00 0.  1.
         12    1    3    3    0    0  0.11706358271E+03 -0.14393882519E+03 -0.78554126932E+03  0.80715385993E+03  0.00000000000E+00 0. -1.
        -11    1    4    4    0    0 -0.63016019990E+02  0.88715152851E+02  0.24636856717E+02  0.11157227178E+03  0.00000000000E+00 0.  1.
         12    1    4    4    0    0 -0.12207157934E+02 -0.16328831831E+02 -0.67975606237E+01  0.21490748806E+02  0.00000000000E+00 0. -1.
          5    1    5    5  501    0  0.59199160879E+02  0.53031061607E+02  0.70926021963E+03  0.71371491738E+03  0.47000000000E+01 0. -1.
         -5    1    5    5    0  501 -0.77477908765E+01  0.65221537273E+02  0.14545643579E+03  0.15966697186E+03  0.47000000000E+01 0. -1.
          1    1    1    2  502    0 -0.13979412673E+03  0.40693893649E+02 -0.46645413117E+03  0.48864900218E+03  0.00000000000E+00 0. -1.
          1    1    1    2  503    0  0.42237550381E+01 -0.90344454084E+02  0.15832713098E+04  0.15858524524E+04  0.00000000000E+00 0. -1.
<mgrwt>
<rscale>  0 0.11506333E+03</rscale>
<asrwt>0</asrwt>
<pdfrwt beam="1">  1        2 0.37488068E+00 0.90443134E+02</pdfrwt>
<pdfrwt beam="2">  1        2 0.21786415E+00 0.14638556E+03</pdfrwt>
<totfact> 0.12394847E+01</totfact>
</mgrwt>
</event>
<event>
13    1  0.1942437E-008  0.9391699E+02  0.7546771E-02  0.1450832E+00
          2   -1    0    0  502    0  0.00000000000E+00  0.00000000000E+00  0.16671348223E+04  0.16671348223E+04  0.00000000000E+00 0. -1.
          2   -1    0    0  503    0 -0.00000000000E+00 -0.00000000000E+00 -0.18167632541E+04  0.18167632541E+04  0.00000000000E+00 0. -1.
         24    2    1    2    0    0 -0.77925861015E+02  0.26151910861E+03 -0.60052205751E+03  0.66463786894E+03  0.81560231064E+02 0.  0.
         24    2    1    2    0    0  0.58174132118E+01 -0.99261130099E+02 -0.87213275399E+02  0.15460144756E+03  0.80055218054E+02 0.  0.
         25    2    1    2    0    0 -0.42015234671E+02 -0.13600279495E+03  0.11485808765E+04  0.11640988356E+04  0.12500411553E+03 0.  0.
        -11    1    3    3    0    0  0.31046340411E+01  0.53085414319E+02 -0.18828038031E+03  0.19564560199E+03  0.00000000000E+00 0.  1.
         12    1    3    3    0    0 -0.81030495056E+02  0.20843369429E+03 -0.41224167719E+03  0.46899226695E+03  0.00000000000E+00 0. -1.
        -13    1    4    4    0    0 -0.14863519030E+02 -0.31721549104E+02  0.81121568542E+01  0.35958141837E+02  0.00000000000E+00 0.  1.
         14    1    4    4    0    0  0.20680932242E+02 -0.67539580994E+02 -0.95325432253E+02  0.11864330573E+03  0.00000000000E+00 0. -1.
          5    1    5    5  501    0 -0.20245009597E+02  0.21292953263E+01  0.50738088869E+03  0.50781084128E+03  0.47000000000E+01 0. -1.
         -5    1    5    5    0  501 -0.21770225075E+02 -0.13813209027E+03  0.64119998782E+03  0.65628799429E+03  0.47000000000E+01 0. -1.
          1    1    1    2  502    0  0.20969457782E+02 -0.14617127897E+02  0.44258608126E+03  0.44332360406E+03  0.00000000000E+00 0. -1.
          1    1    1    2  503    0  0.93154224692E+02 -0.11638055666E+02 -0.10530600567E+04  0.10572363203E+04  0.00000000000E+00 0. -1.
<mgrwt>
<rscale>  0 0.48996301E+02</rscale>
<asrwt>0</asrwt>
<pdfrwt beam="1">  1        2 0.24516689E+00 0.25561271E+02</pdfrwt>
<pdfrwt beam="2">  1        2 0.26717107E+00 0.93916985E+02</pdfrwt>
<totfact> 0.26484619E+01</totfact>
</mgrwt>
</event>
<event>
13    1  0.1942437E-008  0.1339366E+03  0.7546771E-02  0.1351905E+00
          2   -1    0    0  502    0  0.00000000000E+00  0.00000000000E+00  0.10420898995E+04  0.10420898995E+04  0.00000000000E+00 0. -1.
          2   -1    0    0  503    0 -0.00000000000E+00 -0.00000000000E+00 -0.32398237880E+04  0.32398237880E+04  0.00000000000E+00 0. -1.
         24    2    1    2    0    0 -0.52977617958E+02 -0.13579809038E+02 -0.22799578971E+03  0.24678530725E+03  0.77005639603E+02 0.  0.
         24    2    1    2    0    0  0.51596625875E+03  0.13726487651E+03 -0.18157654957E+03  0.56950280725E+03  0.79376177935E+02 0.  0.
         25    2    1    2    0    0 -0.31487944740E+03 -0.10326898406E+03  0.25917441040E+03  0.43887422167E+03  0.12500263188E+03 0.  0.
        -11    1    3    3    0    0 -0.33526219123E+01 -0.12580614098E+02 -0.16979599625E+03  0.17029442817E+03  0.00000000000E+00 0.  1.
         12    1    3    3    0    0 -0.49624996046E+02 -0.99919494009E+00 -0.58199793467E+02  0.76490879082E+02  0.00000000000E+00 0. -1.
        -11    1    4    4    0    0  0.29209897385E+03  0.11610707059E+03 -0.92725632349E+02  0.32772046817E+03  0.00000000000E+00 0.  1.
         12    1    4    4    0    0  0.22386728490E+03  0.21157805917E+02 -0.88850917217E+02  0.24178233907E+03  0.00000000000E+00 0. -1.
          5    1    5    5  501    0 -0.31866619135E+03 -0.10805643687E+03  0.22732715473E+03  0.40610843421E+03  0.47000000000E+01 0.  1.
         -5    1    5    5    0  501  0.37867439478E+01  0.47874528157E+01  0.31847255670E+02  0.32765787461E+02  0.47000000000E+01 0.  1.
          1    1    1    2  502    0 -0.15638150655E+02  0.35953073742E+02  0.48687668903E+03  0.48845274653E+03  0.00000000000E+00 0. -1.
          1    1    1    2  503    0 -0.13247104273E+03 -0.56369157152E+02 -0.25342126486E+04  0.25382986048E+04  0.00000000000E+00 0. -1.
<mgrwt>
<rscale>  0 0.72465369E+02</rscale>
<asrwt>0</asrwt>
<pdfrwt beam="1">  1        2 0.15324852E+00 0.39206827E+02</pdfrwt>
<pdfrwt beam="2">  1        2 0.47644466E+00 0.13393661E+03</pdfrwt>
<totfact> 0.92787883E+00</totfact>
</mgrwt>
</event>
<event>
13    1  0.1942437E-008  0.1158906E+03  0.7546771E-02  0.1524019E+00
          2   -1    0    0  503    0  0.00000000000E+00  0.00000000000E+00  0.18214132753E+04  0.18214132753E+04  0.00000000000E+00 0. -1.
         -1   -1    0    0    0  501 -0.00000000000E+00 -0.00000000000E+00 -0.81767780028E+03  0.81767780028E+03  0.00000000000E+00 0.  1.
         24    2    1    2    0    0  0.20230285919E-01  0.25542699488E+02 -0.14323140080E+02  0.86675831580E+02  0.81578903719E+02 0.  0.
         24    2    1    2    0    0 -0.69033017524E+02 -0.12512949330E+03 -0.16316655942E+03  0.23095098175E+03  0.79322646562E+02 0.  0.
         25    2    1    2    0    0  0.21197505918E+03  0.18110399037E+03  0.12452350629E+04  0.12821725775E+04  0.12499630265E+03 0.  0.
        -13    1    4    4    0    0 -0.44907796389E+02 -0.11662817991E+03 -0.16296742787E+03  0.20537094506E+03  0.00000000000E+00 0.  1.
         14    1    4    4    0    0 -0.24125221135E+02 -0.85013133902E+01 -0.19913155064E+00  0.25580036699E+02  0.00000000000E+00 0. -1.
        -13    1    3    3    0    0 -0.14061493138E+02  0.47559666751E+02 -0.28234772785E+02  0.57068817097E+02  0.00000000000E+00 0.  1.
         14    1    3    3    0    0  0.14081723424E+02 -0.22016967263E+02  0.13911632705E+02  0.29607014482E+02  0.00000000000E+00 0. -1.
          5    1    5    5  502    0  0.81639508883E+02  0.12747862460E+03  0.45755213602E+03  0.48196665478E+03  0.47000000000E+01 0.  1.
         -5    1    5    5    0  502  0.13033555030E+03  0.53625365764E+02  0.78768292686E+03  0.80020592274E+03  0.47000000000E+01 0.  1.
          1    1    1    2  503    0  0.55164073560E+01 -0.11121441826E+02  0.47532138178E+03  0.47548347310E+03  0.00000000000E+00 0. -1.
         -2    1    1    2    0  501 -0.14847867930E+03 -0.70395754730E+02 -0.53933127016E+03  0.56380821160E+03  0.00000000000E+00 0.  1.
<mgrwt>
<rscale>  0 0.37930362E+02</rscale>
<asrwt>0</asrwt>
<pdfrwt beam="1">  1        2 0.26785489E+00 0.12414396E+02</pdfrwt>
<pdfrwt beam="2">  1       -1 0.12024674E+00 0.11589065E+03</pdfrwt>
<totfact> 0.11102119E+01</totfact>
</mgrwt>
</event>
<event>
13    1  0.1942437E-008  0.6711776E+02  0.7546771E-02  0.1386071E+00
          2   -1    0    0  502    0  0.00000000000E+00  0.00000000000E+00  0.19704678641E+04  0.19704678641E+04  0.00000000000E+00 0. -1.
          2   -1    0    0  503    0 -0.00000000000E+00 -0.00000000000E+00 -0.12112338812E+04  0.12112338812E+04  0.00000000000E+00 0. -1.
         24    2    1    2    0    0  0.41652184518E+03 -0.16898261063E+03 -0.38580535603E+03  0.60153451063E+03  0.10465383190E+03 0.  0.
         24    2    1    2    0    0 -0.58555157383E+03  0.62435043548E+02  0.13022019966E+03  0.60840047321E+03  0.80156441554E+02 0.  0.
         25    2    1    2    0    0  0.10886844388E+03  0.14001189497E+03  0.63030575270E+03  0.66660842767E+03  0.12500314052E+03 0.  0.
        -11    1    4    4    0    0 -0.20411951456E+03  0.46879904682E+02  0.16546340661E+02  0.21008637052E+03  0.00000000000E+00 0.  1.
         12    1    4    4    0    0 -0.38143205927E+03  0.15555138866E+02  0.11367385899E+03  0.39831410269E+03  0.00000000000E+00 0. -1.
        -13    1    3    3    0    0  0.15769347741E+03 -0.18198133829E+02 -0.10063028946E+03  0.18794908898E+03  0.00000000000E+00 0.  1.
         14    1    3    3    0    0  0.25882836777E+03 -0.15078447680E+03 -0.28517506657E+03  0.41358542165E+03  0.00000000000E+00 0. -1.
          5    1    5    5  501    0 -0.15979200756E+02  0.20335047686E+02  0.21653384346E+03  0.21812346134E+03  0.47000000000E+01 0.  1.
         -5    1    5    5    0  501  0.12484764464E+03  0.11967684728E+03  0.41377190924E+03  0.44848496633E+03  0.47000000000E+01 0.  1.
          1    1    1    2  502    0  0.11168427547E+02 -0.66225524282E+02  0.84160612188E+03  0.84428159889E+03  0.00000000000E+00 0. -1.
          1    1    1    2  503    0  0.48992857227E+02  0.32761196399E+02 -0.45709273531E+03  0.46087673484E+03  0.00000000000E+00 0. -1.
<mgrwt>
<rscale>  0 0.62894631E+02</rscale>
<asrwt>0</asrwt>
<pdfrwt beam="1">  1        2 0.28977469E+00 0.67117765E+02</pdfrwt>
<pdfrwt beam="2">  1        2 0.17812263E+00 0.58937221E+02</pdfrwt>
<totfact> 0.35703250E+01</totfact>
</mgrwt>
</event>
<event>
13    1  0.1942437E-008  0.9379577E+02  0.7546771E-02  0.1299608E+00
          2   -1    0    0  503    0  0.00000000000E+00  0.00000000000E+00  0.18126018461E+04  0.18126018461E+04  0.00000000000E+00 0. -1.
          2   -1    0    0  502    0 -0.00000000000E+00 -0.00000000000E+00 -0.18763227513E+04  0.18763227513E+04  0.00000000000E+00 0. -1.
         24    2    1    2    0    0  0.10050375557E+03  0.28128385412E+02 -0.23430110397E+03  0.26830830350E+03  0.78740888099E+02 0.  0.
         24    2    1    2    0    0  0.17730130129E+02 -0.14049032634E+01 -0.16176216733E+02  0.83532886199E+02  0.79998386368E+02 0.  0.
         25    2    1    2    0    0  0.78622940107E+02  0.12248985920E+02  0.55860455213E+03  0.57792378049E+03  0.12500098410E+03 0.  0.
        -11    1    4    4    0    0  0.44003707464E+00 -0.26690403301E+02  0.21996629117E+02  0.34589347399E+02  0.00000000000E+00 0.  1.
         12    1    4    4    0    0  0.17290093055E+02  0.25285500038E+02 -0.38172845850E+02  0.48943538800E+02  0.00000000000E+00 0. -1.
        -13    1    3    3    0    0  0.22760188212E+02  0.45668117771E+02 -0.93415453999E+02  0.10644270851E+03  0.00000000000E+00 0.  1.
         14    1    3    3    0    0  0.77743567356E+02 -0.17539732359E+02 -0.14088564997E+03  0.16186559500E+03  0.00000000000E+00 0. -1.
          5    1    5    5  501    0  0.36494259199E+01  0.40023127656E+02  0.56631780060E+02  0.69601850332E+02  0.47000000000E+01 0.  1.
         -5    1    5    5    0  501  0.74973514187E+02 -0.27774141736E+02  0.50197277207E+03  0.50832193016E+03  0.47000000000E+01 0.  1.
          1    1    1    2  502    0 -0.10001346861E+03 -0.44992138250E+02 -0.15616057917E+04  0.15654518949E+04  0.00000000000E+00 0. -1.
          1    1    1    2  503    0 -0.96843357200E+02  0.60196701809E+01  0.11897576551E+04  0.11937077323E+04  0.00000000000E+00 0. -1.
<mgrwt>
<rscale>  0 0.91352927E+02</rscale>
<asrwt>0</asrwt>
<pdfrwt beam="1">  1        2 0.26655910E+00 0.93795769E+02</pdfrwt>
<pdfrwt beam="2">  1        2 0.27592982E+00 0.88973708E+02</pdfrwt>
<totfact> 0.18782625E+01</totfact>
</mgrwt>
</event>
<event>
13    1  0.1942437E-008  0.4926741E+03  0.7546771E-02  0.1269113E+00
          2   -1    0    0  503    0  0.00000000000E+00  0.00000000000E+00  0.65459826493E+03  0.65459826493E+03  0.00000000000E+00 0. -1.
          2   -1    0    0  502    0 -0.00000000000E+00 -0.00000000000E+00 -0.19227305669E+04  0.19227305669E+04  0.00000000000E+00 0. -1.
         24    2    1    2    0    0  0.10026142203E+03 -0.13989211071E+02 -0.53106116107E+03  0.54652525672E+03  0.80098992832E+02 0.  0.
         24    2    1    2    0    0 -0.35660209212E+03 -0.20745613190E+03 -0.78602813231E+03  0.89128588545E+03  0.79669354515E+02 0.  0.
         25    2    1    2    0    0 -0.52591503332E+02 -0.21510848376E+03  0.95237364366E+02  0.27153825919E+03  0.12500137848E+03 0.  0.
        -13    1    3    3    0    0  0.28470928448E+02 -0.42457619610E+02 -0.18352315400E+03  0.19050981939E+03  0.00000000000E+00 0.  1.
         14    1    3    3    0    0  0.71790493585E+02  0.28468408539E+02 -0.34753800707E+03  0.35601543732E+03  0.00000000000E+00 0. -1.
        -13    1    4    4    0    0 -0.17729924767E+03 -0.98070953141E+02 -0.30222799643E+03  0.36386082079E+03  0.00000000000E+00 0.  1.
         14    1    4    4    0    0 -0.17930284445E+03 -0.10938517876E+03 -0.48380013588E+03  0.52742506467E+03  0.00000000000E+00 0. -1.
          5    1    5    5  501    0 -0.74096094574E+02 -0.83535405937E+02  0.77952886080E+01  0.11203236943E+03  0.47000000000E+01 0. -1.
         -5    1    5    5    0  501  0.21504591243E+02 -0.13157307783E+03  0.87442075758E+02  0.15950588975E+03  0.47000000000E+01 0. -1.
          1    1    1    2  502    0  0.54987164931E+01  0.21917707518E+02 -0.29589078784E+03  0.29675238856E+03  0.00000000000E+00 0. -1.
          1    1    1    2  503    0  0.30343345693E+03  0.41463611922E+03  0.24961041492E+03  0.57122704189E+03  0.00000000000E+00 0. -1.
<mgrwt>
<rscale>  0 0.10551269E+03</rscale>
<asrwt>0</asrwt>
<pdfrwt beam="1">  1        2 0.96264450E-01 0.49267408E+03</pdfrwt>
<pdfrwt beam="2">  1        2 0.28275450E+00 0.22596942E+02</pdfrwt>
<totfact> 0.86485069E+01</totfact>
</mgrwt>
</event>
<event>
13    1  0.1942437E-008  0.9013277E+02  0.7546771E-02  0.1313518E+00
          2   -1    0    0  502    0  0.00000000000E+00  0.00000000000E+00  0.30205810351E+03  0.30205810351E+03  0.00000000000E+00 0. -1.
          2   -1    0    0  503    0 -0.00000000000E+00 -0.00000000000E+00 -0.26291976388E+04  0.26291976388E+04  0.00000000000E+00 0. -1.
         24    2    1    2    0    0 -0.12904411699E+02 -0.96498415950E+01 -0.41430987083E+03  0.42231794732E+03  0.80250459709E+02 0.  0.
         24    2    1    2    0    0  0.18466309396E+03  0.86188521260E+01 -0.11340095634E+04  0.11518044861E+04  0.80629656402E+02 0.  0.
         25    2    1    2    0    0 -0.84559210538E+02  0.15772046235E+02 -0.18534521066E+02  0.15286338862E+03  0.12499867831E+03 0.  0.
        -11    1    4    4    0    0  0.57214844937E+02 -0.31733955203E+02 -0.46383268957E+03  0.46842432292E+03  0.00000000000E+00 0.  1.
         12    1    4    4    0    0  0.12744824902E+03  0.40352807329E+02 -0.67017687383E+03  0.68338016320E+03  0.00000000000E+00 0. -1.
        -13    1    3    3    0    0  0.91651071353E+01  0.32303804823E+02 -0.20278364773E+03  0.20554498967E+03  0.00000000000E+00 0.  1.
         14    1    3    3    0    0 -0.22069518835E+02 -0.41953646417E+02 -0.21152622310E+03  0.21677295765E+03  0.00000000000E+00 0. -1.
          5    1    5    5  501    0  0.22748219397E+02 -0.13971091034E+02  0.21333808245E+02  0.34494843740E+02  0.47000000000E+01 0.  1.
         -5    1    5    5    0  501 -0.10730742994E+03  0.29743137268E+02 -0.39868329312E+02  0.11836854488E+03  0.47000000000E+01 0.  1.
          1    1    1    2  502    0 -0.43197624131E+02  0.69174442039E+02  0.21212064225E+03  0.22725823424E+03  0.00000000000E+00 0. -1.
          1    1    1    2  503    0 -0.44001847592E+02 -0.83915498805E+02 -0.97240622227E+03  0.97701168603E+03  0.00000000000E+00 0. -1.
<mgrwt>
<rscale>  0 0.85736421E+02</rscale>
<asrwt>0</asrwt>
<pdfrwt beam="1">  1        2 0.44420311E-01 0.81554510E+02</pdfrwt>
<pdfrwt beam="2">  1        2 0.38664670E+00 0.90132770E+02</pdfrwt>
<totfact> 0.80079371E+01</totfact>
</mgrwt>
</event>
<event>
13    1  0.1942437E-008  0.8638555E+02  0.7546771E-02  0.1344606E+00
          2   -1    0    0  503    0  0.00000000000E+00  0.00000000000E+00  0.66830410482E+03  0.66830410482E+03  0.00000000000E+00 0. -1.
          2   -1    0    0  502    0 -0.00000000000E+00 -0.00000000000E+00 -0.13624477492E+04  0.13624477492E+04  0.00000000000E+00 0. -1.
         24    2    1    2    0    0  0.76486513778E+02 -0.79301649363E+00 -0.24855455636E+03  0.27167941621E+03  0.78609936014E+02 0.  0.
         24    2    1    2    0    0  0.14314818612E+02  0.37197162257E+01 -0.16328722451E+03  0.18279940706E+03  0.80834121573E+02 0.  0.
         25    2    1    2    0    0 -0.73992425376E+02  0.11761699432E+02 -0.55806870551E+02  0.15605899321E+03  0.12500714369E+03 0.  0.
        -11    1    3    3    0    0 -0.12395747327E+02  0.14892991487E+02 -0.40860751234E+02  0.45222303553E+02  0.00000000000E+00 0.  1.
         12    1    3    3    0    0  0.88882261106E+02 -0.15686007980E+02 -0.20769380513E+03  0.22645711266E+03  0.00000000000E+00 0. -1.
        -13    1    4    4    0    0  0.11936098347E+02  0.41946271181E+02 -0.79596611667E+02  0.90761118870E+02  0.00000000000E+00 0.  1.
         14    1    4    4    0    0  0.23787202645E+01 -0.38226554955E+02 -0.83690612844E+02  0.92038288185E+02  0.00000000000E+00 0. -1.
          5    1    5    5  501    0  0.16525558772E+02  0.45751026533E+02 -0.20941010229E+02  0.53168284070E+02  0.47000000000E+01 0. -1.
         -5    1    5    5    0  501 -0.90517984148E+02 -0.33989327101E+02 -0.34865860322E+02  0.10289070914E+03  0.47000000000E+01 0. -1.
          1    1    1    2  502    0  0.55514884856E+02  0.33238094448E+02 -0.81891860105E+03  0.82147084458E+03  0.00000000000E+00 0. -1.
          1    1    1    2  503    0 -0.72323791870E+02 -0.47926493612E+02  0.59242360810E+03  0.59874319294E+03  0.00000000000E+00 0. -1.
<mgrwt>
<rscale>  0 0.74763192E+02</rscale>
<asrwt>0</asrwt>
<pdfrwt beam="1">  1        2 0.98280017E-01 0.86385555E+02</pdfrwt>
<pdfrwt beam="2">  1        2 0.20035996E+00 0.64704508E+02</pdfrwt>
<totfact> 0.14540695E+02</totfact>
</mgrwt>
</event>
<event>
13    1  0.1942437E-008  0.1526207E+03  0.7546771E-02  0.1280258E+00
          2   -1    0    0  502    0  0.00000000000E+00  0.00000000000E+00  0.26766747405E+04  0.26766747405E+04  0.00000000000E+00 0. -1.
          2   -1    0    0  503    0 -0.00000000000E+00 -0.00000000000E+00 -0.90892096550E+03  0.90892096550E+03  0.00000000000E+00 0. -1.
         24    2    1    2    0    0  0.54369798246E+02  0.35266857390E+02 -0.15562475509E+03  0.18591386877E+03  0.78390535223E+02 0.  0.
         24    2    1    2    0    0  0.27895430735E+02 -0.32180421096E+02  0.31321756859E+02  0.99429894729E+02  0.84211145077E+02 0.  0.
         25    2    1    2    0    0 -0.25808826389E+03 -0.13247399703E+02  0.79999552715E+03  0.84994387035E+03  0.12500677474E+03 0.  0.
        -11    1    4    4    0    0 -0.22757449660E+01  0.26336795375E+02 -0.19950154071E+00  0.26435688125E+02  0.00000000000E+00 0.  1.
         12    1    4    4    0    0  0.30171175701E+02 -0.58517216471E+02  0.31521258400E+02  0.72994206604E+02  0.00000000000E+00 0. -1.
        -11    1    3    3    0    0  0.10915002725E+02  0.40763388934E+02 -0.27152630324E+02  0.50180240089E+02  0.00000000000E+00 0.  1.
         12    1    3    3    0    0  0.43454795521E+02 -0.54965315439E+01 -0.12847212477E+03  0.13573362868E+03  0.00000000000E+00 0. -1.
          5    1    5    5  501    0 -0.10255611294E+03  0.38180886061E+02  0.20068990196E+03  0.22863521844E+03  0.47000000000E+01 0.  1.
         -5    1    5    5    0  501 -0.15553215095E+03 -0.51428285765E+02  0.59930562518E+03  0.62130865191E+03  0.47000000000E+01 0.  1.
          1    1    1    2  502    0  0.21966052544E+02 -0.61755555072E+02  0.17599469580E+04  0.17611670991E+04  0.00000000000E+00 0. -1.
          1    1    1    2  503    0  0.15385698236E+03  0.71916518481E+02 -0.66788571187E+03  0.68914097307E+03  0.00000000000E+00 0. -1.
<mgrwt>
<rscale>  0 0.10001824E+03</rscale>
<asrwt>0</asrwt>
<pdfrwt beam="1">  1        2 0.39362864E+00 0.65545832E+02</pdfrwt>
<pdfrwt beam="2">  1        2 0.13366485E+00 0.15262065E+03</pdfrwt>
<totfact> 0.23009200E+01</totfact>
</mgrwt>
</event>
<event>
13    1  0.1942437E-008  0.1545859E+03  0.7546771E-02  0.1267917E+00
          2   -1    0    0  503    0  0.00000000000E+00  0.00000000000E+00  0.18121736245E+04  0.18121736245E+04  0.00000000000E+00 0. -1.
          2   -1    0    0  502    0 -0.00000000000E+00 -0.00000000000E+00 -0.16258997279E+04  0.16258997279E+04  0.00000000000E+00 0. -1.
         24    2    1    2    0    0  0.92876572477E+02  0.56846037725E+02 -0.53544321066E+03  0.55491571737E+03  0.96821959380E+02 0.  0.
         24    2    1    2    0    0 -0.19325619109E+03 -0.77588230021E+02 -0.47074703893E+03  0.52136729070E+03  0.82783985860E+02 0.  0.
         25    2    1    2    0    0 -0.12592416921E+03  0.39598372969E+02  0.58414616758E+03  0.61178138119E+03  0.12499914294E+03 0.  0.
        -11    1    3    3    0    0  0.68429128591E+02 -0.14798303441E+02 -0.25799225628E+03  0.26732291284E+03  0.00000000000E+00 0.  1.
         12    1    3    3    0    0  0.24447443887E+02  0.71644341166E+02 -0.27745095438E+03  0.28759280453E+03  0.00000000000E+00 0. -1.
        -11    1    4    4    0    0 -0.30247851618E+02 -0.34902518155E+02 -0.49664542202E+02  0.67820977973E+02  0.00000000000E+00 0.  1.
         12    1    4    4    0    0 -0.16300833947E+03 -0.42685711866E+02 -0.42108249673E+03  0.45354631273E+03  0.00000000000E+00 0. -1.
          5    1    5    5  501    0  0.12922228584E+02  0.32080055892E+01  0.48195119521E+01  0.14919550493E+02  0.47000000000E+01 0.  1.
         -5    1    5    5    0  501 -0.13884639780E+03  0.36390367380E+02  0.57932665563E+03  0.59686183070E+03  0.47000000000E+01 0.  1.
          1    1    1    2  502    0  0.72525875697E+02 -0.69431226138E+01 -0.56344622287E+03  0.56813718032E+03  0.00000000000E+00 0. -1.
          1    1    1    2  503    0  0.15377791213E+03 -0.11913058060E+02  0.11717642014E+04  0.11818717828E+04  0.00000000000E+00 0. -1.
<mgrwt>
<rscale>  0 0.10612605E+03</rscale>
<asrwt>0</asrwt>
<pdfrwt beam="1">  1        2 0.26649612E+00 0.15458594E+03</pdfrwt>
<pdfrwt beam="2">  1        2 0.23910290E+00 0.72857461E+02</pdfrwt>
<totfact> 0.24094401E+01</totfact>
</mgrwt>
</event>
<event>
13    1  0.1942437E-008  0.8908851E+02  0.7546771E-02  0.1306674E+00
          2   -1    0    0  502    0  0.00000000000E+00  0.00000000000E+00  0.16632847567E+04  0.16632847567E+04  0.00000000000E+00 0. -1.
          2   -1    0    0  503    0 -0.00000000000E+00 -0.00000000000E+00 -0.27188839527E+04  0.27188839527E+04  0.00000000000E+00 0. -1.
         24    2    1    2    0    0 -0.70872804418E+02 -0.67925287258E+02 -0.97266781135E+03  0.98085826272E+03  0.79771306014E+02 0.  0.
         24    2    1    2    0    0  0.61196516694E+02 -0.15092290607E+03 -0.13419565387E+03  0.22521044510E+03  0.78667234823E+02 0.  0.
         25    2    1    2    0    0  0.69401030006E+01  0.24737610995E+03  0.32762859560E+03  0.42919425863E+03  0.12499644067E+03 0.  0.
        -11    1    3    3    0    0  0.66171808167E+01  0.81201931217E+00 -0.70592449879E+01  0.97097578304E+01  0.00000000000E+00 0.  1.
         12    1    3    3    0    0 -0.77489985235E+02 -0.68737306570E+02 -0.96560856636E+03  0.97114850489E+03  0.00000000000E+00 0. -1.
        -11    1    4    4    0    0  0.11625539930E+02 -0.50196476919E+02 -0.91678340101E+02  0.10516538174E+03  0.00000000000E+00 0.  1.
         12    1    4    4    0    0  0.49570976764E+02 -0.10072642915E+03 -0.42517313765E+02  0.12004506336E+03  0.00000000000E+00 0. -1.
          5    1    5    5  501    0 -0.45080728190E+02  0.64194115965E+02  0.52297881438E+02  0.94394464782E+02  0.47000000000E+01 0. -1.
         -5    1    5    5    0  501  0.52020831190E+02  0.18318199398E+03  0.27533071416E+03  0.33479979384E+03  0.47000000000E+01 0. -1.
          1    1    1    2  502    0  0.88608691352E+02 -0.10248981782E+02  0.12323825863E+04  0.12356064829E+04  0.00000000000E+00 0. -1.
          1    1    1    2  503    0 -0.85872506628E+02 -0.18278934835E+02 -0.15087469127E+04  0.15112992600E+04  0.00000000000E+00 0. -1.
<mgrwt>
<rscale>  0 0.88440093E+02</rscale>
<asrwt>0</asrwt>
<pdfrwt beam="1">  1        2 0.24460070E+00 0.89088510E+02</pdfrwt>
<pdfrwt beam="2">  1        2 0.39983587E+00 0.87796394E+02</pdfrwt>
<totfact> 0.86540713E+00</totfact>
</mgrwt>
</event>
<event>
13    1  0.1942437E-008  0.8809741E+02  0.7546771E-02  0.1384063E+00
          2   -1    0    0  503    0  0.00000000000E+00  0.00000000000E+00  0.14659728973E+04  0.14659728973E+04  0.00000000000E+00 0. -1.
          2   -1    0    0  502    0 -0.00000000000E+00 -0.00000000000E+00 -0.16089807131E+04  0.16089807131E+04  0.00000000000E+00 0. -1.
         24    2    1    2    0    0  0.32379445494E+02  0.10512166168E+02 -0.63167705696E+03  0.63759140331E+03  0.79674080885E+02 0.  0.
         24    2    1    2    0    0 -0.26099669696E+03 -0.12967200095E+02 -0.71674949413E+03  0.76625881762E+03  0.71661106215E+02 0.  0.
         25    2    1    2    0    0  0.19448295553E+03 -0.26276213621E+02  0.51750548405E+03  0.56740893989E+03  0.12500767839E+03 0.  0.
        -11    1    4    4    0    0 -0.31901413718E+02  0.22170182316E+02 -0.89997573121E+02  0.98024386500E+02  0.00000000000E+00 0.  1.
         12    1    4    4    0    0 -0.22909528324E+03 -0.35137382411E+02 -0.62675192101E+03  0.66823443112E+03  0.00000000000E+00 0. -1.
        -11    1    3    3    0    0  0.10745598142E+02 -0.28409342107E+02 -0.11314990845E+03  0.11715570998E+03  0.00000000000E+00 0.  1.
         12    1    3    3    0    0  0.21633847352E+02  0.38921508275E+02 -0.51852714851E+03  0.52043569333E+03  0.00000000000E+00 0. -1.
          5    1    5    5  501    0  0.10772705358E+03 -0.56562311232E+02  0.40025567995E+03  0.41836719812E+03  0.47000000000E+01 0.  1.
         -5    1    5    5    0  501  0.86755901947E+02  0.30286097611E+02  0.11724980409E+03  0.14904174177E+03  0.47000000000E+01 0.  1.
          1    1    1    2  502    0 -0.19349268777E+02 -0.41332494457E+02 -0.20318505375E+03  0.20824729378E+03  0.00000000000E+00 0. -1.
          1    1    1    2  503    0  0.53483564717E+02  0.70063742005E+02  0.89109830504E+03  0.89544715583E+03  0.00000000000E+00 0. -1.
<mgrwt>
<rscale>  0 0.63407680E+02</rscale>
<asrwt>0</asrwt>
<pdfrwt beam="1">  1        2 0.21558425E+00 0.88097412E+02</pdfrwt>
<pdfrwt beam="2">  1        2 0.23661481E+00 0.45637367E+02</pdfrwt>
<totfact> 0.39673083E+01</totfact>
</mgrwt>
</event>
<event>
13    1  0.1942437E-008  0.3754251E+02  0.7546771E-02  0.1578898E+00
          2   -1    0    0  503    0  0.00000000000E+00  0.00000000000E+00  0.27990249033E+04  0.27990249033E+04  0.00000000000E+00 0. -1.
          2   -1    0    0  502    0 -0.00000000000E+00 -0.00000000000E+00 -0.15067468162E+04  0.15067468162E+04  0.00000000000E+00 0. -1.
         24    2    1    2    0    0  0.69431488299E+02 -0.11710141306E+03 -0.35868558056E+03  0.39575336975E+03  0.97118028492E+02 0.  0.
         24    2    1    2    0    0  0.36641381804E+03  0.30280081116E+02 -0.49957613336E+03  0.62522121696E+03  0.78417394409E+02 0.  0.
         25    2    1    2    0    0 -0.43959343536E+03  0.10552203082E+03  0.81217998464E+03  0.93788945115E+03  0.12499203068E+03 0.  0.
        -11    1    3    3    0    0  0.83164752398E+02 -0.56767932246E+02 -0.17469321872E+03  0.20163505360E+03  0.00000000000E+00 0.  1.
         12    1    3    3    0    0 -0.13733264099E+02 -0.60333480810E+02 -0.18399236183E+03  0.19411831614E+03  0.00000000000E+00 0. -1.
        -11    1    4    4    0    0  0.22079982886E+03 -0.62814090208E+01 -0.34564440963E+03  0.41019760901E+03  0.00000000000E+00 0.  1.
         12    1    4    4    0    0  0.14561398918E+03  0.36561490137E+02 -0.15393172373E+03  0.21502360796E+03  0.00000000000E+00 0. -1.
          5    1    5    5  501    0 -0.36061953369E+02  0.49438145913E+02  0.11655945787E+03  0.13172999647E+03  0.47000000000E+01 0.  1.
         -5    1    5    5    0  501 -0.40353148199E+03  0.56083884905E+02  0.69562052677E+03  0.80615945468E+03  0.47000000000E+01 0.  1.
          1    1    1    2  502    0 -0.26765340391E+02  0.31786584944E+01 -0.50372232132E+03  0.50444292473E+03  0.00000000000E+00 0. -1.
          1    1    1    2  503    0  0.30513469412E+02 -0.21879357371E+02  0.18420821377E+04  0.18424647568E+04  0.00000000000E+00 0. -1.
<mgrwt>
<rscale>  0 0.31810365E+02</rscale>
<asrwt>0</asrwt>
<pdfrwt beam="1">  1        2 0.41162131E+00 0.37542508E+02</pdfrwt>
<pdfrwt beam="2">  1        2 0.22158041E+00 0.26953429E+02</pdfrwt>
<totfact> 0.11839558E+01</totfact>
</mgrwt>
</event>
<event>
13    1  0.1942437E-008  0.9386234E+02  0.7546771E-02  0.1549751E+00
          2   -1    0    0  502    0  0.00000000000E+00  0.00000000000E+00  0.12305374214E+04  0.12305374214E+04  0.00000000000E+00 0. -1.
          2   -1    0    0  503    0 -0.00000000000E+00 -0.00000000000E+00 -0.28206833139E+03  0.28206833139E+03  0.00000000000E+00 0. -1.
         24    2    1    2    0    0  0.16050446906E+02 -0.72864498297E+02 -0.21820967208E+02  0.11302241673E+03  0.82043038189E+02 0.  0.
         24    2    1    2    0    0  0.13465768011E+03  0.33743051297E+02  0.57177049137E+02  0.16880918821E+03  0.77175402508E+02 0.  0.
         25    2    1    2    0    0 -0.12197042307E+03 -0.99338431774E+02  0.70059038095E+03  0.72882842876E+03  0.12497635198E+03 0.  0.
        -13    1    4    4    0    0  0.44431307004E+02 -0.15455317021E+02  0.45385142513E+02  0.65366803710E+02  0.00000000000E+00 0.  1.
         14    1    4    4    0    0  0.90226373110E+02  0.49198368318E+02  0.11791906624E+02  0.10344238450E+03  0.00000000000E+00 0. -1.
        -13    1    3    3    0    0 -0.20475918009E+01 -0.86783824782E+02 -0.24061706892E+02  0.90081022499E+02  0.00000000000E+00 0.  1.
         14    1    3    3    0    0  0.18098038707E+02  0.13919326485E+02  0.22407396833E+01  0.22941394229E+02  0.00000000000E+00 0. -1.
          5    1    5    5  501    0 -0.26851553542E+02 -0.60692664762E+02  0.10408039405E+03  0.12352904075E+03  0.47000000000E+01 0.  1.
         -5    1    5    5    0  501 -0.95118869526E+02 -0.38645767013E+02  0.59650998690E+03  0.60529938801E+03  0.47000000000E+01 0.  1.
          1    1    1    2  502    0 -0.68048716768E+01  0.11023670895E+02  0.32819401072E+03  0.32844959472E+03  0.00000000000E+00 0. -1.
          1    1    1    2  503    0 -0.21932832275E+02  0.12743620788E+03 -0.11567138356E+03  0.17349612441E+03  0.00000000000E+00 0. -1.
<mgrwt>
<rscale>  0 0.34870769E+02</rscale>
<asrwt>0</asrwt>
<pdfrwt beam="1">  1        2 0.18096138E+00 0.12954829E+02</pdfrwt>
<pdfrwt beam="2">  1        2 0.41480637E-01 0.93862338E+02</pdfrwt>
<totfact> 0.47532274E+02</totfact>
</mgrwt>
</event>
<event>
13    1  0.1942437E-008  0.1300870E+03  0.7546771E-02  0.1400471E+00
          2   -1    0    0  502    0  0.00000000000E+00  0.00000000000E+00  0.26445846182E+04  0.26445846182E+04  0.00000000000E+00 0. -1.
          2   -1    0    0  503    0 -0.00000000000E+00 -0.00000000000E+00 -0.11842961774E+04  0.11842961774E+04  0.00000000000E+00 0. -1.
         24    2    1    2    0    0 -0.17811210786E+02  0.41504460035E+03 -0.25887976669E+03  0.50017919644E+03  0.10286513230E+03 0.  0.
         24    2    1    2    0    0 -0.24407931185E+03 -0.50880153257E+03  0.52510005297E+03  0.77494534140E+03  0.79727702253E+02 0.  0.
         25    2    1    2    0    0  0.17353258669E+03  0.40535871734E+02  0.44008856776E+03  0.49097837678E+03  0.12500041381E+03 0.  0.
        -13    1    3    3    0    0  0.41975916078E+02  0.16808134638E+03 -0.91681362736E+02  0.19600711417E+03  0.00000000000E+00 0.  1.
         14    1    3    3    0    0 -0.59787126864E+02  0.24696325397E+03 -0.16719840396E+03  0.30417208228E+03  0.00000000000E+00 0. -1.
        -13    1    4    4    0    0 -0.14364420099E+03 -0.31863297708E+03  0.27245991061E+03  0.44316479266E+03  0.00000000000E+00 0.  1.
         14    1    4    4    0    0 -0.10043511086E+03 -0.19016855549E+03  0.25264014236E+03  0.33178054874E+03  0.00000000000E+00 0. -1.
          5    1    5    5  501    0  0.13489532161E+03 -0.28138120213E+02  0.25843444701E+03  0.29291458653E+03  0.47000000000E+01 0. -1.
         -5    1    5    5    0  501  0.38637265085E+02  0.68673991947E+02  0.18165412075E+03  0.19806379025E+03  0.47000000000E+01 0. -1.
          1    1    1    2  502    0 -0.22574010270E+02 -0.14995475935E+02  0.14017674686E+04  0.14020294171E+04  0.00000000000E+00 0. -1.
          1    1    1    2  503    0  0.11093194622E+03  0.68216536420E+02 -0.64778788192E+03  0.66074846386E+03  0.00000000000E+00 0. -1.
<mgrwt>
<rscale>  0 0.59375535E+02</rscale>
<asrwt>0</asrwt>
<pdfrwt beam="1">  1        2 0.38890950E+00 0.27100742E+02</pdfrwt>
<pdfrwt beam="2">  1        2 0.17416120E+00 0.13008700E+03</pdfrwt>
<totfact> 0.19148746E+01</totfact>
</mgrwt>
</event>
<event>
13    1  0.1942437E-008  0.9031594E+02  0.7546771E-02  0.1358576E+00
          2   -1    0    0  502    0  0.00000000000E+00  0.00000000000E+00  0.16942042394E+04  0.16942042394E+04  0.00000000000E+00 0. -1.
          2   -1    0    0  503    0 -0.00000000000E+00 -0.00000000000E+00 -0.15878860301E+04  0.15878860301E+04  0.00000000000E+00 0. -1.
         24    2    1    2    0    0 -0.62490911240E+02 -0.20381039751E+02 -0.36602609838E+03  0.38053185426E+03  0.80677671303E+02 0.  0.
         24    2    1    2    0    0  0.77780783122E+01  0.35605301076E+02 -0.19471917087E+02  0.90221071173E+02  0.80202557077E+02 0.  0.
         25    2    1    2    0    0 -0.20195158404E+02 -0.72212990304E+02  0.13295595423E+03  0.19729532410E+03  0.12500239500E+03 0.  0.
        -13    1    3    3    0    0 -0.37273689114E+02  0.53405683814E+01 -0.31940249801E+03  0.32161437359E+03  0.00000000000E+00 0.  1.
         14    1    3    3    0    0 -0.25217222126E+02 -0.25721608132E+02 -0.46623600371E+02  0.58917480667E+02  0.00000000000E+00 0. -1.
        -13    1    4    4    0    0  0.11335006979E+02  0.52509758227E+02  0.11334369873E+02  0.54901958368E+02  0.00000000000E+00 0.  1.
         14    1    4    4    0    0 -0.35569286667E+01 -0.16904457151E+02 -0.30806286960E+02  0.35319112805E+02  0.00000000000E+00 0. -1.
          5    1    5    5  501    0 -0.12682103121E+02  0.34117219140E+02  0.50607965725E+02  0.62514610902E+02  0.47000000000E+01 0.  1.
         -5    1    5    5    0  501 -0.75130552831E+01 -0.10633020944E+03  0.82347988502E+02  0.13478071320E+03  0.47000000000E+01 0.  1.
          1    1    1    2  502    0  0.28494404398E+02  0.86405955010E+02  0.14843879812E+04  0.14871736950E+04  0.00000000000E+00 0. -1.
          1    1    1    2  503    0  0.46413586934E+02 -0.29417226031E+02 -0.11255277108E+04  0.11268683250E+04  0.00000000000E+00 0. -1.
<mgrwt>
<rscale>  0 0.70448111E+02</rscale>
<asrwt>0</asrwt>
<pdfrwt beam="1">  1        2 0.24914768E+00 0.90315940E+02</pdfrwt>
<pdfrwt beam="2">  1        2 0.23351265E+00 0.54950835E+02</pdfrwt>
<totfact> 0.30834435E+01</totfact>
</mgrwt>
</event>
<event>
13    1  0.1942437E-008  0.1801046E+03  0.7546771E-02  0.1382397E+00
          2   -1    0    0  502    0  0.00000000000E+00  0.00000000000E+00  0.15532680097E+04  0.15532680097E+04  0.00000000000E+00 0. -1.
          2   -1    0    0  503    0 -0.00000000000E+00 -0.00000000000E+00 -0.73768060668E+03  0.73768060668E+03  0.00000000000E+00 0. -1.
         24    2    1    2    0    0  0.17663445967E+03 -0.14458496841E+02 -0.95533081931E+02  0.21786446131E+03  0.83244058550E+02 0.  0.
         24    2    1    2    0    0 -0.90224567107E+02 -0.97613700305E+02 -0.56421709709E+02  0.16187774183E+03  0.73157959083E+02 0.  0.
         25    2    1    2    0    0  0.11337903014E+03 -0.46514133135E+02  0.38090336767E+03  0.41920116868E+03  0.12499550098E+03 0.  0.
        -11    1    3    3    0    0  0.15454508682E+03  0.16766627416E+02 -0.88801936811E+02  0.17902817554E+03  0.00000000000E+00 0.  1.
         12    1    3    3    0    0  0.22089372852E+02 -0.31225124258E+02 -0.67311451194E+01  0.38836285772E+02  0.00000000000E+00 0. -1.
        -13    1    4    4    0    0 -0.94092702817E+02 -0.55105646012E+02 -0.40864619117E+02  0.11644735309E+03  0.00000000000E+00 0.  1.
         14    1    4    4    0    0  0.38681357105E+01 -0.42508054292E+02 -0.15557090592E+02  0.45430388742E+02  0.00000000000E+00 0. -1.
          5    1    5    5  501    0  0.49280289915E+02  0.25496371638E+02  0.51146587977E+02  0.75608699251E+02  0.47000000000E+01 0. -1.
         -5    1    5    5    0  501  0.64098740228E+02 -0.72010504773E+02  0.32975677969E+03  0.34359246943E+03  0.47000000000E+01 0. -1.
          1    1    1    2  502    0 -0.19226131371E+02 -0.11931110184E+02  0.10051220515E+04  0.10053767124E+04  0.00000000000E+00 0. -1.
          1    1    1    2  503    0 -0.18056279134E+03  0.17051744047E+03 -0.41848322449E+03  0.48662853214E+03  0.00000000000E+00 0. -1.
<mgrwt>
<rscale>  0 0.63837943E+02</rscale>
<asrwt>0</asrwt>
<pdfrwt beam="1">  1        2 0.22842177E+00 0.22627318E+02</pdfrwt>
<pdfrwt beam="2">  1        2 0.10848244E+00 0.18010455E+03</pdfrwt>
<totfact> 0.11244523E+02</totfact>
</mgrwt>
</event>
<event>
13    1  0.1942437E-008  0.2424003E+03  0.7546771E-02  0.1351987E+00
          2   -1    0    0  503    0  0.00000000000E+00  0.00000000000E+00  0.11111395292E+04  0.11111395292E+04  0.00000000000E+00 0. -1.
          2   -1    0    0  502    0 -0.00000000000E+00 -0.00000000000E+00 -0.21400477125E+04  0.21400477125E+04  0.00000000000E+00 0. -1.
         24    2    1    2    0    0 -0.27771433826E+02  0.57396538305E+02 -0.31459244965E+03  0.33125452312E+03  0.81826246164E+02 0.  0.
         24    2    1    2    0    0 -0.10240955138E+02 -0.71219514142E+01 -0.80381426242E+01  0.83111040840E+02  0.81775509895E+02 0.  0.
         25    2    1    2    0    0  0.28223338259E+03 -0.11875454325E+03 -0.15676356158E+02  0.33110418732E+03  0.12500364366E+03 0.  0.
        -11    1    4    4    0    0 -0.19666227375E+02  0.34346222746E+02 -0.89418933348E+01  0.40575620420E+02  0.00000000000E+00 0.  1.
         12    1    4    4    0    0  0.94252722373E+01 -0.41468174160E+02  0.90375071064E+00  0.42535420420E+02  0.00000000000E+00 0. -1.
        -11    1    3    3    0    0  0.26224266322E+02  0.36027571862E+02 -0.11313137922E+03  0.12159114706E+03  0.00000000000E+00 0.  1.
         12    1    3    3    0    0 -0.53995700148E+02  0.21368966443E+02 -0.20146107043E+03  0.20966337606E+03  0.00000000000E+00 0. -1.
          5    1    5    5  501    0  0.29919267370E+02  0.25652767131E+02  0.26067316488E+01  0.39775772417E+02  0.47000000000E+01 0. -1.
         -5    1    5    5    0  501  0.25231411522E+03 -0.14440731038E+03 -0.18283087807E+02  0.29132841490E+03  0.47000000000E+01 0. -1.
          1    1    1    2  502    0 -0.12644277725E+02  0.17571858207E+02 -0.15825976226E+04  0.15827456785E+04  0.00000000000E+00 0. -1.
          1    1    1    2  503    0 -0.23157671590E+03  0.50908098152E+02  0.89199638775E+03  0.92297181190E+03  0.00000000000E+00 0. -1.
<mgrwt>
<rscale>  0 0.72439962E+02</rscale>
<asrwt>0</asrwt>
<pdfrwt beam="1">  1        2 0.16340287E+00 0.24240025E+03</pdfrwt>
<pdfrwt beam="2">  1        2 0.31471290E+00 0.21648278E+02</pdfrwt>
<totfact> 0.35761995E+01</totfact>
</mgrwt>
</event>
<event>
13    1  0.1942437E-008  0.1202843E+03  0.7546771E-02  0.1283731E+00
          4   -1    0    0  503    0 -0.00000000000E+00  0.00000000000E+00  0.56789088354E+03  0.56789088354E+03  0.00000000000E+00 0. -1.
          2   -1    0    0  502    0  0.00000000000E+00 -0.00000000000E+00 -0.27866903407E+04  0.27866903407E+04  0.00000000000E+00 0. -1.
         24    2    1    2    0    0  0.13027451208E+03 -0.90211228227E+02  0.12829440147E+03  0.21896311728E+03  0.79849101954E+02 0.  0.
         24    2    1    2    0    0 -0.23289972555E+02  0.17876905539E+02 -0.20111930736E+02  0.87180292785E+02  0.79585847479E+02 0.  0.
         25    2    1    2    0    0  0.95806537497E+02  0.39640299272E+02 -0.16533780107E+04  0.16613353642E+04  0.12500440008E+03 0.  0.
        -11    1    4    4    0    0  0.17727177565E+02 -0.19651610005E+02 -0.17088402301E+02  0.31503207669E+02  0.00000000000E+00 0.  1.
         12    1    4    4    0    0 -0.41017150120E+02  0.37528515544E+02 -0.30235284346E+01  0.55677085116E+02  0.00000000000E+00 0. -1.
        -13    1    3    3    0    0  0.25363920714E+02 -0.51878077592E+02  0.76488313463E+02  0.95839060435E+02  0.00000000000E+00 0.  1.
         14    1    3    3    0    0  0.10491059137E+03 -0.38333150635E+02  0.51806088008E+02  0.12312405684E+03  0.00000000000E+00 0. -1.
          5    1    5    5  501    0  0.62920077609E+01 -0.98207551000E+01 -0.99205988927E+03  0.99213958216E+03  0.47000000000E+01 0. -1.
         -5    1    5    5    0  501  0.89514529736E+02  0.49461054372E+02 -0.66131812142E+03  0.66919578200E+03  0.47000000000E+01 0. -1.
          1    1    1    2  502    0 -0.48195449229E+02  0.64442428762E+02 -0.10112215360E+04  0.10144183668E+04  0.00000000000E+00 0. -1.
          3    1    1    2  503    0 -0.15459562780E+03 -0.31748405346E+02  0.33761761880E+03  0.37268408324E+03  0.00000000000E+00 0. -1.
<mgrwt>
<rscale>  0 0.98384098E+02</rscale>
<asrwt>0</asrwt>
<pdfrwt beam="2">  1        2 0.40980739E+00 0.80471287E+02</pdfrwt>
<pdfrwt beam="1">  1        4 0.83513368E-01 0.12028428E+03</pdfrwt>
<totfact> 0.25686244E+00</totfact>
</mgrwt>
</event>
<event>
13    1  0.1942437E-008  0.1424432E+03  0.7546771E-02  0.1262115E+00
          2   -1    0    0  503    0  0.00000000000E+00  0.00000000000E+00  0.77711159026E+03  0.77711159026E+03  0.00000000000E+00 0. -1.
          2   -1    0    0  502    0 -0.00000000000E+00 -0.00000000000E+00 -0.17548262455E+04  0.17548262455E+04  0.00000000000E+00 0. -1.
         24    2    1    2    0    0  0.14311154024E+02 -0.61303542579E+02 -0.17673566362E+02  0.10760322795E+03  0.85458564546E+02 0.  0.
         24    2    1    2    0    0  0.15665250023E+03  0.65765002504E+02 -0.44293357380E+03  0.48224552392E+03  0.86634595658E+02 0.  0.
         25    2    1    2    0    0 -0.95504558154E+02 -0.14293707744E+03  0.27295753205E+03  0.34595248799E+03  0.12500072363E+03 0.  0.
        -11    1    3    3    0    0  0.39190973209E+02 -0.30484561176E+02 -0.38522482800E+02  0.62842839944E+02  0.00000000000E+00 0.  1.
         12    1    3    3    0    0 -0.24879819186E+02 -0.30818981403E+02  0.20848916438E+02  0.44760388002E+02  0.00000000000E+00 0. -1.
        -11    1    4    4    0    0  0.15460364406E+03  0.41147736381E+02 -0.41597977111E+03  0.44568440957E+03  0.00000000000E+00 0.  1.
         12    1    4    4    0    0  0.20488561641E+01  0.24617266123E+02 -0.26953802690E+02  0.36561114349E+02  0.00000000000E+00 0. -1.
          5    1    5    5  501    0 -0.10638132022E+03 -0.15896734601E+03  0.25707926600E+03  0.32046753563E+03  0.47000000000E+01 0.  1.
         -5    1    5    5    0  501  0.10876762064E+02  0.16030268576E+02  0.15878266056E+02  0.25484952355E+02  0.47000000000E+01 0.  1.
          1    1    1    2  502    0  0.49522299711E+02  0.67438915850E+02 -0.11787513170E+04  0.11817170274E+04  0.00000000000E+00 0. -1.
          1    1    1    2  503    0 -0.12498139581E+03  0.71036701662E+02  0.38868626992E+03  0.41441956844E+03  0.00000000000E+00 0. -1.
<mgrwt>
<rscale>  0 0.10916980E+03</rscale>
<asrwt>0</asrwt>
<pdfrwt beam="1">  1        2 0.11428112E+00 0.14244316E+03</pdfrwt>
<pdfrwt beam="2">  1        2 0.25806268E+00 0.83668785E+02</pdfrwt>
<totfact> 0.75830562E+01</totfact>
</mgrwt>
</event>
<event>
13    1  0.1942437E-008  0.6674594E+02  0.7546771E-02  0.1422663E+00
          2   -1    0    0  502    0  0.00000000000E+00  0.00000000000E+00  0.20739258287E+04  0.20739258287E+04  0.00000000000E+00 0. -1.
          2   -1    0    0  503    0 -0.00000000000E+00 -0.00000000000E+00 -0.25281867509E+04  0.25281867509E+04  0.00000000000E+00 0. -1.
         24    2    1    2    0    0 -0.24453082592E+02 -0.32561884128E+03 -0.17773267344E+04  0.18094364653E+04  0.92436022389E+02 0.  0.
         24    2    1    2    0    0  0.11076281073E+03  0.29206468334E+03 -0.35650356051E+03  0.48079195344E+03  0.80597359346E+02 0.  0.
         25    2    1    2    0    0 -0.29656793920E+01  0.45662921287E+01  0.12563273716E+04  0.12625423911E+04  0.12500071387E+03 0.  0.
        -11    1    4    4    0    0  0.33060449636E+02  0.18387132946E+03 -0.17778810144E+03  0.25789584747E+03  0.00000000000E+00 0.  1.
         12    1    4    4    0    0  0.77702361092E+02  0.10819335388E+03 -0.17871545907E+03  0.22289610596E+03  0.00000000000E+00 0. -1.
        -13    1    3    3    0    0 -0.49924186592E+02 -0.15735272627E+03 -0.73525569483E+03  0.75356037691E+03  0.00000000000E+00 0.  1.
         14    1    3    3    0    0  0.25471103999E+02 -0.16826611502E+03 -0.10420710396E+04  0.10558760884E+04  0.00000000000E+00 0. -1.
          5    1    5    5  501    0  0.92512904197E+01  0.53201437649E+02  0.99073139924E+03  0.99221306924E+03  0.47000000000E+01 0. -1.
         -5    1    5    5    0  501 -0.12216969812E+02 -0.48635145520E+02  0.26559597232E+03  0.27032932183E+03  0.47000000000E+01 0. -1.
          1    1    1    2  502    0 -0.17674218368E+02  0.40772038969E+02  0.73205559778E+03  0.73340311930E+03  0.00000000000E+00 0. -1.
          1    1    1    2  503    0 -0.65669830376E+02 -0.11784173153E+02 -0.30881359663E+03  0.31593865040E+03  0.00000000000E+00 0. -1.
<mgrwt>
<rscale>  0 0.54461520E+02</rscale>
<asrwt>0</asrwt>
<pdfrwt beam="1">  1        2 0.30498909E+00 0.44438015E+02</pdfrwt>
<pdfrwt beam="2">  1        2 0.37179217E+00 0.66745942E+02</pdfrwt>
<totfact> 0.76981505E+00</totfact>
</mgrwt>
</event>
<event>
13    1  0.1942437E-008  0.1099670E+03  0.7546771E-02  0.1300374E+00
          2   -1    0    0  503    0  0.00000000000E+00  0.00000000000E+00  0.36243410564E+04  0.36243410564E+04  0.00000000000E+00 0. -1.
         -1   -1    0    0    0  501 -0.00000000000E+00 -0.00000000000E+00 -0.11471023353E+04  0.11471023353E+04  0.00000000000E+00 0.  1.
         24    2    1    2    0    0 -0.85884664496E+01 -0.59033385937E+02 -0.19424424613E+03  0.21883592850E+03  0.81238131659E+02 0.  0.
         24    2    1    2    0    0  0.28317882353E+01 -0.25325576608E+02  0.47403304539E+03  0.48139253319E+03  0.79887665065E+02 0.  0.
         25    2    1    2    0    0  0.16297298419E+03 -0.49529249657E+02  0.10515071022E+04  0.10725229921E+04  0.12500016981E+03 0.  0.
        -11    1    4    4    0    0 -0.11424615169E+02  0.25842580075E+02  0.11331580071E+03  0.11678540777E+03  0.00000000000E+00 0.  1.
         12    1    4    4    0    0  0.14256403404E+02 -0.51168156683E+02  0.36071724468E+03  0.36460712542E+03  0.00000000000E+00 0. -1.
        -13    1    3    3    0    0  0.14007157759E+02 -0.75782308159E+01  0.71186536606E+00  0.15941668767E+02  0.00000000000E+00 0.  1.
         14    1    3    3    0    0 -0.22595624208E+02 -0.51455155121E+02 -0.19495611149E+03  0.20289425973E+03  0.00000000000E+00 0. -1.
          5    1    5    5  502    0  0.68377945747E+02  0.35694934316E+02  0.53398709372E+03  0.53954979201E+03  0.47000000000E+01 0.  1.
         -5    1    5    5    0  502  0.94595038439E+02 -0.85224183973E+02  0.51752000846E+03  0.53297320007E+03  0.47000000000E+01 0.  1.
          1    1    1    2  503    0 -0.13495377226E+03  0.28565712374E+02  0.20668831933E+04  0.20714812708E+04  0.00000000000E+00 0. -1.
         -2    1    1    2    0  501 -0.22262533713E+02  0.10532249983E+03 -0.92094037364E+03  0.92721066710E+03  0.00000000000E+00 0.  1.
<mgrwt>
<rscale>  0 0.91030965E+02</rscale>
<asrwt>0</asrwt>
<pdfrwt beam="1">  1        2 0.53299133E+00 0.10996699E+03</pdfrwt>
<pdfrwt beam="2">  1       -1 0.16869152E+00 0.75355676E+02</pdfrwt>
<totfact> 0.43907071E-01</totfact>
</mgrwt>
</event>
<event>
13    1  0.1942437E-008  0.8182200E+02  0.7546771E-02  0.1412122E+00
          2   -1    0    0  503    0  0.00000000000E+00  0.00000000000E+00  0.35028363741E+04  0.35028363741E+04  0.00000000000E+00 0. -1.
         -3   -1    0    0    0  501 -0.00000000000E+00 -0.00000000000E+00 -0.32754746067E+04  0.32754746067E+04  0.00000000000E+00 0.  1.
         24    2    1    2    0    0  0.91773550612E+03  0.82553587490E+03 -0.11347025508E+04  0.16793957079E+04  0.95247703306E+02 0.  0.
         24    2    1    2    0    0 -0.12949902370E+04  0.13477392025E+03 -0.74177131767E+03  0.15004100336E+04  0.76432046146E+02 0.  0.
         25    2    1    2    0    0  0.43192426026E+03 -0.87230973361E+03  0.78617092439E+03  0.12574467349E+04  0.12499892324E+03 0.  0.
        -11    1    3    3    0    0  0.44207560029E+03  0.45615482957E+03 -0.60873636755E+03  0.87981136052E+03  0.00000000000E+00 0.  1.
         12    1    3    3    0    0  0.47565990583E+03  0.36938104533E+03 -0.52596618323E+03  0.79958434737E+03  0.00000000000E+00 0. -1.
        -13    1    4    4    0    0 -0.59945993159E+03  0.24131780265E+02 -0.33914412617E+03  0.68916855030E+03  0.00000000000E+00 0.  1.
         14    1    4    4    0    0 -0.69553030537E+03  0.11064213999E+03 -0.40262719150E+03  0.81124148326E+03  0.00000000000E+00 0. -1.
          5    1    5    5  502    0  0.31329079118E+03 -0.52541105721E+03  0.53839326544E+03  0.81492165093E+03  0.47000000000E+01 0.  1.
         -5    1    5    5    0  502  0.11863346908E+03 -0.34689867640E+03  0.24777765895E+03  0.44252508398E+03  0.47000000000E+01 0.  1.
          1    1    1    2  503    0  0.10069677401E+02 -0.38012052832E+02  0.18258800380E+04  0.18263034325E+04  0.00000000000E+00 0. -1.
         -4    1    1    2    0  501 -0.64739206818E+02 -0.49988008707E+02 -0.50821532652E+03  0.51475507188E+03  0.00000000000E+00 0.  1.
<mgrwt>
<rscale>  0 0.56723042E+02</rscale>
<asrwt>0</asrwt>
<pdfrwt beam="1">  1        2 0.51512300E+00 0.39323206E+02</pdfrwt>
<pdfrwt beam="2">  1       -3 0.48168744E+00 0.81822004E+02</pdfrwt>
<totfact> 0.62968031E-03</totfact>
</mgrwt>
</event>
<event>
13    1  0.1942437E-008  0.6228221E+02  0.7546771E-02  0.1428774E+00
          2   -1    0    0  503    0  0.00000000000E+00  0.00000000000E+00  0.10014723561E+04  0.10014723561E+04  0.00000000000E+00 0. -1.
          2   -1    0    0  502    0 -0.00000000000E+00 -0.00000000000E+00 -0.12886360828E+04  0.12886360828E+04  0.00000000000E+00 0. -1.
         24    2    1    2    0    0 -0.54170974033E+02 -0.15135868601E+02 -0.37800537519E+03  0.39080992150E+03  0.81735806879E+02 0.  0.
         24    2    1    2    0    0  0.88447810753E+02  0.99094518809E+01 -0.28806667276E+03  0.31182574544E+03  0.79571823553E+02 0.  0.
         25    2    1    2    0    0 -0.50971418976E+02  0.10402371677E+03  0.39584341831E+03  0.43096928823E+03  0.12499398534E+03 0.  0.
        -11    1    3    3    0    0 -0.68003830774E+02 -0.33835586602E+02 -0.29049779673E+03  0.30026378041E+03  0.00000000000E+00 0.  1.
         12    1    3    3    0    0  0.13832856741E+02  0.18699718001E+02 -0.87507578460E+02  0.90546141093E+02  0.00000000000E+00 0. -1.
        -13    1    4    4    0    0 -0.87358817481E+01 -0.14432338484E+02 -0.23526865820E+02  0.28950327103E+02  0.00000000000E+00 0.  1.
         14    1    4    4    0    0  0.97183692501E+02  0.24341790365E+02 -0.26453980694E+03  0.28287541834E+03  0.00000000000E+00 0. -1.
          5    1    5    5  501    0  0.38547573281E+02  0.39030002586E+02  0.87846418350E+02  0.10367419990E+03  0.47000000000E+01 0. -1.
         -5    1    5    5    0  501 -0.89518992257E+02  0.64993714187E+02  0.30799699996E+03  0.32729508833E+03  0.47000000000E+01 0. -1.
          1    1    1    2  502    0  0.25986506974E+02 -0.37292795565E+02 -0.58413612098E+03  0.58590191925E+03  0.00000000000E+00 0. -1.
          1    1    1    2  503    0 -0.92919247173E+01 -0.61504504488E+02  0.56720102391E+03  0.57060156454E+03  0.00000000000E+00 0. -1.
<mgrwt>
<rscale>  0 0.53206818E+02</rscale>
<asrwt>0</asrwt>
<pdfrwt beam="1">  1        2 0.14727535E+00 0.62282214E+02</pdfrwt>
<pdfrwt beam="2">  1        2 0.18950530E+00 0.45453835E+02</pdfrwt>
<totfact> 0.10087506E+02</totfact>
</mgrwt>
</event>
<event>
13    1  0.1942437E-008  0.3463668E+02  0.7546771E-02  0.1572692E+00
          2   -1    0    0  502    0  0.00000000000E+00  0.00000000000E+00  0.17981031490E+04  0.17981031490E+04  0.00000000000E+00 0. -1.
          2   -1    0    0  503    0 -0.00000000000E+00 -0.00000000000E+00 -0.17733671023E+04  0.17733671023E+04  0.00000000000E+00 0. -1.
         24    2    1    2    0    0 -0.45143461995E+02 -0.69281436456E+01 -0.13220502034E+03  0.16210808311E+03  0.81944687877E+02 0.  0.
         24    2    1    2    0    0  0.56409054476E+01  0.19480709330E+02  0.58188867922E+02  0.10108758604E+03  0.80133874559E+02 0.  0.
         25    2    1    2    0    0  0.46820259172E+01 -0.41945492115E+02  0.10415685023E+04  0.10498938912E+04  0.12502356678E+03 0.  0.
        -11    1    3    3    0    0 -0.45903917915E+02 -0.17808240281E+02 -0.26641804186E+02  0.55982933401E+02  0.00000000000E+00 0.  1.
         12    1    3    3    0    0  0.76045592008E+00  0.10880096636E+02 -0.10556321615E+03  0.10612514971E+03  0.00000000000E+00 0. -1.
        -11    1    4    4    0    0  0.17105151401E+02 -0.28132516354E+02  0.30214332341E+02  0.44687028987E+02  0.00000000000E+00 0.  1.
         12    1    4    4    0    0 -0.11464245954E+02  0.47613225684E+02  0.27974535581E+02  0.56400557056E+02  0.00000000000E+00 0. -1.
          5    1    5    5  501    0  0.36414792786E+02 -0.69524411783E+02  0.85410955234E+03  0.85772075780E+03  0.47000000000E+01 0.  1.
         -5    1    5    5    0  501 -0.31732766868E+02  0.27578919669E+02  0.18745894992E+03  0.19217313342E+03  0.47000000000E+01 0.  1.
          1    1    1    2  502    0  0.29964045486E+02 -0.49017017258E+01  0.65724429807E+03  0.65794523940E+03  0.00000000000E+00 0. -1.
          1    1    1    2  503    0  0.48564851437E+01  0.34294628156E+02 -0.16000606012E+04  0.16004354515E+04  0.00000000000E+00 0. -1.
<mgrwt>
<rscale>  0 0.32429155E+02</rscale>
<asrwt>0</asrwt>
<pdfrwt beam="1">  1        2 0.26442693E+00 0.30362324E+02</pdfrwt>
<pdfrwt beam="2">  1        2 0.26078928E+00 0.34636680E+02</pdfrwt>
<totfact> 0.26272996E+01</totfact>
</mgrwt>
</event>
<event>
13    1  0.1942437E-008  0.7418687E+02  0.7546771E-02  0.1420596E+00
         -1   -1    0    0    0  501 -0.00000000000E+00  0.00000000000E+00  0.10514953392E+03  0.10514953392E+03  0.00000000000E+00 0.  1.
          2   -1    0    0  503    0  0.00000000000E+00 -0.00000000000E+00 -0.31327621867E+04  0.31327621867E+04  0.00000000000E+00 0. -1.
         24    2    1    2    0    0 -0.49102779233E+01 -0.69339161842E+02 -0.30120038964E+02  0.10925222925E+03  0.78719772960E+02 0.  0.
         24    2    1    2    0    0  0.13774935261E+02 -0.62247862611E+01 -0.49745102289E+03  0.50428233936E+03  0.81330565005E+02 0.  0.
         25    2    1    2    0    0  0.48789069387E-01  0.42607858391E+02 -0.21832416160E+04  0.21872326889E+04  0.12500979651E+03 0.  0.
        -11    1    3    3    0    0  0.28829190410E+02 -0.48648518082E+02 -0.38995302008E+02  0.68690858999E+02  0.00000000000E+00 0.  1.
         12    1    3    3    0    0 -0.33739468334E+02 -0.20690643760E+02  0.88752630444E+01  0.40561370252E+02  0.00000000000E+00 0. -1.
        -13    1    4    4    0    0  0.82569963628E+01  0.95044106224E+01 -0.88320136257E+01  0.15379085633E+02  0.00000000000E+00 0.  1.
         14    1    4    4    0    0  0.55179388978E+01 -0.15729196883E+02 -0.48861900927E+03  0.48890325373E+03  0.00000000000E+00 0. -1.
          5    1    5    5  502    0 -0.45932634227E+02 -0.10432583200E+02 -0.14107620482E+04  0.14115559827E+04  0.47000000000E+01 0.  1.
         -5    1    5    5    0  502  0.45981423296E+02  0.53040441591E+02 -0.77247956783E+03  0.77567670614E+03  0.47000000000E+01 0.  1.
          1    1    1    2  503    0  0.16626320040E+02 -0.37061285203E+02 -0.35227026724E+03  0.35460444802E+03  0.00000000000E+00 0. -1.
         -2    1    1    2    0  501 -0.25539766446E+02  0.70017374916E+02  0.35470292339E+02  0.82540015137E+02  0.00000000000E+00 0.  1.
<mgrwt>
<rscale>  0 0.54894998E+02</rscale>
<asrwt>0</asrwt>
<pdfrwt beam="2">  1        2 0.46070033E+00 0.40619864E+02</pdfrwt>
<pdfrwt beam="1">  1       -1 0.15463167E-01 0.74186875E+02</pdfrwt>
<totfact> 0.94507606E+01</totfact>
</mgrwt>
</event>
<event>
13    1  0.1942437E-008  0.5192363E+02  0.7546771E-02  0.1454705E+00
          2   -1    0    0  503    0  0.00000000000E+00  0.00000000000E+00  0.11462899511E+04  0.11462899511E+04  0.00000000000E+00 0. -1.
          2   -1    0    0  502    0 -0.00000000000E+00 -0.00000000000E+00 -0.42822383754E+04  0.42822383754E+04  0.00000000000E+00 0. -1.
         24    2    1    2    0    0  0.53221573571E+02 -0.14034170883E+03 -0.15505176488E+04  0.15598701726E+04  0.81003981358E+02 0.  0.
         24    2    1    2    0    0 -0.21515611852E+03  0.10334841898E+03 -0.13877495860E+04  0.14104185054E+04  0.80364146386E+02 0.  0.
         25    2    1    2    0    0  0.10407470501E+03 -0.25700517497E+02  0.71060864552E+03  0.72943864075E+03  0.12499609077E+03 0.  0.
        -11    1    4    4    0    0 -0.20375717008E+03  0.11486327176E+03 -0.12477456784E+04  0.12694801430E+04  0.00000000000E+00 0.  1.
         12    1    4    4    0    0 -0.11398948436E+02 -0.11514852782E+02 -0.14000390761E+03  0.14093836244E+03  0.00000000000E+00 0. -1.
        -11    1    3    3    0    0  0.31022825579E+02 -0.12536680610E+03 -0.14534575059E+04  0.14591840094E+04  0.00000000000E+00 0.  1.
         12    1    3    3    0    0  0.22198747992E+02 -0.14974902725E+02 -0.97060142950E+02  0.10068616327E+03  0.00000000000E+00 0. -1.
          5    1    5    5  501    0  0.67225499493E+02 -0.12210133365E+02  0.12528511335E+03  0.14278236854E+03  0.47000000000E+01 0.  1.
         -5    1    5    5    0  501  0.36849205520E+02 -0.13490384132E+02  0.58532353217E+03  0.58665627221E+03  0.47000000000E+01 0.  1.
          1    1    1    2  502    0  0.43033111117E+02  0.12946345923E+02 -0.13165184622E+04  0.13172852074E+04  0.00000000000E+00 0. -1.
          1    1    1    2  503    0  0.14826728818E+02  0.49747461422E+02  0.40822862716E+03  0.41151580023E+03  0.00000000000E+00 0. -1.
<mgrwt>
<rscale>  0 0.48304897E+02</rscale>
<asrwt>0</asrwt>
<pdfrwt beam="1">  1        2 0.16857205E+00 0.51923633E+02</pdfrwt>
<pdfrwt beam="2">  1        2 0.62974095E+00 0.44938364E+02</pdfrwt>
<totfact> 0.22290117E+00</totfact>
</mgrwt>
</event>
<event>
13    1  0.1942437E-008  0.2383606E+03  0.7546771E-02  0.1340885E+00
          2   -1    0    0  502    0  0.00000000000E+00  0.00000000000E+00  0.19287636614E+04  0.19287636614E+04  0.00000000000E+00 0. -1.
          2   -1    0    0  503    0 -0.00000000000E+00 -0.00000000000E+00 -0.86398657884E+03  0.86398657884E+03  0.00000000000E+00 0. -1.
         24    2    1    2    0    0  0.23558131646E+02  0.81253939389E+01 -0.18162065341E+03  0.19880826091E+03  0.76926297631E+02 0.  0.
         24    2    1    2    0    0  0.17002600835E+02 -0.44118059974E+02  0.36488795122E+01  0.80458220868E+02  0.64997840984E+02 0.  0.
         25    2    1    2    0    0 -0.23660552261E+03 -0.81478730815E+02  0.13174330247E+03  0.30920301508E+03  0.12501699838E+03 0.  0.
        -11    1    4    4    0    0  0.23677313788E+02 -0.49876538102E+02  0.22521670149E+02  0.59628096294E+02  0.00000000000E+00 0.  1.
         12    1    4    4    0    0 -0.66747129536E+01  0.57584781286E+01 -0.18872790637E+02  0.20830124575E+02  0.00000000000E+00 0. -1.
        -13    1    3    3    0    0 -0.43679740597E+01  0.14479708491E+02 -0.16500658566E+03  0.16569826331E+03  0.00000000000E+00 0.  1.
         14    1    3    3    0    0  0.27926105706E+02 -0.63543145521E+01 -0.16614067751E+02  0.33109997592E+02  0.00000000000E+00 0. -1.
          5    1    5    5  501    0 -0.33401711783E+02 -0.62506332907E+02  0.59499008029E+02  0.92654940289E+02  0.47000000000E+01 0.  1.
         -5    1    5    5    0  501 -0.20320381082E+03 -0.18972397907E+02  0.72244294443E+02  0.21654807479E+03  0.47000000000E+01 0.  1.
          1    1    1    2  502    0  0.19178010864E+03  0.14130764137E+03  0.16488108565E+04  0.16659305808E+04  0.00000000000E+00 0. -1.
          1    1    1    2  503    0  0.42646814830E+01 -0.23836244525E+02 -0.53780530255E+03  0.53835016254E+03  0.00000000000E+00 0. -1.
<mgrwt>
<rscale>  0 0.75972638E+02</rscale>
<asrwt>0</asrwt>
<pdfrwt beam="1">  1        2 0.28364172E+00 0.23836059E+03</pdfrwt>
<pdfrwt beam="2">  1        2 0.12705685E+00 0.24214749E+02</pdfrwt>
<totfact> 0.53269310E+01</totfact>
</mgrwt>
</event>
<event>
13    1  0.1942437E-008  0.2027173E+03  0.7546771E-02  0.1245175E+00
          2   -1    0    0  503    0  0.00000000000E+00  0.00000000000E+00  0.86191724981E+03  0.86191724981E+03  0.00000000000E+00 0. -1.
          2   -1    0    0  502    0 -0.00000000000E+00 -0.00000000000E+00 -0.96763355215E+03  0.96763355215E+03  0.00000000000E+00 0. -1.
         24    2    1    2    0    0 -0.36822939065E+02  0.17560087472E+03 -0.15129157209E+03  0.24800132745E+03  0.80149376704E+02 0.  0.
         24    2    1    2    0    0 -0.80099144416E+02 -0.62716982472E+02 -0.49792558123E+02  0.13871588219E+03  0.80084357401E+02 0.  0.
         25    2    1    2    0    0  0.14667443261E+03  0.54163980031E+02  0.13134036878E+03  0.23942044486E+03  0.12499892413E+03 0.  0.
        -11    1    4    4    0    0  0.79743886004E+01  0.11700695756E+02 -0.49717375805E+01  0.15007175927E+02  0.00000000000E+00 0.  1.
         12    1    4    4    0    0 -0.88073533016E+02 -0.74417678229E+02 -0.44820820542E+02  0.12370870626E+03  0.00000000000E+00 0. -1.
        -13    1    3    3    0    0 -0.49674264470E+01  0.14398238873E+03 -0.14175930393E+03  0.20211705480E+03  0.00000000000E+00 0.  1.
         14    1    3    3    0    0 -0.31855512618E+02  0.31618485989E+02 -0.95322681667E+01  0.45884272652E+02  0.00000000000E+00 0. -1.
          5    1    5    5  501    0  0.39631701685E+02  0.25509718050E+02  0.11868752904E+03  0.12778981588E+03  0.47000000000E+01 0.  1.
         -5    1    5    5    0  501  0.10704273092E+03  0.28654261981E+02  0.12652839742E+02  0.11163062898E+03  0.47000000000E+01 0.  1.
          1    1    1    2  502    0 -0.88349706824E+02 -0.20453379639E+03 -0.59745099009E+03  0.63764208623E+03  0.00000000000E+00 0. -1.
          1    1    1    2  503    0  0.58597357697E+02  0.37485924114E+02  0.56147844919E+03  0.56577106124E+03  0.00000000000E+00 0. -1.
<mgrwt>
<rscale>  0 0.11874925E+03</rscale>
<asrwt>0</asrwt>
<pdfrwt beam="1">  1        2 0.12675254E+00 0.69561806E+02</pdfrwt>
<pdfrwt beam="2">  1        2 0.14229905E+00 0.20271733E+03</pdfrwt>
<totfact> 0.16671413E+02</totfact>
</mgrwt>
</event>
<event>
13    1  0.1942437E-008  0.9905458E+02  0.7546771E-02  0.1285260E+00
          2   -1    0    0  503    0  0.00000000000E+00  0.00000000000E+00  0.22685571316E+04  0.22685571316E+04  0.00000000000E+00 0. -1.
          2   -1    0    0  502    0 -0.00000000000E+00 -0.00000000000E+00 -0.29783165828E+03  0.29783165828E+03  0.00000000000E+00 0. -1.
         24    2    1    2    0    0 -0.46344530727E+02  0.22398180045E+02 -0.49568953597E+02  0.10814842101E+03  0.81175771069E+02 0.  0.
         24    2    1    2    0    0 -0.46815732170E+02  0.45912987139E+02  0.61335742933E+02  0.12031380173E+03  0.80085094492E+02 0.  0.
         25    2    1    2    0    0  0.25121154591E+02  0.10723200086E+02  0.65670853299E+03  0.66905812607E+03  0.12500647717E+03 0.  0.
        -13    1    4    4    0    0 -0.15435291646E+02  0.58980714421E+02  0.14892178899E+02  0.62759460594E+02  0.00000000000E+00 0.  1.
         14    1    4    4    0    0 -0.31380440524E+02 -0.13067727281E+02  0.46443564034E+02  0.57554341139E+02  0.00000000000E+00 0. -1.
        -13    1    3    3    0    0 -0.80699197868E-01  0.11079116743E+02  0.20571573378E+02  0.23365422560E+02  0.00000000000E+00 0.  1.
         14    1    3    3    0    0 -0.46263831530E+02  0.11319063302E+02 -0.70140526975E+02  0.84782998450E+02  0.00000000000E+00 0. -1.
          5    1    5    5  501    0 -0.41255325281E+02  0.26675562764E+02  0.15402623856E+03  0.16173979002E+03  0.47000000000E+01 0.  1.
         -5    1    5    5    0  501  0.66376479872E+02 -0.15952362678E+02  0.50268229443E+03  0.50731833605E+03  0.47000000000E+01 0.  1.
          1    1    1    2  502    0 -0.30585260997E+02 -0.91309257151E+02 -0.16886930993E+03  0.19439568531E+03  0.00000000000E+00 0. -1.
          1    1    1    2  503    0  0.98624369303E+02  0.12274889880E+02  0.14711194609E+04  0.14744727558E+04  0.00000000000E+00 0. -1.
<mgrwt>
<rscale>  0 0.97676305E+02</rscale>
<asrwt>0</asrwt>
<pdfrwt beam="1">  1        2 0.33361133E+00 0.99054582E+02</pdfrwt>
<pdfrwt beam="2">  1        2 0.43798774E-01 0.96317205E+02</pdfrwt>
<totfact> 0.12119582E+02</totfact>
</mgrwt>
</event>
<event>
13    1  0.1942437E-008  0.1258384E+03  0.7546771E-02  0.1291548E+00
          2   -1    0    0  503    0  0.00000000000E+00  0.00000000000E+00  0.20716142133E+04  0.20716142133E+04  0.00000000000E+00 0. -1.
          2   -1    0    0  502    0 -0.00000000000E+00 -0.00000000000E+00 -0.37816680420E+04  0.37816680420E+04  0.00000000000E+00 0. -1.
         24    2    1    2    0    0 -0.16598700140E+02  0.88146080000E+02 -0.17308404056E+03  0.21059753025E+03  0.79674251710E+02 0.  0.
         24    2    1    2    0    0  0.31829131365E+02  0.21068557234E+03 -0.13021290653E+03  0.26006860607E+03  0.72655177665E+02 0.  0.
         25    2    1    2    0    0  0.16518573668E+03 -0.17033458528E+03  0.49759944866E+03  0.56527005575E+03  0.12499930430E+03 0.  0.
        -11    1    4    4    0    0  0.52040206910E+02  0.16688612405E+03 -0.11593571579E+03  0.20976236968E+03  0.00000000000E+00 0.  1.
         12    1    4    4    0    0 -0.20211075545E+02  0.43799448288E+02 -0.14277190744E+02  0.50306236399E+02  0.00000000000E+00 0. -1.
        -13    1    3    3    0    0 -0.41444350735E+02  0.46379205863E+02 -0.13572872273E+03  0.14930154426E+03  0.00000000000E+00 0.  1.
         14    1    3    3    0    0  0.24845650595E+02  0.41766874137E+02 -0.37355317836E+02  0.61295985996E+02  0.00000000000E+00 0. -1.
          5    1    5    5  501    0 -0.20654484618E+02 -0.16432746181E+02  0.46867669815E+02  0.53993623288E+02  0.47000000000E+01 0. -1.
         -5    1    5    5    0  501  0.18584022130E+03 -0.15390183910E+03  0.45073177884E+03  0.51127643246E+03  0.47000000000E+01 0. -1.
          1    1    1    2  502    0 -0.11140068385E+03 -0.10992803408E+03 -0.33581508392E+04  0.33617958510E+04  0.00000000000E+00 0. -1.
          1    1    1    2  503    0 -0.69015484062E+02 -0.18569032980E+02  0.14537945089E+04  0.14555502122E+04  0.00000000000E+00 0. -1.
<mgrwt>
<rscale>  0 0.94834878E+02</rscale>
<asrwt>0</asrwt>
<pdfrwt beam="1">  1        2 0.30464916E+00 0.71469896E+02</pdfrwt>
<pdfrwt beam="2">  1        2 0.55612764E+00 0.12583835E+03</pdfrwt>
<totfact> 0.13400755E+00</totfact>
</mgrwt>
</event>
<event>
13    1  0.1942437E-008  0.1369087E+03  0.7546771E-02  0.1303919E+00
          4   -1    0    0  503    0 -0.00000000000E+00  0.00000000000E+00  0.43616555122E+03  0.43616555122E+03  0.00000000000E+00 0. -1.
          2   -1    0    0  502    0  0.00000000000E+00 -0.00000000000E+00 -0.22572700773E+04  0.22572700773E+04  0.00000000000E+00 0. -1.
         24    2    1    2    0    0 -0.10705332660E+03 -0.15810507177E+02  0.33289211349E+02  0.13866646995E+03  0.80061422811E+02 0.  0.
         24    2    1    2    0    0  0.72595834903E+02  0.50792018288E+02 -0.23222620798E+03  0.26128353358E+03  0.80561087904E+02 0.  0.
         25    2    1    2    0    0  0.29902112541E+02 -0.12246005817E+03 -0.31026673863E+03  0.35746495580E+03  0.12500057337E+03 0.  0.
        -11    1    4    4    0    0  0.40992986069E+00  0.17866862946E+02 -0.13320002132E+03  0.13439359551E+03  0.00000000000E+00 0.  1.
         12    1    4    4    0    0  0.72185905042E+02  0.32925155342E+02 -0.99026186652E+02  0.12688993807E+03  0.00000000000E+00 0. -1.
        -13    1    3    3    0    0 -0.19621177025E+02 -0.27029182429E+02  0.37750063308E+02  0.50404707820E+02  0.00000000000E+00 0.  1.
         14    1    3    3    0    0 -0.87432149578E+02  0.11218675252E+02 -0.44608519599E+01  0.88261762131E+02  0.00000000000E+00 0. -1.
          5    1    5    5  501    0  0.75596000552E+02 -0.67645918766E+02 -0.14149125681E+03  0.17416254298E+03  0.47000000000E+01 0.  1.
         -5    1    5    5    0  501 -0.45693888010E+02 -0.54814139406E+02 -0.16877548182E+03  0.18330241281E+03  0.47000000000E+01 0.  1.
          1    1    1    2  502    0  0.39317519443E+02  0.13463890275E+03 -0.16181500395E+04  0.16242176738E+04  0.00000000000E+00 0. -1.
          3    1    1    2  503    0 -0.34762140283E+02 -0.47160355686E+02  0.30624924875E+03  0.31180299534E+03  0.00000000000E+00 0. -1.
<mgrwt>
<rscale>  0 0.89560874E+02</rscale>
<asrwt>0</asrwt>
<pdfrwt beam="2">  1        2 0.33195149E+00 0.13690869E+03</pdfrwt>
<pdfrwt beam="1">  1        4 0.64141992E-01 0.58587589E+02</pdfrwt>
<totfact> 0.74259576E+00</totfact>
</mgrwt>
</event>
<event>
13    1  0.1942437E-008  0.7541085E+02  0.7546771E-02  0.1405206E+00
          2   -1    0    0  503    0  0.00000000000E+00  0.00000000000E+00  0.22084340604E+04  0.22084340604E+04  0.00000000000E+00 0. -1.
          2   -1    0    0  502    0 -0.00000000000E+00 -0.00000000000E+00 -0.11331742367E+04  0.11331742367E+04  0.00000000000E+00 0. -1.
         24    2    1    2    0    0 -0.35595942543E+02  0.48428046481E+03 -0.64151321911E+02  0.49533010455E+03  0.73769103616E+02 0.  0.
         24    2    1    2    0    0  0.35367234421E+03 -0.54045505002E+03 -0.33546455615E+02  0.65152184680E+03  0.78610203041E+02 0.  0.
         25    2    1    2    0    0 -0.34028539213E+03  0.10750388662E+03  0.78747203283E+03  0.87354861645E+03  0.12499499620E+03 0.  0.
        -11    1    4    4    0    0  0.21044438845E+03 -0.25069812360E+03 -0.23065066775E+02  0.32812861368E+03  0.00000000000E+00 0.  1.
         12    1    4    4    0    0  0.14322795576E+03 -0.28975692641E+03 -0.10481388841E+02  0.32339323312E+03  0.00000000000E+00 0. -1.
        -13    1    3    3    0    0 -0.24595226104E+02  0.13536626033E+03 -0.48538446913E+02  0.14589355850E+03  0.00000000000E+00 0.  1.
         14    1    3    3    0    0 -0.11000716439E+02  0.34891420448E+03 -0.15612874998E+02  0.34943654605E+03  0.00000000000E+00 0. -1.
          5    1    5    5  501    0 -0.66246868980E+02  0.22895085768E+01  0.61832556781E+02  0.90770284661E+02  0.47000000000E+01 0. -1.
         -5    1    5    5    0  501 -0.27403852315E+03  0.10521437804E+03  0.72563947605E+03  0.78277833179E+03  0.47000000000E+01 0. -1.
          1    1    1    2  502    0  0.65223718619E+02 -0.37986450869E+02 -0.46421661793E+03  0.47031284511E+03  0.00000000000E+00 0. -1.
          1    1    1    2  503    0 -0.43014728159E+02 -0.13342850544E+02  0.84970218636E+03  0.85089488422E+03  0.00000000000E+00 0. -1.
<mgrwt>
<rscale>  0 0.58277361E+02</rscale>
<asrwt>0</asrwt>
<pdfrwt beam="1">  1        2 0.32476972E+00 0.45036635E+02</pdfrwt>
<pdfrwt beam="2">  1        2 0.16664327E+00 0.75410847E+02</pdfrwt>
<totfact> 0.31322312E+01</totfact>
</mgrwt>
</event>
<event>
13    1  0.1942437E-008  0.3859133E+02  0.7546771E-02  0.1645054E+00
          2   -1    0    0  503    0  0.00000000000E+00  0.00000000000E+00  0.72931886342E+03  0.72931886342E+03  0.00000000000E+00 0. -1.
         -1   -1    0    0    0  501 -0.00000000000E+00 -0.00000000000E+00 -0.29273650957E+04  0.29273650957E+04  0.00000000000E+00 0.  1.
         24    2    1    2    0    0 -0.91349832072E+02  0.30177821088E+03 -0.16202079045E+03  0.35947169269E+03  0.59617790359E+02 0.  0.
         24    2    1    2    0    0 -0.43227407864E+03 -0.27040638530E+03 -0.93471012422E+03  0.10678062139E+04  0.80911073306E+02 0.  0.
         25    2    1    2    0    0  0.56527823535E+03 -0.62357936411E+02  0.30731102908E+03  0.65840185927E+03  0.12499977642E+03 0.  0.
        -11    1    3    3    0    0 -0.86641018037E+02  0.22248247272E+03 -0.10071582057E+03  0.25913084183E+03  0.00000000000E+00 0.  1.
         12    1    3    3    0    0 -0.47088140354E+01  0.79295738165E+02 -0.61304969880E+02  0.10034085087E+03  0.00000000000E+00 0. -1.
        -13    1    4    4    0    0 -0.11494775064E+03 -0.10325961593E+03 -0.23009062199E+03  0.27715921054E+03  0.00000000000E+00 0.  1.
         14    1    4    4    0    0 -0.31732632799E+03 -0.16714676938E+03 -0.70461950223E+03  0.79064700333E+03  0.00000000000E+00 0. -1.
          5    1    5    5  502    0  0.41833406162E+03 -0.52793167418E+02  0.16275408780E+03  0.45199722204E+03  0.47000000000E+01 0.  1.
         -5    1    5    5    0  502  0.14694417373E+03 -0.95647689935E+01  0.14455694127E+03  0.20640463723E+03  0.47000000000E+01 0.  1.
          1    1    1    2  503    0 -0.57929187811E+01  0.16741607634E+02  0.79969535381E+02  0.81908277501E+02  0.00000000000E+00 0. -1.
         -2    1    1    2    0  501 -0.35861405861E+02  0.14244503201E+02 -0.14885958820E+04  0.14890959158E+04  0.00000000000E+00 0.  1.
<mgrwt>
<rscale>  0 0.26146990E+02</rscale>
<asrwt>0</asrwt>
<pdfrwt beam="1">  1        2 0.10725278E+00 0.17715511E+02</pdfrwt>
<pdfrwt beam="2">  1       -1 0.43049486E+00 0.38591326E+02</pdfrwt>
<totfact> 0.40464256E-01</totfact>
</mgrwt>
</event>
<event>
13    1  0.1942437E-008  0.1138356E+03  0.7546771E-02  0.1365724E+00
          2   -1    0    0  503    0  0.00000000000E+00  0.00000000000E+00  0.24824285762E+04  0.24824285762E+04  0.00000000000E+00 0. -1.
         -1   -1    0    0    0  501 -0.00000000000E+00 -0.00000000000E+00 -0.25832002657E+04  0.25832002657E+04  0.00000000000E+00 0.  1.
         24    2    1    2    0    0  0.17619358389E+02  0.81906764435E+02  0.19745623668E+03  0.22865378263E+03  0.79211281099E+02 0.  0.
         24    2    1    2    0    0 -0.15125250584E+02 -0.82047918545E+02  0.28923753155E+03  0.31115593712E+03  0.78733940628E+02 0.  0.
         25    2    1    2    0    0 -0.13584458627E+03  0.16154024594E+02  0.71716689138E+03  0.74072229605E+03  0.12500586244E+03 0.  0.
        -13    1    4    4    0    0  0.22024499492E+02 -0.60141631490E+02  0.11471432679E+03  0.13138291817E+03  0.00000000000E+00 0.  1.
         14    1    4    4    0    0 -0.37149750077E+02 -0.21906287055E+02  0.17452320476E+03  0.17977301896E+03  0.00000000000E+00 0. -1.
        -13    1    3    3    0    0  0.13553745662E+02  0.73842172864E+02  0.20408166761E+03  0.21745274790E+03  0.00000000000E+00 0.  1.
         14    1    3    3    0    0  0.40656127267E+01  0.80645915719E+01 -0.66254309236E+01  0.11201034729E+02  0.00000000000E+00 0. -1.
          5    1    5    5  502    0 -0.42668926416E+02  0.61174889019E+02  0.40439477221E+03  0.41124229612E+03  0.47000000000E+01 0. -1.
         -5    1    5    5    0  502 -0.93175659853E+02 -0.45020864426E+02  0.31277211917E+03  0.32947999993E+03  0.47000000000E+01 0. -1.
          1    1    1    2  503    0  0.10862597369E+03  0.16773023614E+02  0.12376308888E+04  0.12425019732E+04  0.00000000000E+00 0. -1.
         -2    1    1    2    0  501  0.24724504777E+02 -0.32785894097E+02 -0.25422632378E+04  0.25425948530E+04  0.00000000000E+00 0.  1.
<mgrwt>
<rscale>  0 0.68370268E+02</rscale>
<asrwt>0</asrwt>
<pdfrwt beam="1">  1        2 0.36506303E+00 0.11383556E+03</pdfrwt>
<pdfrwt beam="2">  1       -1 0.37988239E+00 0.41063560E+02</pdfrwt>
<totfact> 0.97366199E-02</totfact>
</mgrwt>
</event>
<event>
13    1  0.1942437E-008  0.6815142E+02  0.7546771E-02  0.1399649E+00
          2   -1    0    0  503    0  0.00000000000E+00  0.00000000000E+00  0.19332678696E+04  0.19332678696E+04  0.00000000000E+00 0. -1.
          2   -1    0    0  502    0 -0.00000000000E+00 -0.00000000000E+00 -0.14678727756E+04  0.14678727756E+04  0.00000000000E+00 0. -1.
         24    2    1    2    0    0  0.15678108672E+01  0.12679973417E+01  0.64083424332E+02  0.10232317097E+03  0.79745095111E+02 0.  0.
         24    2    1    2    0    0  0.70567174503E+02 -0.22710225068E+03  0.12360303225E+03  0.27928661936E+03  0.78537556552E+02 0.  0.
         25    2    1    2    0    0 -0.68464656911E+02  0.34292232188E+03  0.89059745946E+03  0.96492058088E+03  0.12499905805E+03 0.  0.
        -11    1    4    4    0    0 -0.16297802180E+02 -0.33572265500E+02  0.27747498172E+02  0.46504182839E+02  0.00000000000E+00 0.  1.
         12    1    4    4    0    0  0.86864976683E+02 -0.19352998518E+03  0.95855534076E+02  0.23278243652E+03  0.00000000000E+00 0. -1.
        -11    1    3    3    0    0 -0.68296540606E+01  0.31383599229E+02  0.12514330431E+01  0.32142503945E+02  0.00000000000E+00 0.  1.
         12    1    3    3    0    0  0.83974649278E+01 -0.30115601888E+02  0.62831991289E+02  0.70180667021E+02  0.00000000000E+00 0. -1.
          5    1    5    5  501    0  0.22409672520E+02  0.11496821510E+02  0.92118401355E+02  0.95615167183E+02  0.47000000000E+01 0.  1.
         -5    1    5    5    0  501 -0.90874329430E+02  0.33142550037E+03  0.79847905811E+03  0.86930541370E+03  0.47000000000E+01 0.  1.
          1    1    1    2  502    0  0.11203825911E+02 -0.67190162662E+02 -0.13319378506E+04  0.13336785525E+04  0.00000000000E+00 0. -1.
          1    1    1    2  503    0 -0.14874154371E+02 -0.49897905875E+02  0.71904902856E+03  0.72093172143E+03  0.00000000000E+00 0. -1.
<mgrwt>
<rscale>  0 0.59569163E+02</rscale>
<asrwt>0</asrwt>
<pdfrwt beam="1">  1        2 0.28430410E+00 0.52067663E+02</pdfrwt>
<pdfrwt beam="2">  1        2 0.21586364E+00 0.68151420E+02</pdfrwt>
<totfact> 0.28141296E+01</totfact>
</mgrwt>
</event>
<event>
13    1  0.1942437E-008  0.2091553E+03  0.7546771E-02  0.1318777E+00
          2   -1    0    0  503    0  0.00000000000E+00  0.00000000000E+00  0.24039108918E+04  0.24039108918E+04  0.00000000000E+00 0. -1.
          2   -1    0    0  502    0 -0.00000000000E+00 -0.00000000000E+00 -0.22792336557E+04  0.22792336557E+04  0.00000000000E+00 0. -1.
         24    2    1    2    0    0 -0.72734218502E+02 -0.35896184900E+02 -0.91990376936E+02  0.14626675704E+03  0.79705282975E+02 0.  0.
         24    2    1    2    0    0  0.27384178036E+03 -0.42650799149E+02 -0.12336161948E+03  0.31448814985E+03  0.82923433934E+02 0.  0.
         25    2    1    2    0    0 -0.18045401431E+03 -0.11921149101E+03  0.22943055439E+02  0.25085642354E+03  0.12501012187E+03 0.  0.
        -13    1    4    4    0    0  0.12966640051E+02 -0.10083457090E+02  0.10475190684E+02  0.19481773044E+02  0.00000000000E+00 0.  1.
         14    1    4    4    0    0  0.26087514031E+03 -0.32567342059E+02 -0.13383681017E+03  0.29500637680E+03  0.00000000000E+00 0. -1.
        -13    1    3    3    0    0 -0.80581530026E+02 -0.33343033064E+02 -0.44199773748E+02  0.97768915482E+02  0.00000000000E+00 0.  1.
         14    1    3    3    0    0  0.78473115241E+01 -0.25531518363E+01 -0.47790603188E+02  0.48497841556E+02  0.00000000000E+00 0. -1.
          5    1    5    5  501    0 -0.14272170993E+03 -0.42529938139E+02 -0.27488700299E+02  0.15151237827E+03  0.47000000000E+01 0. -1.
         -5    1    5    5    0  501 -0.37732304378E+02 -0.76681552869E+02  0.50431755738E+02  0.99344045271E+02  0.47000000000E+01 0. -1.
          1    1    1    2  502    0  0.10458967677E+02  0.21023873587E+03 -0.18210292599E+04  0.18331550074E+04  0.00000000000E+00 0. -1.
          1    1    1    2  503    0 -0.31112515222E+02 -0.12480260814E+02  0.21381154370E+04  0.21383782096E+04  0.00000000000E+00 0. -1.
<mgrwt>
<rscale>  0 0.83733924E+02</rscale>
<asrwt>0</asrwt>
<pdfrwt beam="1">  1        2 0.35351631E+00 0.33522314E+02</pdfrwt>
<pdfrwt beam="2">  1        2 0.33518142E+00 0.20915532E+03</pdfrwt>
<totfact> 0.64905126E+00</totfact>
</mgrwt>
</event>
<event>
13    1  0.1942437E-008  0.2045387E+03  0.7546771E-02  0.1429920E+00
         -1   -1    0    0    0  501 -0.00000000000E+00  0.00000000000E+00  0.73535146374E+03  0.73535146374E+03  0.00000000000E+00 0.  1.
          2   -1    0    0  503    0  0.00000000000E+00 -0.00000000000E+00 -0.37438508048E+03  0.37438508048E+03  0.00000000000E+00 0. -1.
         24    2    1    2    0    0 -0.12333453195E+03  0.43457762013E+02  0.35393332643E+02  0.15783108121E+03  0.80981345698E+02 0.  0.
         24    2    1    2    0    0  0.12381715602E+02  0.15681641752E+02  0.39543368223E+02  0.92279045914E+02  0.80947659479E+02 0.  0.
         25    2    1    2    0    0 -0.14113334455E+02  0.11815818223E+03 -0.63444879962E+02  0.18392672558E+03  0.12507296012E+03 0.  0.
        -13    1    4    4    0    0  0.34517155118E+02 -0.20724951190E+02  0.14133704009E+02  0.42669886199E+02  0.00000000000E+00 0.  1.
         14    1    4    4    0    0 -0.22135439516E+02  0.36406592941E+02  0.25409664214E+02  0.49609159715E+02  0.00000000000E+00 0. -1.
        -13    1    3    3    0    0  0.73071075010E+01  0.19679136721E+02  0.37404575049E+01  0.21322599852E+02  0.00000000000E+00 0.  1.
         14    1    3    3    0    0 -0.13064163945E+03  0.23778625292E+02  0.31652875138E+02  0.13650848136E+03  0.00000000000E+00 0. -1.
          5    1    5    5  502    0 -0.22877151686E+02  0.99660911528E+02  0.14336573263E+02  0.10335999559E+03  0.47000000000E+01 0.  1.
         -5    1    5    5    0  502  0.87638172313E+01  0.18497270697E+02 -0.77781453225E+02  0.80566729991E+02  0.47000000000E+01 0.  1.
          1    1    1    2  503    0 -0.13710537695E+02 -0.53354767314E+00 -0.13812415406E+03  0.13880398212E+03  0.00000000000E+00 0. -1.
         -2    1    1    2    0  501  0.13877668850E+03 -0.17676403832E+03  0.48759871641E+03  0.53689570939E+03  0.00000000000E+00 0.  1.
<mgrwt>
<rscale>  0 0.52976015E+02</rscale>
<asrwt>0</asrwt>
<pdfrwt beam="2">  1        2 0.55056630E-01 0.13720915E+02</pdfrwt>
<pdfrwt beam="1">  1       -1 0.10813992E+00 0.20453870E+03</pdfrwt>
<totfact> 0.87641902E+01</totfact>
</mgrwt>
</event>
<event>
13    1  0.1942437E-008  0.1233637E+03  0.7546771E-02  0.1277856E+00
          2   -1    0    0  503    0  0.00000000000E+00  0.00000000000E+00  0.31103810662E+04  0.31103810662E+04  0.00000000000E+00 0. -1.
          2   -1    0    0  502    0 -0.00000000000E+00 -0.00000000000E+00 -0.30838667982E+03  0.30838667982E+03  0.00000000000E+00 0. -1.
         24    2    1    2    0    0 -0.62437325171E+01  0.26632460142E+02  0.15890324703E+03  0.17987416986E+03  0.79725798438E+02 0.  0.
         24    2    1    2    0    0  0.39891147079E+03 -0.19815570949E+03  0.79796831004E+03  0.91758661157E+03  0.82557368972E+02 0.  0.
         25    2    1    2    0    0 -0.56785813392E+03  0.21323565327E+03  0.13828325432E+04  0.15151838654E+04  0.12499599730E+03 0.  0.
        -11    1    3    3    0    0 -0.18070265882E+02  0.51922764712E+02  0.89121442766E+02  0.10471456234E+03  0.00000000000E+00 0.  1.
         12    1    3    3    0    0  0.11826533365E+02 -0.25290304570E+02  0.69781804268E+02  0.75159607527E+02  0.00000000000E+00 0. -1.
        -11    1    4    4    0    0  0.57899440997E+01 -0.12947876869E+02  0.55584818935E+02  0.57365870203E+02  0.00000000000E+00 0.  1.
         12    1    4    4    0    0  0.39312152669E+03 -0.18520783262E+03  0.74238349110E+03  0.86022074137E+03  0.00000000000E+00 0. -1.
          5    1    5    5  501    0 -0.83405256403E+02  0.24685753984E+02  0.32553207391E+03  0.33698522874E+03  0.47000000000E+01 0.  1.
         -5    1    5    5    0  501 -0.48445287752E+03  0.18854989929E+03  0.10573004692E+04  0.11781986366E+04  0.47000000000E+01 0.  1.
          1    1    1    2  502    0  0.76931101368E+02  0.31069373124E+02 -0.15555266495E+03  0.17629614822E+03  0.00000000000E+00 0. -1.
          1    1    1    2  503    0  0.98259294283E+02 -0.72781777046E+02  0.61784295109E+03  0.62982695099E+03  0.00000000000E+00 0. -1.
<mgrwt>
<rscale>  0 0.10116938E+03</rscale>
<asrwt>0</asrwt>
<pdfrwt beam="1">  1        2 0.45740896E+00 0.12336365E+03</pdfrwt>
<pdfrwt beam="2">  1        2 0.45350984E-01 0.82968068E+02</pdfrwt>
<totfact> 0.41901062E+01</totfact>
</mgrwt>
</event>
<event>
13    1  0.1942437E-008  0.3502128E+02  0.7546771E-02  0.1569309E+00
          2   -1    0    0  503    0  0.00000000000E+00  0.00000000000E+00  0.34228249485E+04  0.34228249485E+04  0.00000000000E+00 0. -1.
          2   -1    0    0  502    0 -0.00000000000E+00 -0.00000000000E+00 -0.10142971645E+04  0.10142971645E+04  0.00000000000E+00 0. -1.
         24    2    1    2    0    0 -0.29929939704E+03 -0.17211537325E+03 -0.42045839108E+03  0.55124679416E+03  0.88791546140E+02 0.  0.
         24    2    1    2    0    0  0.38862980616E+03 -0.12893809468E+02  0.10856991596E+04  0.11573141652E+04  0.97128962561E+02 0.  0.
         25    2    1    2    0    0 -0.79122552162E+02  0.13030095400E+03  0.33563672065E+03  0.38924804618E+03  0.12499326514E+03 0.  0.
        -11    1    3    3    0    0 -0.15684822198E+03 -0.98146069565E+02 -0.15658809914E+03  0.24239193159E+03  0.00000000000E+00 0.  1.
         12    1    3    3    0    0 -0.14245117506E+03 -0.73969303684E+02 -0.26387029194E+03  0.30885486257E+03  0.00000000000E+00 0. -1.
        -13    1    4    4    0    0  0.22945328859E+03  0.23165066560E+02  0.52671293682E+03  0.57498865186E+03  0.00000000000E+00 0.  1.
         14    1    4    4    0    0  0.15917651757E+03 -0.36058876028E+02  0.55898622274E+03  0.58232551336E+03  0.00000000000E+00 0. -1.
          5    1    5    5  501    0 -0.56700052796E+02  0.21517079234E+01  0.51764200019E+02  0.76948997639E+02  0.47000000000E+01 0. -1.
         -5    1    5    5    0  501 -0.22422499366E+02  0.12814924608E+03  0.28387252063E+03  0.31229904854E+03  0.47000000000E+01 0. -1.
          1    1    1    2  502    0 -0.22671977070E+02  0.26684754955E+02 -0.46504764633E+03  0.46636402954E+03  0.00000000000E+00 0. -1.
          1    1    1    2  503    0  0.12464120106E+02  0.28023473761E+02  0.18726979412E+04  0.18729490779E+04  0.00000000000E+00 0. -1.
<mgrwt>
<rscale>  0 0.32773683E+02</rscale>
<asrwt>0</asrwt>
<pdfrwt beam="1">  1        2 0.50335661E+00 0.30670334E+02</pdfrwt>
<pdfrwt beam="2">  1        2 0.14916135E+00 0.35021279E+02</pdfrwt>
<totfact> 0.10003681E+01</totfact>
</mgrwt>
</event>
<event>
13    1  0.1942437E-008  0.2591057E+02  0.7546771E-02  0.1741640E+00
          4   -1    0    0  503    0 -0.00000000000E+00  0.00000000000E+00  0.68316185782E+03  0.68316185782E+03  0.00000000000E+00 0. -1.
          2   -1    0    0  502    0  0.00000000000E+00 -0.00000000000E+00 -0.19561530488E+04  0.19561530488E+04  0.00000000000E+00 0. -1.
         24    2    1    2    0    0  0.20085535413E+02 -0.44487861537E+02  0.18978569995E+03  0.21156700774E+03  0.79745772940E+02 0.  0.
         24    2    1    2    0    0 -0.93098483834E+02 -0.74238087089E+02  0.16385655840E+03  0.21798771876E+03  0.80567068519E+02 0.  0.
         25    2    1    2    0    0  0.70161938530E+02  0.10334117852E+03 -0.48976228322E+03  0.52066718064E+03  0.12500048852E+03 0.  0.
        -13    1    3    3    0    0 -0.84448084726E+01 -0.57789603967E+02  0.14906361597E+03  0.16009657936E+03  0.00000000000E+00 0.  1.
         14    1    3    3    0    0  0.28530343886E+02  0.13301742430E+02  0.40722083971E+02  0.51470428372E+02  0.00000000000E+00 0. -1.
        -13    1    4    4    0    0 -0.59686537737E+02 -0.77328835218E+02  0.15511874725E+03  0.18331409463E+03  0.00000000000E+00 0.  1.
         14    1    4    4    0    0 -0.33411946097E+02  0.30907481296E+01  0.87378111540E+01  0.34673624122E+02  0.00000000000E+00 0. -1.
          5    1    5    5  501    0  0.42877206764E+02  0.12945748210E+03 -0.41353151315E+03  0.43546308328E+03  0.47000000000E+01 0.  1.
         -5    1    5    5    0  501  0.27284731765E+02 -0.26116303589E+02 -0.76230770074E+02  0.85204097359E+02  0.47000000000E+01 0.  1.
          1    1    1    2  502    0  0.13345626437E+02 -0.83212525069E+01 -0.14123296508E+04  0.14124172158E+04  0.00000000000E+00 0. -1.
          3    1    1    2  503    0 -0.10494616546E+02  0.23706022618E+02  0.27545848469E+03  0.27667578367E+03  0.00000000000E+00 0. -1.
<mgrwt>
<rscale>  0 0.20186732E+02</rscale>
<asrwt>0</asrwt>
<pdfrwt beam="2">  1        2 0.28766956E+00 0.15727333E+02</pdfrwt>
<pdfrwt beam="1">  1        4 0.10046498E+00 0.25910571E+02</pdfrwt>
<totfact> 0.46896722E+00</totfact>
</mgrwt>
</event>
<event>
13    1  0.1942437E-008  0.3472021E+02  0.7546771E-02  0.1708574E+00
          2   -1    0    0  502    0  0.00000000000E+00  0.00000000000E+00  0.18992895856E+04  0.18992895856E+04  0.00000000000E+00 0. -1.
          2   -1    0    0  503    0 -0.00000000000E+00 -0.00000000000E+00 -0.19203996149E+04  0.19203996149E+04  0.00000000000E+00 0. -1.
         24    2    1    2    0    0 -0.27314336377E+03 -0.87924926144E+02  0.60326292891E+02  0.30373535329E+03  0.79232653711E+02 0.  0.
         24    2    1    2    0    0  0.19224196448E+03  0.14203772853E+01  0.57290019773E+02  0.21594187972E+03  0.79935966072E+02 0.  0.
         25    2    1    2    0    0  0.10355914759E+03  0.10717378151E+03  0.17557716039E+03  0.26203711283E+03  0.12500157101E+03 0.  0.
        -11    1    3    3    0    0 -0.15879499055E+03 -0.32628157117E+02  0.69511578431E+02  0.17638680562E+03  0.00000000000E+00 0.  1.
         12    1    3    3    0    0 -0.11434837322E+03 -0.55296769027E+02 -0.91852855402E+01  0.12734854767E+03  0.00000000000E+00 0. -1.
        -13    1    4    4    0    0  0.16925082832E+03  0.29098391964E+02  0.52881080620E+02  0.17969131306E+03  0.00000000000E+00 0.  1.
         14    1    4    4    0    0  0.22991136158E+02 -0.27678014679E+02  0.44089391529E+01  0.36250566656E+02  0.00000000000E+00 0. -1.
          5    1    5    5  501    0  0.46854882108E+02 -0.63408967413E+01  0.10846465346E+03  0.11841561552E+03  0.47000000000E+01 0. -1.
         -5    1    5    5    0  501  0.56704265483E+02  0.11351467825E+03  0.67112506938E+02  0.14362149731E+03  0.47000000000E+01 0. -1.
          1    1    1    2  502    0  0.10205867787E+02 -0.94608002554E+01  0.13616202903E+04  0.13616914046E+04  0.00000000000E+00 0. -1.
          1    1    1    2  503    0 -0.32863616085E+02 -0.11208432398E+02 -0.16759237926E+04  0.16762834500E+04  0.00000000000E+00 0. -1.
<mgrwt>
<rscale>  0 0.21981371E+02</rscale>
<asrwt>0</asrwt>
<pdfrwt beam="1">  1        2 0.27930729E+00 0.13916410E+02</pdfrwt>
<pdfrwt beam="2">  1        2 0.28241171E+00 0.34720207E+02</pdfrwt>
<totfact> 0.22257618E+01</totfact>
</mgrwt>
</event>
<event>
13    1  0.1942437E-008  0.1016849E+03  0.7546771E-02  0.1364096E+00
          2   -1    0    0  502    0  0.00000000000E+00  0.00000000000E+00  0.94500067686E+03  0.94500067686E+03  0.00000000000E+00 0. -1.
          2   -1    0    0  503    0 -0.00000000000E+00 -0.00000000000E+00 -0.30939134742E+04  0.30939134742E+04  0.00000000000E+00 0. -1.
         24    2    1    2    0    0 -0.24230385400E+02  0.50862054725E+02 -0.50120564952E+03  0.51083333696E+03  0.81052667124E+02 0.  0.
         24    2    1    2    0    0 -0.32798338203E+02 -0.45939636622E+02  0.35409960269E+02  0.10545418184E+03  0.81734558052E+02 0.  0.
         25    2    1    2    0    0 -0.17727961025E+02  0.16451214025E+03  0.17735914928E+03  0.27287147639E+03  0.12499619954E+03 0.  0.
        -13    1    3    3    0    0 -0.21830983018E+02  0.52836090341E+02 -0.16517848793E+03  0.17479181085E+03  0.00000000000E+00 0.  1.
         14    1    3    3    0    0 -0.23994023822E+01 -0.19740356157E+01 -0.33602716159E+03  0.33604152612E+03  0.00000000000E+00 0. -1.
        -13    1    4    4    0    0  0.15734762587E+02  0.72190513496E+01 -0.10339651472E+02  0.20164469956E+02  0.00000000000E+00 0.  1.
         14    1    4    4    0    0 -0.48533100790E+02 -0.53158687972E+02  0.45749611741E+02  0.85289711886E+02  0.00000000000E+00 0. -1.
          5    1    5    5  501    0  0.18893121579E+02  0.10447888486E+03  0.31451178464E+02  0.11083345186E+03  0.47000000000E+01 0.  1.
         -5    1    5    5    0  501 -0.36621082603E+02  0.60033255393E+02  0.14590797082E+03  0.16203802453E+03  0.47000000000E+01 0.  1.
          1    1    1    2  502    0  0.43355771940E+02 -0.17080254742E+02  0.64137850178E+03  0.64306907919E+03  0.00000000000E+00 0. -1.
          1    1    1    2  503    0  0.31400912688E+02 -0.15235430362E+03 -0.25018547591E+04  0.25066860766E+04  0.00000000000E+00 0. -1.
<mgrwt>
<rscale>  0 0.68836088E+02</rscale>
<asrwt>0</asrwt>
<pdfrwt beam="1">  1        2 0.13897069E+00 0.46598906E+02</pdfrwt>
<pdfrwt beam="2">  1        2 0.45498726E+00 0.10168494E+03</pdfrwt>
<totfact> 0.13098764E+01</totfact>
</mgrwt>
</event>
<event>
13    1  0.1942437E-008  0.1961484E+03  0.7546771E-02  0.1358120E+00
          2   -1    0    0  502    0  0.00000000000E+00  0.00000000000E+00  0.18168843587E+04  0.18168843587E+04  0.00000000000E+00 0. -1.
          2   -1    0    0  503    0 -0.00000000000E+00 -0.00000000000E+00 -0.13891170576E+04  0.13891170576E+04  0.00000000000E+00 0. -1.
         24    2    1    2    0    0 -0.10092164518E+03 -0.80845941715E+02 -0.10602219928E+03  0.18600549347E+03  0.81462212735E+02 0.  0.
         24    2    1    2    0    0  0.15328314841E+03 -0.20429929627E+02  0.15912608227E+03  0.23692444681E+03  0.83060085639E+02 0.  0.
         25    2    1    2    0    0  0.10052439796E+03 -0.10937935760E+03  0.95083430991E+03  0.97045344978E+03  0.12500005932E+03 0.  0.
        -11    1    3    3    0    0  0.81000575216E+01  0.60737485046E+01 -0.19332466471E+02  0.21823052321E+02  0.00000000000E+00 0.  1.
         12    1    3    3    0    0 -0.10902170270E+03 -0.86919690219E+02 -0.86689732814E+02  0.16418244115E+03  0.00000000000E+00 0. -1.
        -13    1    4    4    0    0  0.38329430037E-01 -0.43653914124E+01 -0.83051768184E+01  0.93826474576E+01  0.00000000000E+00 0.  1.
         14    1    4    4    0    0  0.15324481898E+03 -0.16064538214E+02  0.16743125909E+03  0.22754179935E+03  0.00000000000E+00 0. -1.
          5    1    5    5  501    0  0.10531126650E+03 -0.26455435582E+02  0.61044129567E+03  0.62004114250E+03  0.47000000000E+01 0.  1.
         -5    1    5    5    0  501 -0.47868685465E+01 -0.82923922017E+02  0.34039301424E+03  0.35041230728E+03  0.47000000000E+01 0.  1.
          1    1    1    2  502    0 -0.20835883683E+02  0.14525476516E+02  0.60625370444E+03  0.60678552855E+03  0.00000000000E+00 0. -1.
          1    1    1    2  503    0 -0.13205001751E+03  0.19612975242E+03 -0.11824245962E+04  0.12058324978E+04  0.00000000000E+00 0. -1.
<mgrwt>
<rscale>  0 0.70583492E+02</rscale>
<asrwt>0</asrwt>
<pdfrwt beam="1">  1        2 0.26718888E+00 0.25399282E+02</pdfrwt>
<pdfrwt beam="2">  1        2 0.20428192E+00 0.19614844E+03</pdfrwt>
<totfact> 0.34931508E+01</totfact>
</mgrwt>
</event>
<event>
13    1  0.1942437E-008  0.3444802E+02  0.7546771E-02  0.1632374E+00
          2   -1    0    0  502    0  0.00000000000E+00  0.00000000000E+00  0.13696994910E+04  0.13696994910E+04  0.00000000000E+00 0. -1.
          4   -1    0    0  503    0 -0.00000000000E+00 -0.00000000000E+00 -0.10713057903E+04  0.10713057903E+04  0.00000000000E+00 0. -1.
         24    2    1    2    0    0  0.24331819491E+03  0.24086232005E+03 -0.77500610405E+03  0.85119943212E+03  0.81777813306E+02 0.  0.
         24    2    1    2    0    0 -0.29707195085E+03 -0.17253692562E+03  0.77602727015E+02  0.35688249538E+03  0.57638507821E+02 0.  0.
         25    2    1    2    0    0  0.28561290695E+02 -0.52769086695E+02  0.27056103653E+02  0.14126466421E+03  0.12499339492E+03 0.  0.
        -13    1    3    3    0    0  0.16854529864E+03  0.11104307617E+03 -0.42587497334E+03  0.47128290376E+03  0.00000000000E+00 0.  1.
         14    1    3    3    0    0  0.74772896269E+02  0.12981924387E+03 -0.34913113070E+03  0.37991652836E+03  0.00000000000E+00 0. -1.
        -13    1    4    4    0    0 -0.19024794152E+03 -0.13501466010E+03  0.34943792834E+02  0.23589045414E+03  0.00000000000E+00 0.  1.
         14    1    4    4    0    0 -0.10682400933E+03 -0.37522265520E+02  0.42658934181E+02  0.12099204124E+03  0.00000000000E+00 0. -1.
          5    1    5    5  501    0  0.73396966750E+02 -0.31740390409E+02 -0.78605529067E+01  0.80488790545E+02  0.47000000000E+01 0.  1.
         -5    1    5    5    0  501 -0.44835676055E+02 -0.21028696286E+02  0.34916656560E+02  0.60775873668E+02  0.47000000000E+01 0.  1.
          1    1    1    2  502    0  0.11967518032E+02 -0.32305777599E+02  0.10280499109E+04  0.10286269995E+04  0.00000000000E+00 0. -1.
          3    1    1    2  503    0  0.13224947216E+02  0.16749469864E+02 -0.59308936862E+02  0.63031690135E+02  0.00000000000E+00 0. -1.
<mgrwt>
<rscale>  0 0.27113830E+02</rscale>
<asrwt>0</asrwt>
<pdfrwt beam="1">  1        2 0.20142640E+00 0.34448020E+02</pdfrwt>
<pdfrwt beam="2">  1        4 0.15754497E+00 0.21341133E+02</pdfrwt>
<totfact> 0.27721032E+00</totfact>
</mgrwt>
</event>
<event>
13    1  0.3562804E-008  0.2472628E+02  0.7546771E-02  0.1739351E+00
          2   -1    0    0  502    0  0.00000000000E+00  0.00000000000E+00  0.42373156342E+04  0.42373156342E+04  0.00000000000E+00 0. -1.
          2   -1    0    0  503    0 -0.00000000000E+00 -0.00000000000E+00 -0.24498953802E+04  0.24498953802E+04  0.00000000000E+00 0. -1.
         24    2    1    2    0    0  0.28321557916E+03 -0.11317684210E+04 -0.40146367207E+03  0.12365817917E+04  0.82768499209E+02 0.  0.
         24    2    1    2    0    0 -0.79824197742E+03  0.14591605892E+04  0.88478667556E+03  0.18864118721E+04  0.96759549344E+02 0.  0.
         25    2    1    2    0    0  0.48319023250E+03 -0.34266835151E+03  0.11391700565E+04  0.12900496949E+04  0.12500159129E+03 0.  0.
        -11    1    3    3    0    0  0.10244666175E+03 -0.26748824662E+03 -0.10772502720E+03  0.30602281298E+03  0.00000000000E+00 0.  1.
         12    1    3    3    0    0  0.18076891741E+03 -0.86428017440E+03 -0.29373864488E+03  0.93055897871E+03  0.00000000000E+00 0. -1.
        -11    1    4    4    0    0 -0.16571864002E+03  0.38822370967E+03  0.23519149227E+03  0.48321357021E+03  0.00000000000E+00 0.  1.
         12    1    4    4    0    0 -0.63252333740E+03  0.10709368796E+04  0.64959518329E+03  0.14031983019E+04  0.00000000000E+00 0. -1.
          5    1    5    5  501    0  0.22773225541E+03 -0.14846353012E+03  0.65481765060E+03  0.70902161142E+03  0.47000000000E+01 0. -1.
         -5    1    5    5    0  501  0.25545797708E+03 -0.19420482139E+03  0.48435240590E+03  0.58102808349E+03  0.47000000000E+01 0. -1.
          1    1    1    2  502    0  0.16212710873E+02 -0.38883522438E+01  0.12193455008E+04  0.12194594792E+04  0.00000000000E+00 0. -1.
          1    1    1    2  503    0  0.15623454884E+02  0.19164535522E+02 -0.10544183068E+04  0.10547081764E+04  0.00000000000E+00 0. -1.
<mgrwt>
<rscale>  0 0.20303896E+02</rscale>
<asrwt>0</asrwt>
<pdfrwt beam="1">  1        2 0.62313466E+00 0.16672471E+02</pdfrwt>
<pdfrwt beam="2">  1        2 0.36027873E+00 0.24726280E+02</pdfrwt>
<totfact> 0.83237798E-01</totfact>
</mgrwt>
</event>
<event>
13    1  0.1942437E-008  0.1401139E+03  0.7546771E-02  0.1323059E+00
          2   -1    0    0  503    0  0.00000000000E+00  0.00000000000E+00  0.18987714263E+04  0.18987714263E+04  0.00000000000E+00 0. -1.
          2   -1    0    0  502    0 -0.00000000000E+00 -0.00000000000E+00 -0.19872320597E+04  0.19872320597E+04  0.00000000000E+00 0. -1.
         24    2    1    2    0    0 -0.32702778177E+02 -0.97264733233E+02 -0.48759624419E+03  0.50478229863E+03  0.80778534469E+02 0.  0.
         24    2    1    2    0    0 -0.10463829472E+02  0.80572361054E+02 -0.16909966012E+03  0.20467883742E+03  0.81837242997E+02 0.  0.
         25    2    1    2    0    0  0.36907955138E+02 -0.86903938005E+02  0.54248029980E+03  0.56464491254E+03  0.12499803998E+03 0.  0.
        -11    1    3    3    0    0 -0.49120872463E+02 -0.86693129031E+02 -0.29874135997E+03  0.31492055964E+03  0.00000000000E+00 0.  1.
         12    1    3    3    0    0  0.16418094286E+02 -0.10571604202E+02 -0.18885488422E+03  0.18986173898E+03  0.00000000000E+00 0. -1.
        -11    1    4    4    0    0  0.35804025692E+02  0.33635639221E+02 -0.65129416024E+02  0.81578951410E+02  0.00000000000E+00 0.  1.
         12    1    4    4    0    0 -0.46267855164E+02  0.46936721833E+02 -0.10397024410E+03  0.12309988601E+03  0.00000000000E+00 0. -1.
          5    1    5    5  501    0  0.71733977471E+02 -0.20543476266E+02  0.18846567018E+03  0.20275403024E+03  0.47000000000E+01 0.  1.
         -5    1    5    5    0  501 -0.34826022332E+02 -0.66360461739E+02  0.35401462962E+03  0.36189088231E+03  0.47000000000E+01 0.  1.
          1    1    1    2  502    0 -0.41679699174E+02  0.10826280979E+03 -0.12900277665E+04  0.12952334429E+04  0.00000000000E+00 0. -1.
          1    1    1    2  503    0  0.47938351684E+02 -0.46664996116E+01  0.13157827376E+04  0.13166639945E+04  0.00000000000E+00 0. -1.
<mgrwt>
<rscale>  0 0.82149716E+02</rscale>
<asrwt>0</asrwt>
<pdfrwt beam="1">  1        2 0.27923109E+00 0.48164943E+02</pdfrwt>
<pdfrwt beam="2">  1        2 0.29224001E+00 0.14011385E+03</pdfrwt>
<totfact> 0.15456349E+01</totfact>
</mgrwt>
</event>
<event>
13    1  0.1942437E-008  0.1140629E+03  0.7546771E-02  0.1357258E+00
          2   -1    0    0  503    0  0.00000000000E+00  0.00000000000E+00  0.15535522775E+04  0.15535522775E+04  0.00000000000E+00 0. -1.
          2   -1    0    0  502    0 -0.00000000000E+00 -0.00000000000E+00 -0.11096411221E+04  0.11096411221E+04  0.00000000000E+00 0. -1.
         24    2    1    2    0    0 -0.52171220542E+02 -0.39524271885E+02 -0.19499339301E+03  0.22078481629E+03  0.80246541781E+02 0.  0.
         24    2    1    2    0    0 -0.63264771574E+02 -0.38577167161E+02 -0.91301573714E+02  0.14632872048E+03  0.87094706641E+02 0.  0.
         25    2    1    2    0    0 -0.64344596481E+01  0.94603736467E+02  0.88761954229E+03  0.90137922658E+03  0.12499915618E+03 0.  0.
        -13    1    4    4    0    0 -0.80638741233E+02 -0.44176882172E+02 -0.88937524242E+02  0.12792219012E+03  0.00000000000E+00 0.  1.
         14    1    4    4    0    0  0.17373969659E+02  0.55997150110E+01 -0.23640494713E+01  0.18406530358E+02  0.00000000000E+00 0. -1.
        -13    1    3    3    0    0 -0.70130969765E+02 -0.46444912687E+02 -0.15322753491E+03  0.17479748365E+03  0.00000000000E+00 0.  1.
         14    1    3    3    0    0  0.17959749223E+02  0.69206408017E+01 -0.41765858091E+02  0.45987332640E+02  0.00000000000E+00 0. -1.
          5    1    5    5  501    0 -0.40377965158E+01  0.18593460447E+02  0.67897448834E+03  0.67925729027E+03  0.47000000000E+01 0. -1.
         -5    1    5    5    0  501 -0.23966631323E+01  0.76010276020E+02  0.20864505395E+03  0.22212193632E+03  0.47000000000E+01 0. -1.
          1    1    1    2  502    0  0.16488055550E+03 -0.72373871714E+01 -0.76648006586E+03  0.78404698119E+03  0.00000000000E+00 0. -1.
          1    1    1    2  503    0 -0.43010103732E+02 -0.92649102493E+01  0.60906664566E+03  0.61065365506E+03  0.00000000000E+00 0. -1.
<mgrwt>
<rscale>  0 0.70840586E+02</rscale>
<asrwt>0</asrwt>
<pdfrwt beam="1">  1        2 0.22846357E+00 0.43996677E+02</pdfrwt>
<pdfrwt beam="2">  1        2 0.16318252E+00 0.11406290E+03</pdfrwt>
<totfact> 0.63611675E+01</totfact>
</mgrwt>
</event>
<event>
13    1  0.1942437E-008  0.9338078E+02  0.7546771E-02  0.1475239E+00
          2   -1    0    0  503    0  0.00000000000E+00  0.00000000000E+00  0.43013170282E+04  0.43013170282E+04  0.00000000000E+00 0. -1.
          2   -1    0    0  502    0 -0.00000000000E+00 -0.00000000000E+00 -0.11709017812E+04  0.11709017812E+04  0.00000000000E+00 0. -1.
         24    2    1    2    0    0  0.26624317080E+02  0.23712236784E+02 -0.24244372213E+03  0.25760611044E+03  0.79440703074E+02 0.  0.
         24    2    1    2    0    0 -0.37596179831E+02 -0.35626712176E+02 -0.35516562765E+02  0.10360173489E+03  0.82396346297E+02 0.  0.
         25    2    1    2    0    0  0.97187619088E+02 -0.66666673875E+02  0.19292490550E+04  0.19368833466E+04  0.12500121360E+03 0.  0.
        -11    1    4    4    0    0 -0.50103742544E+01 -0.57464260421E+02 -0.25803072559E+02  0.63190534334E+02  0.00000000000E+00 0.  1.
         12    1    4    4    0    0 -0.32585805577E+02  0.21837548245E+02 -0.97134902060E+01  0.40411200556E+02  0.00000000000E+00 0. -1.
        -11    1    3    3    0    0  0.39085785957E+02  0.30067124129E+02 -0.76132851729E+02  0.90708002567E+02  0.00000000000E+00 0.  1.
         12    1    3    3    0    0 -0.12461468877E+02 -0.63548873448E+01 -0.16631087040E+03  0.16689810788E+03  0.00000000000E+00 0. -1.
          5    1    5    5  501    0  0.12274562023E+01  0.21690363982E+02  0.79914483765E+02  0.82948135927E+02  0.47000000000E+01 0.  1.
         -5    1    5    5    0  501  0.95960162886E+02 -0.88357037857E+02  0.18493345712E+04  0.18539352107E+04  0.47000000000E+01 0.  1.
          1    1    1    2  502    0 -0.66978575030E+02  0.68874473982E+02 -0.84472780309E+03  0.85017344347E+03  0.00000000000E+00 0. -1.
          1    1    1    2  503    0 -0.19237181307E+02  0.97066752853E+01  0.23238542800E+04  0.23239541741E+04  0.00000000000E+00 0. -1.
<mgrwt>
<rscale>  0 0.44856541E+02</rscale>
<asrwt>0</asrwt>
<pdfrwt beam="1">  1        2 0.63254662E+00 0.21547359E+02</pdfrwt>
<pdfrwt beam="2">  1        2 0.17219144E+00 0.93380782E+02</pdfrwt>
<totfact> 0.24661549E+00</totfact>
</mgrwt>
</event>
<event>
13    1  0.1942437E-008  0.2588299E+03  0.7546771E-02  0.1376684E+00
          2   -1    0    0  503    0  0.00000000000E+00  0.00000000000E+00  0.24385617184E+04  0.24385617184E+04  0.00000000000E+00 0. -1.
         -1   -1    0    0    0  501 -0.00000000000E+00 -0.00000000000E+00 -0.11306543343E+04  0.11306543343E+04  0.00000000000E+00 0.  1.
         24    2    1    2    0    0  0.33585689453E+02 -0.27580371260E+02 -0.59565449789E+03  0.60270576614E+03  0.81001754712E+02 0.  0.
         24    2    1    2    0    0 -0.70924650693E+02  0.11993648161E+02  0.17798292769E+03  0.20762075404E+03  0.79084140550E+02 0.  0.
         25    2    1    2    0    0 -0.22324053475E+03 -0.70503699132E+01  0.47886350023E+03  0.54297496482E+03  0.12500206597E+03 0.  0.
        -13    1    4    4    0    0 -0.10421021958E+02 -0.28185664377E+02  0.28445553224E+02  0.41378483216E+02  0.00000000000E+00 0.  1.
         14    1    4    4    0    0 -0.60503628736E+02  0.40179312538E+02  0.14953737447E+03  0.16624227082E+03  0.00000000000E+00 0. -1.
        -13    1    3    3    0    0  0.48347496680E+02 -0.11545437127E+02 -0.18772285835E+03  0.19419229928E+03  0.00000000000E+00 0.  1.
         14    1    3    3    0    0 -0.14761807227E+02 -0.16034934134E+02 -0.40793163955E+03  0.40851346686E+03  0.00000000000E+00 0. -1.
          5    1    5    5  502    0 -0.23632611324E+03  0.29942550606E+01  0.42341952266E+03  0.48493832550E+03  0.47000000000E+01 0.  1.
         -5    1    5    5    0  502  0.13085578494E+02 -0.10044624974E+02  0.55443977564E+02  0.58036639319E+02  0.47000000000E+01 0.  1.
          1    1    1    2  503    0  0.26831774610E+03  0.37205961585E+02  0.17205747997E+04  0.17417681642E+04  0.00000000000E+00 0. -1.
         -2    1    1    2    0  501 -0.77382501161E+01 -0.14568868573E+02 -0.47385934565E+03  0.47414640345E+03  0.00000000000E+00 0.  1.
<mgrwt>
<rscale>  0 0.65343487E+02</rscale>
<asrwt>0</asrwt>
<pdfrwt beam="1">  1        2 0.35861202E+00 0.25882990E+03</pdfrwt>
<pdfrwt beam="2">  1       -1 0.16627270E+00 0.16496437E+02</pdfrwt>
<totfact> 0.20395112E+00</totfact>
</mgrwt>
</event>
<event>
13    1  0.1942437E-008  0.8078113E+02  0.7546771E-02  0.1495633E+00
          2   -1    0    0  503    0  0.00000000000E+00  0.00000000000E+00  0.16645992191E+04  0.16645992191E+04  0.00000000000E+00 0. -1.
          2   -1    0    0  502    0 -0.00000000000E+00 -0.00000000000E+00 -0.22409867345E+04  0.22409867345E+04  0.00000000000E+00 0. -1.
         24    2    1    2    0    0  0.45429095912E+03  0.14827829834E+03 -0.49311348519E+03  0.69026853430E+03  0.70306549329E+02 0.  0.
         24    2    1    2    0    0 -0.62056800368E+03 -0.56261862293E+03 -0.47060901264E+03  0.96414760173E+03  0.80395230387E+02 0.  0.
         25    2    1    2    0    0  0.24192588953E+03  0.45072024038E+03  0.12951762664E+03  0.54229153049E+03  0.12501366851E+03 0.  0.
        -13    1    3    3    0    0  0.29922784938E+03  0.63354182981E+02 -0.32531028840E+03  0.44651746000E+03  0.00000000000E+00 0.  1.
         14    1    3    3    0    0  0.15506310974E+03  0.84924115363E+02 -0.16780319679E+03  0.24375107431E+03  0.00000000000E+00 0. -1.
        -13    1    4    4    0    0 -0.53510454301E+03 -0.50040567285E+03 -0.38213176151E+03  0.82629739956E+03  0.00000000000E+00 0.  1.
         14    1    4    4    0    0 -0.85463460676E+02 -0.62212950079E+02 -0.88477251136E+02  0.13785020216E+03  0.00000000000E+00 0. -1.
          5    1    5    5  501    0  0.90975587612E+02  0.21239587080E+03  0.11900876670E+03  0.25994949515E+03  0.47000000000E+01 0. -1.
         -5    1    5    5    0  501  0.15095030192E+03  0.23832436958E+03  0.10508859942E+02  0.28234203534E+03  0.47000000000E+01 0. -1.
          1    1    1    2  502    0 -0.61347511834E+02 -0.52553678992E+02 -0.72316282784E+03  0.72766055407E+03  0.00000000000E+00 0. -1.
          1    1    1    2  503    0 -0.14301333131E+02  0.16173763204E+02  0.98098018363E+03  0.98121773294E+03  0.00000000000E+00 0. -1.
<mgrwt>
<rscale>  0 0.41761791E+02</rscale>
<asrwt>0</asrwt>
<pdfrwt beam="1">  1        2 0.24479400E+00 0.21589783E+02</pdfrwt>
<pdfrwt beam="2">  1        2 0.32955687E+00 0.80781133E+02</pdfrwt>
<totfact> 0.17188099E+01</totfact>
</mgrwt>
</event>
<event>
13    1  0.1942437E-008  0.1046634E+03  0.7546771E-02  0.1544239E+00
          2   -1    0    0  503    0  0.00000000000E+00  0.00000000000E+00  0.23615472696E+04  0.23615472696E+04  0.00000000000E+00 0. -1.
          2   -1    0    0  502    0 -0.00000000000E+00 -0.00000000000E+00 -0.17824050239E+04  0.17824050239E+04  0.00000000000E+00 0. -1.
         24    2    1    2    0    0 -0.16444642805E+02 -0.14175745739E+02 -0.45752647044E+03  0.46621630557E+03  0.86924072546E+02 0.  0.
         24    2    1    2    0    0  0.16530474930E+02 -0.10318924581E+03 -0.35146812428E+02  0.13390159306E+03  0.75980662988E+02 0.  0.
         25    2    1    2    0    0  0.27977035265E+00 -0.18085809505E+02  0.10029107076E+04  0.10108325468E+04  0.12500150193E+03 0.  0.
        -11    1    4    4    0    0  0.22818482687E+02 -0.11415906259E+03 -0.33561697049E+02  0.12115841792E+03  0.00000000000E+00 0.  1.
         12    1    4    4    0    0 -0.62880077570E+01  0.10969816785E+02 -0.15851153795E+01  0.12743175139E+02  0.00000000000E+00 0. -1.
        -11    1    3    3    0    0  0.34084174058E+02 -0.16608769692E+02 -0.16088819550E+03  0.16529547363E+03  0.00000000000E+00 0.  1.
         12    1    3    3    0    0 -0.50528816862E+02  0.24330239526E+01 -0.29663827494E+03  0.30092083194E+03  0.00000000000E+00 0. -1.
          5    1    5    5  501    0 -0.25089217707E+02  0.30724800018E+02  0.12587778457E+03  0.13206357874E+03  0.47000000000E+01 0.  1.
         -5    1    5    5    0  501  0.25368988060E+02 -0.48810609524E+02  0.87703292298E+03  0.87876896801E+03  0.47000000000E+01 0.  1.
          1    1    1    2  502    0  0.11672641017E+02  0.13542228072E+03 -0.12282715713E+04  0.12357695973E+04  0.00000000000E+00 0. -1.
          1    1    1    2  503    0 -0.12038243495E+02  0.28520332241E-01  0.12971763922E+04  0.12972322509E+04  0.00000000000E+00 0. -1.
<mgrwt>
<rscale>  0 0.35496014E+02</rscale>
<asrwt>0</asrwt>
<pdfrwt beam="1">  1        2 0.34728636E+00 0.12038277E+02</pdfrwt>
<pdfrwt beam="2">  1        2 0.26211839E+00 0.10466340E+03</pdfrwt>
<totfact> 0.14941195E+01</totfact>
</mgrwt>
</event>
<event>
13    1  0.1942437E-008  0.2114525E+02  0.7546771E-02  0.1724161E+00
          2   -1    0    0  502    0  0.00000000000E+00  0.00000000000E+00  0.14369478427E+04  0.14369478427E+04  0.00000000000E+00 0. -1.
          2   -1    0    0  503    0 -0.00000000000E+00 -0.00000000000E+00 -0.17393440889E+04  0.17393440889E+04  0.00000000000E+00 0. -1.
         24    2    1    2    0    0  0.74396317567E+02  0.27899750945E+01 -0.58169180178E+03  0.59145244532E+03  0.76863819771E+02 0.  0.
         24    2    1    2    0    0 -0.32095321623E+01 -0.88681648610E+02 -0.21402397092E+03  0.24521259448E+03  0.80300812347E+02 0.  0.
         25    2    1    2    0    0 -0.10892775016E+03  0.10205666645E+03  0.18778830675E+03  0.27049965319E+03  0.12499918519E+03 0.  0.
        -11    1    4    4    0    0  0.25402001599E+02 -0.19891057089E+02 -0.12514746388E+03  0.12923932665E+03  0.00000000000E+00 0.  1.
         12    1    4    4    0    0 -0.28611533762E+02 -0.68790591521E+02 -0.88876507039E+02  0.11597326782E+03  0.00000000000E+00 0. -1.
        -13    1    3    3    0    0 -0.15773457311E+02  0.44508595211E+01 -0.71831270710E+02  0.73677293367E+02  0.00000000000E+00 0.  1.
         14    1    3    3    0    0  0.90169774878E+02 -0.16608844266E+01 -0.50986053107E+03  0.51777515195E+03  0.00000000000E+00 0. -1.
          5    1    5    5  501    0 -0.92212905018E+02  0.13108156074E+03  0.14711979833E+03  0.21760496428E+03  0.47000000000E+01 0.  1.
         -5    1    5    5    0  501 -0.16714845143E+02 -0.29024894295E+02  0.40668508427E+02  0.52894688908E+02  0.47000000000E+01 0.  1.
          1    1    1    2  502    0  0.16973894579E+02 -0.12606405985E+02  0.11871092190E+04  0.11872974911E+04  0.00000000000E+00 0. -1.
          1    1    1    2  503    0  0.20767070177E+02 -0.35585869483E+01 -0.88157799925E+03  0.88182974746E+03  0.00000000000E+00 0. -1.
<mgrwt>
<rscale>  0 0.21107473E+02</rscale>
<asrwt>0</asrwt>
<pdfrwt beam="1">  1        2 0.21131586E+00 0.21145255E+02</pdfrwt>
<pdfrwt beam="2">  1        2 0.25578589E+00 0.21069759E+02</pdfrwt>
<totfact> 0.43294780E+01</totfact>
</mgrwt>
</event>
<event>
13    1  0.1942437E-008  0.1062836E+03  0.7546771E-02  0.1372834E+00
          2   -1    0    0  502    0  0.00000000000E+00  0.00000000000E+00  0.20905400981E+04  0.20905400981E+04  0.00000000000E+00 0. -1.
          2   -1    0    0  503    0 -0.00000000000E+00 -0.00000000000E+00 -0.27454683898E+04  0.27454683898E+04  0.00000000000E+00 0. -1.
         24    2    1    2    0    0 -0.82645877458E+02  0.72353858663E+02 -0.68044787602E+03  0.69371139663E+03  0.78490559315E+02 0.  0.
         24    2    1    2    0    0  0.68229178368E+02 -0.12109576687E+03  0.12426438670E+03  0.20227178058E+03  0.78439976309E+02 0.  0.
         25    2    1    2    0    0  0.14442583033E+03  0.10497929807E+03  0.70095708078E+03  0.73406090823E+03  0.12500045767E+03 0.  0.
        -13    1    4    4    0    0 -0.15057394912E+02 -0.36947668798E+02  0.20579419006E+02  0.44892848626E+02  0.00000000000E+00 0.  1.
         14    1    4    4    0    0  0.83286573280E+02 -0.84148098069E+02  0.10368496770E+03  0.15737893196E+03  0.00000000000E+00 0. -1.
        -13    1    3    3    0    0 -0.37042289046E+02 -0.11307991591E+02 -0.23683649356E+03  0.23998234629E+03  0.00000000000E+00 0.  1.
         14    1    3    3    0    0 -0.45603588412E+02  0.83661850255E+02 -0.44361138247E+03  0.45372905034E+03  0.00000000000E+00 0. -1.
          5    1    5    5  501    0  0.59423283812E+02  0.36021657455E+02  0.50309147747E+03  0.50788956592E+03  0.47000000000E+01 0. -1.
         -5    1    5    5    0  501  0.85002546517E+02  0.68957640612E+02  0.19786560331E+03  0.22617134232E+03  0.47000000000E+01 0. -1.
          1    1    1    2  502    0 -0.26631404324E+02 -0.31782184785E+02  0.12013646948E+04  0.12020800592E+04  0.00000000000E+00 0. -1.
          1    1    1    2  503    0 -0.10337772691E+03 -0.24455205078E+02 -0.20010665779E+04  0.20038843432E+04  0.00000000000E+00 0. -1.
<mgrwt>
<rscale>  0 0.66385548E+02</rscale>
<asrwt>0</asrwt>
<pdfrwt beam="1">  1        2 0.30743237E+00 0.41464912E+02</pdfrwt>
<pdfrwt beam="2">  1        2 0.40374535E+00 0.10628362E+03</pdfrwt>
<totfact> 0.55618065E+00</totfact>
</mgrwt>
</event>
<event>
13    1  0.1942437E-008  0.6414497E+02  0.7546771E-02  0.1448704E+00
          2   -1    0    0  503    0  0.00000000000E+00  0.00000000000E+00  0.14005510623E+04  0.14005510623E+04  0.00000000000E+00 0. -1.
          2   -1    0    0  502    0 -0.00000000000E+00 -0.00000000000E+00 -0.73398133597E+03  0.73398133597E+03  0.00000000000E+00 0. -1.
         24    2    1    2    0    0 -0.54765462766E+02 -0.89067261664E+02 -0.89629916962E+02  0.15609489683E+03  0.73483751874E+02 0.  0.
         24    2    1    2    0    0  0.15127351354E+03  0.22450237349E+03  0.54606203178E+02  0.28870608185E+03  0.84168715504E+02 0.  0.
         25    2    1    2    0    0 -0.56186543681E+02 -0.16027022385E+03  0.54678127514E+03  0.58603875047E+03  0.12501272679E+03 0.  0.
        -11    1    3    3    0    0 -0.12238434252E+02 -0.29394925806E+02  0.91261935022E+01  0.33122927768E+02  0.00000000000E+00 0.  1.
         12    1    3    3    0    0 -0.42527028514E+02 -0.59672335858E+02 -0.98756110464E+02  0.12297196906E+03  0.00000000000E+00 0. -1.
        -13    1    4    4    0    0  0.97711386164E+02  0.17898345606E+03  0.72067604141E+02  0.21627836715E+03  0.00000000000E+00 0.  1.
         14    1    4    4    0    0  0.53562127381E+02  0.45518917425E+02 -0.17461400963E+02  0.72427714700E+02  0.00000000000E+00 0. -1.
          5    1    5    5  501    0  0.36128880781E+02 -0.27772355801E+02  0.81295610859E+02  0.93314876189E+02  0.47000000000E+01 0. -1.
         -5    1    5    5    0  501 -0.92315424462E+02 -0.13249786805E+03  0.46548566428E+03  0.49272387428E+03  0.47000000000E+01 0. -1.
          1    1    1    2  502    0 -0.64031960756E+02 -0.48816674481E+01 -0.47168836891E+03  0.47603974628E+03  0.00000000000E+00 0. -1.
          1    1    1    2  503    0  0.23710453659E+02  0.29716779478E+02  0.62650053385E+03  0.62765292281E+03  0.00000000000E+00 0. -1.
<mgrwt>
<rscale>  0 0.49382007E+02</rscale>
<asrwt>0</asrwt>
<pdfrwt beam="1">  1        2 0.20596339E+00 0.38016741E+02</pdfrwt>
<pdfrwt beam="2">  1        2 0.10793843E+00 0.64144967E+02</pdfrwt>
<totfact> 0.13139222E+02</totfact>
</mgrwt>
</event>
<event>
13    1  0.1942437E-008  0.1230854E+03  0.7546771E-02  0.1274302E+00
          2   -1    0    0  503    0  0.00000000000E+00  0.00000000000E+00  0.74852304876E+03  0.74852304876E+03  0.00000000000E+00 0. -1.
         -1   -1    0    0    0  501 -0.00000000000E+00 -0.00000000000E+00 -0.70305859109E+03  0.70305859109E+03  0.00000000000E+00 0.  1.
         24    2    1    2    0    0  0.27242394988E+01  0.39415649804E+02 -0.15955058296E+02  0.88533394975E+02  0.77605304008E+02 0.  0.
         24    2    1    2    0    0  0.13172183921E+03 -0.20816330635E+02 -0.17201548077E+03  0.23244382695E+03  0.81589487786E+02 0.  0.
         25    2    1    2    0    0 -0.10088404274E+03 -0.47346721615E+02  0.99941359628E+01  0.16776276221E+03  0.12500063801E+03 0.  0.
        -13    1    3    3    0    0 -0.34698550906E+02  0.45549350346E+01 -0.12891599336E+00  0.34996478216E+02  0.00000000000E+00 0.  1.
         14    1    3    3    0    0  0.37422790405E+02  0.34860714769E+02 -0.15826142303E+02  0.53536916759E+02  0.00000000000E+00 0. -1.
        -13    1    4    4    0    0  0.43514395996E+02 -0.30186846618E+02 -0.11604324417E+03  0.12755697898E+03  0.00000000000E+00 0.  1.
         14    1    4    4    0    0  0.88207443211E+02  0.93705159829E+01 -0.55972236592E+02  0.10488684797E+03  0.00000000000E+00 0. -1.
          5    1    5    5  502    0  0.13345051030E+02  0.26694062421E+02  0.91001186260E+01  0.31552583326E+02  0.47000000000E+01 0. -1.
         -5    1    5    5    0  502 -0.11422909377E+03 -0.74040784035E+02  0.89401733688E+00  0.13621017888E+03  0.47000000000E+01 0. -1.
          1    1    1    2  503    0 -0.52083875805E+02  0.11276447298E+03  0.58148624105E+03  0.59460474688E+03  0.00000000000E+00 0. -1.
         -2    1    1    2    0  501  0.18521839839E+02 -0.84017070534E+02 -0.35804538028E+03  0.36823690884E+03  0.00000000000E+00 0.  1.
<mgrwt>
<rscale>  0 0.10290570E+03</rscale>
<asrwt>0</asrwt>
<pdfrwt beam="1">  1        2 0.11007692E+00 0.12308537E+03</pdfrwt>
<pdfrwt beam="2">  1       -1 0.10339097E+00 0.86034451E+02</pdfrwt>
<totfact> 0.47511573E+01</totfact>
</mgrwt>
</event>
<event>
13    1  0.1942437E-008  0.8220236E+02  0.7546771E-02  0.1347911E+00
          2   -1    0    0  502    0  0.00000000000E+00  0.00000000000E+00  0.89351506465E+03  0.89351506465E+03  0.00000000000E+00 0. -1.
          2   -1    0    0  503    0 -0.00000000000E+00 -0.00000000000E+00 -0.14074832033E+04  0.14074832033E+04  0.00000000000E+00 0. -1.
         24    2    1    2    0    0 -0.15418651740E+00 -0.12936795916E+02 -0.36152196403E+02  0.85569597991E+02  0.76470846298E+02 0.  0.
         24    2    1    2    0    0  0.22063247596E+01 -0.22943271147E+02 -0.40331157280E+02  0.90987440357E+02  0.78235864508E+02 0.  0.
         25    2    1    2    0    0 -0.17700228076E+02  0.30955286495E+02  0.27509079893E+03  0.30425460795E+03  0.12499756386E+03 0.  0.
        -13    1    3    3    0    0 -0.23010298131E+02  0.18612748957E+02 -0.36009007818E+02  0.46610694994E+02  0.00000000000E+00 0.  1.
         14    1    3    3    0    0  0.22856111614E+02 -0.31549544873E+02 -0.14318858583E+00  0.38958902997E+02  0.00000000000E+00 0. -1.
        -13    1    4    4    0    0 -0.37230754881E+02 -0.29665769353E+01 -0.18039388517E+02  0.41477092784E+02  0.00000000000E+00 0.  1.
         14    1    4    4    0    0  0.39437079641E+02 -0.19976694212E+02 -0.22291768762E+02  0.49510347573E+02  0.00000000000E+00 0. -1.
          5    1    5    5  501    0  0.43412869716E+02  0.42982572765E+02  0.18294858505E+03  0.19293639779E+03  0.47000000000E+01 0. -1.
         -5    1    5    5    0  501 -0.61113097792E+02 -0.12027286270E+02  0.92142213874E+02  0.11131821017E+03  0.47000000000E+01 0. -1.
          1    1    1    2  502    0 -0.62972562907E+02 -0.20078815553E+02  0.55048281677E+03  0.55443668176E+03  0.00000000000E+00 0. -1.
          1    1    1    2  503    0  0.78620652741E+02  0.25003596121E+02 -0.12630584007E+04  0.12657499399E+04  0.00000000000E+00 0. -1.
<mgrwt>
<rscale>  0 0.73710654E+02</rscale>
<asrwt>0</asrwt>
<pdfrwt beam="1">  1        2 0.13139927E+00 0.66096161E+02</pdfrwt>
<pdfrwt beam="2">  1        2 0.20698282E+00 0.82202362E+02</pdfrwt>
<totfact> 0.97217459E+01</totfact>
</mgrwt>
</event>
<event>
13    1  0.1942437E-008  0.2922366E+03  0.7546771E-02  0.1172612E+00
          2   -1    0    0  503    0  0.00000000000E+00  0.00000000000E+00  0.12287405483E+04  0.12287405483E+04  0.00000000000E+00 0. -1.
          2   -1    0    0  502    0 -0.00000000000E+00 -0.00000000000E+00 -0.23221267089E+04  0.23221267089E+04  0.00000000000E+00 0. -1.
         24    2    1    2    0    0 -0.26344036566E+03  0.19659808525E+03 -0.13376236209E+04  0.13798350411E+04  0.81585270131E+02 0.  0.
         24    2    1    2    0    0  0.31254320429E+02  0.16035248662E+02  0.10191352095E+03  0.13347013205E+03  0.78701643264E+02 0.  0.
         25    2    1    2    0    0 -0.17776138879E+02  0.26850013681E+02  0.11161247730E+03  0.17064177034E+03  0.12499741736E+03 0.  0.
        -11    1    3    3    0    0 -0.40426932429E+02  0.67952156107E+02 -0.25267887210E+03  0.26476110891E+03  0.00000000000E+00 0.  1.
         12    1    3    3    0    0 -0.22301343323E+03  0.12864592914E+03 -0.10849447488E+04  0.11150739322E+04  0.00000000000E+00 0. -1.
        -11    1    4    4    0    0 -0.19787312634E+02  0.22348984989E+02  0.17438413670E+02  0.34570408483E+02  0.00000000000E+00 0.  1.
         12    1    4    4    0    0  0.51041633063E+02 -0.63137363270E+01  0.84475107280E+02  0.98899723570E+02  0.00000000000E+00 0. -1.
          5    1    5    5  501    0 -0.34982245823E+02  0.60017000709E+02  0.21331268404E+02  0.72821088351E+02  0.47000000000E+01 0. -1.
         -5    1    5    5    0  501  0.17206106944E+02 -0.33166987028E+02  0.90281208899E+02  0.97820681990E+02  0.47000000000E+01 0. -1.
          1    1    1    2  502    0  0.14841013464E+03 -0.22171604130E+03 -0.89580152382E+03  0.93468922167E+03  0.00000000000E+00 0. -1.
          1    1    1    2  503    0  0.10155204947E+03 -0.17767306292E+02  0.92651298581E+03  0.93223109195E+03  0.00000000000E+00 0. -1.
<mgrwt>
<rscale>  0 0.17511880E+03</rscale>
<asrwt>0</asrwt>
<pdfrwt beam="1">  1        2 0.18069714E+00 0.10493757E+03</pdfrwt>
<pdfrwt beam="2">  1        2 0.34148921E+00 0.29223658E+03</pdfrwt>
<totfact> 0.19353245E+01</totfact>
</mgrwt>
</event>
<event>
13    1  0.1942437E-008  0.2918168E+03  0.7546771E-02  0.1318325E+00
          2   -1    0    0  502    0  0.00000000000E+00  0.00000000000E+00  0.11336781315E+04  0.11336781315E+04  0.00000000000E+00 0. -1.
          2   -1    0    0  503    0 -0.00000000000E+00 -0.00000000000E+00 -0.12314400739E+04  0.12314400739E+04  0.00000000000E+00 0. -1.
         24    2    1    2    0    0 -0.16944318120E+02  0.24447700355E+03 -0.12035423948E+03  0.28537800936E+03  0.83062326520E+02 0.  0.
         24    2    1    2    0    0 -0.26146880306E+00 -0.50110410158E+03 -0.63137918481E+03  0.81342184796E+03  0.10913312395E+03 0.  0.
         25    2    1    2    0    0  0.30150280443E+03  0.24273187937E+03  0.19676794103E+03  0.45184572744E+03  0.12499692974E+03 0.  0.
        -11    1    3    3    0    0  0.30311286225E+02  0.11721176132E+03 -0.74173987951E+02  0.14198292697E+03  0.00000000000E+00 0.  1.
         12    1    3    3    0    0 -0.47255604344E+02  0.12726524223E+03 -0.46180251528E+02  0.14339508239E+03  0.00000000000E+00 0. -1.
        -13    1    4    4    0    0 -0.81322283214E+01 -0.97871028176E+01  0.77848771637E+00  0.12748590595E+02  0.00000000000E+00 0.  1.
         14    1    4    4    0    0  0.78707595184E+01 -0.49131699876E+03 -0.63215767253E+03  0.80067325737E+03  0.00000000000E+00 0. -1.
          5    1    5    5  501    0  0.12763481004E+03  0.76320707171E+02  0.13684712943E+02  0.14941504759E+03  0.47000000000E+01 0.  1.
         -5    1    5    5    0  501  0.17386799438E+03  0.16641117220E+03  0.18308322809E+03  0.30243067985E+03  0.47000000000E+01 0.  1.
          1    1    1    2  502    0 -0.28764786114E+03  0.37785377172E+02  0.60169219302E+03  0.66798392337E+03  0.00000000000E+00 0. -1.
          1    1    1    2  503    0  0.33508436398E+01 -0.23890158513E+02 -0.14448865211E+03  0.14648869723E+03  0.00000000000E+00 0. -1.
<mgrwt>
<rscale>  0 0.83903466E+02</rscale>
<asrwt>0</asrwt>
<pdfrwt beam="1">  1        2 0.16671737E+00 0.29181682E+03</pdfrwt>
<pdfrwt beam="2">  1        2 0.18109413E+00 0.24124009E+02</pdfrwt>
<totfact> 0.87528251E+01</totfact>
</mgrwt>
</event>
<event>
13    1  0.1942437E-008  0.2538336E+03  0.7546771E-02  0.1277352E+00
         -3   -1    0    0    0  502 -0.00000000000E+00  0.00000000000E+00  0.47335442113E+03  0.47335442113E+03  0.00000000000E+00 0.  1.
         -1   -1    0    0    0  501  0.00000000000E+00 -0.00000000000E+00 -0.21512365673E+04  0.21512365673E+04  0.00000000000E+00 0.  1.
         24    2    1    2    0    0 -0.16640801768E+03 -0.29711120429E+03 -0.38690329390E+02  0.35084466159E+03  0.75022256137E+02 0.  0.
         24    2    1    2    0    0 -0.15086722114E+03  0.15384253827E+03 -0.22026947535E+03  0.31854337595E+03  0.80763826045E+02 0.  0.
         25    2    1    2    0    0  0.79398368226E+02  0.52985581789E+02 -0.37999007698E+03  0.41125590769E+03  0.12500956066E+03 0.  0.
        -11    1    3    3    0    0 -0.11035044865E+03 -0.15500819402E+03  0.99275370407E+01  0.19053429540E+03  0.00000000000E+00 0.  1.
         12    1    3    3    0    0 -0.56057569033E+02 -0.14210301027E+03 -0.48617866431E+02  0.16031036619E+03  0.00000000000E+00 0. -1.
        -13    1    4    4    0    0 -0.25791456410E+02  0.77801422332E+02 -0.60617621738E+02  0.10194487042E+03  0.00000000000E+00 0.  1.
         14    1    4    4    0    0 -0.12507576473E+03  0.76041115936E+02 -0.15965185361E+03  0.21659850553E+03  0.00000000000E+00 0. -1.
          5    1    5    5  503    0  0.63203503374E+02 -0.28908178366E+02 -0.12759053476E+03  0.14536780997E+03  0.47000000000E+01 0. -1.
         -5    1    5    5    0  503  0.16194864852E+02  0.81893760154E+02 -0.25239954221E+03  0.26588809772E+03  0.47000000000E+01 0. -1.
         -2    1    1    2    0  501  0.29890464255E+02 -0.27353602799E+02 -0.12345030174E+04  0.12351677454E+04  0.00000000000E+00 0.  1.
         -4    1    1    2    0  502  0.20798640634E+03  0.11763668703E+03  0.19557075289E+03  0.30877929779E+03  0.00000000000E+00 0.  1.
<mgrwt>
<rscale>  0 0.10141340E+03</rscale>
<asrwt>0</asrwt>
<pdfrwt beam="2">  1       -1 0.31635832E+00 0.40517397E+02</pdfrwt>
<pdfrwt beam="1">  1       -3 0.69610944E-01 0.25383363E+03</pdfrwt>
<totfact> 0.36371590E-01</totfact>
</mgrwt>
</event>
<event>
13    1  0.1942437E-008  0.5625661E+02  0.7546771E-02  0.1535612E+00
          2   -1    0    0  502    0  0.00000000000E+00  0.00000000000E+00  0.15381678669E+04  0.15381678669E+04  0.00000000000E+00 0. -1.
          2   -1    0    0  503    0 -0.00000000000E+00 -0.00000000000E+00 -0.16962233814E+04  0.16962233814E+04  0.00000000000E+00 0. -1.
         24    2    1    2    0    0 -0.62163277195E+02  0.16007269831E+01 -0.11505299093E+04  0.11550348792E+04  0.80744439764E+02 0.  0.
         24    2    1    2    0    0  0.97510656430E+01  0.88802616182E+01 -0.15356818952E+03  0.17561911567E+03  0.84172101239E+02 0.  0.
         25    2    1    2    0    0  0.11915651880E+02  0.50184181178E+02  0.10306406455E+04  0.10394740058E+04  0.12500253486E+03 0.  0.
        -11    1    3    3    0    0  0.85527495085E+01 -0.24579300965E+02 -0.34696060271E+03  0.34793526897E+03  0.00000000000E+00 0.  1.
         12    1    3    3    0    0 -0.70716026703E+02  0.26180027948E+02 -0.80356930660E+03  0.80709961021E+03  0.00000000000E+00 0. -1.
        -13    1    4    4    0    0 -0.14828744371E+02  0.34639720996E+02 -0.12316383168E+03  0.12879880188E+03  0.00000000000E+00 0.  1.
         14    1    4    4    0    0  0.24579810014E+02 -0.25759459378E+02 -0.30404357840E+02  0.46820313790E+02  0.00000000000E+00 0. -1.
          5    1    5    5  501    0  0.28610144672E+02 -0.83384485758E+00  0.53569634772E+02  0.60918235734E+02  0.47000000000E+01 0.  1.
         -5    1    5    5    0  501 -0.16694492792E+02  0.51018026035E+02  0.97707101076E+03  0.97855577007E+03  0.47000000000E+01 0.  1.
          1    1    1    2  502    0  0.22507689376E+02 -0.73923679045E+01  0.48743235070E+03  0.48800772504E+03  0.00000000000E+00 0. -1.
          1    1    1    2  503    0  0.17988870296E+02 -0.53272801874E+02 -0.37203041189E+03  0.37625552254E+03  0.00000000000E+00 0. -1.
<mgrwt>
<rscale>  0 0.36506864E+02</rscale>
<asrwt>0</asrwt>
<pdfrwt beam="1">  1        2 0.22620116E+00 0.23690572E+02</pdfrwt>
<pdfrwt beam="2">  1        2 0.24944462E+00 0.56256606E+02</pdfrwt>
<totfact> 0.36538500E+01</totfact>
</mgrwt>
</event>
<event>
13    1  0.1942437E-008  0.9344888E+02  0.7546771E-02  0.1515841E+00
         -3   -1    0    0    0  501 -0.00000000000E+00  0.00000000000E+00  0.45377502005E+03  0.45377502005E+03  0.00000000000E+00 0.  1.
          2   -1    0    0  503    0  0.00000000000E+00 -0.00000000000E+00 -0.19085079758E+04  0.19085079758E+04  0.00000000000E+00 0. -1.
         24    2    1    2    0    0 -0.11976406225E+03  0.31734655898E+02  0.79630291346E+02  0.16739649952E+03  0.79561836080E+02 0.  0.
         24    2    1    2    0    0  0.32633474951E+02 -0.13088419664E+02 -0.69946110872E+02  0.11054681782E+03  0.78050561100E+02 0.  0.
         25    2    1    2    0    0 -0.10518948698E+02 -0.84837970914E+01 -0.67697223133E+03  0.68854773548E+03  0.12499583570E+03 0.  0.
        -11    1    4    4    0    0 -0.19356802033E+02 -0.83427651195E+01 -0.50697938940E+02  0.54905086536E+02  0.00000000000E+00 0.  1.
         12    1    4    4    0    0  0.51990276984E+02 -0.47456545445E+01 -0.19248171932E+02  0.55641731287E+02  0.00000000000E+00 0. -1.
        -13    1    3    3    0    0 -0.87758139694E+02  0.51431316353E+02  0.80634302467E+02  0.12980201123E+03  0.00000000000E+00 0.  1.
         14    1    3    3    0    0 -0.32005922552E+02 -0.19696660455E+02 -0.10040111215E+01  0.37594488290E+02  0.00000000000E+00 0. -1.
          5    1    5    5  502    0  0.19238877164E+02 -0.16104753669E+02 -0.63887061711E+03  0.63938036637E+03  0.47000000000E+01 0. -1.
         -5    1    5    5    0  502 -0.29757825862E+02  0.76209565777E+01 -0.38101614220E+02  0.49167369112E+02  0.47000000000E+01 0. -1.
          1    1    1    2  503    0  0.78351624704E+01  0.14248989747E+02 -0.10844363064E+04  0.10845582171E+04  0.00000000000E+00 0. -1.
         -4    1    1    2    0  501  0.89814373522E+02 -0.24411428890E+02  0.29699140158E+03  0.31123372594E+03  0.00000000000E+00 0.  1.
<mgrwt>
<rscale>  0 0.38981814E+02</rscale>
<asrwt>0</asrwt>
<pdfrwt beam="2">  1        2 0.28066294E+00 0.16261103E+02</pdfrwt>
<pdfrwt beam="1">  1       -3 0.66731620E-01 0.93448877E+02</pdfrwt>
<totfact> 0.16472242E+01</totfact>
</mgrwt>
</event>
<event>
13    1  0.1942437E-008  0.1479189E+03  0.7546771E-02  0.1300794E+00
          2   -1    0    0  502    0  0.00000000000E+00  0.00000000000E+00  0.17032492660E+04  0.17032492660E+04  0.00000000000E+00 0. -1.
          2   -1    0    0  503    0 -0.00000000000E+00 -0.00000000000E+00 -0.29331270762E+04  0.29331270762E+04  0.00000000000E+00 0. -1.
         24    2    1    2    0    0  0.49453349983E+02  0.15032375557E+02 -0.29687029659E+02  0.99824346790E+02  0.80074804668E+02 0.  0.
         24    2    1    2    0    0  0.21217826242E+02  0.10401586788E+02  0.74347023455E+02  0.11191953940E+03  0.80250322393E+02 0.  0.
         25    2    1    2    0    0 -0.10655567353E+03  0.17276733002E+03  0.39121997882E+03  0.45812596462E+03  0.12499466287E+03 0.  0.
        -11    1    4    4    0    0 -0.24471194535E+02 -0.17031895806E+02  0.20662005854E+02  0.36274554754E+02  0.00000000000E+00 0.  1.
         12    1    4    4    0    0  0.45689020777E+02  0.27433482594E+02  0.53685017601E+02  0.75644984642E+02  0.00000000000E+00 0. -1.
        -13    1    3    3    0    0  0.36860528034E+02  0.46699833257E+02 -0.27864309988E+02  0.65696215448E+02  0.00000000000E+00 0.  1.
         14    1    3    3    0    0  0.12592821949E+02 -0.31667457700E+02 -0.18227196717E+01  0.34128131341E+02  0.00000000000E+00 0. -1.
          5    1    5    5  501    0 -0.83107830609E+02  0.19031975666E+03  0.35498845439E+03  0.41129966452E+03  0.47000000000E+01 0. -1.
         -5    1    5    5    0  501 -0.23447842924E+02 -0.17552426639E+02  0.36231524435E+02  0.46826300105E+02  0.47000000000E+01 0. -1.
          1    1    1    2  502    0 -0.30560297549E+01 -0.55721765312E+02  0.11477591866E+04  0.11491150530E+04  0.00000000000E+00 0. -1.
          1    1    1    2  503    0  0.38940527063E+02 -0.14247952705E+03 -0.28135169695E+04  0.28173914385E+04  0.00000000000E+00 0. -1.
<mgrwt>
<rscale>  0 0.90855316E+02</rscale>
<asrwt>0</asrwt>
<pdfrwt beam="1">  1        2 0.25047783E+00 0.55805506E+02</pdfrwt>
<pdfrwt beam="2">  1        2 0.43134221E+00 0.14791889E+03</pdfrwt>
<totfact> 0.62007965E+00</totfact>
</mgrwt>
</event>
<event>
13    1  0.1942437E-008  0.5032471E+02  0.7546771E-02  0.1478315E+00
          2   -1    0    0  503    0  0.00000000000E+00  0.00000000000E+00  0.13079725162E+04  0.13079725162E+04  0.00000000000E+00 0. -1.
          2   -1    0    0  502    0 -0.00000000000E+00 -0.00000000000E+00 -0.44147713958E+03  0.44147713958E+03  0.00000000000E+00 0. -1.
         24    2    1    2    0    0 -0.83619665526E+02 -0.11991773932E+03 -0.14335124590E+03  0.21971294854E+03  0.79697474176E+02 0.  0.
         24    2    1    2    0    0 -0.60282849397E+02  0.11169691409E+03  0.34236118577E+02  0.15359030276E+03  0.79420694655E+02 0.  0.
         25    2    1    2    0    0  0.12939725750E+03  0.37576332850E+02  0.66141542498E+03  0.68647739489E+03  0.12500087301E+03 0.  0.
        -13    1    3    3    0    0  0.20210347048E+01 -0.63460408032E+02 -0.47158402601E+02  0.79089967156E+02  0.00000000000E+00 0.  1.
         14    1    3    3    0    0 -0.85640700231E+02 -0.56457331288E+02 -0.96192843296E+02  0.14062298138E+03  0.00000000000E+00 0. -1.
        -13    1    4    4    0    0 -0.40185872501E+02  0.11409003613E+03  0.46879039541E+02  0.12972696343E+03  0.00000000000E+00 0.  1.
         14    1    4    4    0    0 -0.20096976896E+02 -0.23931220438E+01 -0.12642920965E+02  0.23863339331E+02  0.00000000000E+00 0. -1.
          5    1    5    5  501    0 -0.11692953840E+02  0.26778866562E+02  0.43936072127E+02  0.52974534428E+02  0.47000000000E+01 0.  1.
         -5    1    5    5    0  501  0.14109021134E+03  0.10797466289E+02  0.61747935285E+03  0.63350286046E+03  0.47000000000E+01 0.  1.
          1    1    1    2  502    0 -0.20945216525E+02 -0.45896340747E+02 -0.18356634337E+03  0.19037273599E+03  0.00000000000E+00 0. -1.
          1    1    1    2  503    0  0.35450473949E+02  0.16540833131E+02  0.49776142231E+03  0.49929627357E+03  0.00000000000E+00 0. -1.
<mgrwt>
<rscale>  0 0.44369779E+02</rscale>
<asrwt>0</asrwt>
<pdfrwt beam="1">  1        2 0.19234890E+00 0.39119500E+02</pdfrwt>
<pdfrwt beam="2">  1        2 0.64923109E-01 0.50324706E+02</pdfrwt>
<totfact> 0.25254687E+02</totfact>
</mgrwt>
</event>
<event>
13    1  0.1942437E-008  0.1876559E+03  0.7546771E-02  0.1180553E+00
          2   -1    0    0  503    0  0.00000000000E+00  0.00000000000E+00  0.25784033834E+04  0.25784033834E+04  0.00000000000E+00 0. -1.
          2   -1    0    0  502    0 -0.00000000000E+00 -0.00000000000E+00 -0.13360868254E+04  0.13360868254E+04  0.00000000000E+00 0. -1.
         24    2    1    2    0    0  0.39172476024E+02  0.13169789273E+03 -0.25670729528E+01  0.16733896913E+03  0.95482579031E+02 0.  0.
         24    2    1    2    0    0 -0.98992753622E+02 -0.11049271443E+03  0.39952294790E+03  0.43374099050E+03  0.80650205997E+02 0.  0.
         25    2    1    2    0    0 -0.77364396648E+01  0.25493354569E+03  0.79693252081E+03  0.84603640295E+03  0.12500074869E+03 0.  0.
        -11    1    4    4    0    0 -0.69738533899E+01 -0.56692105851E+02  0.19381189275E+03  0.20205365443E+03  0.00000000000E+00 0.  1.
         12    1    4    4    0    0 -0.92018900232E+02 -0.53800608576E+02  0.20571105515E+03  0.23168733607E+03  0.00000000000E+00 0. -1.
        -11    1    3    3    0    0 -0.23519156419E+02  0.83184660999E+02 -0.12883001321E+02  0.87400287570E+02  0.00000000000E+00 0.  1.
         12    1    3    3    0    0  0.62691632443E+02  0.48513231729E+02  0.10315928368E+02  0.79938681558E+02  0.00000000000E+00 0. -1.
          5    1    5    5  501    0 -0.44778601647E+02  0.11845605174E+03  0.51791037161E+03  0.53318871179E+03  0.47000000000E+01 0. -1.
         -5    1    5    5    0  501  0.37042161982E+02  0.13647749395E+03  0.27902214920E+03  0.31284769116E+03  0.47000000000E+01 0. -1.
          1    1    1    2  502    0  0.12624332454E+03 -0.13876170528E+03 -0.11977104569E+04  0.12123128831E+04  0.00000000000E+00 0. -1.
          1    1    1    2  503    0 -0.58686607279E+02 -0.13737701871E+03  0.12461386192E+04  0.12550609632E+04  0.00000000000E+00 0. -1.
<mgrwt>
<rscale>  0 0.16743182E+03</rscale>
<asrwt>0</asrwt>
<pdfrwt beam="1">  1        2 0.37917697E+00 0.14938729E+03</pdfrwt>
<pdfrwt beam="2">  1        2 0.19648336E+00 0.18765595E+03</pdfrwt>
<totfact> 0.13112193E+01</totfact>
</mgrwt>
</event>
<event>
13    1  0.1942437E-008  0.1020016E+03  0.7546771E-02  0.1277623E+00
          2   -1    0    0  502    0  0.00000000000E+00  0.00000000000E+00  0.71381587532E+03  0.71381587532E+03  0.00000000000E+00 0. -1.
          2   -1    0    0  503    0 -0.00000000000E+00 -0.00000000000E+00 -0.19486628732E+04  0.19486628732E+04  0.00000000000E+00 0. -1.
         24    2    1    2    0    0 -0.56897172421E+01 -0.49784919587E+02 -0.26756838879E+03  0.27885066674E+03  0.60447833375E+02 0.  0.
         24    2    1    2    0    0 -0.16249040052E+02 -0.26947732723E+02 -0.32182262132E+02  0.94097637508E+02  0.82634470937E+02 0.  0.
         25    2    1    2    0    0  0.66450226668E+02  0.87433488747E+02 -0.91493450205E+02  0.18988655184E+03  0.12500241422E+03 0.  0.
        -11    1    4    4    0    0  0.31075110761E+02 -0.23407901045E+02 -0.24625113080E+02  0.46043333224E+02  0.00000000000E+00 0.  1.
         12    1    4    4    0    0 -0.47324150813E+02 -0.35398316775E+01 -0.75571490524E+01  0.48054304284E+02  0.00000000000E+00 0. -1.
        -13    1    3    3    0    0  0.22713880705E+02 -0.42248372754E+02 -0.14174561537E+03  0.14964178847E+03  0.00000000000E+00 0.  1.
         14    1    3    3    0    0 -0.28403597947E+02 -0.75365468323E+01 -0.12582277341E+03  0.12920887827E+03  0.00000000000E+00 0. -1.
          5    1    5    5  501    0  0.62387579220E+00  0.23073487998E+02  0.29517706384E+02  0.37764534415E+02  0.47000000000E+01 0.  1.
         -5    1    5    5    0  501  0.65826350876E+02  0.64360000750E+02 -0.12101115659E+03  0.15212201742E+03  0.47000000000E+01 0.  1.
          1    1    1    2  502    0 -0.88967555275E+02  0.79674870469E+02  0.62059695062E+03  0.63198408682E+03  0.00000000000E+00 0. -1.
          1    1    1    2  503    0  0.44456085901E+02 -0.90375706907E+02 -0.14641998473E+04  0.14676598056E+04  0.00000000000E+00 0. -1.
<mgrwt>
<rscale>  0 0.10128201E+03</rscale>
<asrwt>0</asrwt>
<pdfrwt beam="1">  1        2 0.10497292E+00 0.10200164E+03</pdfrwt>
<pdfrwt beam="2">  1        2 0.28656807E+00 0.10056746E+03</pdfrwt>
<totfact> 0.67203792E+01</totfact>
</mgrwt>
</event>
<event>
13    1  0.4832108E-008  0.2955182E+02  0.7546771E-02  0.1670817E+00
          2   -1    0    0  503    0  0.00000000000E+00  0.00000000000E+00  0.20504120438E+04  0.20504120438E+04  0.00000000000E+00 0. -1.
          2   -1    0    0  502    0 -0.00000000000E+00 -0.00000000000E+00 -0.23163274694E+04  0.23163274694E+04  0.00000000000E+00 0. -1.
         24    2    1    2    0    0 -0.20043579073E+03  0.10619934510E+04 -0.44286468464E+03  0.11727601702E+04  0.10598439398E+03 0.  0.
         24    2    1    2    0    0  0.56873224151E+03 -0.11429744665E+04 -0.20323697902E+03  0.12952851901E+04  0.81310887104E+02 0.  0.
         25    2    1    2    0    0 -0.37798155216E+03  0.10769351008E+03  0.22576563714E+03  0.47017331469E+03  0.12499950817E+03 0.  0.
        -11    1    3    3    0    0 -0.53083198681E+02  0.41137089553E+03 -0.21935557311E+03  0.46921285908E+03  0.00000000000E+00 0.  1.
         12    1    3    3    0    0 -0.14735259205E+03  0.65062255544E+03 -0.22350911153E+03  0.70354731111E+03  0.00000000000E+00 0. -1.
        -13    1    4    4    0    0  0.50399119137E+03 -0.95401474474E+03 -0.18510036609E+03  0.10947206948E+04  0.00000000000E+00 0.  1.
         14    1    4    4    0    0  0.64741050143E+02 -0.18895972180E+03 -0.18136612929E+02  0.20056449527E+03  0.00000000000E+00 0. -1.
          5    1    5    5  501    0 -0.10838250024E+03 -0.13222858824E+02  0.10300336572E+03  0.15017787355E+03  0.47000000000E+01 0.  1.
         -5    1    5    5    0  501 -0.26959905192E+03  0.12091636890E+03  0.12276227142E+03  0.31999544114E+03  0.47000000000E+01 0.  1.
          1    1    1    2  502    0 -0.10321713182E+02 -0.27692950594E+02 -0.63658049242E+03  0.63726616151E+03  0.00000000000E+00 0. -1.
          1    1    1    2  503    0  0.20006814562E+02  0.98045607919E+00  0.79100109333E+03  0.79125467681E+03  0.00000000000E+00 0. -1.
<mgrwt>
<rscale>  0 0.24329968E+02</rscale>
<asrwt>0</asrwt>
<pdfrwt beam="1">  1        2 0.30153118E+00 0.20030824E+02</pdfrwt>
<pdfrwt beam="2">  1        2 0.34063639E+00 0.29551820E+02</pdfrwt>
<totfact> 0.12301019E+01</totfact>
</mgrwt>
</event>
<event>
13    1  0.1942437E-008  0.1440736E+03  0.7546771E-02  0.1311941E+00
          2   -1    0    0  502    0  0.00000000000E+00  0.00000000000E+00  0.20959257300E+04  0.20959257300E+04  0.00000000000E+00 0. -1.
          2   -1    0    0  503    0 -0.00000000000E+00 -0.00000000000E+00 -0.14955721565E+04  0.14955721565E+04  0.00000000000E+00 0. -1.
         24    2    1    2    0    0  0.30683247771E+03  0.81962407077E+02 -0.42216429279E+03  0.53132506087E+03  0.56741736353E+02 0.  0.
         24    2    1    2    0    0 -0.26932602357E+03 -0.19874015941E+03 -0.36427847005E+03  0.50102920136E+03  0.79355522394E+02 0.  0.
         25    2    1    2    0    0 -0.14059634223E+03  0.16174487666E+03  0.19125558697E+03  0.31326141378E+03  0.12500110896E+03 0.  0.
        -11    1    4    4    0    0 -0.20066403969E+03 -0.16006304336E+03 -0.32137756420E+03  0.41130253275E+03  0.00000000000E+00 0.  1.
         12    1    4    4    0    0 -0.68661983883E+02 -0.38677116050E+02 -0.42900905850E+02  0.89726668608E+02  0.00000000000E+00 0. -1.
        -13    1    3    3    0    0  0.11756451280E+03  0.32948355353E+02 -0.11836188866E+03  0.17004865621E+03  0.00000000000E+00 0.  1.
         14    1    3    3    0    0  0.18926796491E+03  0.49014051724E+02 -0.30380240413E+03  0.36127640466E+03  0.00000000000E+00 0. -1.
          5    1    5    5  501    0 -0.14458390560E+03  0.85637053423E+02  0.15529655410E+03  0.22886091933E+03  0.47000000000E+01 0.  1.
         -5    1    5    5    0  501  0.39875633680E+01  0.76107823234E+02  0.35959032861E+02  0.84400494449E+02  0.47000000000E+01 0.  1.
          1    1    1    2  502    0  0.10707824288E+03 -0.96566216411E+02  0.17164061776E+04  0.17224520169E+04  0.00000000000E+00 0. -1.
          1    1    1    2  503    0 -0.39883547828E+01  0.51599092088E+02 -0.52086542814E+03  0.52343019354E+03  0.00000000000E+00 0. -1.
<mgrwt>
<rscale>  0 0.86349539E+02</rscale>
<asrwt>0</asrwt>
<pdfrwt beam="1">  1        2 0.30822437E+00 0.14407363E+03</pdfrwt>
<pdfrwt beam="2">  1        2 0.21993708E+00 0.51753003E+02</pdfrwt>
<totfact> 0.20929020E+01</totfact>
</mgrwt>
</event>
<event>
13    1  0.1942437E-008  0.5982878E+02  0.7546771E-02  0.1538490E+00
          2   -1    0    0  503    0  0.00000000000E+00  0.00000000000E+00  0.29747718998E+04  0.29747718998E+04  0.00000000000E+00 0. -1.
          2   -1    0    0  502    0 -0.00000000000E+00 -0.00000000000E+00 -0.52679443875E+03  0.52679443875E+03  0.00000000000E+00 0. -1.
         24    2    1    2    0    0  0.25834431712E+02  0.51968971091E+02 -0.77255803109E+02  0.12139434636E+03  0.73484259521E+02 0.  0.
         24    2    1    2    0    0 -0.65370898080E+02 -0.40318227497E+02  0.21513542703E+03  0.24067674292E+03  0.75783433769E+02 0.  0.
         25    2    1    2    0    0  0.14007025713E+01  0.68094920901E+01  0.13331872967E+04  0.13390533264E+04  0.12500844661E+03 0.  0.
        -11    1    3    3    0    0  0.50101608064E+02  0.21208683218E+02 -0.42902861000E+02  0.69286613833E+02  0.00000000000E+00 0.  1.
         12    1    3    3    0    0 -0.24267176352E+02  0.30760287873E+02 -0.34352942108E+02  0.52107732532E+02  0.00000000000E+00 0. -1.
        -11    1    4    4    0    0 -0.23259509959E+02 -0.25387649453E+02  0.18615540572E+02  0.39141741135E+02  0.00000000000E+00 0.  1.
         12    1    4    4    0    0 -0.42111388120E+02 -0.14930578044E+02  0.19651988646E+03  0.20153500178E+03  0.00000000000E+00 0. -1.
          5    1    5    5  501    0 -0.52221432734E+02 -0.12166599603E+02  0.34063622201E+03  0.34486262472E+03  0.47000000000E+01 0.  1.
         -5    1    5    5    0  501  0.53622135305E+02  0.18976091693E+02  0.99255107464E+03  0.99419070164E+03  0.47000000000E+01 0.  1.
          1    1    1    2  502    0  0.58782858327E+02 -0.11276568698E+02 -0.40950392843E+03  0.41385511092E+03  0.00000000000E+00 0. -1.
          1    1    1    2  503    0 -0.20647094531E+02 -0.71836669860E+01  0.13864144689E+04  0.13865868119E+04  0.00000000000E+00 0. -1.
<mgrwt>
<rscale>  0 0.36165216E+02</rscale>
<asrwt>0</asrwt>
<pdfrwt beam="1">  1        2 0.43746645E+00 0.21861098E+02</pdfrwt>
<pdfrwt beam="2">  1        2 0.77469772E-01 0.59828783E+02</pdfrwt>
<totfact> 0.37980570E+01</totfact>
</mgrwt>
</event>
<event>
13    1  0.1942437E-008  0.9141689E+02  0.7546771E-02  0.1585946E+00
          2   -1    0    0  503    0  0.00000000000E+00  0.00000000000E+00  0.10417687242E+04  0.10417687242E+04  0.00000000000E+00 0. -1.
          2   -1    0    0  502    0 -0.00000000000E+00 -0.00000000000E+00 -0.13947008404E+04  0.13947008404E+04  0.00000000000E+00 0. -1.
         24    2    1    2    0    0  0.13267759072E+03  0.10409903304E+03 -0.12257133615E+04  0.12396684891E+04  0.77231902436E+02 0.  0.
         24    2    1    2    0    0 -0.32973425720E+02 -0.42845423753E+02 -0.24478840887E+02  0.99851808769E+02  0.80300640863E+02 0.  0.
         25    2    1    2    0    0 -0.24937562698E+02 -0.10674119902E+03  0.12521399940E+02  0.16672638659E+03  0.12500134770E+03 0.  0.
        -11    1    4    4    0    0 -0.39965236149E+02  0.84859581121E+01 -0.25271451983E+02  0.48040377505E+02  0.00000000000E+00 0.  1.
         12    1    4    4    0    0  0.69918104292E+01 -0.51331381865E+02  0.79261109573E+00  0.51811431264E+02  0.00000000000E+00 0. -1.
        -11    1    3    3    0    0  0.18779229921E+02 -0.12154320385E+02 -0.17535802299E+03  0.17677902367E+03  0.00000000000E+00 0.  1.
         12    1    3    3    0    0  0.11389836079E+03  0.11625335343E+03 -0.10503553385E+04  0.10628894655E+04  0.00000000000E+00 0. -1.
          5    1    5    5  501    0 -0.52022911558E+02 -0.10137724760E+03  0.46092743555E+02  0.12300553104E+03  0.47000000000E+01 0. -1.
         -5    1    5    5    0  501  0.27085348859E+02 -0.53639514119E+01 -0.33571343615E+02  0.43720855546E+02  0.47000000000E+01 0. -1.
          1    1    1    2  502    0 -0.23615268427E+01 -0.10332789117E+02 -0.19061629690E+02  0.21810297256E+02  0.00000000000E+00 0. -1.
          1    1    1    2  503    0 -0.72405075455E+02  0.55820378843E+02  0.90380031592E+03  0.90841258287E+03  0.00000000000E+00 0. -1.
<mgrwt>
<rscale>  0 0.31127917E+02</rscale>
<asrwt>0</asrwt>
<pdfrwt beam="1">  1        2 0.15320128E+00 0.91416891E+02</pdfrwt>
<pdfrwt beam="2">  1        2 0.20510306E+00 0.10599214E+02</pdfrwt>
<totfact> 0.94048288E+01</totfact>
</mgrwt>
</event>
<event>
13    1  0.1942437E-008  0.6214632E+02  0.7546771E-02  0.1450221E+00
          2   -1    0    0  503    0  0.00000000000E+00  0.00000000000E+00  0.25586903395E+04  0.25586903395E+04  0.00000000000E+00 0. -1.
          2   -1    0    0  502    0 -0.00000000000E+00 -0.00000000000E+00 -0.35414705641E+04  0.35414705641E+04  0.00000000000E+00 0. -1.
         24    2    1    2    0    0 -0.68876406203E+02  0.12007366437E+03 -0.90343707222E+03  0.91724137745E+03  0.77275848959E+02 0.  0.
         24    2    1    2    0    0 -0.39108287884E+02 -0.10319484267E+03 -0.76722253923E+02  0.15713414280E+03  0.81401479417E+02 0.  0.
         25    2    1    2    0    0  0.13863000698E+02 -0.30390624611E+02  0.13960599706E+04  0.14020421095E+04  0.12499145024E+03 0.  0.
        -11    1    3    3    0    0 -0.42541901749E+02  0.10672367592E+03 -0.83271925164E+03  0.84060758292E+03  0.00000000000E+00 0.  1.
         12    1    3    3    0    0 -0.26334504455E+02  0.13349988442E+02 -0.70717820583E+02  0.76633794531E+02  0.00000000000E+00 0. -1.
        -11    1    4    4    0    0 -0.60113426985E+02 -0.65067455095E+02 -0.70387483923E+02  0.11314502070E+03  0.00000000000E+00 0.  1.
         12    1    4    4    0    0  0.21005139101E+02 -0.38127387578E+02 -0.63347700004E+01  0.43989122100E+02  0.00000000000E+00 0. -1.
          5    1    5    5  501    0  0.24725264409E+01 -0.42429521544E+02  0.13708016213E+04  0.13714683929E+04  0.47000000000E+01 0. -1.
         -5    1    5    5    0  501  0.11390474257E+02  0.12038896933E+02  0.25258349298E+02  0.30573716693E+02  0.47000000000E+01 0. -1.
          1    1    1    2  502    0  0.56988051600E+02  0.24769955925E+02 -0.25104891682E+04  0.25112580617E+04  0.00000000000E+00 0. -1.
          1    1    1    2  503    0  0.37133641788E+02 -0.11258153007E+02  0.11118082991E+04  0.11124852122E+04  0.00000000000E+00 0. -1.
<mgrwt>
<rscale>  0 0.49106498E+02</rscale>
<asrwt>0</asrwt>
<pdfrwt beam="1">  1        2 0.37627799E+00 0.38802749E+02</pdfrwt>
<pdfrwt beam="2">  1        2 0.52080449E+00 0.62146323E+02</pdfrwt>
<totfact> 0.13657663E+00</totfact>
</mgrwt>
</event>
<event>
13    1  0.1942437E-008  0.1195101E+03  0.7546771E-02  0.1451638E+00
          2   -1    0    0  503    0  0.00000000000E+00  0.00000000000E+00  0.46485138502E+04  0.46485138502E+04  0.00000000000E+00 0. -1.
          2   -1    0    0  502    0 -0.00000000000E+00 -0.00000000000E+00 -0.12068563710E+04  0.12068563710E+04  0.00000000000E+00 0. -1.
         24    2    1    2    0    0 -0.31513871849E+02 -0.62800120421E+01 -0.42852608663E+03  0.43731984093E+03  0.81126282291E+02 0.  0.
         24    2    1    2    0    0  0.39737020685E+02  0.38124717894E+02 -0.43633427008E+02  0.10624792484E+03  0.79700819644E+02 0.  0.
         25    2    1    2    0    0 -0.14513936333E+03 -0.37303708850E+02  0.70982767215E+03  0.73616378278E+03  0.12499915780E+03 0.  0.
        -11    1    4    4    0    0  0.52783481746E+02  0.31910850969E+02 -0.58858539136E+02  0.85256823680E+02  0.00000000000E+00 0.  1.
         12    1    4    4    0    0 -0.13046461061E+02  0.62138669249E+01  0.15225112129E+02  0.20991101155E+02  0.00000000000E+00 0. -1.
        -13    1    3    3    0    0 -0.24456817587E+02 -0.36654101128E+02 -0.13204179653E+03  0.13920019787E+03  0.00000000000E+00 0.  1.
         14    1    3    3    0    0 -0.70570542615E+01  0.30374089086E+02 -0.29648429010E+03  0.29811964306E+03  0.00000000000E+00 0. -1.
          5    1    5    5  501    0 -0.58648508626E+02  0.41457735926E+02  0.36427369443E+03  0.37131631513E+03  0.47000000000E+01 0.  1.
         -5    1    5    5    0  501 -0.86490854708E+02 -0.78761444776E+02  0.34555397772E+03  0.36484746765E+03  0.47000000000E+01 0.  1.
          1    1    1    2  502    0  0.19655555160E+02 -0.35219115673E+01 -0.68479019558E+03  0.68508127742E+03  0.00000000000E+00 0. -1.
          1    1    1    2  503    0  0.11726065934E+03  0.89809145655E+01  0.38887795163E+04  0.38905573952E+04  0.00000000000E+00 0. -1.
<mgrwt>
<rscale>  0 0.48851293E+02</rscale>
<asrwt>0</asrwt>
<pdfrwt beam="1">  1        2 0.68360497E+00 0.11951011E+03</pdfrwt>
<pdfrwt beam="2">  1        2 0.17747888E+00 0.19968593E+02</pdfrwt>
<totfact> 0.90547375E-01</totfact>
</mgrwt>
</event>
<event>
13    1  0.1942437E-008  0.9603491E+02  0.7546771E-02  0.1407831E+00
          2   -1    0    0  503    0  0.00000000000E+00  0.00000000000E+00  0.10159071306E+04  0.10159071306E+04  0.00000000000E+00 0. -1.
          2   -1    0    0  502    0 -0.00000000000E+00 -0.00000000000E+00 -0.18248879720E+04  0.18248879720E+04  0.00000000000E+00 0. -1.
         24    2    1    2    0    0 -0.30386966695E+02  0.53068048918E+02 -0.28876827770E+02  0.10352643592E+03  0.78385369753E+02 0.  0.
         24    2    1    2    0    0 -0.24779425428E+03  0.91881917878E+02 -0.95274751190E+02  0.29482517351E+03  0.89444538324E+02 0.  0.
         25    2    1    2    0    0  0.37077511435E+03 -0.96988532485E+02  0.13119891636E+03  0.42392947329E+03  0.12498832669E+03 0.  0.
        -11    1    4    4    0    0 -0.23515788398E+03  0.62723338804E+02 -0.67364644043E+02  0.25253008315E+03  0.00000000000E+00 0.  1.
         12    1    4    4    0    0 -0.12636370300E+02  0.29158579073E+02 -0.27910107147E+02  0.42295090364E+02  0.00000000000E+00 0. -1.
        -11    1    3    3    0    0 -0.50378540980E+02  0.16779618285E+02 -0.31968966551E+02  0.61980382408E+02  0.00000000000E+00 0.  1.
         12    1    3    3    0    0  0.19991574285E+02  0.36288430633E+02  0.30921387811E+01  0.41546053512E+02  0.00000000000E+00 0. -1.
          5    1    5    5  501    0  0.12100510858E+03 -0.14087167933E+02  0.10227995081E+03  0.15913504624E+03  0.47000000000E+01 0.  1.
         -5    1    5    5    0  501  0.24977000577E+03 -0.82901364552E+02  0.28918965552E+02  0.26479442705E+03  0.47000000000E+01 0.  1.
          1    1    1    2  502    0 -0.95085078621E+02 -0.13406882057E+02 -0.14151435849E+04  0.14183977871E+04  0.00000000000E+00 0. -1.
          1    1    1    2  503    0  0.24911852440E+01 -0.34554552253E+02  0.59911540604E+03  0.60011623277E+03  0.00000000000E+00 0. -1.
<mgrwt>
<rscale>  0 0.57680640E+02</rscale>
<asrwt>0</asrwt>
<pdfrwt beam="1">  1        2 0.14939811E+00 0.34644236E+02</pdfrwt>
<pdfrwt beam="2">  1        2 0.26836588E+00 0.96034914E+02</pdfrwt>
<totfact> 0.52764948E+01</totfact>
</mgrwt>
</event>
<event>
13    1  0.1942437E-008  0.5050998E+02  0.7546771E-02  0.1460982E+00
          2   -1    0    0  503    0  0.00000000000E+00  0.00000000000E+00  0.22915303097E+04  0.22915303097E+04  0.00000000000E+00 0. -1.
          2   -1    0    0  502    0 -0.00000000000E+00 -0.00000000000E+00 -0.25388092914E+04  0.25388092914E+04  0.00000000000E+00 0. -1.
         24    2    1    2    0    0  0.72594844990E+03 -0.36069641433E+03 -0.31135140131E+03  0.87269143982E+03  0.86876917569E+02 0.  0.
         24    2    1    2    0    0 -0.75410459646E+03  0.84128171683E+03  0.16228188786E+02  0.11316556920E+04  0.62869560768E+02 0.  0.
         25    2    1    2    0    0  0.34054050978E+02 -0.44230316769E+03  0.10071172305E+03  0.47176199677E+03  0.12499903960E+03 0.  0.
        -11    1    3    3    0    0  0.17815396276E+03 -0.89890236983E+02 -0.11765827578E+03  0.23165180554E+03  0.00000000000E+00 0.  1.
         12    1    3    3    0    0  0.54779448714E+03 -0.27080617735E+03 -0.19369312554E+03  0.64103963428E+03  0.00000000000E+00 0. -1.
        -13    1    4    4    0    0 -0.15293655494E+03  0.13592295988E+03 -0.40108114516E+01  0.20464781325E+03  0.00000000000E+00 0.  1.
         14    1    4    4    0    0 -0.60116804152E+03  0.70535875695E+03  0.20239000238E+02  0.92700787876E+03  0.00000000000E+00 0. -1.
          5    1    5    5  501    0 -0.16229204478E+02 -0.21814985630E+02 -0.16731544166E+02  0.32269416577E+02  0.47000000000E+01 0.  1.
         -5    1    5    5    0  501  0.50283255455E+02 -0.42048818206E+03  0.11744326722E+03  0.43949258020E+03  0.47000000000E+01 0.  1.
          1    1    1    2  502    0 -0.46232810984E+02 -0.20375941053E+02 -0.12025952396E+04  0.12036560813E+04  0.00000000000E+00 0. -1.
          1    1    1    2  503    0  0.40334906559E+02 -0.17906193754E+02  0.11497277474E+04  0.11505743912E+04  0.00000000000E+00 0. -1.
<mgrwt>
<rscale>  0 0.47212826E+02</rscale>
<asrwt>0</asrwt>
<pdfrwt beam="1">  1        2 0.33698976E+00 0.44130901E+02</pdfrwt>
<pdfrwt beam="2">  1        2 0.37335430E+00 0.50509980E+02</pdfrwt>
<totfact> 0.62702400E+00</totfact>
</mgrwt>
</event>
<event>
13    1  0.1942437E-008  0.2086262E+03  0.7546771E-02  0.1357463E+00
         -1   -1    0    0    0  501  0.00000000000E+00  0.00000000000E+00  0.35221255514E+04  0.35221255514E+04  0.00000000000E+00 0.  1.
         -1   -1    0    0    0  502 -0.00000000000E+00 -0.00000000000E+00 -0.36270808932E+03  0.36270808932E+03  0.00000000000E+00 0.  1.
         24    2    1    2    0    0 -0.36161897943E+03  0.35234142520E+03  0.13723643585E+03  0.52932506426E+03  0.80239754070E+02 0.  0.
         24    2    1    2    0    0  0.79558771692E+02  0.67695519527E+01  0.21257454852E+03  0.24122428476E+03  0.81398967399E+02 0.  0.
         25    2    1    2    0    0  0.11852910104E+03 -0.27592564014E+03  0.23234508034E+04  0.23461105037E+04  0.12500701291E+03 0.  0.
        -11    1    4    4    0    0  0.30669901374E+02 -0.20322500895E+02  0.16107092654E+03  0.16521952145E+03  0.00000000000E+00 0.  1.
         12    1    4    4    0    0  0.48888870318E+02  0.27092052847E+02  0.51503621980E+02  0.76004763308E+02  0.00000000000E+00 0. -1.
        -11    1    3    3    0    0 -0.26704457203E+03  0.23356744397E+03  0.12819938854E+03  0.37722889279E+03  0.00000000000E+00 0.  1.
         12    1    3    3    0    0 -0.94574407399E+02  0.11877398123E+03  0.90370473173E+01  0.15209617147E+03  0.00000000000E+00 0. -1.
          5    1    5    5  503    0  0.71082458604E+02 -0.16020511079E+03  0.88339071174E+03  0.90062180355E+03  0.47000000000E+01 0.  1.
         -5    1    5    5    0  503  0.47446642439E+02 -0.11572052936E+03  0.14400600917E+04  0.14454887002E+04  0.47000000000E+01 0.  1.
         -2    1    1    2    0  501 -0.20422773600E+02  0.12630248185E+02  0.55049006807E+03  0.55101354602E+03  0.00000000000E+00 0.  1.
         -2    1    1    2    0  502  0.18395388029E+03 -0.95815585193E+02 -0.64334393797E+02  0.21716024191E+03  0.00000000000E+00 0.  1.
<mgrwt>
<rscale>  0 0.70779183E+02</rscale>
<asrwt>0</asrwt>
<pdfrwt beam="1">  1       -1 0.51795962E+00 0.24012764E+02</pdfrwt>
<pdfrwt beam="2">  1       -1 0.53339427E-01 0.20862624E+03</pdfrwt>
<totfact> 0.68397487E-02</totfact>
</mgrwt>
</event>
<event>
13    1  0.1942437E-008  0.9002377E+02  0.7546771E-02  0.1408234E+00
          4   -1    0    0  503    0 -0.00000000000E+00  0.00000000000E+00  0.15515440890E+04  0.15515440890E+04  0.00000000000E+00 0. -1.
          2   -1    0    0  502    0  0.00000000000E+00 -0.00000000000E+00 -0.20946695317E+04  0.20946695317E+04  0.00000000000E+00 0. -1.
         24    2    1    2    0    0 -0.45210783419E+02  0.40146596684E+02  0.13062562990E+03  0.16519207443E+03  0.81053082026E+02 0.  0.
         24    2    1    2    0    0 -0.21931427546E+02  0.21924434588E+02 -0.27269566544E+02  0.92104342393E+02  0.82328077118E+02 0.  0.
         25    2    1    2    0    0 -0.23433532914E+02 -0.24324177111E+02 -0.14207253433E+04  0.14266135528E+04  0.12499972746E+03 0.  0.
        -11    1    3    3    0    0  0.17412781519E+02 -0.10490541624E+02  0.31255216229E+02  0.37284647851E+02  0.00000000000E+00 0.  1.
         12    1    3    3    0    0 -0.62623564939E+02  0.50637138308E+02  0.99370413673E+02  0.12790742658E+03  0.00000000000E+00 0. -1.
        -11    1    4    4    0    0 -0.20780163361E+02 -0.78325635332E+01 -0.49954950979E+02  0.54668650689E+02  0.00000000000E+00 0.  1.
         12    1    4    4    0    0 -0.11512641848E+01  0.29756998121E+02  0.22685384435E+02  0.37435691704E+02  0.00000000000E+00 0. -1.
          5    1    5    5  501    0  0.20448691651E+02 -0.64812679234E+02 -0.86183787117E+03  0.86452613527E+03  0.47000000000E+01 0.  1.
         -5    1    5    5    0  501 -0.43882224565E+02  0.40488502123E+02 -0.55888747211E+03  0.56208741750E+03  0.47000000000E+01 0.  1.
          1    1    1    2  502    0 -0.31336634432E+02 -0.19372534581E+02 -0.59067757381E+03  0.59182537624E+03  0.00000000000E+00 0. -1.
          3    1    1    2  503    0  0.12191237831E+03 -0.18374319579E+02  0.13649214110E+04  0.13704782749E+04  0.00000000000E+00 0. -1.
<mgrwt>
<rscale>  0 0.57589848E+02</rscale>
<asrwt>0</asrwt>
<pdfrwt beam="2">  1        2 0.30803964E+00 0.36841278E+02</pdfrwt>
<pdfrwt beam="1">  1        4 0.22816825E+00 0.90023767E+02</pdfrwt>
<totfact> 0.48795319E-01</totfact>
</mgrwt>
</event>
<event>
13    1  0.1942437E-008  0.1017482E+03  0.7546771E-02  0.1342754E+00
          4   -1    0    0  503    0 -0.00000000000E+00  0.00000000000E+00  0.51351784075E+03  0.51351784075E+03  0.00000000000E+00 0. -1.
          2   -1    0    0  502    0  0.00000000000E+00 -0.00000000000E+00 -0.11127681928E+04  0.11127681928E+04  0.00000000000E+00 0. -1.
         24    2    1    2    0    0  0.81732076721E+02 -0.11996594315E+03 -0.11016720144E+03  0.19871253668E+03  0.79233200611E+02 0.  0.
         24    2    1    2    0    0 -0.22882891388E+02  0.47564474937E+02 -0.56434004187E+02  0.11110858213E+03  0.79839302348E+02 0.  0.
         25    2    1    2    0    0 -0.97745875715E+02 -0.48376873729E+02 -0.22261903648E+03  0.27763303112E+03  0.12500514564E+03 0.  0.
        -13    1    4    4    0    0  0.24685990710E+01  0.64621297619E+02 -0.43445802199E+02  0.77907277042E+02  0.00000000000E+00 0.  1.
         14    1    4    4    0    0 -0.25351490459E+02 -0.17056822682E+02 -0.12988201988E+02  0.33201305085E+02  0.00000000000E+00 0. -1.
        -13    1    3    3    0    0  0.96794446089E+02 -0.99456687744E+02 -0.84058793554E+02  0.16225497929E+03  0.00000000000E+00 0.  1.
         14    1    3    3    0    0 -0.15062369368E+02 -0.20509255401E+02 -0.26108407890E+02  0.36457557387E+02  0.00000000000E+00 0. -1.
          5    1    5    5  501    0 -0.71064507760E+02  0.34158149017E+02 -0.10902135773E+03  0.13462796830E+03  0.47000000000E+01 0.  1.
         -5    1    5    5    0  501 -0.26681367955E+02 -0.82535022745E+02 -0.11359767875E+03  0.14300506282E+03  0.47000000000E+01 0.  1.
          1    1    1    2  502    0  0.51790061134E+02  0.20819527322E+02 -0.61702438172E+03  0.61954398616E+03  0.00000000000E+00 0. -1.
          3    1    1    2  503    0 -0.12893370752E+02  0.99958814615E+02  0.40699427182E+03  0.41928789742E+03  0.00000000000E+00 0. -1.
<mgrwt>
<rscale>  0 0.75361737E+02</rscale>
<asrwt>0</asrwt>
<pdfrwt beam="2">  1        2 0.16364238E+00 0.55818126E+02</pdfrwt>
<pdfrwt beam="1">  1        4 0.75517331E-01 0.10174816E+03</pdfrwt>
<totfact> 0.21571280E+01</totfact>
</mgrwt>
</event>
<event>
13    1  0.1942437E-008  0.9419833E+02  0.7546771E-02  0.1350117E+00
          2   -1    0    0  503    0  0.00000000000E+00  0.00000000000E+00  0.26360505595E+04  0.26360505595E+04  0.00000000000E+00 0. -1.
          2   -1    0    0  502    0 -0.00000000000E+00 -0.00000000000E+00 -0.25736606551E+04  0.25736606551E+04  0.00000000000E+00 0. -1.
         24    2    1    2    0    0  0.46211613946E+02  0.19800225660E+02 -0.13834292894E+03  0.16596205813E+03  0.76662093312E+02 0.  0.
         24    2    1    2    0    0  0.38680331490E+02 -0.55176377017E+02 -0.10926386885E+03  0.15204552148E+03  0.81477892353E+02 0.  0.
         25    2    1    2    0    0  0.78156917697E+02  0.87766788197E+02  0.29235456215E+03  0.33898109467E+03  0.12500191856E+03 0.  0.
        -11    1    3    3    0    0  0.46952456983E+02 -0.71741937675E+01 -0.12890069039E+03  0.13737317881E+03  0.00000000000E+00 0.  1.
         12    1    3    3    0    0 -0.74084303741E+00  0.26974419428E+02 -0.94422385473E+01  0.28588879318E+02  0.00000000000E+00 0. -1.
        -11    1    4    4    0    0 -0.42379043256E+01  0.75540282883E+01  0.83359297981E+01  0.12021268737E+02  0.00000000000E+00 0.  1.
         12    1    4    4    0    0  0.42918235815E+02 -0.62730405305E+02 -0.11759979865E+03  0.14002425274E+03  0.00000000000E+00 0. -1.
          5    1    5    5  501    0  0.21989139929E+02  0.31421487979E+02  0.28909200650E+01  0.38746349512E+02  0.47000000000E+01 0. -1.
         -5    1    5    5    0  501  0.56167777768E+02  0.56345300217E+02  0.28946364208E+03  0.30023474516E+03  0.47000000000E+01 0. -1.
          1    1    1    2  502    0 -0.13883057916E+03 -0.12318013196E+01 -0.22650639036E+04  0.22693148602E+04  0.00000000000E+00 0. -1.
          1    1    1    2  503    0 -0.24218283973E+02 -0.51158835521E+02  0.22827060437E+04  0.22834076801E+04  0.00000000000E+00 0. -1.
<mgrwt>
<rscale>  0 0.73019071E+02</rscale>
<asrwt>0</asrwt>
<pdfrwt beam="1">  1        2 0.38765450E+00 0.56601694E+02</pdfrwt>
<pdfrwt beam="2">  1        2 0.37847951E+00 0.94198326E+02</pdfrwt>
<totfact> 0.36503137E+00</totfact>
</mgrwt>
</event>
<event>
13    1  0.1942437E-008  0.8965788E+02  0.7546771E-02  0.1367881E+00
          2   -1    0    0  502    0  0.00000000000E+00  0.00000000000E+00  0.21521950301E+04  0.21521950301E+04  0.00000000000E+00 0. -1.
          2   -1    0    0  503    0 -0.00000000000E+00 -0.00000000000E+00 -0.14602237869E+04  0.14602237869E+04  0.00000000000E+00 0. -1.
         24    2    1    2    0    0  0.46420621800E+02 -0.63591578545E+02  0.50758387837E+02  0.12354788467E+03  0.80553726663E+02 0.  0.
         24    2    1    2    0    0  0.33098357387E+02  0.18414971057E+02  0.16702006196E+03  0.19386575801E+03  0.90849428250E+02 0.  0.
         25    2    1    2    0    0 -0.17803844606E+03  0.13966848175E+03  0.12781715897E+04  0.13040521730E+04  0.12499793574E+03 0.  0.
        -11    1    4    4    0    0  0.54583973872E+02  0.24673672109E+02  0.60940628644E+02  0.85451509750E+02  0.00000000000E+00 0.  1.
         12    1    4    4    0    0 -0.21485616485E+02 -0.62587010526E+01  0.10607943331E+03  0.10841424826E+03  0.00000000000E+00 0. -1.
        -11    1    3    3    0    0  0.42503303483E+02  0.53159201792E+01  0.12433799790E+02  0.44602569338E+02  0.00000000000E+00 0.  1.
         12    1    3    3    0    0  0.39173183169E+01 -0.68907498724E+02  0.38324588047E+02  0.78945315328E+02  0.00000000000E+00 0. -1.
          5    1    5    5  501    0 -0.84391050005E+02  0.72163163837E+02  0.31610644795E+03  0.33507424247E+03  0.47000000000E+01 0.  1.
         -5    1    5    5    0  501 -0.93647396054E+02  0.67505317917E+02  0.96206514180E+03  0.96897793050E+03  0.47000000000E+01 0.  1.
          1    1    1    2  502    0  0.23469368210E+02 -0.45515750743E+02  0.59094184317E+03  0.59315660395E+03  0.00000000000E+00 0. -1.
          1    1    1    2  503    0  0.75050098662E+02 -0.48976123523E+02 -0.13949206395E+04  0.13977963974E+04  0.00000000000E+00 0. -1.
<mgrwt>
<rscale>  0 0.67759922E+02</rscale>
<asrwt>0</asrwt>
<pdfrwt beam="1">  1        2 0.31649927E+00 0.51210300E+02</pdfrwt>
<pdfrwt beam="2">  1        2 0.21473879E+00 0.89657882E+02</pdfrwt>
<totfact> 0.22010513E+01</totfact>
</mgrwt>
</event>
<event>
13    1  0.1942437E-008  0.1011660E+03  0.7546771E-02  0.1397948E+00
         -1   -1    0    0    0  501 -0.00000000000E+00  0.00000000000E+00  0.21986638629E+04  0.21986638629E+04  0.00000000000E+00 0.  1.
          2   -1    0    0  503    0  0.00000000000E+00 -0.00000000000E+00 -0.17870896326E+04  0.17870896326E+04  0.00000000000E+00 0. -1.
         24    2    1    2    0    0 -0.64175841759E+02 -0.36185403839E+02  0.88582634999E+03  0.89263271465E+03  0.81712415250E+02 0.  0.
         24    2    1    2    0    0  0.92251940985E+02  0.50394072604E+02  0.13283627959E+03  0.18875430354E+03  0.83262997532E+02 0.  0.
         25    2    1    2    0    0 -0.75941305193E+02  0.42691960283E+02 -0.96023284200E+03  0.97224548580E+03  0.12499795392E+03 0.  0.
        -11    1    4    4    0    0  0.51310056528E+01 -0.19856386560E+02  0.10830077489E+02  0.23192539418E+02  0.00000000000E+00 0.  1.
         12    1    4    4    0    0  0.87120935332E+02  0.70250459165E+02  0.12200620211E+03  0.16556176412E+03  0.00000000000E+00 0. -1.
        -13    1    3    3    0    0 -0.60542227913E+02  0.95156404713E+01  0.40279705223E+03  0.40743266200E+03  0.00000000000E+00 0.  1.
         14    1    3    3    0    0 -0.36336138460E+01 -0.45701044310E+02  0.48302929776E+03  0.48520005265E+03  0.00000000000E+00 0. -1.
          5    1    5    5  502    0 -0.96030991817E+00  0.40279855082E+02 -0.70521180675E+03  0.70637749915E+03  0.47000000000E+01 0.  1.
         -5    1    5    5    0  502 -0.74980995275E+02  0.24121052016E+01 -0.25502103526E+03  0.26586798665E+03  0.47000000000E+01 0.  1.
          1    1    1    2  503    0  0.56354642010E+01  0.35102800143E+02 -0.78684391157E+03  0.78764668869E+03  0.00000000000E+00 0. -1.
         -2    1    1    2    0  501  0.42229741766E+02 -0.92003429192E+02  0.11399883543E+04  0.11444743029E+04  0.00000000000E+00 0.  1.
<mgrwt>
<rscale>  0 0.59972358E+02</rscale>
<asrwt>0</asrwt>
<pdfrwt beam="2">  1        2 0.26280730E+00 0.35552286E+02</pdfrwt>
<pdfrwt beam="1">  1       -1 0.32333292E+00 0.10116603E+03</pdfrwt>
<totfact> 0.46523099E-01</totfact>
</mgrwt>
</event>
<event>
13    1  0.1942437E-008  0.5662477E+02  0.7546771E-02  0.1496639E+00
          2   -1    0    0  502    0  0.00000000000E+00  0.00000000000E+00  0.26925741668E+04  0.26925741668E+04  0.00000000000E+00 0. -1.
          2   -1    0    0  503    0 -0.00000000000E+00 -0.00000000000E+00 -0.98972920627E+03  0.98972920627E+03  0.00000000000E+00 0. -1.
         24    2    1    2    0    0 -0.14471673387E+02  0.19381292628E+02  0.77826793734E+02  0.11595477752E+03  0.82482948377E+02 0.  0.
         24    2    1    2    0    0  0.47869111175E+02 -0.69451784870E+02  0.21521558533E+03  0.24522843418E+03  0.81879390181E+02 0.  0.
         25    2    1    2    0    0 -0.10798763202E+03  0.93093996175E+02  0.15425217054E+04  0.15541322934E+04  0.12500461167E+03 0.  0.
        -11    1    3    3    0    0  0.14485840360E+02  0.44488431836E+02  0.34647182488E+02  0.58219304294E+02  0.00000000000E+00 0.  1.
         12    1    3    3    0    0 -0.28957513747E+02 -0.25107139208E+02  0.43179611246E+02  0.57735473229E+02  0.00000000000E+00 0. -1.
        -13    1    4    4    0    0 -0.69088393476E+01 -0.47991518992E+02  0.49111699186E+02  0.69013599770E+02  0.00000000000E+00 0.  1.
         14    1    4    4    0    0  0.54777950523E+02 -0.21460265879E+02  0.16610388614E+03  0.17621483441E+03  0.00000000000E+00 0. -1.
          5    1    5    5  501    0 -0.37038734361E+02 -0.25914622605E+02  0.24097533500E+03  0.24522364810E+03  0.47000000000E+01 0.  1.
         -5    1    5    5    0  501 -0.70948897657E+02  0.11900861878E+03  0.13015463704E+04  0.13089086453E+04  0.47000000000E+01 0.  1.
          1    1    1    2  502    0  0.29153249760E+02 -0.92540440142E+01  0.81600407012E+03  0.81657711929E+03  0.00000000000E+00 0. -1.
          1    1    1    2  503    0  0.45436944470E+02 -0.33769459918E+02 -0.94872319403E+03  0.95041074870E+03  0.00000000000E+00 0. -1.
<mgrwt>
<rscale>  0 0.41616918E+02</rscale>
<asrwt>0</asrwt>
<pdfrwt beam="1">  1        2 0.39596679E+00 0.30586750E+02</pdfrwt>
<pdfrwt beam="2">  1        2 0.14554841E+00 0.56624774E+02</pdfrwt>
<totfact> 0.23819503E+01</totfact>
</mgrwt>
</event>
<event>
13    1  0.1942437E-008  0.1001213E+03  0.7546771E-02  0.1469100E+00
          2   -1    0    0  502    0  0.00000000000E+00  0.00000000000E+00  0.89242118756E+03  0.89242118756E+03  0.00000000000E+00 0. -1.
          2   -1    0    0  503    0 -0.00000000000E+00 -0.00000000000E+00 -0.12562929423E+04  0.12562929423E+04  0.00000000000E+00 0. -1.
         24    2    1    2    0    0 -0.57573784244E+01  0.48706328134E+02 -0.22714021854E+03  0.24561573652E+03  0.79554744303E+02 0.  0.
         24    2    1    2    0    0 -0.74456288818E+02 -0.28988745698E+02 -0.95761414739E+02  0.14879036412E+03  0.81143315071E+02 0.  0.
         25    2    1    2    0    0  0.16470529127E+03 -0.23934350292E+02 -0.13288399169E+03  0.24694856880E+03  0.12499901714E+03 0.  0.
        -11    1    4    4    0    0 -0.66154715548E+02  0.16055395799E+02 -0.56991226274E+02  0.88781878757E+02  0.00000000000E+00 0.  1.
         12    1    4    4    0    0 -0.83015732705E+01 -0.45044141498E+02 -0.38770188465E+02  0.60008485364E+02  0.00000000000E+00 0. -1.
        -13    1    3    3    0    0 -0.20554464214E+02 -0.13504257652E+01 -0.11180652264E+02  0.23437504857E+02  0.00000000000E+00 0.  1.
         14    1    3    3    0    0  0.14797085789E+02  0.50056753899E+02 -0.21595956628E+03  0.22217823167E+03  0.00000000000E+00 0. -1.
          5    1    5    5  501    0  0.85474005807E+02  0.21687731445E+02 -0.12769239834E+03  0.15525334766E+03  0.47000000000E+01 0. -1.
         -5    1    5    5    0  501  0.79231285466E+02 -0.45622081737E+02 -0.51915933445E+01  0.91695221140E+02  0.47000000000E+01 0. -1.
          1    1    1    2  502    0 -0.99757686951E+02 -0.10199652802E+02  0.79633580221E+03  0.80262465631E+03  0.00000000000E+00 0. -1.
          1    1    1    2  503    0  0.15266062920E+02  0.14416420659E+02 -0.70442193200E+03  0.70473480412E+03  0.00000000000E+00 0. -1.
<mgrwt>
<rscale>  0 0.45850577E+02</rscale>
<asrwt>0</asrwt>
<pdfrwt beam="1">  1        2 0.13123841E+00 0.10012131E+03</pdfrwt>
<pdfrwt beam="2">  1        2 0.18474896E+00 0.20997282E+02</pdfrwt>
<totfact> 0.12533395E+02</totfact>
</mgrwt>
</event>
<event>
13    1  0.1942437E-008  0.1086690E+03  0.7546771E-02  0.1371887E+00
          2   -1    0    0  503    0  0.00000000000E+00  0.00000000000E+00  0.10947353032E+04  0.10947353032E+04  0.00000000000E+00 0. -1.
          2   -1    0    0  502    0 -0.00000000000E+00 -0.00000000000E+00 -0.25963427820E+04  0.25963427820E+04  0.00000000000E+00 0. -1.
         24    2    1    2    0    0  0.16608300726E+02  0.28016215048E+02 -0.63612625403E+03  0.64224834246E+03  0.82253135909E+02 0.  0.
         24    2    1    2    0    0  0.86911510445E+00  0.38679366395E+02 -0.17772070723E+03  0.20245652950E+03  0.88922144662E+02 0.  0.
         25    2    1    2    0    0 -0.53418026498E+02  0.80613749894E+02  0.52807047799E+02  0.16663050489E+03  0.12500031454E+03 0.  0.
        -11    1    4    4    0    0 -0.36444822562E+02  0.45898512274E+02 -0.99149215358E+02  0.11517580226E+03  0.00000000000E+00 0.  1.
         12    1    4    4    0    0  0.37313937667E+02 -0.72191458792E+01 -0.78571491874E+02  0.87280727235E+02  0.00000000000E+00 0. -1.
        -13    1    3    3    0    0  0.84184134766E+00  0.55480273864E+02 -0.45549257262E+03  0.45885973151E+03  0.00000000000E+00 0.  1.
         14    1    3    3    0    0  0.15766459378E+02 -0.27464058816E+02 -0.18063368140E+03  0.18338861095E+03  0.00000000000E+00 0. -1.
          5    1    5    5  501    0 -0.63651362683E+02  0.18404373155E+01  0.58839846328E+02  0.86827994891E+02  0.47000000000E+01 0. -1.
         -5    1    5    5    0  501  0.10233336186E+02  0.78773312579E+02 -0.60327985289E+01  0.79802510000E+02  0.47000000000E+01 0. -1.
          1    1    1    2  502    0 -0.31054361789E+01 -0.15939184999E+03 -0.17060064291E+04  0.17134390394E+04  0.00000000000E+00 0. -1.
          1    1    1    2  503    0  0.39046046846E+02  0.12082518651E+02  0.96543886374E+03  0.96630366896E+03  0.00000000000E+00 0. -1.
<mgrwt>
<rscale>  0 0.66645317E+02</rscale>
<asrwt>0</asrwt>
<pdfrwt beam="1">  1        2 0.16099049E+00 0.40872742E+02</pdfrwt>
<pdfrwt beam="2">  1        2 0.38181511E+00 0.10866896E+03</pdfrwt>
<totfact> 0.19665506E+01</totfact>
</mgrwt>
</event>
<event>
13    1  0.1942437E-008  0.2437238E+03  0.7546771E-02  0.1260732E+00
          2   -1    0    0  503    0  0.00000000000E+00  0.00000000000E+00  0.29788611654E+04  0.29788611654E+04  0.00000000000E+00 0. -1.
          2   -1    0    0  502    0 -0.00000000000E+00 -0.00000000000E+00 -0.10526809919E+04  0.10526809919E+04  0.00000000000E+00 0. -1.
         24    2    1    2    0    0 -0.45547265790E+03  0.14347029555E+03 -0.42492750674E+03  0.64419645139E+03  0.79916294969E+02 0.  0.
         24    2    1    2    0    0  0.69172086229E+03  0.12143570234E+03  0.32569599474E+03  0.77623325525E+03  0.56884131711E+02 0.  0.
         25    2    1    2    0    0 -0.35489574118E+03 -0.67042755193E+02  0.71026854509E+03  0.80656897141E+03  0.12500552532E+03 0.  0.
        -11    1    3    3    0    0 -0.25061182932E+03  0.10831970613E+03 -0.20365482594E+03  0.34060935962E+03  0.00000000000E+00 0.  1.
         12    1    3    3    0    0 -0.20486082857E+03  0.35150589421E+02 -0.22127268080E+03  0.30358709177E+03  0.00000000000E+00 0. -1.
        -13    1    4    4    0    0  0.25558019149E+03  0.45648983906E+02  0.90432948002E+02  0.27492395694E+03  0.00000000000E+00 0.  1.
         14    1    4    4    0    0  0.43614067079E+03  0.75786718433E+02  0.23526304674E+03  0.50130929831E+03  0.00000000000E+00 0. -1.
          5    1    5    5  501    0 -0.88216833971E+02  0.35404622513E+02  0.14984346677E+03  0.17751296185E+03  0.47000000000E+01 0. -1.
         -5    1    5    5    0  501 -0.26667890721E+03 -0.10244737771E+03  0.56042507831E+03  0.62905600955E+03  0.47000000000E+01 0. -1.
          1    1    1    2  502    0  0.37656999940E+02  0.32231365653E+02 -0.23253538284E+03  0.23775957362E+03  0.00000000000E+00 0. -1.
          1    1    1    2  503    0  0.80990536855E+02 -0.23009460835E+03  0.15476785232E+04  0.15667839056E+04  0.00000000000E+00 0. -1.
<mgrwt>
<rscale>  0 0.10991230E+03</rscale>
<asrwt>0</asrwt>
<pdfrwt beam="1">  1        2 0.43806782E+00 0.24372380E+03</pdfrwt>
<pdfrwt beam="2">  1        2 0.15480603E+00 0.49567233E+02</pdfrwt>
<totfact> 0.11556094E+01</totfact>
</mgrwt>
</event>
<event>
13    1  0.1942437E-008  0.1009469E+03  0.7546771E-02  0.1425312E+00
          2   -1    0    0  502    0  0.00000000000E+00  0.00000000000E+00  0.17409517810E+04  0.17409517810E+04  0.00000000000E+00 0. -1.
          2   -1    0    0  503    0 -0.00000000000E+00 -0.00000000000E+00 -0.21156480967E+04  0.21156480967E+04  0.00000000000E+00 0. -1.
         24    2    1    2    0    0 -0.27513736826E+00 -0.83781429401E+02 -0.78766657580E+03  0.79566041227E+03  0.75082976732E+02 0.  0.
         24    2    1    2    0    0 -0.42580191423E+01  0.42599125538E+02  0.72421725752E+02  0.10739137725E+03  0.66747174642E+02 0.  0.
         25    2    1    2    0    0 -0.87581770449E+02  0.13124516862E+03  0.13104298783E+04  0.13258010271E+04  0.12500414701E+03 0.  0.
        -11    1    3    3    0    0 -0.31522042376E+02 -0.15025795021E+02 -0.32496892538E+03  0.32683974075E+03  0.00000000000E+00 0.  1.
         12    1    3    3    0    0  0.31246905008E+02 -0.68755634380E+02 -0.46269765043E+03  0.46882067152E+03  0.00000000000E+00 0. -1.
        -13    1    4    4    0    0 -0.35006283074E+02  0.18182626380E+02  0.42813459300E+02  0.58215462327E+02  0.00000000000E+00 0.  1.
         14    1    4    4    0    0  0.30748263932E+02  0.24416499158E+02  0.29608266453E+02  0.49175914921E+02  0.00000000000E+00 0. -1.
          5    1    5    5  501    0 -0.93911390011E+02  0.13751658471E+03  0.13021443311E+04  0.13127574449E+04  0.47000000000E+01 0.  1.
         -5    1    5    5    0  501  0.63296195622E+01 -0.62714160834E+01  0.82855471926E+01  0.13043582168E+02  0.47000000000E+01 0.  1.
          1    1    1    2  502    0  0.15615255675E+02 -0.24191071285E+02  0.32633636392E+03  0.32760413086E+03  0.00000000000E+00 0. -1.
          1    1    1    2  503    0  0.76499671284E+02 -0.65871793478E+02 -0.12962177079E+04  0.13001429303E+04  0.00000000000E+00 0. -1.
<mgrwt>
<rscale>  0 0.53912676E+02</rscale>
<asrwt>0</asrwt>
<pdfrwt beam="1">  1        2 0.25602232E+00 0.28793127E+02</pdfrwt>
<pdfrwt beam="2">  1        2 0.31112472E+00 0.10094689E+03</pdfrwt>
<totfact> 0.17275176E+01</totfact>
</mgrwt>
</event>
<event>
13    1  0.1942437E-008  0.8862847E+02  0.7546771E-02  0.1445981E+00
          2   -1    0    0  503    0  0.00000000000E+00  0.00000000000E+00  0.13153853011E+04  0.13153853011E+04  0.00000000000E+00 0. -1.
          2   -1    0    0  502    0 -0.00000000000E+00 -0.00000000000E+00 -0.20529155659E+04  0.20529155659E+04  0.00000000000E+00 0. -1.
         24    2    1    2    0    0  0.20459436337E+03  0.90246298888E+02 -0.56714252750E+03  0.61509132707E+03  0.81752346510E+02 0.  0.
         24    2    1    2    0    0 -0.22322617055E+03  0.61070920919E+02 -0.86218801706E+02  0.25960060816E+03  0.79995083555E+02 0.  0.
         25    2    1    2    0    0 -0.10840976728E+02 -0.22222064726E+03  0.56134713766E+03  0.61663117053E+03  0.12499539455E+03 0.  0.
        -11    1    3    3    0    0  0.70759292945E+02  0.36081112427E+02 -0.31178556868E+03  0.32174363249E+03  0.00000000000E+00 0.  1.
         12    1    3    3    0    0  0.13383507043E+03  0.54165186461E+02 -0.25535695882E+03  0.29334769458E+03  0.00000000000E+00 0. -1.
        -13    1    4    4    0    0 -0.10268011125E+03  0.26408643648E+02 -0.82115650154E+02  0.13410295189E+03  0.00000000000E+00 0.  1.
         14    1    4    4    0    0 -0.12054605930E+03  0.34662277271E+02 -0.41031515519E+01  0.12549765627E+03  0.00000000000E+00 0. -1.
          5    1    5    5  501    0 -0.53899877971E+02 -0.49955728181E+02  0.11886677290E+03  0.13982907896E+03  0.47000000000E+01 0. -1.
         -5    1    5    5    0  501  0.43058901244E+02 -0.17226491908E+03  0.44248036477E+03  0.47680209157E+03  0.47000000000E+01 0. -1.
          1    1    1    2  502    0  0.21976311559E+02 -0.17470103086E+02 -0.12578956837E+04  0.12582089309E+04  0.00000000000E+00 0. -1.
          1    1    1    2  503    0  0.74964723412E+01  0.88373530536E+02  0.61237961050E+03  0.61876883030E+03  0.00000000000E+00 0. -1.
<mgrwt>
<rscale>  0 0.49881625E+02</rscale>
<asrwt>0</asrwt>
<pdfrwt beam="1">  1        2 0.19343902E+00 0.88628466E+02</pdfrwt>
<pdfrwt beam="2">  1        2 0.30189935E+00 0.28074237E+02</pdfrwt>
<totfact> 0.31157187E+01</totfact>
</mgrwt>
</event>
<event>
13    1  0.1942437E-008  0.1129482E+03  0.7546771E-02  0.1338174E+00
          2   -1    0    0  503    0  0.00000000000E+00  0.00000000000E+00  0.24236635509E+03  0.24236635509E+03  0.00000000000E+00 0. -1.
          2   -1    0    0  502    0 -0.00000000000E+00 -0.00000000000E+00 -0.20882481031E+04  0.20882481031E+04  0.00000000000E+00 0. -1.
         24    2    1    2    0    0  0.18819568961E+02 -0.52127717618E+02 -0.28342567556E+03  0.30011015338E+03  0.81636483702E+02 0.  0.
         24    2    1    2    0    0  0.23853886824E+01 -0.55736783850E+02 -0.12680054205E+03  0.15931852631E+03  0.78687586114E+02 0.  0.
         25    2    1    2    0    0  0.10395820266E+03 -0.75009295848E+02 -0.13827967506E+03  0.22625355363E+03  0.12504279119E+03 0.  0.
        -11    1    3    3    0    0 -0.27633454673E+02 -0.97880804160E+01 -0.14710079902E+03  0.14999353122E+03  0.00000000000E+00 0.  1.
         12    1    3    3    0    0  0.46453023635E+02 -0.42339637202E+02 -0.13632487654E+03  0.15011662215E+03  0.00000000000E+00 0. -1.
        -11    1    4    4    0    0 -0.32647289032E+02 -0.46985094237E+02 -0.96474275183E+02  0.11216385485E+03  0.00000000000E+00 0.  1.
         12    1    4    4    0    0  0.35032677714E+02 -0.87516896122E+01 -0.30326266867E+02  0.47154671466E+02  0.00000000000E+00 0. -1.
          5    1    5    5  501    0  0.48362735205E+02 -0.10409571954E+03 -0.76130752394E+02  0.13781456543E+03  0.47000000000E+01 0.  1.
         -5    1    5    5    0  501  0.55595467455E+02  0.29086423696E+02 -0.62148922669E+02  0.88438988200E+02  0.47000000000E+01 0.  1.
          1    1    1    2  502    0 -0.10530833156E+03  0.13447058223E+03 -0.14621294101E+04  0.14720715316E+04  0.00000000000E+00 0. -1.
          1    1    1    2  503    0 -0.19854828747E+02  0.48403215091E+02  0.16475355481E+03  0.17286069327E+03  0.00000000000E+00 0. -1.
<mgrwt>
<rscale>  0 0.76870866E+02</rscale>
<asrwt>0</asrwt>
<pdfrwt beam="1">  1        2 0.35642110E-01 0.52317162E+02</pdfrwt>
<pdfrwt beam="2">  1        2 0.30709532E+00 0.11294821E+03</pdfrwt>
<totfact> 0.17939986E+02</totfact>
</mgrwt>
</event>
<event>
13    1  0.1942437E-008  0.2013063E+03  0.7546771E-02  0.1341758E+00
         -1   -1    0    0    0  501 -0.00000000000E+00  0.00000000000E+00  0.13429513470E+04  0.13429513470E+04  0.00000000000E+00 0.  1.
          2   -1    0    0  503    0  0.00000000000E+00 -0.00000000000E+00 -0.75785143754E+03  0.75785143754E+03  0.00000000000E+00 0. -1.
         24    2    1    2    0    0  0.74751192738E+02  0.10287916360E+03  0.16612047325E+02  0.15451196758E+03  0.86174966712E+02 0.  0.
         24    2    1    2    0    0 -0.17917444422E+03  0.93921848322E+02 -0.11944440336E+03  0.25094143562E+03  0.88203421497E+02 0.  0.
         25    2    1    2    0    0  0.88435089021E+02 -0.46651854558E+01 -0.42079792674E+03  0.44782221395E+03  0.12502524240E+03 0.  0.
        -11    1    4    4    0    0 -0.50845406869E+02  0.35078269620E+02  0.60281248512E+01  0.62065116518E+02  0.00000000000E+00 0.  1.
         12    1    4    4    0    0 -0.12832903735E+03  0.58843578703E+02 -0.12547252821E+03  0.18887631910E+03  0.00000000000E+00 0. -1.
        -13    1    3    3    0    0  0.40247558891E+02  0.91078164259E+02 -0.21387682798E+02  0.10184562326E+03  0.00000000000E+00 0.  1.
         14    1    3    3    0    0  0.34503633847E+02  0.11800999346E+02  0.37999730123E+02  0.52666344317E+02  0.00000000000E+00 0. -1.
          5    1    5    5  502    0  0.10267916605E+03  0.31564649959E+02 -0.35789645208E+03  0.37369947642E+03  0.47000000000E+01 0.  1.
         -5    1    5    5    0  502 -0.14244077032E+02 -0.36229835415E+02 -0.62901474658E+02  0.74122737529E+02  0.47000000000E+01 0.  1.
          1    1    1    2  503    0  0.26428175152E+02  0.10550522518E+02 -0.57294142983E+02  0.63971718654E+02  0.00000000000E+00 0. -1.
         -2    1    1    2    0  501 -0.10440012692E+02 -0.20268634899E+03  0.11660243352E+04  0.11835554487E+04  0.00000000000E+00 0.  1.
<mgrwt>
<rscale>  0 0.75686439E+02</rscale>
<asrwt>0</asrwt>
<pdfrwt beam="2">  1        2 0.11144874E+00 0.28456317E+02</pdfrwt>
<pdfrwt beam="1">  1       -1 0.19749285E+00 0.20130634E+03</pdfrwt>
<totfact> 0.88868406E+00</totfact>
</mgrwt>
</event>
<event>
13    1  0.1942437E-008  0.1686662E+03  0.7546771E-02  0.1344940E+00
          2   -1    0    0  503    0  0.00000000000E+00  0.00000000000E+00  0.36407109786E+03  0.36407109786E+03  0.00000000000E+00 0. -1.
          2   -1    0    0  502    0 -0.00000000000E+00 -0.00000000000E+00 -0.10680438915E+04  0.10680438915E+04  0.00000000000E+00 0. -1.
         24    2    1    2    0    0  0.67137685440E+02 -0.13809460663E+03 -0.52822318425E+03  0.55611814836E+03  0.81670517159E+02 0.  0.
         24    2    1    2    0    0  0.10384384923E+03  0.47607417493E+02 -0.21960619193E+03  0.26030851529E+03  0.80521005780E+02 0.  0.
         25    2    1    2    0    0 -0.12227939951E+03 -0.58608950184E+02 -0.86257424431E+02  0.20359993744E+03  0.12500132268E+03 0.  0.
        -11    1    3    3    0    0  0.44531621569E+01 -0.51443048212E+02 -0.79283338101E+02  0.94615355852E+02  0.00000000000E+00 0.  1.
         12    1    3    3    0    0  0.62684523283E+02 -0.86651558422E+02 -0.44893984615E+03  0.46150279251E+03  0.00000000000E+00 0. -1.
        -13    1    4    4    0    0  0.83318291345E+02  0.57093771565E+02 -0.11399559528E+03  0.15230440626E+03  0.00000000000E+00 0.  1.
         14    1    4    4    0    0  0.20525557884E+02 -0.94863540720E+01 -0.10561059666E+03  0.10800410902E+03  0.00000000000E+00 0. -1.
          5    1    5    5  501    0  0.74881257459E+01 -0.16097010534E+02 -0.62211698738E+02  0.64865794031E+02  0.47000000000E+01 0. -1.
         -5    1    5    5    0  501 -0.12976752526E+03 -0.42511939650E+02 -0.24045725692E+02  0.13873414341E+03  0.47000000000E+01 0. -1.
          1    1    1    2  502    0  0.33037301789E+02  0.69855513733E+00 -0.11189412902E+03  0.11667153636E+03  0.00000000000E+00 0. -1.
          1    1    1    2  503    0 -0.81739436945E+02  0.14839758419E+03  0.24200813595E+03  0.29541685194E+03  0.00000000000E+00 0. -1.
<mgrwt>
<rscale>  0 0.74656020E+02</rscale>
<asrwt>0</asrwt>
<pdfrwt beam="1">  1        2 0.53539867E-01 0.16866619E+03</pdfrwt>
<pdfrwt beam="2">  1        2 0.15706528E+00 0.33044686E+02</pdfrwt>
<totfact> 0.41189746E+02</totfact>
</mgrwt>
</event>
<event>
13    1  0.1942437E-008  0.8803351E+02  0.7546771E-02  0.1345498E+00
          4   -1    0    0  503    0  0.00000000000E+00  0.00000000000E+00  0.33073342306E+04  0.33073342306E+04  0.00000000000E+00 0. -1.
         -1   -1    0    0    0  501 -0.00000000000E+00 -0.00000000000E+00 -0.35355437856E+03  0.35355437856E+03  0.00000000000E+00 0.  1.
         24    2    1    2    0    0  0.44916246364E+02  0.78062913458E+02  0.53078394062E+01  0.12303142436E+03  0.83649689639E+02 0.  0.
         24    2    1    2    0    0 -0.54637988073E+02 -0.41364236012E+02  0.59419173026E+02  0.12158384524E+03  0.80967175686E+02 0.  0.
         25    2    1    2    0    0  0.36123741709E+01  0.16670569386E+02  0.33662199491E+03  0.35948684839E+03  0.12500187828E+03 0.  0.
        -11    1    4    4    0    0 -0.75428282745E+02 -0.31890083602E+02  0.38049914897E+02  0.90300605168E+02  0.00000000000E+00 0.  1.
         12    1    4    4    0    0  0.20790294672E+02 -0.94741524099E+01  0.21369258128E+02  0.31283240072E+02  0.00000000000E+00 0. -1.
        -11    1    3    3    0    0 -0.53076781476E+01  0.28750449304E+01  0.28949731881E+02  0.29572357137E+02  0.00000000000E+00 0.  1.
         12    1    3    3    0    0  0.50223924511E+02  0.75187868528E+02 -0.23641892475E+02  0.93459067227E+02  0.00000000000E+00 0. -1.
          5    1    5    5  502    0 -0.28326285413E+02  0.39155887346E+02  0.30547041477E+03  0.30930539320E+03  0.47000000000E+01 0.  1.
         -5    1    5    5    0  502  0.31938659584E+02 -0.22485317960E+02  0.31151580137E+02  0.50181455189E+02  0.47000000000E+01 0.  1.
          3    1    1    2  503    0 -0.62960344025E+02  0.24510961756E+01  0.27964243493E+04  0.27971340966E+04  0.00000000000E+00 0. -1.
         -2    1    1    2    0  501  0.69069711563E+02 -0.55820343008E+02 -0.24399350459E+03  0.25965239462E+03  0.00000000000E+00 0.  1.
<mgrwt>
<rscale>  0 0.74476966E+02</rscale>
<asrwt>0</asrwt>
<pdfrwt beam="1">  1        4 0.48637267E+00 0.63008038E+02</pdfrwt>
<pdfrwt beam="2">  1       -1 0.51993293E-01 0.88033507E+02</pdfrwt>
<totfact> 0.39022449E-02</totfact>
</mgrwt>
</event>
<event>
13    1  0.1942437E-008  0.4784122E+02  0.7546771E-02  0.1488363E+00
          2   -1    0    0  502    0  0.00000000000E+00  0.00000000000E+00  0.22611705672E+04  0.22611705672E+04  0.00000000000E+00 0. -1.
          2   -1    0    0  503    0 -0.00000000000E+00 -0.00000000000E+00 -0.15565714396E+04  0.15565714396E+04  0.00000000000E+00 0. -1.
         24    2    1    2    0    0 -0.39819756701E+01 -0.36066145714E+03 -0.55207956705E+03  0.66535695491E+03  0.88405239120E+02 0.  0.
         24    2    1    2    0    0  0.26289413948E+02  0.43847891351E+03 -0.52743649450E+03  0.69118379550E+03  0.81184312250E+02 0.  0.
         25    2    1    2    0    0  0.51470938003E+02 -0.52259811964E+02  0.94695542280E+03  0.95798238623E+03  0.12500133659E+03 0.  0.
        -11    1    3    3    0    0 -0.44126085449E+01  0.20864868554E+01 -0.25265080491E+02  0.25732252792E+02  0.00000000000E+00 0.  1.
         12    1    3    3    0    0  0.43063287474E+00 -0.36274794399E+03 -0.52681448656E+03  0.63962470212E+03  0.00000000000E+00 0. -1.
        -13    1    4    4    0    0  0.29285273574E+02  0.14365781997E+03 -0.12737484744E+03  0.19421521117E+03  0.00000000000E+00 0.  1.
         14    1    4    4    0    0 -0.29958596258E+01  0.29482109354E+03 -0.40006164706E+03  0.49696858434E+03  0.00000000000E+00 0. -1.
          5    1    5    5  501    0 -0.23116213198E+02 -0.13177105761E+02  0.48024523123E+02  0.55103904127E+02  0.47000000000E+01 0.  1.
         -5    1    5    5    0  501  0.74587151201E+02 -0.39082706203E+02  0.89893089968E+03  0.90287848211E+03  0.47000000000E+01 0.  1.
          1    1    1    2  502    0 -0.35913061525E+02 -0.31592709963E+02  0.11685947964E+04  0.11695732750E+04  0.00000000000E+00 0. -1.
          1    1    1    2  503    0 -0.37865314756E+02  0.60350655570E+01 -0.33143503002E+03  0.33364559521E+03  0.00000000000E+00 0. -1.
<mgrwt>
<rscale>  0 0.42829748E+02</rscale>
<asrwt>0</asrwt>
<pdfrwt beam="1">  1        2 0.33252508E+00 0.47841219E+02</pdfrwt>
<pdfrwt beam="2">  1        2 0.22890757E+00 0.38343240E+02</pdfrwt>
<totfact> 0.19019569E+01</totfact>
</mgrwt>
</event>
<event>
13    1  0.1942437E-008  0.1574903E+03  0.7546771E-02  0.1322114E+00
          2   -1    0    0  503    0  0.00000000000E+00  0.00000000000E+00  0.26677039314E+04  0.26677039314E+04  0.00000000000E+00 0. -1.
         -1   -1    0    0    0  501 -0.00000000000E+00 -0.00000000000E+00 -0.60477851556E+03  0.60477851556E+03  0.00000000000E+00 0.  1.
         24    2    1    2    0    0  0.18482387469E+02  0.64994607133E+02 -0.33604876259E+03  0.35213440538E+03  0.80647200898E+02 0.  0.
         24    2    1    2    0    0 -0.56220463172E+02 -0.74129104682E+02 -0.90149799191E+02  0.15362743004E+03  0.82574429019E+02 0.  0.
         25    2    1    2    0    0  0.12044623173E+03 -0.16632548027E+03  0.36450760198E+03  0.43665314894E+03  0.12501488093E+03 0.  0.
        -11    1    3    3    0    0  0.45090176627E+02  0.15188701214E+02 -0.18003496706E+03  0.18621603056E+03  0.00000000000E+00 0.  1.
         12    1    3    3    0    0 -0.26607789158E+02  0.49805905919E+02 -0.15601379553E+03  0.16591837482E+03  0.00000000000E+00 0. -1.
        -11    1    4    4    0    0 -0.11003141345E+02 -0.99483200262E+01 -0.71380183279E+02  0.72905203900E+02  0.00000000000E+00 0.  1.
         12    1    4    4    0    0 -0.45217321827E+02 -0.64180784656E+02 -0.18769615911E+02  0.80722226144E+02  0.00000000000E+00 0. -1.
          5    1    5    5  502    0  0.13486601964E+03 -0.91620583386E+02  0.26706592547E+03  0.31293685162E+03  0.47000000000E+01 0. -1.
         -5    1    5    5    0  502 -0.14419787911E+02 -0.74704896885E+02  0.97441676507E+02  0.12371629732E+03  0.47000000000E+01 0. -1.
          1    1    1    2  503    0 -0.78594706927E+02  0.13244341790E+03  0.22200084788E+04  0.22253440257E+04  0.00000000000E+00 0. -1.
         -2    1    1    2    0  501 -0.41134491026E+01  0.43016559918E+02 -0.95392103144E+02  0.10472343688E+03  0.00000000000E+00 0.  1.
<mgrwt>
<rscale>  0 0.82496027E+02</rscale>
<asrwt>0</asrwt>
<pdfrwt beam="1">  1        2 0.39230940E+00 0.15749029E+03</pdfrwt>
<pdfrwt beam="2">  1       -1 0.88938018E-01 0.43212786E+02</pdfrwt>
<totfact> 0.65026213E+00</totfact>
</mgrwt>
</event>
<event>
13    1  0.1942437E-008  0.2054468E+03  0.7546771E-02  0.1236570E+00
          2   -1    0    0  503    0  0.00000000000E+00  0.00000000000E+00  0.29110006202E+04  0.29110006202E+04  0.00000000000E+00 0. -1.
         -1   -1    0    0    0  501 -0.00000000000E+00 -0.00000000000E+00 -0.26321921778E+03  0.26321921778E+03  0.00000000000E+00 0.  1.
         24    2    1    2    0    0 -0.11122504355E+03 -0.61907302818E+02  0.14989052997E+03  0.21244284486E+03  0.80382006061E+02 0.  0.
         24    2    1    2    0    0  0.93555809586E+02  0.53810676886E+02  0.16464558930E+03  0.21264413927E+03  0.80380852410E+02 0.  0.
         25    2    1    2    0    0  0.14898200828E+03 -0.23550064377E+03  0.11127559602E+04  0.11539092939E+04  0.12499855879E+03 0.  0.
        -13    1    3    3    0    0 -0.52150497912E+02 -0.69254865803E+02  0.63219051297E+02  0.10729659508E+03  0.00000000000E+00 0.  1.
         14    1    3    3    0    0 -0.59074545642E+02  0.73475629856E+01  0.86671478678E+02  0.10514624977E+03  0.00000000000E+00 0. -1.
        -13    1    4    4    0    0  0.66881871199E+01  0.34997971310E+02  0.15141778036E+02  0.38715155751E+02  0.00000000000E+00 0.  1.
         14    1    4    4    0    0  0.86867622466E+02  0.18812705576E+02  0.14950381127E+03  0.17392898352E+03  0.00000000000E+00 0. -1.
          5    1    5    5  502    0  0.14072934011E+03 -0.10905119423E+03  0.68268207226E+03  0.70553087241E+03  0.47000000000E+01 0. -1.
         -5    1    5    5    0  502  0.82526681742E+01 -0.12644944954E+03  0.43007388790E+03  0.44837842151E+03  0.47000000000E+01 0. -1.
          1    1    1    2  503    0 -0.38670934649E+02  0.64139421229E+02  0.13520953185E+04  0.13541680313E+04  0.00000000000E+00 0. -1.
         -2    1    1    2    0  501 -0.92641839667E+02  0.17945784848E+03 -0.13160599555E+03  0.24105552867E+03  0.00000000000E+00 0.  1.
<mgrwt>
<rscale>  0 0.12404436E+03</rscale>
<asrwt>0</asrwt>
<pdfrwt beam="1">  1        2 0.42808831E+00 0.74895304E+02</pdfrwt>
<pdfrwt beam="2">  1       -1 0.38708710E-01 0.20544683E+03</pdfrwt>
<totfact> 0.25320083E+01</totfact>
</mgrwt>
</event>
<event>
13    1  0.1942437E-008  0.3554270E+02  0.7546771E-02  0.1588051E+00
          2   -1    0    0  502    0  0.00000000000E+00  0.00000000000E+00  0.19142813386E+04  0.19142813386E+04  0.00000000000E+00 0. -1.
          2   -1    0    0  503    0 -0.00000000000E+00 -0.00000000000E+00 -0.29329563416E+04  0.29329563416E+04  0.00000000000E+00 0. -1.
         24    2    1    2    0    0 -0.31383342852E+03 -0.51166870784E+03 -0.82986545508E+03  0.10276436686E+04  0.84134111270E+02 0.  0.
         24    2    1    2    0    0  0.55649777041E+03  0.51584886208E+03 -0.53308624601E+03  0.93091839621E+03  0.81475749370E+02 0.  0.
         25    2    1    2    0    0 -0.25272306365E+03 -0.63409547133E+01  0.57431744734E+03  0.63982407601E+03  0.12500065325E+03 0.  0.
        -11    1    4    4    0    0  0.25996264791E+03  0.26818987666E+03 -0.21876478825E+03  0.43285612024E+03  0.00000000000E+00 0.  1.
         12    1    4    4    0    0  0.29653512250E+03  0.24765898542E+03 -0.31432145776E+03  0.49806227597E+03  0.00000000000E+00 0. -1.
        -11    1    3    3    0    0 -0.13075753889E+03 -0.29286259244E+03 -0.44816061884E+03  0.55110250616E+03  0.00000000000E+00 0.  1.
         12    1    3    3    0    0 -0.18307588963E+03 -0.21880611540E+03 -0.38170483624E+03  0.47654116245E+03  0.00000000000E+00 0. -1.
          5    1    5    5  501    0 -0.26462633217E+03  0.13986043393E+01  0.51995429000E+03  0.58344117567E+03  0.47000000000E+01 0.  1.
         -5    1    5    5    0  501  0.11903268511E+02 -0.77395590526E+01  0.54363157338E+02  0.56382900345E+02  0.47000000000E+01 0.  1.
          1    1    1    2  502    0 -0.24121296002E+02  0.11935254725E+02  0.10089710133E+04  0.10093298731E+04  0.00000000000E+00 0. -1.
          1    1    1    2  503    0  0.34180017757E+02 -0.97744542564E+01 -0.12390117625E+04  0.12395216663E+04  0.00000000000E+00 0. -1.
<mgrwt>
<rscale>  0 0.30928076E+02</rscale>
<asrwt>0</asrwt>
<pdfrwt beam="1">  1        2 0.28151196E+00 0.26912585E+02</pdfrwt>
<pdfrwt beam="2">  1        2 0.43131711E+00 0.35542699E+02</pdfrwt>
<totfact> 0.67103892E+00</totfact>
</mgrwt>
</event>
<event>
13    1  0.1942437E-008  0.1191691E+03  0.7546771E-02  0.1371217E+00
          2   -1    0    0  502    0  0.00000000000E+00  0.00000000000E+00  0.15286157197E+04  0.15286157197E+04  0.00000000000E+00 0. -1.
          2   -1    0    0  503    0 -0.00000000000E+00 -0.00000000000E+00 -0.20428972977E+04  0.20428972977E+04  0.00000000000E+00 0. -1.
         24    2    1    2    0    0 -0.21456630917E+02 -0.29165706499E+02 -0.15585360272E+03  0.17742172970E+03  0.76662241320E+02 0.  0.
         24    2    1    2    0    0  0.10807130964E+03  0.30398288406E+03 -0.13178102530E+03  0.35774242790E+03  0.80798541557E+02 0.  0.
         25    2    1    2    0    0 -0.76386205836E+02 -0.10114185570E+03 -0.20389296416E+02  0.17918115589E+03  0.12500254318E+03 0.  0.
        -11    1    3    3    0    0 -0.37459322578E+02 -0.12169552653E+02 -0.30237374783E+02  0.49654785203E+02  0.00000000000E+00 0.  1.
         12    1    3    3    0    0  0.16002691661E+02 -0.16996153846E+02 -0.12561622794E+03  0.12776694450E+03  0.00000000000E+00 0. -1.
        -13    1    4    4    0    0  0.41590984147E+02  0.59579492154E+02 -0.95454803236E+00  0.72666615510E+02  0.00000000000E+00 0.  1.
         14    1    4    4    0    0  0.66480325498E+02  0.24440339191E+03 -0.13082647727E+03  0.28507581239E+03  0.00000000000E+00 0. -1.
          5    1    5    5  501    0  0.33101672386E+02 -0.98748033485E+01 -0.95913767317E+01  0.36156838406E+02  0.47000000000E+01 0.  1.
         -5    1    5    5    0  501 -0.10948787822E+03 -0.91267052355E+02 -0.10797919685E+02  0.14302431749E+03  0.47000000000E+01 0.  1.
          1    1    1    2  502    0 -0.14797480423E+02 -0.34433198591E+02  0.13220210121E+04  0.13225521415E+04  0.00000000000E+00 0. -1.
          1    1    1    2  503    0  0.45690075329E+01 -0.13924212327E+03 -0.15282786656E+04  0.15346155625E+04  0.00000000000E+00 0. -1.
<mgrwt>
<rscale>  0 0.66829912E+02</rscale>
<asrwt>0</asrwt>
<pdfrwt beam="1">  1        2 0.22479643E+00 0.37478135E+02</pdfrwt>
<pdfrwt beam="2">  1        2 0.30042607E+00 0.11916914E+03</pdfrwt>
<totfact> 0.22463359E+01</totfact>
</mgrwt>
</event>
<event>
13    1  0.1942437E-008  0.1464031E+03  0.7546771E-02  0.1272173E+00
          2   -1    0    0  503    0  0.00000000000E+00  0.00000000000E+00  0.10316077993E+04  0.10316077993E+04  0.00000000000E+00 0. -1.
          2   -1    0    0  502    0 -0.00000000000E+00 -0.00000000000E+00 -0.10532550102E+04  0.10532550102E+04  0.00000000000E+00 0. -1.
         24    2    1    2    0    0  0.23811318126E+01 -0.42364783952E+02 -0.30948001831E+03  0.32255527532E+03  0.80396387948E+02 0.  0.
         24    2    1    2    0    0  0.88723398270E+02  0.57623623734E+02  0.98281927066E+02  0.16588428532E+03  0.81645180599E+02 0.  0.
         25    2    1    2    0    0  0.57581702968E+02 -0.10647519984E+03  0.14626036052E+03  0.22730165382E+03  0.12498531143E+03 0.  0.
        -11    1    3    3    0    0  0.38462922314E+02 -0.37833144500E+02 -0.20248048669E+03  0.20954496106E+03  0.00000000000E+00 0.  1.
         12    1    3    3    0    0 -0.36081790502E+02 -0.45316394517E+01 -0.10699953163E+03  0.11301031426E+03  0.00000000000E+00 0. -1.
        -13    1    4    4    0    0  0.89380800720E+02  0.50141369117E+02  0.11102345408E+03  0.15109365238E+03  0.00000000000E+00 0.  1.
         14    1    4    4    0    0 -0.65740245002E+00  0.74822546174E+01 -0.12741527011E+02  0.14790632939E+02  0.00000000000E+00 0. -1.
          5    1    5    5  501    0  0.61984195559E+02 -0.12295661339E+03  0.81302303189E+02  0.15997663510E+03  0.47000000000E+01 0. -1.
         -5    1    5    5    0  501 -0.44024925914E+01  0.16481413546E+02  0.64958057327E+02  0.67325018717E+02  0.47000000000E+01 0. -1.
          1    1    1    2  502    0 -0.64930243015E+02 -0.35137647386E+02 -0.65267517907E+03  0.65683748378E+03  0.00000000000E+00 0. -1.
          1    1    1    2  503    0 -0.83755990035E+02  0.12635400744E+03  0.69596569896E+03  0.71228411129E+03  0.00000000000E+00 0. -1.
<mgrwt>
<rscale>  0 0.10396473E+03</rscale>
<asrwt>0</asrwt>
<pdfrwt beam="1">  1        2 0.15170703E+00 0.14640311E+03</pdfrwt>
<pdfrwt beam="2">  1        2 0.15489044E+00 0.73828116E+02</pdfrwt>
<totfact> 0.11979193E+02</totfact>
</mgrwt>
</event>
<event>
13    1  0.1942437E-008  0.6602463E+02  0.7546771E-02  0.1498842E+00
          2   -1    0    0  503    0  0.00000000000E+00  0.00000000000E+00  0.30057543869E+03  0.30057543869E+03  0.00000000000E+00 0. -1.
          2   -1    0    0  502    0 -0.00000000000E+00 -0.00000000000E+00 -0.47410857516E+04  0.47410857516E+04  0.00000000000E+00 0. -1.
         24    2    1    2    0    0  0.65450212253E+02 -0.13875144806E+02 -0.23791341652E+04  0.23813932734E+04  0.79235702906E+02 0.  0.
         24    2    1    2    0    0 -0.94247320271E+02  0.77998319738E+02 -0.48036044953E+03  0.50234457000E+03  0.81471530480E+02 0.  0.
         25    2    1    2    0    0 -0.79645534298E+01 -0.10468110181E+03 -0.20242606002E+02  0.16448955965E+03  0.12500193978E+03 0.  0.
        -11    1    4    4    0    0 -0.63599676439E+02  0.84948989492E+02 -0.27813096639E+03  0.29768789718E+03  0.00000000000E+00 0.  1.
         12    1    4    4    0    0 -0.30647643832E+02 -0.69506697533E+01 -0.20222948314E+03  0.20465667283E+03  0.00000000000E+00 0. -1.
        -13    1    3    3    0    0  0.18047238578E+02  0.27967946233E+02 -0.45282534602E+03  0.45404702711E+03  0.00000000000E+00 0.  1.
         14    1    3    3    0    0  0.47402973674E+02 -0.41843091039E+02 -0.19263088191E+04  0.19273462462E+04  0.00000000000E+00 0. -1.
          5    1    5    5  501    0  0.55435686284E+02 -0.39126368653E+02  0.89881784402E+01  0.68606598731E+02  0.47000000000E+01 0. -1.
         -5    1    5    5    0  501 -0.63400239714E+02 -0.65554733159E+02 -0.29230784442E+02  0.95882960918E+02  0.47000000000E+01 0. -1.
          1    1    1    2  502    0  0.14263172256E+02 -0.21542979747E+02 -0.17719653526E+04  0.17721537035E+04  0.00000000000E+00 0. -1.
          1    1    1    2  503    0  0.22498489193E+02  0.62100906626E+02  0.21119226039E+03  0.22128008376E+03  0.00000000000E+00 0. -1.
<mgrwt>
<rscale>  0 0.41302086E+02</rscale>
<asrwt>0</asrwt>
<pdfrwt beam="1">  1        2 0.44202277E-01 0.66024627E+02</pdfrwt>
<pdfrwt beam="2">  1        2 0.69721839E+00 0.25836758E+02</pdfrwt>
<totfact> 0.51766313E+00</totfact>
</mgrwt>
</event>
<event>
13    1  0.1942437E-008  0.1253355E+03  0.7546771E-02  0.1260850E+00
          2   -1    0    0  503    0  0.00000000000E+00  0.00000000000E+00  0.20860187885E+04  0.20860187885E+04  0.00000000000E+00 0. -1.
          2   -1    0    0  502    0 -0.00000000000E+00 -0.00000000000E+00 -0.11069811618E+04  0.11069811618E+04  0.00000000000E+00 0. -1.
         24    2    1    2    0    0 -0.10141829756E+03  0.93852628534E+02 -0.17575122929E+03  0.23770743213E+03  0.80761016145E+02 0.  0.
         24    2    1    2    0    0  0.22771652083E+02 -0.14661436082E+02  0.38359764228E+03  0.39311626601E+03  0.81607239824E+02 0.  0.
         25    2    1    2    0    0 -0.55599237281E+02  0.44036836014E+02  0.48212692284E+03  0.50309317787E+03  0.12500343109E+03 0.  0.
        -11    1    3    3    0    0  0.13091106844E+02  0.19595648620E+02 -0.25162792585E+02  0.34475101943E+02  0.00000000000E+00 0.  1.
         12    1    3    3    0    0 -0.11450940441E+03  0.74256979914E+02 -0.15058843671E+03  0.20323233019E+03  0.00000000000E+00 0. -1.
        -13    1    4    4    0    0 -0.11026932158E+02  0.27448759193E+02  0.18313970307E+03  0.18551328377E+03  0.00000000000E+00 0.  1.
         14    1    4    4    0    0  0.33798584241E+02 -0.42110195276E+02  0.20045793921E+03  0.20760298224E+03  0.00000000000E+00 0. -1.
          5    1    5    5  501    0 -0.68195620371E+02  0.28882311277E+02  0.47625325635E+03  0.48200008789E+03  0.47000000000E+01 0.  1.
         -5    1    5    5    0  501  0.12596383090E+02  0.15154524737E+02  0.58736664890E+01  0.21093089982E+02  0.47000000000E+01 0.  1.
          1    1    1    2  502    0  0.43370189441E+02 -0.11706404474E+03 -0.87882482366E+03  0.88764747202E+03  0.00000000000E+00 0. -1.
          1    1    1    2  503    0  0.90875693318E+02 -0.61639837295E+01  0.11678891146E+04  0.11714356023E+04  0.00000000000E+00 0. -1.
<mgrwt>
<rscale>  0 0.10984881E+03</rscale>
<asrwt>0</asrwt>
<pdfrwt beam="1">  1        2 0.30676747E+00 0.96275674E+02</pdfrwt>
<pdfrwt beam="2">  1        2 0.16279135E+00 0.12533552E+03</pdfrwt>
<totfact> 0.32902573E+01</totfact>
</mgrwt>
</event>
<event>
13    1  0.6192193E-008  0.4288708E+03  0.7546771E-02  0.1150333E+00
          2   -1    0    0  503    0  0.00000000000E+00  0.00000000000E+00  0.74019327905E+03  0.74019327905E+03  0.00000000000E+00 0. -1.
          2   -1    0    0  502    0 -0.00000000000E+00 -0.00000000000E+00 -0.25103915335E+04  0.25103915335E+04  0.00000000000E+00 0. -1.
         24    2    1    2    0    0  0.50383215141E+02 -0.16225475244E+02 -0.27637525949E+03  0.29244049569E+03  0.79601664860E+02 0.  0.
         24    2    1    2    0    0  0.11548100046E+02  0.12782098571E+03 -0.74579741020E+02  0.16746546982E+03  0.77530528233E+02 0.  0.
         25    2    1    2    0    0  0.32354346339E+03 -0.39856195291E+03 -0.51178009186E+03  0.73557880120E+03  0.12500122940E+03 0.  0.
        -13    1    4    4    0    0  0.10648329229E+01 -0.10310427941E+02 -0.10768063739E+02  0.14946236656E+02  0.00000000000E+00 0.  1.
         14    1    4    4    0    0  0.10483267123E+02  0.13813141365E+03 -0.63811677281E+02  0.15251923316E+03  0.00000000000E+00 0. -1.
        -13    1    3    3    0    0  0.19671307413E+01  0.23138992751E+02 -0.14677364935E+03  0.14859941700E+03  0.00000000000E+00 0.  1.
         14    1    3    3    0    0  0.48416084399E+02 -0.39364467995E+02 -0.12960161014E+03  0.14384107869E+03  0.00000000000E+00 0. -1.
          5    1    5    5  501    0  0.10072548103E+03 -0.69646669341E+02 -0.68855240745E+02  0.14056818722E+03  0.47000000000E+01 0.  1.
         -5    1    5    5    0  501  0.22281798236E+03 -0.32891528356E+03 -0.44292485112E+03  0.59501061399E+03  0.47000000000E+01 0.  1.
          1    1    1    2  502    0 -0.91883354787E+02 -0.11612571581E+02 -0.14031571626E+04  0.14062103064E+04  0.00000000000E+00 0. -1.
          1    1    1    2  503    0 -0.29359142379E+03  0.29857901402E+03  0.49569400058E+03  0.64888973944E+03  0.00000000000E+00 0. -1.
<mgrwt>
<rscale>  0 0.19929765E+03</rscale>
<asrwt>0</asrwt>
<pdfrwt beam="1">  1        2 0.10885195E+00 0.42887080E+03</pdfrwt>
<pdfrwt beam="2">  1        2 0.36917523E+00 0.92614268E+02</pdfrwt>
<totfact> 0.33178638E+01</totfact>
</mgrwt>
</event>
<event>
13    1  0.1942437E-008  0.7622799E+02  0.7546771E-02  0.1430446E+00
          2   -1    0    0  502    0  0.00000000000E+00  0.00000000000E+00  0.10190278165E+04  0.10190278165E+04  0.00000000000E+00 0. -1.
          2   -1    0    0  503    0 -0.00000000000E+00 -0.00000000000E+00 -0.59540669338E+03  0.59540669338E+03  0.00000000000E+00 0. -1.
         24    2    1    2    0    0 -0.76671617172E+02 -0.29986358640E+02  0.15217894081E+02  0.11127329085E+03  0.73296946546E+02 0.  0.
         24    2    1    2    0    0 -0.14969321891E+03  0.14811215536E+02 -0.31605457600E+02  0.17437354940E+03  0.82339528095E+02 0.  0.
         25    2    1    2    0    0  0.27102885809E+03  0.18094067631E+01  0.52199611842E+03  0.60130267329E+03  0.12500016554E+03 0.  0.
        -11    1    4    4    0    0 -0.34898863985E+02  0.32376267489E+02  0.13983242179E+02  0.49615365219E+02  0.00000000000E+00 0.  1.
         12    1    4    4    0    0 -0.11479435492E+03 -0.17565051953E+02 -0.45588699779E+02  0.12475818418E+03  0.00000000000E+00 0. -1.
        -11    1    3    3    0    0 -0.37267436290E+02 -0.12338796500E+02  0.44319463765E+02  0.59205764712E+02  0.00000000000E+00 0.  1.
         12    1    3    3    0    0 -0.39404180882E+02 -0.17647562140E+02 -0.29101569684E+02  0.52067526142E+02  0.00000000000E+00 0. -1.
          5    1    5    5  501    0  0.92103200660E+02  0.49464522637E+02  0.26155189784E+03  0.28171124194E+03  0.47000000000E+01 0. -1.
         -5    1    5    5    0  501  0.17892565743E+03 -0.47655115874E+02  0.26044422058E+03  0.31959143135E+03  0.47000000000E+01 0. -1.
          1    1    1    2  502    0  0.16092320473E+02 -0.32950556965E+02  0.31808083055E+03  0.32018762741E+03  0.00000000000E+00 0. -1.
          1    1    1    2  503    0 -0.60756342485E+02  0.46316293306E+02 -0.40006826236E+03  0.40729736892E+03  0.00000000000E+00 0. -1.
<mgrwt>
<rscale>  0 0.52870539E+02</rscale>
<asrwt>0</asrwt>
<pdfrwt beam="1">  1        2 0.14985703E+00 0.36670178E+02</pdfrwt>
<pdfrwt beam="2">  1        2 0.87559808E-01 0.76227987E+02</pdfrwt>
<totfact> 0.25814463E+02</totfact>
</mgrwt>
</event>
<event>
13    1  0.1942437E-008  0.1381452E+03  0.7546771E-02  0.1285400E+00
         -1   -1    0    0    0  501 -0.00000000000E+00  0.00000000000E+00  0.67244295204E+03  0.67244295204E+03  0.00000000000E+00 0.  1.
          2   -1    0    0  503    0  0.00000000000E+00 -0.00000000000E+00 -0.17475858849E+04  0.17475858849E+04  0.00000000000E+00 0. -1.
         24    2    1    2    0    0  0.82312350389E+02  0.10109088869E+03  0.62931532747E+02  0.16561127741E+03  0.80448906701E+02 0.  0.
         24    2    1    2    0    0 -0.14731545339E+03 -0.37604601436E+01 -0.47389201165E+02  0.17414664236E+03  0.79783035723E+02 0.  0.
         25    2    1    2    0    0  0.22640082554E+03 -0.79062957857E+02 -0.46288504134E+03  0.53609403855E+03  0.12500388619E+03 0.  0.
        -11    1    3    3    0    0  0.68576268939E+02  0.11449761618E+03  0.50267522199E+02  0.14261568133E+03  0.00000000000E+00 0.  1.
         12    1    3    3    0    0  0.13736081450E+02 -0.13406727499E+02  0.12664010548E+02  0.22995596078E+02  0.00000000000E+00 0. -1.
        -13    1    4    4    0    0 -0.84680642867E+02 -0.22793368375E+02  0.84538931373E+01  0.88101176084E+02  0.00000000000E+00 0.  1.
         14    1    4    4    0    0 -0.62634810528E+02  0.19032908231E+02 -0.55843094303E+02  0.86045466277E+02  0.00000000000E+00 0. -1.
          5    1    5    5  502    0  0.21056436907E+03 -0.10831577029E+03 -0.40600636510E+03  0.47003501797E+03  0.47000000000E+01 0.  1.
         -5    1    5    5    0  502  0.15836456468E+02  0.29252812438E+02 -0.56878676237E+02  0.66059020576E+02  0.47000000000E+01 0.  1.
          1    1    1    2  503    0 -0.43530956696E+02  0.53498359148E+02 -0.10744673940E+04  0.10766787819E+04  0.00000000000E+00 0. -1.
         -2    1    1    2    0  501 -0.11786676584E+03 -0.71765829833E+02  0.44666717093E+03  0.46749809669E+03  0.00000000000E+00 0.  1.
<mgrwt>
<rscale>  0 0.97611626E+02</rscale>
<asrwt>0</asrwt>
<pdfrwt beam="2">  1        2 0.25699793E+00 0.68971143E+02</pdfrwt>
<pdfrwt beam="1">  1       -1 0.98888668E-01 0.13814516E+03</pdfrwt>
<totfact> 0.15393468E+01</totfact>
</mgrwt>
</event>
<event>
13    1  0.1942437E-008  0.6465904E+02  0.7546771E-02  0.1476779E+00
          2   -1    0    0  503    0  0.00000000000E+00  0.00000000000E+00  0.21148318707E+04  0.21148318707E+04  0.00000000000E+00 0. -1.
          2   -1    0    0  502    0 -0.00000000000E+00 -0.00000000000E+00 -0.19189577756E+04  0.19189577756E+04  0.00000000000E+00 0. -1.
         24    2    1    2    0    0 -0.88028381751E+02 -0.29282260323E+01 -0.65734088702E+03  0.66809819372E+03  0.80626200436E+02 0.  0.
         24    2    1    2    0    0  0.89017052504E+02 -0.78595784148E+02 -0.27590234169E+03  0.31120870117E+03  0.81408971308E+02 0.  0.
         25    2    1    2    0    0  0.89413983915E+02  0.58775401601E+02  0.38159545791E+03  0.41555781426E+03  0.12499518048E+03 0.  0.
        -11    1    4    4    0    0  0.35834795802E+02 -0.78306801201E+02 -0.20677035423E+03  0.22398675652E+03  0.00000000000E+00 0.  1.
         12    1    4    4    0    0  0.53182256702E+02 -0.28898294669E+00 -0.69131987458E+02  0.87221944652E+02  0.00000000000E+00 0. -1.
        -13    1    3    3    0    0 -0.30465790015E+02  0.32133120572E+02 -0.15316702995E+03  0.15943914470E+03  0.00000000000E+00 0.  1.
         14    1    3    3    0    0 -0.57562591736E+02 -0.35061346604E+02 -0.50417385707E+03  0.50865904902E+03  0.00000000000E+00 0. -1.
          5    1    5    5  501    0  0.31652875246E+02  0.91884199108E+02  0.24201495982E+03  0.26084083525E+03  0.47000000000E+01 0.  1.
         -5    1    5    5    0  501  0.57761108669E+02 -0.33108797507E+02  0.13958049809E+03  0.15471697901E+03  0.47000000000E+01 0.  1.
          1    1    1    2  502    0 -0.59683350270E+02  0.24685328396E+02 -0.94445865187E+03  0.94666446686E+03  0.00000000000E+00 0. -1.
          1    1    1    2  503    0 -0.30719304398E+02 -0.19367198171E+01  0.16919805178E+04  0.16922604702E+04  0.00000000000E+00 0. -1.
<mgrwt>
<rscale>  0 0.44611932E+02</rscale>
<asrwt>0</asrwt>
<pdfrwt beam="1">  1        2 0.31100469E+00 0.30780295E+02</pdfrwt>
<pdfrwt beam="2">  1        2 0.28219967E+00 0.64659044E+02</pdfrwt>
<totfact> 0.15131071E+01</totfact>
</mgrwt>
</event>
<event>
13    1  0.1992738E-008  0.2871908E+02  0.7546771E-02  0.1653290E+00
          2   -1    0    0  503    0  0.00000000000E+00  0.00000000000E+00  0.28305295142E+04  0.28305295142E+04  0.00000000000E+00 0. -1.
          2   -1    0    0  502    0 -0.00000000000E+00 -0.00000000000E+00 -0.22198016797E+04  0.22198016797E+04  0.00000000000E+00 0. -1.
         24    2    1    2    0    0 -0.66473450891E+02 -0.38012606359E+03 -0.14079000051E+03  0.42475847672E+03  0.10808975626E+03 0.  0.
         24    2    1    2    0    0 -0.39295479697E+03  0.10034473913E+04  0.10862065373E+04  0.15322069665E+04  0.80581678138E+02 0.  0.
         25    2    1    2    0    0  0.42061990692E+03 -0.63585511765E+03  0.33660201206E+03  0.84271004352E+03  0.12500586464E+03 0.  0.
        -11    1    3    3    0    0 -0.35140071609E+02 -0.80176258293E+02  0.90470394075E+01  0.88005147284E+02  0.00000000000E+00 0.  1.
         12    1    3    3    0    0 -0.31333379282E+02 -0.29994980530E+03 -0.14983703992E+03  0.33675332944E+03  0.00000000000E+00 0. -1.
        -13    1    4    4    0    0 -0.48803244674E+02  0.19273198569E+03  0.17391707090E+03  0.26414867509E+03  0.00000000000E+00 0.  1.
         14    1    4    4    0    0 -0.34415155230E+03  0.81071540559E+03  0.91228946640E+03  0.12680582914E+04  0.00000000000E+00 0. -1.
          5    1    5    5  501    0  0.38565532033E+03 -0.54297432217E+03  0.25158912800E+03  0.71194825652E+03  0.47000000000E+01 0. -1.
         -5    1    5    5    0  501  0.34964586593E+02 -0.92880795480E+02  0.85012884059E+02  0.13076178700E+03  0.47000000000E+01 0. -1.
          1    1    1    2  502    0  0.18237347736E+02  0.22184731862E+02 -0.14606685794E+04  0.14609508760E+04  0.00000000000E+00 0. -1.
          1    1    1    2  503    0  0.20570993204E+02 -0.96509418981E+01  0.78937786506E+03  0.78970483112E+03  0.00000000000E+00 0. -1.
<mgrwt>
<rscale>  0 0.25545366E+02</rscale>
<asrwt>0</asrwt>
<pdfrwt beam="1">  1        2 0.41625434E+00 0.22722378E+02</pdfrwt>
<pdfrwt beam="2">  1        2 0.32644142E+00 0.28719078E+02</pdfrwt>
<totfact> 0.58958768E+00</totfact>
</mgrwt>
</event>
<event>
13    1  0.1942437E-008  0.4930306E+03  0.7546771E-02  0.1166152E+00
          2   -1    0    0  502    0  0.00000000000E+00  0.00000000000E+00  0.16537322188E+04  0.16537322188E+04  0.00000000000E+00 0. -1.
          2   -1    0    0  503    0 -0.00000000000E+00 -0.00000000000E+00 -0.29494499783E+04  0.29494499783E+04  0.00000000000E+00 0. -1.
         24    2    1    2    0    0 -0.52349976203E+02 -0.30847934939E+02 -0.11413965101E+03  0.15982435811E+03  0.93935352308E+02 0.  0.
         24    2    1    2    0    0 -0.18981847383E+03 -0.95035980344E+02  0.57676005145E+02  0.23445029977E+03  0.81101978556E+02 0.  0.
         25    2    1    2    0    0  0.28121364112E+03  0.11145157536E+04 -0.18290381214E+03  0.11706012653E+04  0.12500816234E+03 0.  0.
        -11    1    3    3    0    0  0.15412791989E+02 -0.39926865439E+02 -0.52847481424E+02  0.68004154532E+02  0.00000000000E+00 0.  1.
         12    1    3    3    0    0 -0.67762768192E+02  0.90789305003E+01 -0.61292169590E+02  0.91820203578E+02  0.00000000000E+00 0. -1.
        -13    1    4    4    0    0 -0.61664109788E+01  0.99890612963E+01 -0.64360722795E+01  0.13387643420E+02  0.00000000000E+00 0.  1.
         14    1    4    4    0    0 -0.18365206285E+03 -0.10502504164E+03  0.64112077425E+02  0.22106265635E+03  0.00000000000E+00 0. -1.
          5    1    5    5  501    0  0.25347521280E+03  0.10392350745E+04 -0.20048136418E+03  0.10883354681E+04  0.47000000000E+01 0. -1.
         -5    1    5    5    0  501  0.27738428312E+02  0.75280679108E+02  0.17577552047E+02  0.82265797195E+02  0.47000000000E+01 0. -1.
          1    1    1    2  502    0 -0.91171900364E+02 -0.94657769369E+03  0.76208079270E+03  0.12186421871E+04  0.00000000000E+00 0. -1.
          1    1    1    2  503    0  0.52126709286E+02 -0.42054144670E+02 -0.18184310942E+04  0.18196640869E+04  0.00000000000E+00 0. -1.
<mgrwt>
<rscale>  0 0.18171701E+03</rscale>
<asrwt>0</asrwt>
<pdfrwt beam="1">  1        2 0.24319592E+00 0.49303061E+03</pdfrwt>
<pdfrwt beam="2">  1        2 0.43374264E+00 0.66975704E+02</pdfrwt>
<totfact> 0.60521095E+00</totfact>
</mgrwt>
</event>
<event>
13    1  0.1942437E-008  0.2352252E+03  0.7546771E-02  0.1274375E+00
          2   -1    0    0  503    0  0.00000000000E+00  0.00000000000E+00  0.32345356343E+04  0.32345356343E+04  0.00000000000E+00 0. -1.
          2   -1    0    0  502    0 -0.00000000000E+00 -0.00000000000E+00 -0.13781991740E+04  0.13781991740E+04  0.00000000000E+00 0. -1.
         24    2    1    2    0    0  0.11934459143E+03  0.93160978268E+02 -0.86043870035E+02  0.19024581646E+03  0.76601721480E+02 0.  0.
         24    2    1    2    0    0 -0.84034273905E+02 -0.57579157153E+03  0.13415864061E+03  0.60145995349E+03  0.71818115904E+02 0.  0.
         25    2    1    2    0    0 -0.27623573222E+03  0.52421691014E+03  0.12532721522E+04  0.13919139452E+04  0.12499517844E+03 0.  0.
        -13    1    3    3    0    0  0.81981121593E+02  0.50434495958E+02 -0.12070900414E+02  0.97006439564E+02  0.00000000000E+00 0.  1.
         14    1    3    3    0    0  0.37363469835E+02  0.42726482310E+02 -0.73972969621E+02  0.93239376893E+02  0.00000000000E+00 0. -1.
        -13    1    4    4    0    0 -0.33164252967E+02 -0.15928729187E+03  0.69428262011E+02  0.17689712432E+03  0.00000000000E+00 0.  1.
         14    1    4    4    0    0 -0.50870020937E+02 -0.41650427966E+03  0.64730378601E+02  0.42456282917E+03  0.00000000000E+00 0. -1.
          5    1    5    5  501    0 -0.28783976303E+02  0.78696783896E+02  0.29292946358E+03  0.30471537821E+03  0.47000000000E+01 0. -1.
         -5    1    5    5    0  501 -0.24745175591E+03  0.44552012624E+03  0.96034268865E+03  0.10871985670E+04  0.47000000000E+01 0. -1.
          1    1    1    2  502    0  0.23368142932E+03 -0.85986647268E+02 -0.92019292262E+03  0.95328680299E+03  0.00000000000E+00 0. -1.
          1    1    1    2  503    0  0.72439853776E+01  0.44400330390E+02  0.14751424600E+04  0.14758282902E+04  0.00000000000E+00 0. -1.
<mgrwt>
<rscale>  0 0.10286967E+03</rscale>
<asrwt>0</asrwt>
<pdfrwt beam="1">  1        2 0.47566700E+00 0.44987383E+02</pdfrwt>
<pdfrwt beam="2">  1        2 0.20267635E+00 0.23522525E+03</pdfrwt>
<totfact> 0.67204024E+00</totfact>
</mgrwt>
</event>
<event>
13    1  0.1942437E-008  0.7623598E+02  0.7546771E-02  0.1529181E+00
          2   -1    0    0  503    0  0.00000000000E+00  0.00000000000E+00  0.16132990479E+04  0.16132990479E+04  0.00000000000E+00 0. -1.
         -1   -1    0    0    0  501 -0.00000000000E+00 -0.00000000000E+00 -0.14790743383E+03  0.14790743383E+03  0.00000000000E+00 0.  1.
         24    2    1    2    0    0  0.26822762034E+02 -0.45366108401E+02  0.12068668463E+03  0.15386698827E+03  0.79575309480E+02 0.  0.
         24    2    1    2    0    0 -0.10807305845E+02  0.11291067070E+03  0.48865567680E+03  0.50790380481E+03  0.79475071929E+02 0.  0.
         25    2    1    2    0    0 -0.63626733853E+02 -0.13897360118E+03  0.39603694610E+03  0.44253038782E+03  0.12500343348E+03 0.  0.
        -11    1    3    3    0    0  0.34468783757E+02 -0.54068688068E+02  0.12580412096E+03  0.14120268033E+03  0.00000000000E+00 0.  1.
         12    1    3    3    0    0 -0.76460217236E+01  0.87025796668E+01 -0.51174363281E+01  0.12664307941E+02  0.00000000000E+00 0. -1.
        -13    1    4    4    0    0  0.77047903158E+01  0.10090130150E+03  0.46360255009E+03  0.47451845158E+03  0.00000000000E+00 0.  1.
         14    1    4    4    0    0 -0.18512096161E+02  0.12009369192E+02  0.25053126712E+02  0.33385353236E+02  0.00000000000E+00 0. -1.
          5    1    5    5  502    0  0.33506086357E+02 -0.65000216307E+02  0.11910400087E+03  0.13984112044E+03  0.47000000000E+01 0.  1.
         -5    1    5    5    0  502 -0.97132820211E+02 -0.73973384869E+02  0.27693294523E+03  0.30268926738E+03  0.47000000000E+01 0.  1.
          1    1    1    2  503    0  0.53154173362E+02  0.54054694100E+02  0.55501467141E+03  0.56016833325E+03  0.00000000000E+00 0. -1.
         -2    1    1    2    0  501 -0.55428956980E+01  0.17374344780E+02 -0.95002364908E+02  0.96736967533E+02  0.00000000000E+00 0.  1.
<mgrwt>
<rscale>  0 0.37287030E+02</rscale>
<asrwt>0</asrwt>
<pdfrwt beam="1">  1        2 0.23724985E+00 0.76235980E+02</pdfrwt>
<pdfrwt beam="2">  1       -1 0.21751094E-01 0.18237093E+02</pdfrwt>
<totfact> 0.26007693E+02</totfact>
</mgrwt>
</event>
<event>
13    1  0.1942437E-008  0.2185171E+03  0.7546771E-02  0.1255037E+00
          2   -1    0    0  502    0  0.00000000000E+00  0.00000000000E+00  0.11870065365E+04  0.11870065365E+04  0.00000000000E+00 0. -1.
          2   -1    0    0  503    0 -0.00000000000E+00 -0.00000000000E+00 -0.33877948721E+04  0.33877948721E+04  0.00000000000E+00 0. -1.
         24    2    1    2    0    0  0.23739150210E+02 -0.11122816186E+02 -0.15094343728E+03  0.17286508161E+03  0.80069662732E+02 0.  0.
         24    2    1    2    0    0 -0.36638772569E+02 -0.31559905764E+02 -0.50027155020E+02  0.10657655371E+03  0.80730528635E+02 0.  0.
         25    2    1    2    0    0  0.21688456608E+03  0.36846315857E+02 -0.60703206558E+03  0.65765458102E+03  0.12500021320E+03 0.  0.
        -11    1    4    4    0    0 -0.54446703405E+02 -0.12577149554E+02 -0.70381270524E+01  0.56321962280E+02  0.00000000000E+00 0.  1.
         12    1    4    4    0    0  0.17807930837E+02 -0.18982756210E+02 -0.42989027968E+02  0.50254591429E+02  0.00000000000E+00 0. -1.
        -11    1    3    3    0    0  0.73596452894E+01  0.34244447131E+02 -0.76842176202E+02  0.84448603195E+02  0.00000000000E+00 0.  1.
         12    1    3    3    0    0  0.16379504920E+02 -0.45367263316E+02 -0.74101261074E+02  0.88416478413E+02  0.00000000000E+00 0. -1.
          5    1    5    5  501    0  0.53786343625E+02  0.67915648354E+02 -0.19711637758E+03  0.21536588022E+03  0.47000000000E+01 0.  1.
         -5    1    5    5    0  501  0.16309822245E+03 -0.31069332497E+02 -0.40991568800E+03  0.44228870080E+03  0.47000000000E+01 0.  1.
          1    1    1    2  502    0 -0.20929246802E+03  0.64073939388E+02  0.11114446620E+04  0.11327921449E+04  0.00000000000E+00 0. -1.
          1    1    1    2  503    0  0.53075242989E+01 -0.58237533295E+02 -0.25042303398E+04  0.25049130474E+04  0.00000000000E+00 0. -1.
<mgrwt>
<rscale>  0 0.11304262E+03</rscale>
<asrwt>0</asrwt>
<pdfrwt beam="1">  1        2 0.17455979E+00 0.21851706E+03</pdfrwt>
<pdfrwt beam="2">  1        2 0.49820513E+00 0.58478886E+02</pdfrwt>
<totfact> 0.67086414E+00</totfact>
</mgrwt>
</event>
<event>
13    1  0.1942437E-008  0.4463104E+02  0.7546771E-02  0.1526060E+00
          2   -1    0    0  503    0  0.00000000000E+00  0.00000000000E+00  0.10315631933E+04  0.10315631933E+04  0.00000000000E+00 0. -1.
         -1   -1    0    0    0  501 -0.00000000000E+00 -0.00000000000E+00 -0.43844840767E+03  0.43844840767E+03  0.00000000000E+00 0.  1.
         24    2    1    2    0    0  0.13262895363E+03 -0.23006702482E+02  0.89755931444E+01  0.15635531940E+03  0.79035921791E+02 0.  0.
         24    2    1    2    0    0 -0.99476883518E+02  0.18207634431E+03  0.79691219870E+01  0.22261908592E+03  0.80301338717E+02 0.  0.
         25    2    1    2    0    0 -0.47560762623E+02 -0.14851745644E+03  0.47017898960E+03  0.51089450973E+03  0.12500182719E+03 0.  0.
        -11    1    4    4    0    0 -0.72494441748E+01  0.85764428668E+02 -0.14820608036E+02  0.87336945722E+02  0.00000000000E+00 0.  1.
         12    1    4    4    0    0 -0.92227439343E+02  0.96311915642E+02  0.22789730023E+02  0.13528214020E+03  0.00000000000E+00 0. -1.
        -13    1    3    3    0    0  0.68704076673E+02  0.23865046418E+02 -0.13477373326E+02  0.73969116419E+02  0.00000000000E+00 0.  1.
         14    1    3    3    0    0  0.63924876958E+02 -0.46871748900E+02  0.22452966470E+02  0.82386202986E+02  0.00000000000E+00 0. -1.
          5    1    5    5  502    0  0.42130271182E+02 -0.36177580536E+02  0.11900258216E+03  0.13140578999E+03  0.47000000000E+01 0.  1.
         -5    1    5    5    0  502 -0.89691033805E+02 -0.11233987590E+03  0.35117640744E+03  0.37948871973E+03  0.47000000000E+01 0.  1.
          1    1    1    2  503    0  0.44831004808E+02 -0.12877246929E+01  0.34052334159E+03  0.34346415155E+03  0.00000000000E+00 0. -1.
         -2    1    1    2    0  501 -0.30422312299E+02 -0.92644606977E+01 -0.23453226070E+03  0.23667853436E+03  0.00000000000E+00 0.  1.
<mgrwt>
<rscale>  0 0.37674162E+02</rscale>
<asrwt>0</asrwt>
<pdfrwt beam="1">  1        2 0.15170047E+00 0.44631044E+02</pdfrwt>
<pdfrwt beam="2">  1       -1 0.64477707E-01 0.31801687E+02</pdfrwt>
<totfact> 0.88723195E+01</totfact>
</mgrwt>
</event>
<event>
13    1  0.1942437E-008  0.2057396E+03  0.7546771E-02  0.1150004E+00
          2   -1    0    0  502    0  0.00000000000E+00  0.00000000000E+00  0.23774428167E+04  0.23774428167E+04  0.00000000000E+00 0. -1.
          2   -1    0    0  503    0 -0.00000000000E+00 -0.00000000000E+00 -0.59809232903E+03  0.59809232903E+03  0.00000000000E+00 0. -1.
         24    2    1    2    0    0 -0.67952064151E+02 -0.10925601209E+03  0.10421857422E+03  0.18431698379E+03  0.80974564533E+02 0.  0.
         24    2    1    2    0    0  0.95333548595E+02  0.11239621628E+03 -0.74310524683E+01  0.16809947759E+03  0.80503533483E+02 0.  0.
         25    2    1    2    0    0 -0.24591862922E+02 -0.10235803728E+02  0.21782940728E+03  0.25258370639E+03  0.12505737347E+03 0.  0.
        -13    1    3    3    0    0 -0.85637994668E+02 -0.88842346341E+02  0.95164490001E+02  0.15583038469E+03  0.00000000000E+00 0.  1.
         14    1    3    3    0    0  0.17685930517E+02 -0.20413665745E+02  0.90540842176E+01  0.28486599102E+02  0.00000000000E+00 0. -1.
        -13    1    4    4    0    0  0.10500215590E+03  0.81006817442E+02  0.56676873857E+01  0.13273914229E+03  0.00000000000E+00 0.  1.
         14    1    4    4    0    0 -0.96686073050E+01  0.31389398842E+02 -0.13098739854E+02  0.35360335302E+02  0.00000000000E+00 0. -1.
          5    1    5    5  501    0  0.14488158121E+02  0.49320330830E+02  0.12677355052E+03  0.13687959990E+03  0.47000000000E+01 0.  1.
         -5    1    5    5    0  501 -0.39080021043E+02 -0.59556134558E+02  0.91055856763E+02  0.11570410649E+03  0.47000000000E+01 0.  1.
          1    1    1    2  502    0 -0.19474195211E+03  0.21613453942E-01  0.18920428228E+04  0.19020385043E+04  0.00000000000E+00 0. -1.
          1    1    1    2  503    0  0.19195233059E+03  0.70739860752E+01 -0.42730926423E+03  0.46849647362E+03  0.00000000000E+00 0. -1.
<mgrwt>
<rscale>  0 0.19968651E+03</rscale>
<asrwt>0</asrwt>
<pdfrwt beam="1">  1        2 0.34962394E+00 0.19381156E+03</pdfrwt>
<pdfrwt beam="2">  1        2 0.87954756E-01 0.20573955E+03</pdfrwt>
<totfact> 0.46418304E+01</totfact>
</mgrwt>
</event>
<event>
13    1  0.1942437E-008  0.1030897E+03  0.7546771E-02  0.1336565E+00
          2   -1    0    0  503    0  0.00000000000E+00  0.00000000000E+00  0.20678929390E+04  0.20678929390E+04  0.00000000000E+00 0. -1.
         -3   -1    0    0    0  501 -0.00000000000E+00 -0.00000000000E+00 -0.28643633140E+04  0.28643633140E+04  0.00000000000E+00 0.  1.
         24    2    1    2    0    0 -0.12776271563E+03  0.27594038826E+03 -0.50337347731E+03  0.59423957355E+03  0.85260798352E+02 0.  0.
         24    2    1    2    0    0  0.26422700649E+03 -0.33754275059E+03 -0.15960265394E+03  0.46611303249E+03  0.89651171114E+02 0.  0.
         25    2    1    2    0    0  0.11786774722E+02  0.39435509139E+02 -0.62433711874E+02  0.14565228134E+03  0.12499012457E+03 0.  0.
        -11    1    3    3    0    0 -0.66501778869E+02  0.22381680191E+03 -0.40130508185E+03  0.46428678221E+03  0.00000000000E+00 0.  1.
         12    1    3    3    0    0 -0.61260936762E+02  0.52123586341E+02 -0.10206839546E+03  0.12995279134E+03  0.00000000000E+00 0. -1.
        -13    1    4    4    0    0  0.63857396544E+02 -0.57786318992E+02  0.15519268241E+01  0.86136137787E+02  0.00000000000E+00 0.  1.
         14    1    4    4    0    0  0.20036960995E+03 -0.27975643160E+03 -0.16115458076E+03  0.37997689471E+03  0.00000000000E+00 0. -1.
          5    1    5    5  502    0 -0.17647919858E+02 -0.31111370958E+02  0.12815812385E+02  0.38284481520E+02  0.47000000000E+01 0. -1.
         -5    1    5    5    0  502  0.29434694580E+02  0.70546880096E+02 -0.75249524259E+02  0.10736779982E+03  0.47000000000E+01 0. -1.
          1    1    1    2  503    0 -0.46233449071E+02  0.35232289191E+02  0.18257396597E+04  0.18266647616E+04  0.00000000000E+00 0. -1.
         -4    1    1    2    0  501 -0.10201761651E+03 -0.13065435996E+02 -0.18968001915E+04  0.18995866041E+04  0.00000000000E+00 0.  1.
<mgrwt>
<rscale>  0 0.77410469E+02</rscale>
<asrwt>0</asrwt>
<pdfrwt beam="1">  1        2 0.30410191E+00 0.58127842E+02</pdfrwt>
<pdfrwt beam="2">  1       -3 0.42122990E+00 0.10308968E+03</pdfrwt>
<totfact> 0.61845537E-02</totfact>
</mgrwt>
</event>
<event>
13    1  0.1942437E-008  0.2066690E+03  0.7546771E-02  0.1402486E+00
          2   -1    0    0  503    0  0.00000000000E+00  0.00000000000E+00  0.13762443374E+04  0.13762443374E+04  0.00000000000E+00 0. -1.
          2   -1    0    0  502    0 -0.00000000000E+00 -0.00000000000E+00 -0.75608802207E+03  0.75608802207E+03  0.00000000000E+00 0. -1.
         24    2    1    2    0    0  0.12723954833E+02  0.15491670921E+02  0.15018738584E+02  0.80996708816E+02  0.77026056863E+02 0.  0.
         24    2    1    2    0    0 -0.26209797592E+03 -0.74176879333E+02  0.29862798250E+03  0.41210492135E+03  0.80338258986E+02 0.  0.
         25    2    1    2    0    0  0.10085081981E+03 -0.10561426214E+03  0.58575568891E+03  0.61649009923E+03  0.12500022052E+03 0.  0.
        -11    1    3    3    0    0 -0.27752699502E+02 -0.83732257976E+01  0.17643088375E+02  0.33935259058E+02  0.00000000000E+00 0.  1.
         12    1    3    3    0    0  0.40476654335E+02  0.23864896719E+02 -0.26243497908E+01  0.47061449759E+02  0.00000000000E+00 0. -1.
        -11    1    4    4    0    0 -0.20783461578E+03 -0.36280113889E+02  0.18497224519E+03  0.28058190546E+03  0.00000000000E+00 0.  1.
         12    1    4    4    0    0 -0.54263360140E+02 -0.37896765444E+02  0.11365573731E+03  0.13152301588E+03  0.00000000000E+00 0. -1.
          5    1    5    5  501    0  0.12180859382E+03 -0.10980243835E+03  0.55502134714E+03  0.57876134527E+03  0.47000000000E+01 0. -1.
         -5    1    5    5    0  501 -0.20957774006E+02  0.41881762086E+01  0.30734341775E+02  0.37728753963E+02  0.47000000000E+01 0. -1.
          1    1    1    2  502    0  0.14095611548E+03  0.14931245359E+03 -0.63459850759E+03  0.66699182988E+03  0.00000000000E+00 0. -1.
          1    1    1    2  503    0  0.75670857979E+01  0.14987016964E+02  0.35535241296E+03  0.35574880022E+03  0.00000000000E+00 0. -1.
<mgrwt>
<rscale>  0 0.58904765E+02</rscale>
<asrwt>0</asrwt>
<pdfrwt beam="1">  1        2 0.20238887E+00 0.16789028E+02</pdfrwt>
<pdfrwt beam="2">  1        2 0.11118942E+00 0.20666898E+03</pdfrwt>
<totfact> 0.13418768E+02</totfact>
</mgrwt>
</event>
<event>
13    1  0.1942437E-008  0.1011516E+03  0.7546771E-02  0.1289911E+00
          2   -1    0    0  503    0  0.00000000000E+00  0.00000000000E+00  0.29966730582E+04  0.29966730582E+04  0.00000000000E+00 0. -1.
          2   -1    0    0  502    0 -0.00000000000E+00 -0.00000000000E+00 -0.64922091493E+03  0.64922091493E+03  0.00000000000E+00 0. -1.
         24    2    1    2    0    0  0.75782330003E+01 -0.22497568810E+02 -0.61137845445E+02  0.10583477367E+03  0.83063788472E+02 0.  0.
         24    2    1    2    0    0 -0.28031622105E+01  0.49836873093E+01 -0.36654706162E+02  0.94520223176E+02  0.86935667294E+02 0.  0.
         25    2    1    2    0    0  0.59036683545E+02  0.33250176041E+02  0.49314140845E+03  0.51322936978E+03  0.12500013227E+03 0.  0.
        -11    1    3    3    0    0  0.86581414219E+01  0.26311005079E+02 -0.47765930682E+02  0.55216089459E+02  0.00000000000E+00 0.  1.
         12    1    3    3    0    0 -0.10799084216E+01 -0.48808573890E+02 -0.13371914763E+02  0.50618684216E+02  0.00000000000E+00 0. -1.
        -13    1    4    4    0    0  0.46890222719E+01 -0.40353426086E+02 -0.11938263411E+02  0.42342745069E+02  0.00000000000E+00 0.  1.
         14    1    4    4    0    0 -0.74921844824E+01  0.45337113395E+02 -0.24716442751E+02  0.52177478107E+02  0.00000000000E+00 0. -1.
          5    1    5    5  501    0  0.62584783580E+02  0.12303502324E+02  0.48620272531E+03  0.49039108006E+03  0.47000000000E+01 0.  1.
         -5    1    5    5    0  501 -0.35481000349E+01  0.20946673716E+02  0.69386831412E+01  0.22838289721E+02  0.47000000000E+01 0.  1.
          1    1    1    2  502    0  0.17638280504E+02  0.13529683797E+03 -0.47752199771E+03  0.49663225993E+03  0.00000000000E+00 0. -1.
          1    1    1    2  503    0 -0.81450034839E+02 -0.15103313251E+03  0.24296252842E+04  0.24356773466E+04  0.00000000000E+00 0. -1.
<mgrwt>
<rscale>  0 0.95563734E+02</rscale>
<asrwt>0</asrwt>
<pdfrwt beam="1">  1        2 0.44068721E+00 0.90284590E+02</pdfrwt>
<pdfrwt beam="2">  1        2 0.95473665E-01 0.10115156E+03</pdfrwt>
<totfact> 0.22822065E+01</totfact>
</mgrwt>
</event>
<event>
13    1  0.1942437E-008  0.6393213E+02  0.7546771E-02  0.1422267E+00
          2   -1    0    0  502    0  0.00000000000E+00  0.00000000000E+00  0.23777969203E+04  0.23777969203E+04  0.00000000000E+00 0. -1.
          2   -1    0    0  503    0 -0.00000000000E+00 -0.00000000000E+00 -0.10695442292E+04  0.10695442292E+04  0.00000000000E+00 0. -1.
         24    2    1    2    0    0 -0.90263244067E+02 -0.12346260633E+02 -0.55811631061E+03  0.57108834238E+03  0.79675562460E+02 0.  0.
         24    2    1    2    0    0  0.40067820372E+02 -0.35947708805E+02  0.21722219334E+03  0.23762857363E+03  0.79901124701E+02 0.  0.
         25    2    1    2    0    0  0.14412076902E+03  0.62255068620E+02  0.71525374354E+03  0.74287467516E+03  0.12501350214E+03 0.  0.
        -11    1    4    4    0    0  0.38153051279E+02 -0.24198052628E+02  0.22065979583E+03  0.22523753365E+03  0.00000000000E+00 0.  1.
         12    1    4    4    0    0  0.19147690931E+01 -0.11749656177E+02 -0.34376024817E+01  0.12391039979E+02  0.00000000000E+00 0. -1.
        -11    1    3    3    0    0 -0.32369861447E+02 -0.43372402059E+02 -0.29302506589E+03  0.29798097663E+03  0.00000000000E+00 0.  1.
         12    1    3    3    0    0 -0.57893382620E+02  0.31026141426E+02 -0.26509124472E+03  0.27310736575E+03  0.00000000000E+00 0. -1.
          5    1    5    5  501    0 -0.33585690473E+01  0.31712941181E+02  0.28859367083E+03  0.29038833907E+03  0.47000000000E+01 0. -1.
         -5    1    5    5    0  501  0.14747933807E+03  0.30542127439E+02  0.42666007271E+03  0.45248633609E+03  0.47000000000E+01 0. -1.
          1    1    1    2  502    0 -0.32912190779E+02 -0.32898033368E+02  0.14123148716E+04  0.14130813103E+04  0.00000000000E+00 0. -1.
          1    1    1    2  503    0 -0.61013154548E+02  0.18936934185E+02 -0.47842180679E+03  0.48266824809E+03  0.00000000000E+00 0. -1.
<mgrwt>
<rscale>  0 0.54544226E+02</rscale>
<asrwt>0</asrwt>
<pdfrwt beam="1">  1        2 0.34967602E+00 0.46534857E+02</pdfrwt>
<pdfrwt beam="2">  1        2 0.15728592E+00 0.63932131E+02</pdfrwt>
<totfact> 0.28365162E+01</totfact>
</mgrwt>
</event>
<event>
13    1  0.1942437E-008  0.7472000E+02  0.7546771E-02  0.1366203E+00
          2   -1    0    0  502    0  0.00000000000E+00  0.00000000000E+00  0.23952622247E+03  0.23952622247E+03  0.00000000000E+00 0. -1.
          2   -1    0    0  503    0 -0.00000000000E+00 -0.00000000000E+00 -0.10745141999E+04  0.10745141999E+04  0.00000000000E+00 0. -1.
         24    2    1    2    0    0  0.79490219602E+01 -0.39730236290E+02 -0.32874241375E+03  0.34079605051E+03  0.80179142057E+02 0.  0.
         24    2    1    2    0    0  0.46435130159E+02  0.10948854758E+03 -0.12474949085E+03  0.18944353524E+03  0.78628583952E+02 0.  0.
         25    2    1    2    0    0 -0.50226517682E+02 -0.37106474400E+02 -0.11968798707E+02  0.14024039964E+03  0.12499809610E+03 0.  0.
        -13    1    4    4    0    0  0.36968299111E+02  0.11320143360E+02 -0.60293952786E+02  0.71625145915E+02  0.00000000000E+00 0.  1.
         14    1    4    4    0    0  0.94668310486E+01  0.98168404215E+02 -0.64455538065E+02  0.11781838933E+03  0.00000000000E+00 0. -1.
        -13    1    3    3    0    0  0.44217338909E+02 -0.19888031745E+02 -0.17995526615E+03  0.18637222078E+03  0.00000000000E+00 0.  1.
         14    1    3    3    0    0 -0.36268316948E+02 -0.19842204545E+02 -0.14878714760E+03  0.15442382972E+03  0.00000000000E+00 0. -1.
          5    1    5    5  501    0 -0.43580880625E+02 -0.49773534111E+02  0.45761718353E+02  0.80578674105E+02  0.47000000000E+01 0. -1.
         -5    1    5    5    0  501 -0.66456370571E+01  0.12667059711E+02 -0.57730517061E+02  0.59661725534E+02  0.47000000000E+01 0. -1.
          1    1    1    2  502    0 -0.58828769014E+02  0.20539425100E+02  0.12686517168E+03  0.14134165640E+03  0.00000000000E+00 0. -1.
          1    1    1    2  503    0  0.54671134576E+02 -0.53191261985E+02 -0.49639244579E+03  0.50221878055E+03  0.00000000000E+00 0. -1.
<mgrwt>
<rscale>  0 0.68234133E+02</rscale>
<asrwt>0</asrwt>
<pdfrwt beam="1">  1        2 0.35224445E-01 0.62311251E+02</pdfrwt>
<pdfrwt beam="2">  1        2 0.15801679E+00 0.74720004E+02</pdfrwt>
<totfact> 0.60170917E+02</totfact>
</mgrwt>
</event>
<event>
13    1  0.1942437E-008  0.1585481E+03  0.7546771E-02  0.1297436E+00
          2   -1    0    0  503    0  0.00000000000E+00  0.00000000000E+00  0.22463045264E+04  0.22463045264E+04  0.00000000000E+00 0. -1.
          2   -1    0    0  502    0 -0.00000000000E+00 -0.00000000000E+00 -0.11557625970E+04  0.11557625970E+04  0.00000000000E+00 0. -1.
         24    2    1    2    0    0 -0.46971004790E+02 -0.96737161658E+02 -0.23227547407E+03  0.26869430561E+03  0.81733593332E+02 0.  0.
         24    2    1    2    0    0  0.70585416027E+01 -0.41482216039E+02 -0.58335002274E+02  0.10746837769E+03  0.79849123073E+02 0.  0.
         25    2    1    2    0    0  0.22694252670E+03  0.55992192527E+02  0.31085847358E+03  0.40852974112E+03  0.12500209091E+03 0.  0.
        -11    1    3    3    0    0  0.19663187962E+02 -0.17315737310E+02 -0.21847962396E+02  0.34114647591E+02  0.00000000000E+00 0.  1.
         12    1    3    3    0    0 -0.66634192753E+02 -0.79421424349E+02 -0.21042751167E+03  0.23457965802E+03  0.00000000000E+00 0. -1.
        -13    1    4    4    0    0  0.32427845902E+02 -0.41491880598E+02 -0.11049726154E+02  0.53807413927E+02  0.00000000000E+00 0.  1.
         14    1    4    4    0    0 -0.25369304300E+02  0.96645585754E-02 -0.47285276120E+02  0.53660963761E+02  0.00000000000E+00 0. -1.
          5    1    5    5  501    0  0.10894807618E+03 -0.35998387654E+01  0.22714819987E+03  0.25199412066E+03  0.47000000000E+01 0.  1.
         -5    1    5    5    0  501  0.11799445052E+03  0.59592031292E+02  0.83710273706E+02  0.15653562045E+03  0.47000000000E+01 0.  1.
          1    1    1    2  502    0 -0.37997143346E+02  0.37950738532E+02 -0.76932535642E+03  0.77119747503E+03  0.00000000000E+00 0. -1.
          1    1    1    2  503    0 -0.14903292017E+03  0.44276446638E+02  0.18396192887E+04  0.18461772240E+04  0.00000000000E+00 0. -1.
<mgrwt>
<rscale>  0 0.92274320E+02</rscale>
<asrwt>0</asrwt>
<pdfrwt beam="1">  1        2 0.33033890E+00 0.15854807E+03</pdfrwt>
<pdfrwt beam="2">  1        2 0.16996509E+00 0.53703272E+02</pdfrwt>
<totfact> 0.25689931E+01</totfact>
</mgrwt>
</event>
<event>
13    1  0.1942437E-008  0.4578714E+02  0.7546771E-02  0.1539670E+00
          2   -1    0    0  502    0  0.00000000000E+00  0.00000000000E+00  0.13118779711E+04  0.13118779711E+04  0.00000000000E+00 0. -1.
          2   -1    0    0  503    0 -0.00000000000E+00 -0.00000000000E+00 -0.61021902374E+03  0.61021902374E+03  0.00000000000E+00 0. -1.
         24    2    1    2    0    0  0.75659895563E+02 -0.20509302535E+03 -0.24784687545E+03  0.34027145900E+03  0.81049511356E+02 0.  0.
         24    2    1    2    0    0  0.34722104125E+02  0.20103577846E+03 -0.50479647868E+02  0.22514854777E+03  0.80763017405E+02 0.  0.
         25    2    1    2    0    0 -0.17739689201E+03  0.41010684466E+01  0.49703254706E+03  0.54235793124E+03  0.12499718670E+03 0.  0.
        -11    1    3    3    0    0  0.36255124720E+01  0.46301857817E+01  0.19997273236E+01  0.62114306264E+01  0.00000000000E+00 0.  1.
         12    1    3    3    0    0  0.72034383091E+02 -0.20972321114E+03 -0.24984660278E+03  0.33406002837E+03  0.00000000000E+00 0. -1.
        -13    1    4    4    0    0  0.48862992078E+02  0.13672996059E+03 -0.62741090452E+02  0.15817432962E+03  0.00000000000E+00 0.  1.
         14    1    4    4    0    0 -0.14140887953E+02  0.64305817862E+02  0.12261442584E+02  0.66974218154E+02  0.00000000000E+00 0. -1.
          5    1    5    5  501    0 -0.13711302301E+02  0.42306499100E+02  0.66353510570E+02  0.80016985958E+02  0.47000000000E+01 0.  1.
         -5    1    5    5    0  501 -0.16368558971E+03 -0.38205430653E+02  0.43067903649E+03  0.46234094528E+03  0.47000000000E+01 0.  1.
          1    1    1    2  502    0  0.43123287089E+02 -0.15298839701E+02  0.65654276786E+03  0.65813530403E+03  0.00000000000E+00 0. -1.
          1    1    1    2  503    0  0.23891605237E+02  0.15255018151E+02 -0.15358984425E+03  0.15618375279E+03  0.00000000000E+00 0. -1.
<mgrwt>
<rscale>  0 0.36026454E+02</rscale>
<asrwt>0</asrwt>
<pdfrwt beam="1">  1        2 0.19292323E+00 0.45787138E+02</pdfrwt>
<pdfrwt beam="2">  1        2 0.89738092E-01 0.28346506E+02</pdfrwt>
<totfact> 0.17869940E+02</totfact>
</mgrwt>
</event>
<event>
13    1  0.1942437E-008  0.1544571E+03  0.7546771E-02  0.1462541E+00
          2   -1    0    0  503    0  0.00000000000E+00  0.00000000000E+00  0.10951772286E+04  0.10951772286E+04  0.00000000000E+00 0. -1.
         -1   -1    0    0    0  501 -0.00000000000E+00 -0.00000000000E+00 -0.13772444471E+03  0.13772444471E+03  0.00000000000E+00 0.  1.
         24    2    1    2    0    0 -0.51937573998E+02  0.94059169307E+02 -0.16456525070E+01  0.13310660638E+03  0.78549484827E+02 0.  0.
         24    2    1    2    0    0  0.46701132414E+02 -0.37028943934E+02  0.94365633955E+02  0.13890739826E+03  0.82693735927E+02 0.  0.
         25    2    1    2    0    0 -0.18151452828E+02  0.11273432321E+03  0.33306152905E+03  0.37362249776E+03  0.12500114332E+03 0.  0.
        -11    1    3    3    0    0 -0.39008654468E+02  0.10755279403E+03 -0.13303178080E+01  0.11441611938E+03  0.00000000000E+00 0.  1.
         12    1    3    3    0    0 -0.12928919529E+02 -0.13493624727E+02 -0.31533469902E+00  0.18690487004E+02  0.00000000000E+00 0. -1.
        -13    1    4    4    0    0  0.17632086445E+02  0.26579682313E+02  0.26726384638E+02  0.41613334643E+02  0.00000000000E+00 0.  1.
         14    1    4    4    0    0  0.29069045969E+02 -0.63608626247E+02  0.67639249317E+02  0.97294063615E+02  0.00000000000E+00 0. -1.
          5    1    5    5  502    0 -0.17754546554E+02  0.13804923462E+03  0.30635357450E+03  0.33652253671E+03  0.47000000000E+01 0.  1.
         -5    1    5    5    0  502 -0.39690627390E+00 -0.25314911407E+02  0.26707954545E+02  0.37099961053E+02  0.47000000000E+01 0.  1.
          1    1    1    2  503    0  0.21490287361E+02 -0.18390718566E+03  0.53991765452E+03  0.57078433672E+03  0.00000000000E+00 0. -1.
         -2    1    1    2    0  501  0.18976070507E+01  0.14142637071E+02 -0.82463810817E+01  0.16480834226E+02  0.00000000000E+00 0.  1.
<mgrwt>
<rscale>  0 0.46946854E+02</rscale>
<asrwt>0</asrwt>
<pdfrwt beam="1">  1        2 0.16105547E+00 0.15445714E+03</pdfrwt>
<pdfrwt beam="2">  1       -1 0.20253595E-01 0.14269376E+02</pdfrwt>
<totfact> 0.50073339E+02</totfact>
</mgrwt>
</event>
<event>
13    1  0.1942437E-008  0.1097687E+03  0.7546771E-02  0.1354230E+00
         -1   -1    0    0    0  501 -0.00000000000E+00  0.00000000000E+00  0.53298100293E+03  0.53298100293E+03  0.00000000000E+00 0.  1.
          2   -1    0    0  503    0  0.00000000000E+00 -0.00000000000E+00 -0.28480161198E+04  0.28480161198E+04  0.00000000000E+00 0. -1.
         24    2    1    2    0    0  0.10092236631E+03 -0.10260765004E+02  0.18422741183E+03  0.22571398693E+03  0.81953995054E+02 0.  0.
         24    2    1    2    0    0 -0.54560471119E+02  0.68099716168E+02  0.64572119629E+02  0.13392009910E+03  0.78425875573E+02 0.  0.
         25    2    1    2    0    0 -0.12194779250E+03 -0.12838344098E+03 -0.85217206720E+02  0.23288928190E+03  0.12498749253E+03 0.  0.
        -13    1    4    4    0    0 -0.61080731067E+02  0.79404888699E+02  0.43683453351E+02  0.10928968915E+03  0.00000000000E+00 0.  1.
         14    1    4    4    0    0  0.65202599479E+01 -0.11305172532E+02  0.20888666278E+02  0.24630409956E+02  0.00000000000E+00 0. -1.
        -13    1    3    3    0    0  0.50768862304E+02  0.35582230092E+02  0.78398495752E+02  0.99949470304E+02  0.00000000000E+00 0.  1.
         14    1    3    3    0    0  0.50153504008E+02 -0.45842995096E+02  0.10582891607E+03  0.12576451662E+03  0.00000000000E+00 0. -1.
          5    1    5    5  502    0 -0.13789164169E+03 -0.81259584185E+02 -0.38956209474E+02  0.16479351057E+03  0.47000000000E+01 0.  1.
         -5    1    5    5    0  502  0.15943849190E+02 -0.47123856795E+02 -0.46260997247E+02  0.68095771326E+02  0.47000000000E+01 0.  1.
          1    1    1    2  503    0  0.10453758315E+03  0.33642613690E+02 -0.26288227901E+04  0.26311155797E+04  0.00000000000E+00 0. -1.
         -2    1    1    2    0  501 -0.28951685843E+02  0.36901876127E+02  0.15020534849E+03  0.15735817516E+03  0.00000000000E+00 0.  1.
<mgrwt>
<rscale>  0 0.71753372E+02</rscale>
<asrwt>0</asrwt>
<pdfrwt beam="2">  1        2 0.41882589E+00 0.10976866E+03</pdfrwt>
<pdfrwt beam="1">  1       -1 0.78379561E-01 0.46903609E+02</pdfrwt>
<totfact> 0.70848803E+00</totfact>
</mgrwt>
</event>
<event>
13    1  0.1942437E-008  0.5727086E+02  0.7546771E-02  0.1412607E+00
          2   -1    0    0  502    0  0.00000000000E+00  0.00000000000E+00  0.34891193123E+04  0.34891193123E+04  0.00000000000E+00 0. -1.
          2   -1    0    0  503    0 -0.00000000000E+00 -0.00000000000E+00 -0.21581361279E+04  0.21581361279E+04  0.00000000000E+00 0. -1.
         24    2    1    2    0    0 -0.32813306331E+02  0.36457665510E+02 -0.95070662172E+03  0.95596927857E+03  0.87340177026E+02 0.  0.
         24    2    1    2    0    0  0.64847660335E+02 -0.66707936898E+02 -0.22599971845E+03  0.25925692097E+03  0.86504973456E+02 0.  0.
         25    2    1    2    0    0 -0.59364281323E+02 -0.18106178660E+02 -0.20299909379E+03  0.24634302105E+03  0.12499720132E+03 0.  0.
        -11    1    3    3    0    0  0.22645321754E+02  0.10346983985E+02 -0.99839612673E+02  0.10289712792E+03  0.00000000000E+00 0.  1.
         12    1    3    3    0    0 -0.55458628085E+02  0.26110681525E+02 -0.85086700905E+03  0.85307215065E+03  0.00000000000E+00 0. -1.
        -13    1    4    4    0    0  0.39846286062E+01 -0.43914980261E+02 -0.31512564349E+02  0.54198196172E+02  0.00000000000E+00 0.  1.
         14    1    4    4    0    0  0.60863031729E+02 -0.22792956637E+02 -0.19448715410E+03  0.20505872479E+03  0.00000000000E+00 0. -1.
          5    1    5    5  501    0 -0.82540024165E+02 -0.31459694278E+02 -0.20040879966E+03  0.21906242246E+03  0.47000000000E+01 0. -1.
         -5    1    5    5    0  501  0.23175742842E+02  0.13353515618E+02 -0.25902941283E+01  0.27280598588E+02  0.47000000000E+01 0. -1.
          1    1    1    2  502    0  0.57265797053E+02  0.10662097795E+01  0.34468872861E+04  0.34473631186E+04  0.00000000000E+00 0. -1.
          1    1    1    2  503    0 -0.29935869735E+02  0.47290240269E+02 -0.73619866773E+03  0.73832310101E+03  0.00000000000E+00 0. -1.
<mgrwt>
<rscale>  0 0.56616161E+02</rscale>
<asrwt>0</asrwt>
<pdfrwt beam="1">  1        2 0.51310578E+00 0.57270858E+02</pdfrwt>
<pdfrwt beam="2">  1        2 0.31737296E+00 0.55968948E+02</pdfrwt>
<totfact> 0.21915822E+00</totfact>
</mgrwt>
</event>
<event>
13    1  0.1942437E-008  0.6635396E+02  0.7546771E-02  0.1420831E+00
          2   -1    0    0  502    0  0.00000000000E+00  0.00000000000E+00  0.26805599832E+04  0.26805599832E+04  0.00000000000E+00 0. -1.
          2   -1    0    0  503    0 -0.00000000000E+00 -0.00000000000E+00 -0.28237056537E+03  0.28237056537E+03  0.00000000000E+00 0. -1.
         24    2    1    2    0    0 -0.17048824819E+02  0.24485217801E+02 -0.73996893416E+02  0.11585503378E+03  0.84003930260E+02 0.  0.
         24    2    1    2    0    0  0.49980510628E+02  0.85526697184E+02  0.29221076858E+03  0.32000576671E+03  0.84874554930E+02 0.  0.
         25    2    1    2    0    0 -0.11154079601E+03 -0.13899664619E+03  0.15116896529E+04  0.15272824380E+04  0.12499848769E+03 0.  0.
        -13    1    3    3    0    0  0.96367266181E+01  0.36455466054E+02 -0.77707610498E+02  0.86373261108E+02  0.00000000000E+00 0.  1.
         14    1    3    3    0    0 -0.26685551437E+02 -0.11970248253E+02  0.37107170822E+01  0.29481772674E+02  0.00000000000E+00 0. -1.
        -13    1    4    4    0    0  0.32277993624E+02  0.68233554457E+02  0.95425494731E+02  0.12167050534E+03  0.00000000000E+00 0.  1.
         14    1    4    4    0    0  0.17702517004E+02  0.17293142728E+02  0.19678527385E+03  0.19833526136E+03  0.00000000000E+00 0. -1.
          5    1    5    5  501    0 -0.47540662243E+02 -0.13249269880E+03  0.12432510092E+04  0.12512032575E+04  0.47000000000E+01 0. -1.
         -5    1    5    5    0  501 -0.64000133771E+02 -0.65039473926E+01  0.26843864369E+03  0.27607918045E+03  0.47000000000E+01 0. -1.
          1    1    1    2  502    0  0.38533297678E+02 -0.23880416169E+02  0.82675300090E+03  0.82799493586E+03  0.00000000000E+00 0. -1.
          1    1    1    2  503    0  0.40075812527E+02  0.52865147375E+02 -0.15846711110E+03  0.17179237427E+03  0.00000000000E+00 0. -1.
<mgrwt>
<rscale>  0 0.54845511E+02</rscale>
<asrwt>0</asrwt>
<pdfrwt beam="1">  1        2 0.39419998E+00 0.45333093E+02</pdfrwt>
<pdfrwt beam="2">  1        2 0.41525085E-01 0.66353956E+02</pdfrwt>
<totfact> 0.89295941E+01</totfact>
</mgrwt>
</event>
<event>
13    1  0.1942437E-008  0.8011667E+02  0.7546771E-02  0.1392743E+00
          2   -1    0    0  502    0  0.00000000000E+00  0.00000000000E+00  0.43602236536E+03  0.43602236536E+03  0.00000000000E+00 0. -1.
          2   -1    0    0  503    0 -0.00000000000E+00 -0.00000000000E+00 -0.14311697624E+04  0.14311697624E+04  0.00000000000E+00 0. -1.
         24    2    1    2    0    0 -0.86606854489E+02 -0.16071680958E+02 -0.45410144318E+03  0.46959735103E+03  0.80959898867E+02 0.  0.
         24    2    1    2    0    0 -0.47085247040E+02 -0.12825749881E+02 -0.55521663862E+01  0.93287960467E+02  0.79311390529E+02 0.  0.
         25    2    1    2    0    0  0.86449704944E+02 -0.22974555533E+02  0.79585529506E+01  0.15391631640E+03  0.12500204879E+03 0.  0.
        -13    1    4    4    0    0  0.20396259033E+02 -0.15264272043E+02 -0.36490444530E+01  0.25735596146E+02  0.00000000000E+00 0.  1.
         14    1    4    4    0    0 -0.67481506073E+02  0.24385221620E+01 -0.19031219332E+01  0.67552364321E+02  0.00000000000E+00 0. -1.
        -13    1    3    3    0    0 -0.77238471116E+02  0.21881393231E+02 -0.31980932648E+03  0.32973107541E+03  0.00000000000E+00 0.  1.
         14    1    3    3    0    0 -0.93683833724E+01 -0.37953074188E+02 -0.13429211670E+03  0.13986627562E+03  0.00000000000E+00 0. -1.
          5    1    5    5  501    0  0.10516065477E+03 -0.47734314018E+02  0.24919101349E+02  0.11823865552E+03  0.47000000000E+01 0. -1.
         -5    1    5    5    0  501 -0.18710949827E+02  0.24759758485E+02 -0.16960548398E+02  0.35677660877E+02  0.47000000000E+01 0. -1.
          1    1    1    2  502    0  0.37507186706E+02 -0.27982192426E+02  0.29973926673E+03  0.30337010427E+03  0.00000000000E+00 0. -1.
          1    1    1    2  503    0  0.97352098776E+01  0.79854178797E+02 -0.84319160711E+03  0.84702039555E+03  0.00000000000E+00 0. -1.
<mgrwt>
<rscale>  0 0.61229705E+02</rscale>
<asrwt>0</asrwt>
<pdfrwt beam="1">  1        2 0.64120937E-01 0.46795215E+02</pdfrwt>
<pdfrwt beam="2">  1        2 0.21046614E+00 0.80116669E+02</pdfrwt>
<totfact> 0.21107734E+02</totfact>
</mgrwt>
</event>
<event>
13    1  0.1942437E-008  0.1871003E+03  0.7546771E-02  0.1327275E+00
          2   -1    0    0  503    0  0.00000000000E+00  0.00000000000E+00  0.22037380378E+04  0.22037380378E+04  0.00000000000E+00 0. -1.
          2   -1    0    0  502    0 -0.00000000000E+00 -0.00000000000E+00 -0.36379168334E+04  0.36379168334E+04  0.00000000000E+00 0. -1.
         24    2    1    2    0    0  0.64662114861E+01 -0.15827625488E+03 -0.10738182498E+04  0.10885966202E+04  0.82847951970E+02 0.  0.
         24    2    1    2    0    0  0.47991359558E+01  0.34087169702E+02 -0.56734012764E+02  0.10387700498E+03  0.79916938850E+02 0.  0.
         25    2    1    2    0    0 -0.66032062124E+02 -0.41746254263E+02  0.89924275348E+03  0.91124392907E+03  0.12499994242E+03 0.  0.
        -11    1    4    4    0    0  0.44280062560E-01  0.49402351249E+02 -0.49300773497E+01  0.49647758583E+02  0.00000000000E+00 0.  1.
         12    1    4    4    0    0  0.47548558932E+01 -0.15315181547E+02 -0.51803935415E+02  0.54229246397E+02  0.00000000000E+00 0. -1.
        -13    1    3    3    0    0 -0.33185134274E+02 -0.11504792560E+03 -0.68719909209E+03  0.69755277255E+03  0.00000000000E+00 0.  1.
         14    1    3    3    0    0  0.39651345760E+02 -0.43228329280E+02 -0.38661915770E+03  0.39104384763E+03  0.00000000000E+00 0. -1.
          5    1    5    5  501    0 -0.90370402578E+02 -0.56644551003E+02  0.51694411994E+03  0.52785294161E+03  0.47000000000E+01 0. -1.
         -5    1    5    5    0  501  0.24338340454E+02  0.14898296740E+02  0.38229863354E+03  0.38339098746E+03  0.47000000000E+01 0. -1.
          1    1    1    2  502    0  0.49804401929E+02  0.20032557383E+03 -0.24658518181E+04  0.24744769149E+04  0.00000000000E+00 0. -1.
          1    1    1    2  503    0  0.49623127533E+01 -0.34390234388E+02  0.12629825314E+04  0.12634604020E+04  0.00000000000E+00 0. -1.
<mgrwt>
<rscale>  0 0.80629172E+02</rscale>
<asrwt>0</asrwt>
<pdfrwt beam="1">  1        2 0.32407913E+00 0.34746407E+02</pdfrwt>
<pdfrwt beam="2">  1        2 0.53498776E+00 0.18710031E+03</pdfrwt>
<totfact> 0.14542184E+00</totfact>
</mgrwt>
</event>
<event>
13    1  0.1942437E-008  0.1023496E+03  0.7546771E-02  0.1306498E+00
          2   -1    0    0  503    0  0.00000000000E+00  0.00000000000E+00  0.93824474803E+03  0.93824474803E+03  0.00000000000E+00 0. -1.
          2   -1    0    0  502    0 -0.00000000000E+00 -0.00000000000E+00 -0.31490828168E+04  0.31490828168E+04  0.00000000000E+00 0. -1.
         24    2    1    2    0    0  0.19202180316E+03  0.86089073334E+02 -0.56504042234E+03  0.60827611737E+03  0.80283588912E+02 0.  0.
         24    2    1    2    0    0 -0.53421478212E+02 -0.96559826849E+02 -0.13642593033E+03  0.19372793656E+03  0.82102523971E+02 0.  0.
         25    2    1    2    0    0 -0.63718779222E+02  0.16298231101E+03  0.10188321313E+03  0.23797165104E+03  0.12500800397E+03 0.  0.
        -13    1    4    4    0    0 -0.71566788776E+02 -0.93529961269E+02 -0.10754394060E+03  0.15948466406E+03  0.00000000000E+00 0.  1.
         14    1    4    4    0    0  0.18145310564E+02 -0.30298655802E+01 -0.28881989723E+02  0.34243272496E+02  0.00000000000E+00 0. -1.
        -13    1    3    3    0    0  0.42586161621E+02  0.25278548158E+02 -0.58416381281E+02  0.76583678160E+02  0.00000000000E+00 0.  1.
         14    1    3    3    0    0  0.14943564154E+03  0.60810525176E+02 -0.50662404106E+03  0.53169243921E+03  0.00000000000E+00 0. -1.
          5    1    5    5  501    0 -0.87513194912E+02  0.91903711284E+02  0.23006622144E+02  0.12905907986E+03  0.47000000000E+01 0. -1.
         -5    1    5    5    0  501  0.23794415690E+02  0.71078599723E+02  0.78876590987E+02  0.10891257119E+03  0.47000000000E+01 0. -1.
          1    1    1    2  502    0 -0.18943975228E+02 -0.10026346360E+03 -0.23261419082E+04  0.23283787951E+04  0.00000000000E+00 0. -1.
          1    1    1    2  503    0 -0.55937570498E+02 -0.52248093889E+02  0.71488697899E+03  0.71897306475E+03  0.00000000000E+00 0. -1.
<mgrwt>
<rscale>  0 0.88510883E+02</rscale>
<asrwt>0</asrwt>
<pdfrwt beam="1">  1        2 0.13797717E+00 0.76543289E+02</pdfrwt>
<pdfrwt beam="2">  1        2 0.46310042E+00 0.10234962E+03</pdfrwt>
<totfact> 0.12045958E+01</totfact>
</mgrwt>
</event>
<event>
13    1  0.1942437E-008  0.8843227E+02  0.7546771E-02  0.1341435E+00
          2   -1    0    0  503    0  0.00000000000E+00  0.00000000000E+00  0.35917946838E+04  0.35917946838E+04  0.00000000000E+00 0. -1.
          2   -1    0    0  502    0 -0.00000000000E+00 -0.00000000000E+00 -0.17191356150E+03  0.17191356150E+03  0.00000000000E+00 0. -1.
         24    2    1    2    0    0 -0.38658550810E+02  0.74201992929E+02  0.12889624793E+03  0.17841422929E+03  0.90647532647E+02 0.  0.
         24    2    1    2    0    0  0.68789504694E+02 -0.43954139908E+02  0.24367596689E+03  0.26931398385E+03  0.80548635547E+02 0.  0.
         25    2    1    2    0    0  0.75792254161E+02 -0.53942894055E+02  0.16157114280E+04  0.16232075895E+04  0.12500063450E+03 0.  0.
        -11    1    4    4    0    0  0.89378035281E+01 -0.28318622911E+02  0.16721211205E+02  0.34079724758E+02  0.00000000000E+00 0.  1.
         12    1    4    4    0    0  0.59851701166E+02 -0.15635516997E+02  0.22695475568E+03  0.23523425909E+03  0.00000000000E+00 0. -1.
        -13    1    3    3    0    0  0.16180876525E+02 -0.94275982296E+01  0.41779898512E+02  0.45784935221E+02  0.00000000000E+00 0.  1.
         14    1    3    3    0    0 -0.54839427335E+02  0.83629591159E+02  0.87116349422E+02  0.13262929407E+03  0.00000000000E+00 0. -1.
          5    1    5    5  501    0  0.97163040850E+02 -0.47082659638E+02  0.15470052456E+04  0.15507755329E+04  0.47000000000E+01 0.  1.
         -5    1    5    5    0  501 -0.21370786689E+02 -0.68602344167E+01  0.68706182321E+02  0.72432056640E+02  0.47000000000E+01 0.  1.
          1    1    1    2  502    0 -0.48310657689E+02 -0.43425315736E+02 -0.12117187917E+03  0.13748564287E+03  0.00000000000E+00 0. -1.
          1    1    1    2  503    0 -0.57612550357E+02  0.67120356770E+02  0.15527693587E+04  0.15552867997E+04  0.00000000000E+00 0. -1.
<mgrwt>
<rscale>  0 0.75792319E+02</rscale>
<asrwt>0</asrwt>
<pdfrwt beam="1">  1        2 0.52820505E+00 0.88432266E+02</pdfrwt>
<pdfrwt beam="2">  1        2 0.25281408E-01 0.64959046E+02</pdfrwt>
<totfact> 0.43344269E+01</totfact>
</mgrwt>
</event>
<event>
13    1  0.1942437E-008  0.3116182E+03  0.7546771E-02  0.1250622E+00
          2   -1    0    0  503    0  0.00000000000E+00  0.00000000000E+00  0.13653578639E+04  0.13653578639E+04  0.00000000000E+00 0. -1.
          2   -1    0    0  502    0 -0.00000000000E+00 -0.00000000000E+00 -0.11045940209E+04  0.11045940209E+04  0.00000000000E+00 0. -1.
         24    2    1    2    0    0 -0.41566388444E+02 -0.28407522940E+02  0.82116037637E+01  0.86119371407E+02  0.69385615853E+02 0.  0.
         24    2    1    2    0    0 -0.75462864777E+02 -0.95677408696E+02  0.31432888979E+03  0.34629392904E+03  0.79170852198E+02 0.  0.
         25    2    1    2    0    0 -0.13191604363E+03 -0.36854820386E+01  0.61658893947E+03  0.64282411164E+03  0.12500197155E+03 0.  0.
        -13    1    4    4    0    0 -0.92327577766E+02 -0.83784903311E+02  0.26885370871E+03  0.29635554377E+03  0.00000000000E+00 0.  1.
         14    1    4    4    0    0  0.16864712990E+02 -0.11892505385E+02  0.45475181081E+02  0.49938385266E+02  0.00000000000E+00 0. -1.
        -13    1    3    3    0    0  0.84725611420E+01  0.12116961012E+02 -0.11553123862E+02  0.18763787130E+02  0.00000000000E+00 0.  1.
         14    1    3    3    0    0 -0.50038949586E+02 -0.40524483952E+02  0.19764727625E+02  0.67355584278E+02  0.00000000000E+00 0. -1.
          5    1    5    5  501    0 -0.12995060589E+03 -0.45261044550E+02  0.42646650838E+03  0.44814227082E+03  0.47000000000E+01 0. -1.
         -5    1    5    5    0  501 -0.19654377365E+01  0.41575562511E+02  0.19012243109E+03  0.19468184083E+03  0.47000000000E+01 0. -1.
          1    1    1    2  502    0  0.29177624035E+03  0.12896641566E+03 -0.10105869897E+04  0.10597413715E+04  0.00000000000E+00 0. -1.
          1    1    1    2  503    0 -0.42830943501E+02 -0.11960019865E+01  0.33222139969E+03  0.33497310124E+03  0.00000000000E+00 0. -1.
<mgrwt>
<rscale>  0 0.11555131E+03</rscale>
<asrwt>0</asrwt>
<pdfrwt beam="1">  1        2 0.20078792E+00 0.42847639E+02</pdfrwt>
<pdfrwt beam="2">  1        2 0.16244030E+00 0.31161821E+03</pdfrwt>
<totfact> 0.74871708E+01</totfact>
</mgrwt>
</event>
<event>
13    1  0.1942437E-008  0.5168770E+02  0.7546771E-02  0.1461775E+00
          2   -1    0    0  503    0  0.00000000000E+00  0.00000000000E+00  0.69074697224E+03  0.69074697224E+03  0.00000000000E+00 0. -1.
          2   -1    0    0  502    0 -0.00000000000E+00 -0.00000000000E+00 -0.18182213331E+04  0.18182213331E+04  0.00000000000E+00 0. -1.
         24    2    1    2    0    0  0.55367921232E+02  0.18947934960E+02 -0.52967062329E+03  0.53900628937E+03  0.80945536371E+02 0.  0.
         24    2    1    2    0    0 -0.14023698870E+02 -0.68422514996E+02 -0.35708571001E+03  0.37286256859E+03  0.81473836757E+02 0.  0.
         25    2    1    2    0    0 -0.41819741813E+02  0.59550222136E+02 -0.75061527872E+02  0.16295502697E+03  0.12499995235E+03 0.  0.
        -13    1    4    4    0    0 -0.35569165017E+02 -0.17602934235E+02 -0.69548288712E+02  0.80074922769E+02  0.00000000000E+00 0.  1.
         14    1    4    4    0    0  0.21545466147E+02 -0.50819580761E+02 -0.28753742130E+03  0.29278764582E+03  0.00000000000E+00 0. -1.
        -13    1    3    3    0    0  0.35089972889E+02  0.46404607472E+02 -0.42366467601E+03  0.42764056343E+03  0.00000000000E+00 0.  1.
         14    1    3    3    0    0  0.20277948343E+02 -0.27456672512E+02 -0.10600594729E+03  0.11136572594E+03  0.00000000000E+00 0. -1.
          5    1    5    5  501    0  0.34947687589E+02 -0.78934308287E+01 -0.99444944131E-01  0.36135121522E+02  0.47000000000E+01 0. -1.
         -5    1    5    5    0  501 -0.76767429402E+02  0.67443652965E+02 -0.74962082928E+02  0.12681990545E+03  0.47000000000E+01 0. -1.
          1    1    1    2  502    0  0.18898708666E+02 -0.48794133616E+02 -0.79831826688E+03  0.80003130182E+03  0.00000000000E+00 0. -1.
          1    1    1    2  503    0 -0.18423189216E+02  0.38718491517E+02  0.63266176720E+03  0.63411311858E+03  0.00000000000E+00 0. -1.
<mgrwt>
<rscale>  0 0.47077308E+02</rscale>
<asrwt>0</asrwt>
<pdfrwt beam="1">  1        2 0.10158044E+00 0.42878147E+02</pdfrwt>
<pdfrwt beam="2">  1        2 0.26738549E+00 0.51687703E+02</pdfrwt>
<totfact> 0.88121451E+01</totfact>
</mgrwt>
</event>
<event>
13    1  0.5992504E-008  0.7361346E+02  0.7546771E-02  0.1399528E+00
          2   -1    0    0  502    0  0.00000000000E+00  0.00000000000E+00  0.42003462274E+04  0.42003462274E+04  0.00000000000E+00 0. -1.
          2   -1    0    0  503    0 -0.00000000000E+00 -0.00000000000E+00 -0.48961215725E+04  0.48961215725E+04  0.00000000000E+00 0. -1.
         24    2    1    2    0    0  0.56865745871E+02  0.12759750156E+02 -0.26773627145E+04  0.26792104266E+04  0.80628037798E+02 0.  0.
         24    2    1    2    0    0 -0.10964679905E+02  0.49639544749E+02 -0.16289891753E+03  0.18847941114E+03  0.80025761365E+02 0.  0.
         25    2    1    2    0    0 -0.73176792877E+02  0.51487528166E+02  0.24602148767E+04  0.24650125325E+04  0.12499494958E+03 0.  0.
        -11    1    3    3    0    0 -0.52076082775E+01  0.23982601745E+02 -0.29705628274E+03  0.29806831346E+03  0.00000000000E+00 0.  1.
         12    1    3    3    0    0  0.62073354148E+02 -0.11222851589E+02 -0.23803064318E+04  0.23811421131E+04  0.00000000000E+00 0. -1.
        -13    1    4    4    0    0 -0.29325205764E+01  0.60281272456E+02 -0.61352207443E+02  0.86061169199E+02  0.00000000000E+00 0.  1.
         14    1    4    4    0    0 -0.80321593288E+01 -0.10641727707E+02 -0.10154671009E+03  0.10241824194E+03  0.00000000000E+00 0. -1.
          5    1    5    5  501    0 -0.93761601217E+02  0.14909164619E+01  0.18529535909E+04  0.18553308494E+04  0.47000000000E+01 0.  1.
         -5    1    5    5    0  501  0.20584808340E+02  0.49996611704E+02  0.60726128578E+03  0.60968168312E+03  0.47000000000E+01 0.  1.
          1    1    1    2  502    0  0.32695071483E+02 -0.65941884841E+02  0.17229472769E+04  0.17245186629E+04  0.00000000000E+00 0. -1.
          1    1    1    2  503    0 -0.54193445716E+01 -0.47944938229E+02 -0.20386758666E+04  0.20392467667E+04  0.00000000000E+00 0. -1.
<mgrwt>
<rscale>  0 0.59597547E+02</rscale>
<asrwt>0</asrwt>
<pdfrwt beam="1">  1        2 0.61769798E+00 0.73613459E+02</pdfrwt>
<pdfrwt beam="2">  1        2 0.72001788E+00 0.48250248E+02</pdfrwt>
<totfact> 0.16006562E-02</totfact>
</mgrwt>
</event>
<event>
13    1  0.1942437E-008  0.5608980E+02  0.7546771E-02  0.1542471E+00
          2   -1    0    0  503    0  0.00000000000E+00  0.00000000000E+00  0.66963041664E+03  0.66963041664E+03  0.00000000000E+00 0. -1.
          2   -1    0    0  502    0 -0.00000000000E+00 -0.00000000000E+00 -0.27905876137E+04  0.27905876137E+04  0.00000000000E+00 0. -1.
         24    2    1    2    0    0  0.51420787818E+03 -0.38016177994E+03 -0.53632483041E+03  0.83853133226E+03  0.80979939200E+02 0.  0.
         24    2    1    2    0    0  0.69354593104E+02 -0.31012019046E+03 -0.45932470681E+03  0.56390782861E+03  0.77641875055E+02 0.  0.
         25    2    1    2    0    0 -0.62123965857E+03  0.62429987556E+03 -0.67692786561E+03  0.11178317262E+04  0.12500953938E+03 0.  0.
        -11    1    4    4    0    0  0.46446250524E+02 -0.19285288781E+03 -0.34817639055E+03  0.40071971434E+03  0.00000000000E+00 0.  1.
         12    1    4    4    0    0  0.22908342579E+02 -0.11726730264E+03 -0.11114831626E+03  0.16318811426E+03  0.00000000000E+00 0. -1.
        -13    1    3    3    0    0  0.19080776786E+03 -0.99671553781E+02 -0.20414929554E+03  0.29667989110E+03  0.00000000000E+00 0.  1.
         14    1    3    3    0    0  0.32340011032E+03 -0.28049022616E+03 -0.33217553487E+03  0.54185144117E+03  0.00000000000E+00 0. -1.
          5    1    5    5  501    0 -0.83348983597E+02  0.37866856929E+02 -0.94770938070E+02  0.13185056929E+03  0.47000000000E+01 0.  1.
         -5    1    5    5    0  501 -0.53789067497E+03  0.58643301863E+03 -0.58215692754E+03  0.98598115694E+03  0.47000000000E+01 0.  1.
          1    1    1    2  502    0  0.18392598111E+02  0.13342301895E+02 -0.69077747388E+03  0.69115108558E+03  0.00000000000E+00 0. -1.
          1    1    1    2  503    0  0.19284589169E+02  0.52639792945E+02  0.24239767968E+03  0.24879605763E+03  0.00000000000E+00 0. -1.
<mgrwt>
<rscale>  0 0.35700020E+02</rscale>
<asrwt>0</asrwt>
<pdfrwt beam="1">  1        2 0.98475061E-01 0.56089799E+02</pdfrwt>
<pdfrwt beam="2">  1        2 0.41038053E+00 0.22722339E+02</pdfrwt>
<totfact> 0.35764397E+01</totfact>
</mgrwt>
</event>
<event>
13    1  0.1942437E-008  0.2149297E+03  0.7546771E-02  0.1268929E+00
          2   -1    0    0  503    0  0.00000000000E+00  0.00000000000E+00  0.11961212708E+04  0.11961212708E+04  0.00000000000E+00 0. -1.
          2   -1    0    0  502    0 -0.00000000000E+00 -0.00000000000E+00 -0.10162422798E+04  0.10162422798E+04  0.00000000000E+00 0. -1.
         24    2    1    2    0    0 -0.13664794041E+03  0.53920937023E+02 -0.27860997230E+03  0.32532621500E+03  0.81446316285E+02 0.  0.
         24    2    1    2    0    0 -0.23114145361E+01 -0.37890789928E+02  0.42196367657E+02  0.98809505124E+02  0.80880963526E+02 0.  0.
         25    2    1    2    0    0 -0.73002275934E+02 -0.42022021560E+02  0.23022218765E+03  0.27518340402E+03  0.12501386951E+03 0.  0.
        -13    1    3    3    0    0 -0.34619492373E+02 -0.21755884795E+02 -0.64460380226E+02  0.76334581903E+02  0.00000000000E+00 0.  1.
         14    1    3    3    0    0 -0.10202844803E+03  0.75676821818E+02 -0.21414959207E+03  0.24899163310E+03  0.00000000000E+00 0. -1.
        -13    1    4    4    0    0 -0.24559539225E+02 -0.52694057422E+02  0.42616446737E+02  0.72083258716E+02  0.00000000000E+00 0.  1.
         14    1    4    4    0    0  0.22248124689E+02  0.14803267494E+02 -0.42007908082E+00  0.26726246409E+02  0.00000000000E+00 0. -1.
          5    1    5    5  501    0 -0.29383852832E+02  0.30672769019E+02  0.17568565112E+02  0.46205779364E+02  0.47000000000E+01 0. -1.
         -5    1    5    5    0  501 -0.43618423102E+02 -0.72694790580E+02  0.21265362254E+03  0.22897762465E+03  0.47000000000E+01 0. -1.
          1    1    1    2  502    0 -0.48360748603E+01  0.51664270736E+02 -0.64840833953E+03  0.65048132891E+03  0.00000000000E+00 0. -1.
          1    1    1    2  503    0  0.21679770574E+03 -0.25672396271E+02  0.83447874752E+03  0.86256309752E+03  0.00000000000E+00 0. -1.
<mgrwt>
<rscale>  0 0.10560647E+03</rscale>
<asrwt>0</asrwt>
<pdfrwt beam="1">  1        2 0.17590019E+00 0.21492968E+03</pdfrwt>
<pdfrwt beam="2">  1        2 0.14944739E+00 0.51890119E+02</pdfrwt>
<totfact> 0.10128718E+02</totfact>
</mgrwt>
</event>
<event>
13    1  0.1942437E-008  0.4852398E+02  0.7546771E-02  0.1523163E+00
          2   -1    0    0  503    0  0.00000000000E+00  0.00000000000E+00  0.15148093958E+04  0.15148093958E+04  0.00000000000E+00 0. -1.
          2   -1    0    0  502    0 -0.00000000000E+00 -0.00000000000E+00 -0.33444174484E+03  0.33444174484E+03  0.00000000000E+00 0. -1.
         24    2    1    2    0    0  0.24001426193E+02  0.61357118376E+02 -0.10615959245E+03  0.14976303794E+03  0.82573264615E+02 0.  0.
         24    2    1    2    0    0 -0.11883228563E+02 -0.78717425588E+02  0.51259823053E+02  0.12692360008E+03  0.84524473294E+02 0.  0.
         25    2    1    2    0    0 -0.42794859361E+02  0.12881842181E+02  0.40574682272E+03  0.42691243367E+03  0.12500559998E+03 0.  0.
        -13    1    3    3    0    0 -0.57088319929E+01  0.43651975801E+02 -0.10643066206E+03  0.11517626310E+03  0.00000000000E+00 0.  1.
         14    1    3    3    0    0  0.29710258186E+02  0.17705142575E+02  0.27106961651E+00  0.34586774840E+02  0.00000000000E+00 0. -1.
        -13    1    4    4    0    0  0.20638609154E+02 -0.80622856103E+02  0.40962301088E+02  0.92757248905E+02  0.00000000000E+00 0.  1.
         14    1    4    4    0    0 -0.32521837718E+02  0.19054305155E+01  0.10297521965E+02  0.34166351175E+02  0.00000000000E+00 0. -1.
          5    1    5    5  501    0 -0.69102794514E+01 -0.94284408118E+01  0.37308991832E+03  0.37330259122E+03  0.47000000000E+01 0.  1.
         -5    1    5    5    0  501 -0.35884579909E+02  0.22310282993E+02  0.32656904401E+02  0.53609842450E+02  0.47000000000E+01 0.  1.
          1    1    1    2  502    0  0.34850212080E+02  0.34003706585E+02 -0.15408473638E+03  0.16159484933E+03  0.00000000000E+00 0. -1.
          1    1    1    2  503    0 -0.41735503495E+01 -0.29525241554E+02  0.98360533404E+03  0.98405721966E+03  0.00000000000E+00 0. -1.
<mgrwt>
<rscale>  0 0.38038466E+02</rscale>
<asrwt>0</asrwt>
<pdfrwt beam="1">  1        2 0.22276609E+00 0.29818759E+02</pdfrwt>
<pdfrwt beam="2">  1        2 0.49182610E-01 0.48523979E+02</pdfrwt>
<totfact> 0.27356454E+02</totfact>
</mgrwt>
</event>
<event>
13    1  0.1942437E-008  0.1600747E+03  0.7546771E-02  0.1378687E+00
          2   -1    0    0  503    0  0.00000000000E+00  0.00000000000E+00  0.26086095180E+04  0.26086095180E+04  0.00000000000E+00 0. -1.
         -3   -1    0    0    0  501 -0.00000000000E+00 -0.00000000000E+00 -0.26711949731E+03  0.26711949731E+03  0.00000000000E+00 0.  1.
         24    2    1    2    0    0  0.91469996071E+02 -0.25382664718E+02  0.84687161259E+02  0.15032642909E+03  0.80094195483E+02 0.  0.
         24    2    1    2    0    0  0.11963916347E+03  0.66941718880E+02  0.28649977079E+03  0.32822284699E+03  0.82785236979E+02 0.  0.
         25    2    1    2    0    0 -0.12966493909E+03  0.17090399882E+03  0.11187448763E+04  0.11459649823E+04  0.12499787669E+03 0.  0.
        -11    1    3    3    0    0  0.13089113660E+02 -0.32078073859E+02 -0.12778246288E+00  0.34645981690E+02  0.00000000000E+00 0.  1.
         12    1    3    3    0    0  0.78380882411E+02  0.66954091408E+01  0.84814943722E+02  0.11568044740E+03  0.00000000000E+00 0. -1.
        -13    1    4    4    0    0  0.99100688878E+02  0.53707068782E+02  0.28157481680E+03  0.30329815896E+03  0.00000000000E+00 0.  1.
         14    1    4    4    0    0  0.20538474588E+02  0.13234650099E+02  0.49249539936E+01  0.24924688032E+02  0.00000000000E+00 0. -1.
          5    1    5    5  502    0 -0.87821403212E+02  0.33851495168E+02  0.61633373032E+03  0.62349649535E+03  0.47000000000E+01 0. -1.
         -5    1    5    5    0  502 -0.41843535876E+02  0.13705250365E+03  0.50241114601E+03  0.52246848698E+03  0.47000000000E+01 0. -1.
          1    1    1    2  503    0 -0.11994216541E+02 -0.23338220570E+02  0.10003877036E+04  0.10007317779E+04  0.00000000000E+00 0. -1.
         -4    1    1    2    0  501 -0.69450003907E+02 -0.18912483241E+03 -0.14882949131E+03  0.25048297899E+03  0.00000000000E+00 0.  1.
<mgrwt>
<rscale>  0 0.64810090E+02</rscale>
<asrwt>0</asrwt>
<pdfrwt beam="1">  1        2 0.38361903E+00 0.26239927E+02</pdfrwt>
<pdfrwt beam="2">  1       -3 0.39282280E-01 0.16007467E+03</pdfrwt>
<totfact> 0.22064456E+01</totfact>
</mgrwt>
</event>
<event>
13    1  0.1942437E-008  0.1594514E+03  0.7546771E-02  0.1315595E+00
          2   -1    0    0  503    0  0.00000000000E+00  0.00000000000E+00  0.19594555609E+04  0.19594555609E+04  0.00000000000E+00 0. -1.
          2   -1    0    0  502    0 -0.00000000000E+00 -0.00000000000E+00 -0.81080658811E+03  0.81080658811E+03  0.00000000000E+00 0. -1.
         24    2    1    2    0    0  0.59221922062E+02  0.47859758285E+02  0.58773154539E+01  0.11036357054E+03  0.79672971258E+02 0.  0.
         24    2    1    2    0    0 -0.21342013822E+03  0.10659632071E+02  0.30277252377E+03  0.37794940386E+03  0.74248013926E+02 0.  0.
         25    2    1    2    0    0  0.13565057767E+03 -0.20462309067E+03  0.84462255524E+03  0.88841606702E+03  0.12499663542E+03 0.  0.
        -13    1    4    4    0    0 -0.10772514866E+02 -0.10559265972E+02  0.28340215040E+01  0.15348513032E+02  0.00000000000E+00 0.  1.
         14    1    4    4    0    0 -0.20264762335E+03  0.21218898044E+02  0.29993850227E+03  0.36260089083E+03  0.00000000000E+00 0. -1.
        -13    1    3    3    0    0  0.11955717464E+02  0.54054069502E+02 -0.16408716697E+02  0.57741039075E+02  0.00000000000E+00 0.  1.
         14    1    3    3    0    0  0.47266204598E+02 -0.61943112164E+01  0.22286032151E+02  0.52622531463E+02  0.00000000000E+00 0. -1.
          5    1    5    5  501    0  0.13411378341E+03 -0.22023715781E+03  0.77089446440E+03  0.81289069242E+03  0.47000000000E+01 0.  1.
         -5    1    5    5    0  501  0.15367942574E+01  0.15614067148E+02  0.73728090842E+02  0.75525374602E+02  0.47000000000E+01 0.  1.
          1    1    1    2  502    0  0.55140613132E+02  0.17271359244E+03 -0.68656105326E+03  0.71009615693E+03  0.00000000000E+00 0. -1.
          1    1    1    2  503    0 -0.36592974648E+02 -0.26609892127E+02  0.68193763160E+03  0.68343695067E+03  0.00000000000E+00 0. -1.
<mgrwt>
<rscale>  0 0.84937724E+02</rscale>
<asrwt>0</asrwt>
<pdfrwt beam="1">  1        2 0.28815523E+00 0.45245245E+02</pdfrwt>
<pdfrwt beam="2">  1        2 0.11923626E+00 0.15945138E+03</pdfrwt>
<totfact> 0.61178599E+01</totfact>
</mgrwt>
</event>
<event>
13    1  0.1942437E-008  0.1447280E+03  0.7546771E-02  0.1332953E+00
          2   -1    0    0  502    0  0.00000000000E+00  0.00000000000E+00  0.78237705425E+03  0.78237705425E+03  0.00000000000E+00 0. -1.
          2   -1    0    0  503    0 -0.00000000000E+00 -0.00000000000E+00 -0.96147143050E+03  0.96147143050E+03  0.00000000000E+00 0. -1.
         24    2    1    2    0    0 -0.13709877872E+03 -0.12122722213E+03 -0.26629973902E+03  0.33287323616E+03  0.79980784180E+02 0.  0.
         24    2    1    2    0    0  0.98567308635E+02  0.14688399805E+03  0.11094999537E+03  0.22462435053E+03  0.82799602428E+02 0.  0.
         25    2    1    2    0    0 -0.93883849928E+02 -0.11698312990E+03  0.22872917806E+03  0.30073332329E+03  0.12499705950E+03 0.  0.
        -13    1    4    4    0    0  0.29124875042E+02  0.91032224141E+02  0.93715462072E+02  0.13385705812E+03  0.00000000000E+00 0.  1.
         14    1    4    4    0    0  0.69442433593E+02  0.55851773907E+02  0.17234533298E+02  0.90767292402E+02  0.00000000000E+00 0. -1.
        -13    1    3    3    0    0 -0.30368251087E+02  0.42100275777E+01 -0.71393814571E+02  0.77698338241E+02  0.00000000000E+00 0.  1.
         14    1    3    3    0    0 -0.10673052763E+03 -0.12543724971E+03 -0.19490592445E+03  0.25517489792E+03  0.00000000000E+00 0. -1.
          5    1    5    5  501    0 -0.10623439198E+03 -0.10203196023E+03  0.11960316723E+03  0.18979798355E+03  0.47000000000E+01 0. -1.
         -5    1    5    5    0  501  0.12350542056E+02 -0.14951169667E+02  0.10912601083E+03  0.11093533974E+03  0.47000000000E+01 0. -1.
          1    1    1    2  502    0 -0.36277266758E+01  0.42576797570E+02  0.30588764076E+03  0.30885788457E+03  0.00000000000E+00 0. -1.
          1    1    1    2  503    0  0.13604304669E+03  0.48749556417E+02 -0.55836145142E+03  0.57675969020E+03  0.00000000000E+00 0. -1.
<mgrwt>
<rscale>  0 0.78640840E+02</rscale>
<asrwt>0</asrwt>
<pdfrwt beam="1">  1        2 0.11505545E+00 0.42731067E+02</pdfrwt>
<pdfrwt beam="2">  1        2 0.14139286E+00 0.14472800E+03</pdfrwt>
<totfact> 0.19483993E+02</totfact>
</mgrwt>
</event>
<event>
13    1  0.1942437E-008  0.7575735E+02  0.7546771E-02  0.1355509E+00
          2   -1    0    0  503    0  0.00000000000E+00  0.00000000000E+00  0.11354533048E+04  0.11354533048E+04  0.00000000000E+00 0. -1.
          2   -1    0    0  502    0 -0.00000000000E+00 -0.00000000000E+00 -0.89458490206E+03  0.89458490206E+03  0.00000000000E+00 0. -1.
         24    2    1    2    0    0 -0.88155939015E+02 -0.92729692074E+02 -0.11412104670E+03  0.18901210628E+03  0.79571965198E+02 0.  0.
         24    2    1    2    0    0  0.26795654449E+02 -0.57030048936E+01  0.15496316708E+02  0.86069550616E+02  0.80108054212E+02 0.  0.
         25    2    1    2    0    0 -0.30844433332E+02  0.89283742996E+01  0.31949814685E+03  0.34458030303E+03  0.12500169783E+03 0.  0.
        -13    1    3    3    0    0 -0.21064022806E+02 -0.59355556355E+02 -0.90852106377E+02  0.11054809071E+03  0.00000000000E+00 0.  1.
         14    1    3    3    0    0 -0.67091916208E+02 -0.33374135719E+02 -0.23268940322E+02  0.78464015569E+02  0.00000000000E+00 0. -1.
        -13    1    4    4    0    0 -0.27217898869E+02  0.63933072184E+01 -0.19691554586E+01  0.28027949787E+02  0.00000000000E+00 0.  1.
         14    1    4    4    0    0  0.54013553319E+02 -0.12096312112E+02  0.17465472166E+02  0.58041600829E+02  0.00000000000E+00 0. -1.
          5    1    5    5  501    0  0.17942165926E+02  0.45603286456E+02  0.58304312767E+02  0.76309003013E+02  0.47000000000E+01 0. -1.
         -5    1    5    5    0  501 -0.48786599258E+02 -0.36674912156E+02  0.26119383408E+03  0.26827130001E+03  0.47000000000E+01 0. -1.
          1    1    1    2  502    0  0.71052764307E+02  0.25689594718E+02 -0.69154863307E+03  0.69566368491E+03  0.00000000000E+00 0. -1.
          1    1    1    2  503    0  0.21151953590E+02  0.63814727950E+02  0.71154361891E+03  0.71471256199E+03  0.00000000000E+00 0. -1.
<mgrwt>
<rscale>  0 0.71365838E+02</rscale>
<asrwt>0</asrwt>
<pdfrwt beam="1">  1        2 0.16697843E+00 0.67228897E+02</pdfrwt>
<pdfrwt beam="2">  1        2 0.13155660E+00 0.75757347E+02</pdfrwt>
<totfact> 0.13483958E+02</totfact>
</mgrwt>
</event>
<event>
13    1  0.1942437E-008  0.7615600E+02  0.7546771E-02  0.1500790E+00
          2   -1    0    0  503    0  0.00000000000E+00  0.00000000000E+00  0.29354598909E+04  0.29354598909E+04  0.00000000000E+00 0. -1.
          2   -1    0    0  502    0 -0.00000000000E+00 -0.00000000000E+00 -0.14764870550E+04  0.14764870550E+04  0.00000000000E+00 0. -1.
         24    2    1    2    0    0  0.57587805790E+03 -0.56371397381E+03 -0.74167960282E+03  0.10985189638E+04  0.85125194783E+02 0.  0.
         24    2    1    2    0    0 -0.57021920205E+03  0.47670796338E+03  0.38077529237E+02  0.74876528266E+03  0.82456834435E+02 0.  0.
         25    2    1    2    0    0  0.21199198168E+02  0.32589193553E+00 -0.14691307824E+02  0.12761052377E+03  0.12497639395E+03 0.  0.
        -11    1    4    4    0    0 -0.25691436063E+03  0.16734984261E+03 -0.22899728169E+01  0.30662061655E+03  0.00000000000E+00 0.  1.
         12    1    4    4    0    0 -0.31330484142E+03  0.30935812077E+03  0.40367502054E+02  0.44214466611E+03  0.00000000000E+00 0. -1.
        -13    1    3    3    0    0  0.51030329475E+03 -0.45914987471E+03 -0.61508935687E+03  0.92171740627E+03  0.00000000000E+00 0.  1.
         14    1    3    3    0    0  0.65574763147E+02 -0.10456409910E+03 -0.12659024595E+03  0.17680155754E+03  0.00000000000E+00 0. -1.
          5    1    5    5  501    0 -0.45190813996E+01  0.15544719960E+02 -0.65961305289E+02  0.68081159000E+02  0.47000000000E+01 0. -1.
         -5    1    5    5    0  501  0.25718279568E+02 -0.15218828025E+02  0.51269997465E+02  0.59529364774E+02  0.47000000000E+01 0. -1.
          1    1    1    2  502    0 -0.19218867783E+02  0.10914222919E+02 -0.12831962977E+03  0.13020911076E+03  0.00000000000E+00 0. -1.
          1    1    1    2  503    0 -0.76391862313E+01  0.75765895576E+02  0.23055858470E+04  0.23068430649E+04  0.00000000000E+00 0. -1.
<mgrwt>
<rscale>  0 0.41026542E+02</rscale>
<asrwt>0</asrwt>
<pdfrwt beam="1">  1        2 0.43168528E+00 0.76156004E+02</pdfrwt>
<pdfrwt beam="2">  1        2 0.21713045E+00 0.22101700E+02</pdfrwt>
<totfact> 0.94663604E+00</totfact>
</mgrwt>
</event>
<event>
13    1  0.1942437E-008  0.1218402E+03  0.7546771E-02  0.1348632E+00
          2   -1    0    0  503    0  0.00000000000E+00  0.00000000000E+00  0.38117679535E+04  0.38117679535E+04  0.00000000000E+00 0. -1.
          2   -1    0    0  502    0 -0.00000000000E+00 -0.00000000000E+00 -0.23601308291E+04  0.23601308291E+04  0.00000000000E+00 0. -1.
         24    2    1    2    0    0  0.96982446796E+02  0.47016857888E+02 -0.76506834579E+03  0.77707343723E+03  0.83050425669E+02 0.  0.
         24    2    1    2    0    0 -0.86912207767E+02 -0.54381733709E+02  0.51528294629E+02  0.14066370674E+03  0.81363434214E+02 0.  0.
         25    2    1    2    0    0 -0.15809027303E+03 -0.59502725856E+02  0.53611693111E+03  0.57582634383E+03  0.12498602164E+03 0.  0.
        -11    1    4    4    0    0 -0.73551494238E+01 -0.47152038540E+02  0.34755690214E+02  0.59037030445E+02  0.00000000000E+00 0.  1.
         12    1    4    4    0    0 -0.79557058343E+02 -0.72296951690E+01  0.16772604415E+02  0.81626676297E+02  0.00000000000E+00 0. -1.
        -13    1    3    3    0    0  0.13556141306E+02  0.49948654351E+02 -0.33559268201E+03  0.33956013497E+03  0.00000000000E+00 0.  1.
         14    1    3    3    0    0  0.83426305491E+02 -0.29317964638E+01 -0.42947566377E+03  0.43751330226E+03  0.00000000000E+00 0. -1.
          5    1    5    5  501    0 -0.15992844240E+03 -0.86965138712E+02  0.47077341769E+03  0.50476701838E+03  0.47000000000E+01 0. -1.
         -5    1    5    5    0  501  0.18381693677E+01  0.27462412856E+02  0.65343513425E+02  0.71059325449E+02  0.47000000000E+01 0. -1.
          1    1    1    2  502    0  0.44203508210E+02  0.31990003751E+01 -0.15231393546E+04  0.15237839996E+04  0.00000000000E+00 0. -1.
          1    1    1    2  503    0  0.10381652579E+03  0.63668601303E+02  0.31521995991E+04  0.31545512953E+04  0.00000000000E+00 0. -1.
<mgrwt>
<rscale>  0 0.73483672E+02</rscale>
<asrwt>0</asrwt>
<pdfrwt beam="1">  1        2 0.56055411E+00 0.12184021E+03</pdfrwt>
<pdfrwt beam="2">  1        2 0.34707806E+00 0.44319113E+02</pdfrwt>
<totfact> 0.99978471E-01</totfact>
</mgrwt>
</event>
<event>
13    1  0.1942437E-008  0.4895346E+02  0.7546771E-02  0.1466674E+00
          2   -1    0    0  502    0  0.00000000000E+00  0.00000000000E+00  0.13984204461E+04  0.13984204461E+04  0.00000000000E+00 0. -1.
          2   -1    0    0  503    0 -0.00000000000E+00 -0.00000000000E+00 -0.21974311190E+04  0.21974311190E+04  0.00000000000E+00 0. -1.
         24    2    1    2    0    0  0.23229773376E+02 -0.24819315514E+02 -0.21200665839E+03  0.22902711757E+03  0.79693014664E+02 0.  0.
         24    2    1    2    0    0  0.14027818553E+02 -0.45640471839E+02 -0.87012966824E+02  0.12732841516E+03  0.79758614267E+02 0.  0.
         25    2    1    2    0    0 -0.97190325955E+02  0.11039966987E+03  0.35027956518E+03  0.39993925312E+03  0.12498634259E+03 0.  0.
        -11    1    3    3    0    0  0.32196420316E+02  0.19574998049E+02 -0.64239006956E+02  0.74474425439E+02  0.00000000000E+00 0.  1.
         12    1    3    3    0    0 -0.89666469393E+01 -0.44394313564E+02 -0.14776765144E+03  0.15455269213E+03  0.00000000000E+00 0. -1.
        -11    1    4    4    0    0 -0.33130269606E+02 -0.15039323928E+02 -0.39711543826E+02  0.53859100822E+02  0.00000000000E+00 0.  1.
         12    1    4    4    0    0  0.47158088159E+02 -0.30601147912E+02 -0.47301422999E+02  0.73469314343E+02  0.00000000000E+00 0. -1.
          5    1    5    5  501    0 -0.73359290122E+01  0.91490671968E+02  0.11420307478E+03  0.14659055632E+03  0.47000000000E+01 0.  1.
         -5    1    5    5    0  501 -0.89854396942E+02  0.18908997899E+02  0.23607649040E+03  0.25334869680E+03  0.47000000000E+01 0.  1.
          1    1    1    2  502    0  0.48882082776E+02  0.23394414655E+01  0.99378211126E+03  0.99498633943E+03  0.00000000000E+00 0. -1.
          1    1    1    2  503    0  0.11050651249E+02 -0.42279323979E+02 -0.18440527241E+04  0.18445704398E+04  0.00000000000E+00 0. -1.
<mgrwt>
<rscale>  0 0.46252010E+02</rscale>
<asrwt>0</asrwt>
<pdfrwt beam="1">  1        2 0.20565007E+00 0.48953462E+02</pdfrwt>
<pdfrwt beam="2">  1        2 0.32315163E+00 0.43699635E+02</pdfrwt>
<totfact> 0.24010635E+01</totfact>
</mgrwt>
</event>
<event>
13    1  0.1942437E-008  0.6670295E+02  0.7546771E-02  0.1495233E+00
          4   -1    0    0  503    0 -0.00000000000E+00  0.00000000000E+00  0.86887297206E+03  0.86887297206E+03  0.00000000000E+00 0. -1.
          2   -1    0    0  502    0  0.00000000000E+00 -0.00000000000E+00 -0.16760659071E+04  0.16760659071E+04  0.00000000000E+00 0. -1.
         24    2    1    2    0    0  0.32807774085E+02  0.30495857756E+02  0.26026312779E+03  0.27596629270E+03  0.80088398905E+02 0.  0.
         24    2    1    2    0    0 -0.10923298817E+03  0.36689820544E+02 -0.12563647820E+02  0.14089084848E+03  0.80089932593E+02 0.  0.
         25    2    1    2    0    0  0.52863683460E+02 -0.10162281976E+03 -0.23172578670E+03  0.28713113932E+03  0.12500273765E+03 0.  0.
        -11    1    4    4    0    0 -0.88397543567E+01 -0.20493091964E+02  0.76628875394E+01  0.23597201546E+02  0.00000000000E+00 0.  1.
         12    1    4    4    0    0 -0.10039323382E+03  0.57182912509E+02 -0.20226535360E+02  0.11729364694E+03  0.00000000000E+00 0. -1.
        -11    1    3    3    0    0 -0.18374054318E+02 -0.13771880994E+02  0.48651581223E+02  0.53798205674E+02  0.00000000000E+00 0.  1.
         12    1    3    3    0    0  0.51181828404E+02  0.44267738751E+02  0.21161154657E+03  0.22216808703E+03  0.00000000000E+00 0. -1.
          5    1    5    5  501    0 -0.34243000982E+02 -0.18409096163E+02 -0.10572873759E+03  0.11274809928E+03  0.47000000000E+01 0. -1.
         -5    1    5    5    0  501  0.87106684443E+02 -0.83213723600E+02 -0.12599704911E+03  0.17438304004E+03  0.47000000000E+01 0. -1.
          1    1    1    2  502    0 -0.60595752696E+01 -0.25508932863E+02 -0.13297324171E+04  0.13299908741E+04  0.00000000000E+00 0. -1.
          3    1    1    2  503    0  0.29621105896E+02  0.59946074325E+02  0.50656578880E+03  0.51095972456E+03  0.00000000000E+00 0. -1.
<mgrwt>
<rscale>  0 0.41819488E+02</rscale>
<asrwt>0</asrwt>
<pdfrwt beam="2">  1        2 0.24648028E+00 0.26218774E+02</pdfrwt>
<pdfrwt beam="1">  1        4 0.12777544E+00 0.66702951E+02</pdfrwt>
<totfact> 0.36239296E+00</totfact>
</mgrwt>
</event>
<event>
13    1  0.1942437E-008  0.9673832E+02  0.7546771E-02  0.1345647E+00
          2   -1    0    0  502    0  0.00000000000E+00  0.00000000000E+00  0.33244275071E+04  0.33244275071E+04  0.00000000000E+00 0. -1.
          2   -1    0    0  503    0 -0.00000000000E+00 -0.00000000000E+00 -0.50953749773E+03  0.50953749773E+03  0.00000000000E+00 0. -1.
         24    2    1    2    0    0  0.10516744506E+03  0.10351232921E+02 -0.23264837048E+03  0.26794698138E+03  0.80641062860E+02 0.  0.
         24    2    1    2    0    0 -0.31095092421E+01 -0.57069832270E+02  0.38503141919E+02  0.10555917054E+03  0.79960063436E+02 0.  0.
         25    2    1    2    0    0 -0.19539495759E+03  0.94259181118E+02  0.16050758872E+04  0.16244866602E+04  0.12499729083E+03 0.  0.
        -11    1    3    3    0    0  0.19647935712E+02  0.39153421990E+01 -0.42067985471E-01  0.20034296893E+02  0.00000000000E+00 0.  1.
         12    1    3    3    0    0  0.85519509351E+02  0.64358907224E+01 -0.23260630249E+03  0.24791268448E+03  0.00000000000E+00 0. -1.
        -11    1    4    4    0    0  0.46607789710E+01  0.16008106682E+02  0.26187330921E+02  0.31044462323E+02  0.00000000000E+00 0.  1.
         12    1    4    4    0    0 -0.77702882131E+01 -0.73077938952E+02  0.12315810998E+02  0.74514708218E+02  0.00000000000E+00 0. -1.
          5    1    5    5  501    0 -0.33380322266E+02 -0.25702651847E+02  0.44512210931E+03  0.44713605806E+03  0.47000000000E+01 0.  1.
         -5    1    5    5    0  501 -0.16201463532E+03  0.11996183296E+03  0.11599537779E+04  0.11773506021E+04  0.47000000000E+01 0.  1.
          1    1    1    2  502    0  0.96298291796E+02  0.96480043923E+01  0.16146958775E+04  0.16175936516E+04  0.00000000000E+00 0. -1.
          1    1    1    2  503    0 -0.29612700303E+01 -0.57188586162E+02 -0.21073652676E+03  0.21837854112E+03  0.00000000000E+00 0. -1.
<mgrwt>
<rscale>  0 0.74429427E+02</rscale>
<asrwt>0</asrwt>
<pdfrwt beam="1">  1        2 0.48888639E+00 0.96738320E+02</pdfrwt>
<pdfrwt beam="2">  1        2 0.74931987E-01 0.57265203E+02</pdfrwt>
<totfact> 0.19645020E+01</totfact>
</mgrwt>
</event>
<event>
13    1  0.1942437E-008  0.1375555E+03  0.7546771E-02  0.1385916E+00
          2   -1    0    0  502    0  0.00000000000E+00  0.00000000000E+00  0.16902406927E+04  0.16902406927E+04  0.00000000000E+00 0. -1.
          2   -1    0    0  503    0 -0.00000000000E+00 -0.00000000000E+00 -0.28492906872E+04  0.28492906872E+04  0.00000000000E+00 0. -1.
         24    2    1    2    0    0  0.78289929408E+02 -0.36797024250E+02 -0.19385493479E+03  0.22674246833E+03  0.79681096651E+02 0.  0.
         24    2    1    2    0    0 -0.22714954450E+02 -0.76510829089E+02 -0.44479503406E+03  0.45886326197E+03  0.79642920196E+02 0.  0.
         25    2    1    2    0    0  0.67439934132E+02  0.27558089798E+01  0.11788220053E+04  0.11873527233E+04  0.12501771938E+03 0.  0.
        -11    1    4    4    0    0  0.23897034880E+01  0.62690579307E+01 -0.10806458747E+01  0.67955548416E+01  0.00000000000E+00 0.  1.
         12    1    4    4    0    0 -0.25104657938E+02 -0.82779887020E+02 -0.44371438819E+03  0.45206770713E+03  0.00000000000E+00 0. -1.
        -13    1    3    3    0    0 -0.54733267431E+01  0.56778512095E+01 -0.74266004943E+02  0.74683564392E+02  0.00000000000E+00 0.  1.
         14    1    3    3    0    0  0.83763256151E+02 -0.42474875459E+02 -0.11958892984E+03  0.15205890394E+03  0.00000000000E+00 0. -1.
          5    1    5    5  501    0  0.14606608537E+01  0.51434090697E+02  0.66545672475E+03  0.66745961805E+03  0.47000000000E+01 0.  1.
         -5    1    5    5    0  501  0.65979273278E+02 -0.48678281717E+02  0.51336528057E+03  0.51989310527E+03  0.47000000000E+01 0.  1.
          1    1    1    2  502    0  0.23408991309E+02  0.16765344339E+02  0.47978033494E+03  0.48064355550E+03  0.00000000000E+00 0. -1.
          1    1    1    2  503    0 -0.14642390040E+03  0.93786700019E+02 -0.21790023659E+04  0.21859293708E+04  0.00000000000E+00 0. -1.
<mgrwt>
<rscale>  0 0.62933969E+02</rscale>
<asrwt>0</asrwt>
<pdfrwt beam="1">  1        2 0.24856481E+00 0.28793361E+02</pdfrwt>
<pdfrwt beam="2">  1        2 0.41901334E+00 0.13755548E+03</pdfrwt>
<totfact> 0.75061117E+00</totfact>
</mgrwt>
</event>
<event>
13    1  0.1942437E-008  0.5314538E+02  0.7546771E-02  0.1552729E+00
          2   -1    0    0  502    0  0.00000000000E+00  0.00000000000E+00  0.12695127362E+04  0.12695127362E+04  0.00000000000E+00 0. -1.
          2   -1    0    0  503    0 -0.00000000000E+00 -0.00000000000E+00 -0.64404814141E+03  0.64404814141E+03  0.00000000000E+00 0. -1.
         24    2    1    2    0    0  0.55214530577E+02 -0.72386659712E+02 -0.15419335413E+03  0.19615796061E+03  0.80086716521E+02 0.  0.
         24    2    1    2    0    0  0.20684915145E+02  0.22573301794E+02 -0.21109185198E+02  0.88953760525E+02  0.80806894158E+02 0.  0.
         25    2    1    2    0    0 -0.84243416505E+02 -0.81868865601E+01  0.33592604451E+03  0.36828521354E+03  0.12499485107E+03 0.  0.
        -11    1    4    4    0    0  0.49159511972E+02  0.26637127548E+02 -0.53796157960E+01  0.56170583471E+02  0.00000000000E+00 0.  1.
         12    1    4    4    0    0 -0.28474596827E+02 -0.40638257545E+01 -0.15729569402E+02  0.32783177055E+02  0.00000000000E+00 0. -1.
        -13    1    3    3    0    0  0.19420188142E+02 -0.81229571899E+02 -0.11733392826E+03  0.14402304600E+03  0.00000000000E+00 0.  1.
         14    1    3    3    0    0  0.35794342435E+02  0.88429121864E+01 -0.36859425873E+02  0.52134914616E+02  0.00000000000E+00 0. -1.
          5    1    5    5  501    0 -0.42607519073E+02  0.14916993030E+01  0.16466323765E+02  0.45944049307E+02  0.47000000000E+01 0. -1.
         -5    1    5    5    0  501 -0.41635897431E+02 -0.96785858631E+01  0.31945972075E+03  0.32234116423E+03  0.47000000000E+01 0. -1.
          1    1    1    2  502    0 -0.18776783560E+02  0.12300932593E+02  0.86058015338E+03  0.86087285991E+03  0.00000000000E+00 0. -1.
          1    1    1    2  503    0  0.27120754343E+02  0.45699311886E+02 -0.39573906374E+03  0.39929108304E+03  0.00000000000E+00 0. -1.
<mgrwt>
<rscale>  0 0.34539390E+02</rscale>
<asrwt>0</asrwt>
<pdfrwt beam="1">  1        2 0.18669305E+00 0.22447284E+02</pdfrwt>
<pdfrwt beam="2">  1        2 0.94712962E-01 0.53145382E+02</pdfrwt>
<totfact> 0.18380438E+02</totfact>
</mgrwt>
</event>
<event>
13    1  0.1942437E-008  0.5785870E+02  0.7546771E-02  0.1559025E+00
          2   -1    0    0  502    0  0.00000000000E+00  0.00000000000E+00  0.27365364665E+04  0.27365364665E+04  0.00000000000E+00 0. -1.
          2   -1    0    0  503    0 -0.00000000000E+00 -0.00000000000E+00 -0.22333411713E+04  0.22333411713E+04  0.00000000000E+00 0. -1.
         24    2    1    2    0    0 -0.24577123781E+02  0.51408017299E+03 -0.25523025843E+03  0.58018661675E+03  0.81188460807E+02 0.  0.
         24    2    1    2    0    0  0.49080116317E+03 -0.64306531159E+03  0.12881620082E+03  0.82337654123E+03  0.83285883053E+02 0.  0.
         25    2    1    2    0    0 -0.42643009227E+03  0.64981790479E+02  0.93439026029E+03  0.10367141263E+04  0.12500305812E+03 0.  0.
        -11    1    3    3    0    0 -0.49506042835E+02  0.24290277791E+03 -0.13783871352E+03  0.28364082699E+03  0.00000000000E+00 0.  1.
         12    1    3    3    0    0  0.24928919054E+02  0.27117739509E+03 -0.11739154491E+03  0.29654578976E+03  0.00000000000E+00 0. -1.
        -11    1    4    4    0    0  0.31275531798E+03 -0.43201605677E+03  0.47094553765E+02  0.53541727580E+03  0.00000000000E+00 0.  1.
         12    1    4    4    0    0  0.17804584519E+03 -0.21104925482E+03  0.81721647054E+02  0.28795926543E+03  0.00000000000E+00 0. -1.
          5    1    5    5  501    0 -0.39087704323E+03  0.68104744140E+02  0.74647212183E+03  0.84537910890E+03  0.47000000000E+01 0.  1.
         -5    1    5    5    0  501 -0.35553049042E+02 -0.31229536610E+01  0.18791813846E+03  0.19133501744E+03  0.47000000000E+01 0.  1.
          1    1    1    2  502    0 -0.37097979704E+02  0.44379962939E+02  0.11115884922E+04  0.11130924567E+04  0.00000000000E+00 0. -1.
          1    1    1    2  503    0 -0.26959674144E+01  0.19623385183E+02 -0.14163693996E+04  0.14165078968E+04  0.00000000000E+00 0. -1.
<mgrwt>
<rscale>  0 0.33853338E+02</rscale>
<asrwt>0</asrwt>
<pdfrwt beam="1">  1        2 0.40243183E+00 0.57858699E+02</pdfrwt>
<pdfrwt beam="2">  1        2 0.32843253E+00 0.19807713E+02</pdfrwt>
<totfact> 0.58342384E+00</totfact>
</mgrwt>
</event>
<event>
13    1  0.1942437E-008  0.1319093E+03  0.7546771E-02  0.1275250E+00
          4   -1    0    0  503    0 -0.00000000000E+00  0.00000000000E+00  0.19256579272E+04  0.19256579272E+04  0.00000000000E+00 0. -1.
          2   -1    0    0  502    0  0.00000000000E+00 -0.00000000000E+00 -0.59949782591E+03  0.59949782591E+03  0.00000000000E+00 0. -1.
         24    2    1    2    0    0  0.76403479781E+02 -0.94964058531E+01  0.17622519594E+03  0.20991523229E+03  0.84151123680E+02 0.  0.
         24    2    1    2    0    0 -0.36149240568E+02 -0.50085622403E+02  0.27027022223E+03  0.28806742418E+03  0.78240083623E+02 0.  0.
         25    2    1    2    0    0  0.10678342672E+03  0.17502888725E+03  0.42433035098E+02  0.24385151287E+03  0.12500074506E+03 0.  0.
        -11    1    4    4    0    0  0.87659136327E+01 -0.44393741183E+02  0.74799419800E+02  0.87421957771E+02  0.00000000000E+00 0.  1.
         12    1    4    4    0    0 -0.44915154201E+02 -0.56918812197E+01  0.19547080243E+03  0.20064546641E+03  0.00000000000E+00 0. -1.
        -11    1    3    3    0    0  0.32090818200E+02 -0.16491445110E+02  0.95704695948E+01  0.37328035883E+02  0.00000000000E+00 0.  1.
         12    1    3    3    0    0  0.44312661581E+02  0.69950392571E+01  0.16665472635E+03  0.17258719641E+03  0.00000000000E+00 0. -1.
          5    1    5    5  501    0  0.39409147596E+02  0.12388033258E+02  0.53078501118E+02  0.67423746286E+02  0.47000000000E+01 0. -1.
         -5    1    5    5    0  501  0.67374279125E+02  0.16264085399E+03 -0.10645466020E+02  0.17642776658E+03  0.47000000000E+01 0. -1.
          1    1    1    2  502    0 -0.67838135396E+02 -0.10796616392E+03 -0.46321478315E+03  0.48044421164E+03  0.00000000000E+00 0. -1.
          3    1    1    2  503    0 -0.79199530538E+02 -0.74806950771E+01  0.13004464312E+04  0.13028773721E+04  0.00000000000E+00 0. -1.
<mgrwt>
<rscale>  0 0.10243855E+03</rscale>
<asrwt>0</asrwt>
<pdfrwt beam="2">  1        2 0.88161445E-01 0.13190934E+03</pdfrwt>
<pdfrwt beam="1">  1        4 0.28318499E+00 0.79552036E+02</pdfrwt>
<totfact> 0.13983248E+00</totfact>
</mgrwt>
</event>
<event>
13    1  0.1942437E-008  0.1980204E+03  0.7546771E-02  0.1373014E+00
          4   -1    0    0  503    0  0.00000000000E+00  0.00000000000E+00  0.44232168504E+03  0.44232168504E+03  0.00000000000E+00 0. -1.
         -1   -1    0    0    0  501 -0.00000000000E+00 -0.00000000000E+00 -0.18307678766E+04  0.18307678766E+04  0.00000000000E+00 0.  1.
         24    2    1    2    0    0  0.78700942940E+02 -0.30555835624E+01 -0.20665483481E+03  0.23541098454E+03  0.80677976428E+02 0.  0.
         24    2    1    2    0    0  0.10415533835E+03 -0.10172966784E+03 -0.31247475445E+03  0.35418348530E+03  0.81290892916E+02 0.  0.
         25    2    1    2    0    0  0.41200311795E+02  0.71808941316E+02 -0.18840726605E+03  0.24077935450E+03  0.12499363946E+03 0.  0.
        -11    1    4    4    0    0  0.24941214474E+02 -0.18301498876E+02 -0.13340506464E+02  0.33689436820E+02  0.00000000000E+00 0.  1.
         12    1    4    4    0    0  0.79214123872E+02 -0.83428168959E+02 -0.29913424798E+03  0.32049404848E+03  0.00000000000E+00 0. -1.
        -13    1    3    3    0    0  0.69399320148E+02  0.20033277301E+02 -0.19495511253E+03  0.20790645430E+03  0.00000000000E+00 0.  1.
         14    1    3    3    0    0  0.93016227918E+01 -0.23088860864E+02 -0.11699722285E+02  0.27504530247E+02  0.00000000000E+00 0. -1.
          5    1    5    5  502    0 -0.76190231596E+01 -0.32808089409E+02 -0.50234535571E+02  0.60663158578E+02  0.47000000000E+01 0.  1.
         -5    1    5    5    0  502  0.48819334955E+02  0.10461703072E+03 -0.13817273048E+03  0.18011619592E+03  0.47000000000E+01 0.  1.
          3    1    1    2  503    0 -0.20301380000E+03  0.25831999137E+02  0.35328667722E+03  0.40828099573E+03  0.00000000000E+00 0. -1.
         -2    1    1    2    0  501 -0.21042793081E+02  0.71443109452E+01 -0.10341960135E+04  0.10344347416E+04  0.00000000000E+00 0.  1.
<mgrwt>
<rscale>  0 0.66336349E+02</rscale>
<asrwt>0</asrwt>
<pdfrwt beam="1">  1        4 0.65047306E-01 0.19802036E+03</pdfrwt>
<pdfrwt beam="2">  1       -1 0.26923057E+00 0.22222518E+02</pdfrwt>
<totfact> 0.70144584E-01</totfact>
</mgrwt>
</event>
<event>
13    1  0.1942437E-008  0.5661457E+02  0.7546771E-02  0.1424306E+00
         -3   -1    0    0    0  501 -0.00000000000E+00  0.00000000000E+00  0.79074950800E+03  0.79074950800E+03  0.00000000000E+00 0.  1.
          2   -1    0    0  503    0  0.00000000000E+00 -0.00000000000E+00 -0.15646253326E+04  0.15646253326E+04  0.00000000000E+00 0. -1.
         24    2    1    2    0    0 -0.22666228874E+02  0.22666257924E+02  0.52106329909E+03  0.52780362071E+03  0.77731481342E+02 0.  0.
         24    2    1    2    0    0 -0.26506271787E+02  0.80488753167E+02 -0.33753138528E+03  0.35708362292E+03  0.80001599247E+02 0.  0.
         25    2    1    2    0    0 -0.36243429693E+02 -0.90025409635E+02 -0.32122778410E+03  0.35809281808E+03  0.12500006602E+03 0.  0.
        -13    1    4    4    0    0 -0.50296682021E+02  0.77737359694E+02 -0.26830406615E+03  0.28383080387E+03  0.00000000000E+00 0.  1.
         14    1    4    4    0    0  0.23790410235E+02  0.27513934725E+01 -0.69227319128E+02  0.73252819051E+02  0.00000000000E+00 0. -1.
        -13    1    3    3    0    0  0.87846853259E+00  0.27458057430E+02  0.58636676884E+02  0.64753196838E+02  0.00000000000E+00 0.  1.
         14    1    3    3    0    0 -0.23544697407E+02 -0.47917995066E+01  0.46242662221E+03  0.46305042387E+03  0.00000000000E+00 0. -1.
          5    1    5    5  502    0  0.10579116454E+02 -0.10232926708E+03 -0.26161659748E+03  0.28115570541E+03  0.47000000000E+01 0.  1.
         -5    1    5    5    0  502 -0.46822546147E+02  0.12303857447E+02 -0.59611186618E+02  0.76937112669E+02  0.47000000000E+01 0.  1.
          1    1    1    2  503    0  0.44678073730E+02  0.26085617638E+02 -0.87015107080E+03  0.87168771686E+03  0.00000000000E+00 0. -1.
         -4    1    1    2    0  501  0.40737856624E+02 -0.39215219093E+02  0.23397111648E+03  0.24070706204E+03  0.00000000000E+00 0.  1.
<mgrwt>
<rscale>  0 0.54120221E+02</rscale>
<asrwt>0</asrwt>
<pdfrwt beam="2">  1        2 0.23009196E+00 0.51735768E+02</pdfrwt>
<pdfrwt beam="1">  1       -3 0.11628669E+00 0.56614572E+02</pdfrwt>
<totfact> 0.61255736E+00</totfact>
</mgrwt>
</event>
<event>
13    1  0.1942437E-008  0.5142988E+02  0.7546771E-02  0.1512515E+00
          2   -1    0    0  503    0  0.00000000000E+00  0.00000000000E+00  0.16369964261E+04  0.16369964261E+04  0.00000000000E+00 0. -1.
          2   -1    0    0  502    0 -0.00000000000E+00 -0.00000000000E+00 -0.12189745820E+04  0.12189745820E+04  0.00000000000E+00 0. -1.
         24    2    1    2    0    0 -0.41376459114E+02  0.36047774964E+02 -0.24405562950E+02  0.99504655071E+02  0.79335310104E+02 0.  0.
         24    2    1    2    0    0 -0.19078892590E+03  0.19205100740E+02 -0.24260717507E+02  0.21583197754E+03  0.96050038911E+02 0.  0.
         25    2    1    2    0    0  0.17385628413E+03 -0.92541260410E+02  0.12689013709E+03  0.26554767464E+03  0.12499827281E+03 0.  0.
        -11    1    3    3    0    0 -0.59454849429E+02  0.36547609584E+02 -0.83434797699E+00  0.69794720599E+02  0.00000000000E+00 0.  1.
         12    1    3    3    0    0  0.18078390315E+02 -0.49983462011E+00 -0.23571214973E+02  0.29709934472E+02  0.00000000000E+00 0. -1.
        -13    1    4    4    0    0 -0.15028193632E+02 -0.16993894371E+02 -0.28382868367E+02  0.36334918005E+02  0.00000000000E+00 0.  1.
         14    1    4    4    0    0 -0.17576073227E+03  0.36198995111E+02  0.41221508596E+01  0.17949705953E+03  0.00000000000E+00 0. -1.
          5    1    5    5  501    0  0.14646614451E+03 -0.11509210489E+03  0.13340970535E+03  0.22916972657E+03  0.47000000000E+01 0. -1.
         -5    1    5    5    0  501  0.27390139622E+02  0.22550844479E+02 -0.65195682623E+01  0.36377948067E+02  0.47000000000E+01 0. -1.
          1    1    1    2  502    0  0.29723297870E+02 -0.54363434925E+01 -0.96690296271E+03  0.96737498808E+03  0.00000000000E+00 0. -1.
          1    1    1    2  503    0  0.28585803010E+02  0.42724728198E+02  0.13067009501E+04  0.13077117127E+04  0.00000000000E+00 0. -1.
<mgrwt>
<rscale>  0 0.39421105E+02</rscale>
<asrwt>0</asrwt>
<pdfrwt beam="1">  1        2 0.24073477E+00 0.51429876E+02</pdfrwt>
<pdfrwt beam="2">  1        2 0.17926097E+00 0.30216358E+02</pdfrwt>
<totfact> 0.54453270E+01</totfact>
</mgrwt>
</event>
<event>
13    1  0.1942437E-008  0.8624258E+02  0.7546771E-02  0.1347118E+00
          2   -1    0    0  503    0  0.00000000000E+00  0.00000000000E+00  0.65515223297E+03  0.65515223297E+03  0.00000000000E+00 0. -1.
          2   -1    0    0  502    0 -0.00000000000E+00 -0.00000000000E+00 -0.34013961004E+04  0.34013961004E+04  0.00000000000E+00 0. -1.
         24    2    1    2    0    0 -0.45353224751E+02 -0.44790340601E+02 -0.19682888270E+03  0.22263929297E+03  0.82240842064E+02 0.  0.
         24    2    1    2    0    0 -0.58103843085E+02 -0.32776337866E+02 -0.27074329717E+03  0.29004381925E+03  0.79831943574E+02 0.  0.
         25    2    1    2    0    0  0.59114039332E+02  0.18768155133E+02 -0.19148817232E+03  0.23693345784E+03  0.12499211980E+03 0.  0.
        -11    1    4    4    0    0 -0.28346426204E+02  0.16767353283E+02 -0.17607532473E+03  0.17912895911E+03  0.00000000000E+00 0.  1.
         12    1    4    4    0    0 -0.29757416881E+02 -0.49543691148E+02 -0.94667972444E+02  0.11091486013E+03  0.00000000000E+00 0. -1.
        -11    1    3    3    0    0  0.91594473094E+01  0.18402641826E+02 -0.36528402432E+02  0.41915115238E+02  0.00000000000E+00 0.  1.
         12    1    3    3    0    0 -0.54512672060E+02 -0.63192982427E+02 -0.16030048027E+03  0.18072417774E+03  0.00000000000E+00 0. -1.
          5    1    5    5  501    0  0.13473597825E+02  0.44889816630E+02 -0.17558555476E+03  0.18179386820E+03  0.47000000000E+01 0. -1.
         -5    1    5    5    0  501  0.45640441507E+02 -0.26121661497E+02 -0.15902617559E+02  0.55139589639E+02  0.47000000000E+01 0. -1.
          1    1    1    2  502    0 -0.13057621483E+02  0.85787328761E+02 -0.26947081360E+04  0.26961049507E+04  0.00000000000E+00 0. -1.
          1    1    1    2  503    0  0.57400649987E+02 -0.26988805427E+02  0.60752462071E+03  0.61082681261E+03  0.00000000000E+00 0. -1.
<mgrwt>
<rscale>  0 0.73961311E+02</rscale>
<asrwt>0</asrwt>
<pdfrwt beam="1">  1        2 0.96345919E-01 0.63428938E+02</pdfrwt>
<pdfrwt beam="2">  1        2 0.50020530E+00 0.86242584E+02</pdfrwt>
<totfact> 0.13784529E+01</totfact>
</mgrwt>
</event>
<event>
13    1  0.1942437E-008  0.7736362E+02  0.7546771E-02  0.1428063E+00
          2   -1    0    0  502    0  0.00000000000E+00  0.00000000000E+00  0.22362800157E+04  0.22362800157E+04  0.00000000000E+00 0. -1.
          2   -1    0    0  503    0 -0.00000000000E+00 -0.00000000000E+00 -0.11659029901E+04  0.11659029901E+04  0.00000000000E+00 0. -1.
         24    2    1    2    0    0 -0.14197710700E+03  0.38532357727E+02 -0.25905462654E+03  0.30765178430E+03  0.76798954063E+02 0.  0.
         24    2    1    2    0    0  0.13545948422E+03 -0.12590716493E+03  0.33236455169E+03  0.38884161314E+03  0.80806675727E+02 0.  0.
         25    2    1    2    0    0  0.10322088281E+03  0.14539052961E+03  0.17372709473E+04  0.17508650976E+04  0.12500115587E+03 0.  0.
        -11    1    3    3    0    0  0.89006741171E+01  0.81025300430E+01 -0.19009378480E+02  0.22499543619E+02  0.00000000000E+00 0.  1.
         12    1    3    3    0    0 -0.15087778112E+03  0.30429827684E+02 -0.24004524806E+03  0.28515224068E+03  0.00000000000E+00 0. -1.
        -11    1    4    4    0    0  0.86816982652E+02 -0.86027789189E+02  0.13696944814E+03  0.18357178082E+03  0.00000000000E+00 0.  1.
         12    1    4    4    0    0  0.48642501564E+02 -0.39879375743E+02  0.19539510356E+03  0.20526983232E+03  0.00000000000E+00 0. -1.
          5    1    5    5  501    0  0.47047458061E+02  0.15326273639E+03  0.12310235462E+04  0.12414282062E+04  0.47000000000E+01 0. -1.
         -5    1    5    5    0  501  0.56173424746E+02 -0.78722067726E+01  0.50624740108E+03  0.50943689146E+03  0.47000000000E+01 0. -1.
          1    1    1    2  502    0 -0.26550989598E+02 -0.25468617398E+02  0.10233305980E+03  0.10874585348E+03  0.00000000000E+00 0. -1.
          1    1    1    2  503    0 -0.70152270422E+02 -0.32547105011E+02 -0.84253690668E+03  0.84607865722E+03  0.00000000000E+00 0. -1.
<mgrwt>
<rscale>  0 0.53350860E+02</rscale>
<asrwt>0</asrwt>
<pdfrwt beam="1">  1        2 0.32886471E+00 0.36791378E+02</pdfrwt>
<pdfrwt beam="2">  1        2 0.17145632E+00 0.77363622E+02</pdfrwt>
<totfact> 0.29936290E+01</totfact>
</mgrwt>
</event>
<event>
13    1  0.1942437E-008  0.1008428E+03  0.7546771E-02  0.1306823E+00
          2   -1    0    0  502    0  0.00000000000E+00  0.00000000000E+00  0.41424107006E+03  0.41424107006E+03  0.00000000000E+00 0. -1.
          2   -1    0    0  503    0 -0.00000000000E+00 -0.00000000000E+00 -0.20581965026E+04  0.20581965026E+04  0.00000000000E+00 0. -1.
         24    2    1    2    0    0  0.42459955611E+02 -0.21197442644E+02 -0.23033884678E+03  0.24829584352E+03  0.79640832295E+02 0.  0.
         24    2    1    2    0    0  0.59116176210E+02 -0.48118195355E+02  0.10252266311E+03  0.15028299579E+03  0.79145431685E+02 0.  0.
         25    2    1    2    0    0  0.85347719603E+02 -0.36543664892E+02  0.12721527794E+03  0.20107992545E+03  0.12501894573E+03 0.  0.
        -11    1    4    4    0    0  0.67612623922E+02 -0.17448936718E+02  0.40890911461E+02  0.80919706786E+02  0.00000000000E+00 0.  1.
         12    1    4    4    0    0 -0.84964477127E+01 -0.30669258637E+02  0.61631751654E+02  0.69363289000E+02  0.00000000000E+00 0. -1.
        -13    1    3    3    0    0  0.45215709947E+02 -0.99632951608E+01 -0.52173109084E+02  0.69755006903E+02  0.00000000000E+00 0.  1.
         14    1    3    3    0    0 -0.27557543362E+01 -0.11234147483E+02 -0.17816573769E+03  0.17854083661E+03  0.00000000000E+00 0. -1.
          5    1    5    5  501    0  0.27631576626E+02  0.13993794670E+02  0.11984115503E+03  0.12386816683E+03  0.47000000000E+01 0.  1.
         -5    1    5    5    0  501  0.57716142977E+02 -0.50537459562E+02  0.73741229101E+01  0.77211758611E+02  0.47000000000E+01 0.  1.
          1    1    1    2  502    0 -0.11076867475E+03  0.31801864315E+02  0.83718251210E+02  0.14244228117E+03  0.00000000000E+00 0. -1.
          1    1    1    2  503    0 -0.76155176671E+02  0.74057438576E+02 -0.17270727780E+04  0.17303365267E+04  0.00000000000E+00 0. -1.
<mgrwt>
<rscale>  0 0.88379929E+02</rscale>
<asrwt>0</asrwt>
<pdfrwt beam="1">  1        2 0.60917802E-01 0.10084283E+03</pdfrwt>
<pdfrwt beam="2">  1        2 0.30267597E+00 0.77457285E+02</pdfrwt>
<totfact> 0.11130090E+02</totfact>
</mgrwt>
</event>
<event>
13    1  0.1942437E-008  0.2059952E+03  0.7546771E-02  0.1187673E+00
         -1   -1    0    0    0  501 -0.00000000000E+00  0.00000000000E+00  0.12844780787E+04  0.12844780787E+04  0.00000000000E+00 0.  1.
          2   -1    0    0  503    0  0.00000000000E+00 -0.00000000000E+00 -0.25165173707E+04  0.25165173707E+04  0.00000000000E+00 0. -1.
         24    2    1    2    0    0 -0.18412410398E+03 -0.25283266902E+03  0.78079664457E+02  0.33228583694E+03  0.80569220169E+02 0.  0.
         24    2    1    2    0    0  0.14174763146E+03  0.10896151418E+03  0.93283173154E+02  0.21775947875E+03  0.82173217015E+02 0.  0.
         25    2    1    2    0    0  0.11726275825E+02 -0.93836726635E+02 -0.62152374130E+03  0.64098404452E+03  0.12500379000E+03 0.  0.
        -11    1    3    3    0    0 -0.18442885118E+03 -0.22489283303E+03  0.54899650408E+02  0.29598101140E+03  0.00000000000E+00 0.  1.
         12    1    3    3    0    0  0.30474719866E+00 -0.27939835996E+02  0.23180014049E+02  0.36304825542E+02  0.00000000000E+00 0. -1.
        -13    1    4    4    0    0  0.13164222156E+03  0.12207792630E+03  0.90190149121E+02  0.20091529953E+03  0.00000000000E+00 0.  1.
         14    1    4    4    0    0  0.10105409897E+02 -0.13116412114E+02  0.30930240322E+01  0.16844179220E+02  0.00000000000E+00 0. -1.
          5    1    5    5  502    0  0.58011139726E+02 -0.38141960946E+02 -0.17039996718E+03  0.18406069741E+03  0.47000000000E+01 0. -1.
         -5    1    5    5    0  502 -0.46284863901E+02 -0.55694765689E+02 -0.45112377412E+03  0.45692334711E+03  0.47000000000E+01 0. -1.
          1    1    1    2  503    0  0.11756733593E+03  0.44457885636E+02 -0.16812640669E+04  0.16859559439E+04  0.00000000000E+00 0. -1.
         -2    1    1    2    0  501 -0.86917139230E+02  0.19324999584E+03  0.89938567852E+03  0.92401014535E+03  0.00000000000E+00 0.  1.
<mgrwt>
<rscale>  0 0.16091001E+03</rscale>
<asrwt>0</asrwt>
<pdfrwt beam="2">  1        2 0.37007608E+00 0.12569241E+03</pdfrwt>
<pdfrwt beam="1">  1       -1 0.18889384E+00 0.20599519E+03</pdfrwt>
<totfact> 0.11682761E+00</totfact>
</mgrwt>
</event>
<event>
13    1  0.1942437E-008  0.1391688E+03  0.7546771E-02  0.1493931E+00
          2   -1    0    0  502    0  0.00000000000E+00  0.00000000000E+00  0.15211529914E+04  0.15211529914E+04  0.00000000000E+00 0. -1.
          2   -1    0    0  503    0 -0.00000000000E+00 -0.00000000000E+00 -0.14926488984E+04  0.14926488984E+04  0.00000000000E+00 0. -1.
         24    2    1    2    0    0 -0.66234777146E+02  0.36126753039E+02 -0.20168926037E+03  0.22982921300E+03  0.80316383204E+02 0.  0.
         24    2    1    2    0    0  0.39658392026E+02 -0.34240721212E+02  0.10866095551E+03  0.14498600771E+03  0.80427135558E+02 0.  0.
         25    2    1    2    0    0 -0.12019212725E+03 -0.11066369268E+03  0.82135021811E+03  0.84671938438E+03  0.12499973907E+03 0.  0.
        -11    1    3    3    0    0 -0.28155782586E+02  0.59001158232E+02 -0.12953878582E+03  0.14510059199E+03  0.00000000000E+00 0.  1.
         12    1    3    3    0    0 -0.38078994560E+02 -0.22874405193E+02 -0.72150474549E+02  0.84728621004E+02  0.00000000000E+00 0. -1.
        -13    1    4    4    0    0  0.16367243387E+02  0.22001832496E+02  0.63564412847E+02  0.69227175804E+02  0.00000000000E+00 0.  1.
         14    1    4    4    0    0  0.23291148638E+02 -0.56242553708E+02  0.45096542660E+02  0.75758831910E+02  0.00000000000E+00 0. -1.
          5    1    5    5  501    0  0.22434373995E+02 -0.13590726559E+01  0.55618555810E+02  0.60171936693E+02  0.47000000000E+01 0.  1.
         -5    1    5    5    0  501 -0.14262650125E+03 -0.10930462002E+03  0.76573166230E+03  0.78654744769E+03  0.47000000000E+01 0.  1.
          1    1    1    2  502    0 -0.95292785165E+00 -0.12644510897E+02  0.53881347907E+03  0.53896266750E+03  0.00000000000E+00 0. -1.
          1    1    1    2  503    0  0.14772144022E+03  0.12142217175E+03 -0.12386312993E+04  0.12533046171E+04  0.00000000000E+00 0. -1.
<mgrwt>
<rscale>  0 0.42008464E+02</rscale>
<asrwt>0</asrwt>
<pdfrwt beam="1">  1        2 0.22369897E+00 0.12680368E+02</pdfrwt>
<pdfrwt beam="2">  1        2 0.21950719E+00 0.13916876E+03</pdfrwt>
<totfact> 0.45964752E+01</totfact>
</mgrwt>
</event>
<event>
13    1  0.1942437E-008  0.1080296E+03  0.7546771E-02  0.1352484E+00
          2   -1    0    0  502    0  0.00000000000E+00  0.00000000000E+00  0.14760765123E+04  0.14760765123E+04  0.00000000000E+00 0. -1.
          2   -1    0    0  503    0 -0.00000000000E+00 -0.00000000000E+00 -0.28077637869E+04  0.28077637869E+04  0.00000000000E+00 0. -1.
         24    2    1    2    0    0 -0.50320748969E+02  0.68997571145E+01 -0.45538974260E+03  0.46576516058E+03  0.83531926336E+02 0.  0.
         24    2    1    2    0    0 -0.20589866280E+02 -0.28614711818E+02 -0.43341613520E+03  0.44222331630E+03  0.80431156256E+02 0.  0.
         25    2    1    2    0    0  0.77950402849E+01  0.17102965180E+03  0.13102477207E+03  0.24920500153E+03  0.12499494967E+03 0.  0.
        -11    1    4    4    0    0 -0.26416987729E+02  0.17938609593E+02 -0.87587137417E+02  0.93226378218E+02  0.00000000000E+00 0.  1.
         12    1    4    4    0    0  0.58271214486E+01 -0.46553321411E+02 -0.34582899779E+03  0.34899693808E+03  0.00000000000E+00 0. -1.
        -13    1    3    3    0    0 -0.11758559212E+02  0.37319244984E+02 -0.10699025373E+03  0.11392060461E+03  0.00000000000E+00 0.  1.
         14    1    3    3    0    0 -0.38562189756E+02 -0.30419487869E+02 -0.34839948887E+03  0.35184455597E+03  0.00000000000E+00 0. -1.
          5    1    5    5  501    0 -0.58149048998E+02  0.74450074960E+02  0.65761877246E+02  0.11519913220E+03  0.47000000000E+01 0. -1.
         -5    1    5    5    0  501  0.65944089283E+02  0.96579576840E+02  0.65262894826E+02  0.13400586933E+03  0.47000000000E+01 0. -1.
          1    1    1    2  502    0  0.23664265859E+02 -0.42186103485E+02  0.12741500455E+04  0.12750678426E+04  0.00000000000E+00 0. -1.
          1    1    1    2  503    0  0.39451309104E+02 -0.10712859361E+03 -0.18480562144E+04  0.18515789783E+04  0.00000000000E+00 0. -1.
<mgrwt>
<rscale>  0 0.72286942E+02</rscale>
<asrwt>0</asrwt>
<pdfrwt beam="1">  1        2 0.21707008E+00 0.48370082E+02</pdfrwt>
<pdfrwt beam="2">  1        2 0.41290644E+00 0.10802963E+03</pdfrwt>
<totfact> 0.97971820E+00</totfact>
</mgrwt>
</event>
<event>
13    1  0.1942437E-008  0.8581689E+02  0.7546771E-02  0.1326250E+00
          2   -1    0    0  502    0  0.00000000000E+00  0.00000000000E+00  0.11194049408E+04  0.11194049408E+04  0.00000000000E+00 0. -1.
          2   -1    0    0  503    0 -0.00000000000E+00 -0.00000000000E+00 -0.14309776227E+04  0.14309776227E+04  0.00000000000E+00 0. -1.
         24    2    1    2    0    0  0.18536670708E+03 -0.13404212445E+03 -0.17953359613E+03  0.30164385278E+03  0.80178516801E+02 0.  0.
         24    2    1    2    0    0 -0.14109454472E+03  0.55263662722E+03 -0.36094553775E+03  0.67941090493E+03  0.77476346185E+02 0.  0.
         25    2    1    2    0    0 -0.67582048744E+02 -0.38466910396E+03  0.36893219894E+02  0.41173157501E+03  0.12499650927E+03 0.  0.
        -13    1    4    4    0    0 -0.82156567045E+02  0.44800583193E+03 -0.28873580763E+03  0.53928405647E+03  0.00000000000E+00 0.  1.
         14    1    4    4    0    0 -0.58937977674E+02  0.10463079529E+03 -0.72209730119E+02  0.14012684846E+03  0.00000000000E+00 0. -1.
        -13    1    3    3    0    0  0.10056130344E+03 -0.71909986738E+02 -0.46495593770E+02  0.13208127113E+03  0.00000000000E+00 0.  1.
         14    1    3    3    0    0  0.84805403639E+02 -0.62132137714E+02 -0.13303800236E+03  0.16956258165E+03  0.00000000000E+00 0. -1.
          5    1    5    5  501    0 -0.51079272571E+02 -0.37502085130E+03  0.57930824523E+02  0.38292009797E+03  0.47000000000E+01 0.  1.
         -5    1    5    5    0  501 -0.16502776173E+02 -0.96482526610E+01 -0.21037604629E+02  0.28811477043E+02  0.47000000000E+01 0.  1.
          1    1    1    2  502    0  0.63506416728E+02  0.42552655381E+02  0.66874433368E+03  0.67309938142E+03  0.00000000000E+00 0. -1.
          1    1    1    2  503    0 -0.40196530345E+02 -0.76478054183E+02 -0.47673110159E+03  0.48449684936E+03  0.00000000000E+00 0. -1.
<mgrwt>
<rscale>  0 0.80995353E+02</rscale>
<asrwt>0</asrwt>
<pdfrwt beam="1">  1        2 0.16461837E+00 0.76444708E+02</pdfrwt>
<pdfrwt beam="2">  1        2 0.21043788E+00 0.85816891E+02</pdfrwt>
<totfact> 0.69776152E+01</totfact>
</mgrwt>
</event>
<event>
13    1  0.1942437E-008  0.7005896E+02  0.7546771E-02  0.1433772E+00
          2   -1    0    0  503    0  0.00000000000E+00  0.00000000000E+00  0.79680268286E+03  0.79680268286E+03  0.00000000000E+00 0. -1.
          2   -1    0    0  502    0 -0.00000000000E+00 -0.00000000000E+00 -0.27692663920E+04  0.27692663920E+04  0.00000000000E+00 0. -1.
         24    2    1    2    0    0 -0.55381915721E+02 -0.60695667446E+01 -0.81984577582E+03  0.82570838681E+03  0.80890343516E+02 0.  0.
         24    2    1    2    0    0  0.59069290998E+02 -0.54586442893E+02 -0.55692233380E+03  0.56876855751E+03  0.82863292516E+02 0.  0.
         25    2    1    2    0    0  0.70351366034E+02 -0.13765928609E+02  0.13619922597E+02  0.14473855569E+03  0.12499972687E+03 0.  0.
        -11    1    4    4    0    0  0.46681537105E+02  0.77145348538E+01 -0.16191670688E+03  0.16868817363E+03  0.00000000000E+00 0.  1.
         12    1    4    4    0    0  0.12387753893E+02 -0.62300977747E+02 -0.39500562692E+03  0.40008038389E+03  0.00000000000E+00 0. -1.
        -13    1    3    3    0    0 -0.13484880680E+02 -0.98057713203E+01 -0.26902789919E+02  0.31650517588E+02  0.00000000000E+00 0.  1.
         14    1    3    3    0    0 -0.41897035040E+02  0.37362045757E+01 -0.79294298590E+03  0.79405786922E+03  0.00000000000E+00 0. -1.
          5    1    5    5  501    0  0.43300748546E+01  0.14066788148E+02  0.58204497242E+02  0.60220242247E+02  0.47000000000E+01 0. -1.
         -5    1    5    5    0  501  0.66021291179E+02 -0.27832716757E+02 -0.44584574645E+02  0.84518313443E+02  0.47000000000E+01 0. -1.
          1    1    1    2  502    0 -0.38805275989E+02  0.57914401979E+02 -0.13166277127E+04  0.13184720176E+04  0.00000000000E+00 0. -1.
          1    1    1    2  503    0 -0.35233465321E+02  0.16507536268E+02  0.70731219053E+03  0.70838155728E+03  0.00000000000E+00 0. -1.
<mgrwt>
<rscale>  0 0.52210259E+02</rscale>
<asrwt>0</asrwt>
<pdfrwt beam="1">  1        2 0.11717686E+00 0.38908814E+02</pdfrwt>
<pdfrwt beam="2">  1        2 0.40724506E+00 0.70058961E+02</pdfrwt>
<totfact> 0.25334918E+01</totfact>
</mgrwt>
</event>
<event>
13    1  0.1942437E-008  0.9173132E+02  0.7546771E-02  0.1307818E+00
          2   -1    0    0  503    0  0.00000000000E+00  0.00000000000E+00  0.18586179814E+04  0.18586179814E+04  0.00000000000E+00 0. -1.
          2   -1    0    0  502    0 -0.00000000000E+00 -0.00000000000E+00 -0.42507290587E+04  0.42507290587E+04  0.00000000000E+00 0. -1.
         24    2    1    2    0    0  0.43617787360E+02 -0.21459886171E+02 -0.34963496683E+03  0.36220615986E+03  0.81152043276E+02 0.  0.
         24    2    1    2    0    0 -0.42527951455E+01 -0.14156697611E+02 -0.12348724116E+03  0.14689321229E+03  0.78166608827E+02 0.  0.
         25    2    1    2    0    0 -0.17291854551E+02 -0.62985005301E+02 -0.11851677402E+03  0.18422775899E+03  0.12501008893E+03 0.  0.
        -11    1    3    3    0    0  0.41821463001E+02  0.15319979935E+00 -0.68652509152E+02  0.80387967076E+02  0.00000000000E+00 0.  1.
         12    1    3    3    0    0  0.17963243594E+01 -0.21613085970E+02 -0.28098245767E+03  0.28181819279E+03  0.00000000000E+00 0. -1.
        -13    1    4    4    0    0  0.21496091695E+02  0.22247947089E+02 -0.28957359583E+02  0.42374305680E+02  0.00000000000E+00 0.  1.
         14    1    4    4    0    0 -0.25748886841E+02 -0.36404644700E+02 -0.94529881573E+02  0.10451890661E+03  0.00000000000E+00 0. -1.
          5    1    5    5  501    0  0.32182437757E+02 -0.35170361564E+02  0.50491952513E+01  0.48168952710E+02  0.47000000000E+01 0.  1.
         -5    1    5    5    0  501 -0.49474292308E+02 -0.27814643737E+02 -0.12356596927E+03  0.13605880628E+03  0.47000000000E+01 0.  1.
          1    1    1    2  502    0 -0.99978875939E+02  0.34608581677E+02 -0.36060638915E+04  0.36076156002E+04  0.00000000000E+00 0. -1.
          1    1    1    2  503    0  0.77905738275E+02  0.63993007406E+02  0.18055917963E+04  0.18084043087E+04  0.00000000000E+00 0. -1.
<mgrwt>
<rscale>  0 0.87980021E+02</rscale>
<asrwt>0</asrwt>
<pdfrwt beam="1">  1        2 0.27332618E+00 0.84382133E+02</pdfrwt>
<pdfrwt beam="2">  1        2 0.62510720E+00 0.91731317E+02</pdfrwt>
<totfact> 0.85428392E-01</totfact>
</mgrwt>
</event>
<event>
13    1  0.1942437E-008  0.2641045E+03  0.7546771E-02  0.1359189E+00
          2   -1    0    0  503    0  0.00000000000E+00  0.00000000000E+00  0.68129166749E+03  0.68129166749E+03  0.00000000000E+00 0. -1.
          2   -1    0    0  502    0 -0.00000000000E+00 -0.00000000000E+00 -0.22023556819E+04  0.22023556819E+04  0.00000000000E+00 0. -1.
         24    2    1    2    0    0 -0.71408097966E+02  0.20989889762E+03  0.49985230507E+02  0.24113711672E+03  0.80572464989E+02 0.  0.
         24    2    1    2    0    0  0.77232987221E+02 -0.16268847725E+03 -0.12341276214E+02  0.19347380487E+03  0.69622777344E+02 0.  0.
         25    2    1    2    0    0 -0.78114960750E+01  0.20243762680E+03  0.22519826146E+03  0.32768633393E+03  0.12498825651E+03 0.  0.
        -11    1    3    3    0    0 -0.56856053123E+01  0.93550722766E+02 -0.10781729350E+02  0.94341451789E+02  0.00000000000E+00 0.  1.
         12    1    3    3    0    0 -0.65722492654E+02  0.11634817485E+03  0.60766959857E+02  0.14679566493E+03  0.00000000000E+00 0. -1.
        -13    1    4    4    0    0  0.78378289773E+02 -0.85977507122E+02 -0.61080368099E+01  0.11650148562E+03  0.00000000000E+00 0.  1.
         14    1    4    4    0    0 -0.11453025517E+01 -0.76710970131E+02 -0.62332394045E+01  0.76972319244E+02  0.00000000000E+00 0. -1.
          5    1    5    5  501    0 -0.29260696503E+02  0.99838849645E+02  0.19061794381E+03  0.21721251060E+03  0.47000000000E+01 0.  1.
         -5    1    5    5    0  501  0.21449200428E+02  0.10259877715E+03  0.34580317648E+02  0.11047382333E+03  0.47000000000E+01 0.  1.
          1    1    1    2  502    0  0.83724390786E+01 -0.26721843668E+03 -0.19429267983E+04  0.19612343904E+04  0.00000000000E+00 0. -1.
          1    1    1    2  503    0 -0.63858322585E+01  0.17570389521E+02  0.15902056808E+03  0.16011570352E+03  0.00000000000E+00 0. -1.
<mgrwt>
<rscale>  0 0.70266595E+02</rscale>
<asrwt>0</asrwt>
<pdfrwt beam="1">  1        2 0.10018995E+00 0.18694851E+02</pdfrwt>
<pdfrwt beam="2">  1        2 0.32387584E+00 0.26410451E+03</pdfrwt>
<totfact> 0.50295285E+01</totfact>
</mgrwt>
</event>
<event>
13    1  0.1942437E-008  0.3558311E+02  0.7546771E-02  0.1601773E+00
          2   -1    0    0  502    0  0.00000000000E+00  0.00000000000E+00  0.29327091054E+04  0.29327091054E+04  0.00000000000E+00 0. -1.
          2   -1    0    0  503    0 -0.00000000000E+00 -0.00000000000E+00 -0.16449613127E+04  0.16449613127E+04  0.00000000000E+00 0. -1.
         24    2    1    2    0    0  0.47961456901E+02  0.10518686389E+03 -0.54364815898E+03  0.56143456326E+03  0.79315007300E+02 0.  0.
         24    2    1    2    0    0 -0.57279584497E+02  0.13923583664E+03  0.33324348294E+02  0.17406475690E+03  0.80749355401E+02 0.  0.
         25    2    1    2    0    0 -0.87972590253E+01 -0.25147828565E+03  0.32738681226E+03  0.43142593298E+03  0.12500996316E+03 0.  0.
        -11    1    4    4    0    0 -0.59345913138E+02  0.11034136941E+03 -0.57540151034E+01  0.12542034882E+03  0.00000000000E+00 0.  1.
         12    1    4    4    0    0  0.20663286404E+01  0.28894467236E+02  0.39078363398E+02  0.48644408073E+02  0.00000000000E+00 0. -1.
        -11    1    3    3    0    0  0.18407999724E+02 -0.10222303513E+02 -0.83946884493E+02  0.86547266618E+02  0.00000000000E+00 0.  1.
         12    1    3    3    0    0  0.29553457177E+02  0.11540916740E+03 -0.45970127448E+03  0.47488729664E+03  0.00000000000E+00 0. -1.
          5    1    5    5  501    0  0.38593261563E+02 -0.95160748711E+02  0.19762088600E+03  0.22275796847E+03  0.47000000000E+01 0.  1.
         -5    1    5    5    0  501 -0.47390520588E+02 -0.15631753694E+03  0.12976592626E+03  0.20866796451E+03  0.47000000000E+01 0.  1.
          1    1    1    2  502    0 -0.15240814655E+02  0.19486079782E+02  0.24403256873E+04  0.24404510751E+04  0.00000000000E+00 0. -1.
          1    1    1    2  503    0  0.33356201276E+02 -0.12430494664E+02 -0.96964089619E+03  0.97029408992E+03  0.00000000000E+00 0. -1.
<mgrwt>
<rscale>  0 0.29669347E+02</rscale>
<asrwt>0</asrwt>
<pdfrwt beam="1">  1        2 0.43128075E+00 0.24738426E+02</pdfrwt>
<pdfrwt beam="2">  1        2 0.24190608E+00 0.35583111E+02</pdfrwt>
<totfact> 0.92113046E+00</totfact>
</mgrwt>
</event>
<event>
13    1  0.1942437E-008  0.7384927E+02  0.7546771E-02  0.1396078E+00
          2   -1    0    0  503    0  0.00000000000E+00  0.00000000000E+00  0.13813888767E+04  0.13813888767E+04  0.00000000000E+00 0. -1.
          2   -1    0    0  502    0 -0.00000000000E+00 -0.00000000000E+00 -0.13910757908E+04  0.13910757908E+04  0.00000000000E+00 0. -1.
         24    2    1    2    0    0 -0.76891980092E+02 -0.60184184492E+02 -0.57938095719E+03  0.59301352192E+03  0.80300877688E+02 0.  0.
         24    2    1    2    0    0  0.31463476591E+02  0.12206044617E+03  0.73512562062E+02  0.16683400858E+03  0.80875130654E+02 0.  0.
         25    2    1    2    0    0  0.30434590111E+02 -0.82735615991E+01  0.79959725054E+03  0.80992539868E+03  0.12501468819E+03 0.  0.
        -11    1    3    3    0    0 -0.96995998777E+01 -0.58116741759E+02 -0.29031854039E+03  0.29623722387E+03  0.00000000000E+00 0.  1.
         12    1    3    3    0    0 -0.67192380214E+02 -0.20674427335E+01 -0.28906241680E+03  0.29677629805E+03  0.00000000000E+00 0. -1.
        -13    1    4    4    0    0  0.42704373531E+02  0.10458329549E+03  0.27379186034E+02  0.11623660801E+03  0.00000000000E+00 0.  1.
         14    1    4    4    0    0 -0.11240896940E+02  0.17477150676E+02  0.46133376028E+02  0.50597400561E+02  0.00000000000E+00 0. -1.
          5    1    5    5  501    0 -0.60638138232E+01 -0.59091022023E+02  0.51840229146E+03  0.52181562310E+03  0.47000000000E+01 0. -1.
         -5    1    5    5    0  501  0.36498403934E+02  0.50817460424E+02  0.28119495908E+03  0.28810977558E+03  0.47000000000E+01 0. -1.
          1    1    1    2  502    0 -0.32796623928E+02 -0.66237792150E+02 -0.74987267557E+03  0.75350653163E+03  0.00000000000E+00 0. -1.
          1    1    1    2  503    0  0.47790537317E+02  0.12635092072E+02  0.44645690598E+03  0.44918520669E+03  0.00000000000E+00 0. -1.
<mgrwt>
<rscale>  0 0.60419869E+02</rscale>
<asrwt>0</asrwt>
<pdfrwt beam="1">  1        2 0.20314542E+00 0.49432591E+02</pdfrwt>
<pdfrwt beam="2">  1        2 0.20456997E+00 0.73849268E+02</pdfrwt>
<totfact> 0.55850898E+01</totfact>
</mgrwt>
</event>
<event>
13    1  0.1942437E-008  0.7880226E+02  0.7546771E-02  0.1354062E+00
          2   -1    0    0  503    0  0.00000000000E+00  0.00000000000E+00  0.39692316874E+04  0.39692316874E+04  0.00000000000E+00 0. -1.
          2   -1    0    0  502    0 -0.00000000000E+00 -0.00000000000E+00 -0.15820102877E+04  0.15820102877E+04  0.00000000000E+00 0. -1.
         24    2    1    2    0    0 -0.69567898494E+02 -0.64123008602E+02 -0.47636863233E+03  0.49241215728E+03  0.81186242860E+02 0.  0.
         24    2    1    2    0    0 -0.33730192976E+02 -0.45436029043E+02 -0.70616637867E+02  0.12021327465E+03  0.79135094650E+02 0.  0.
         25    2    1    2    0    0  0.31303751323E+02  0.83235027402E+02  0.36224603094E+02  0.15761606568E+03  0.12499043026E+03 0.  0.
        -11    1    3    3    0    0 -0.31211968369E+02  0.39258322231E+01 -0.26875138432E+03  0.27058622600E+03  0.00000000000E+00 0.  1.
         12    1    3    3    0    0 -0.38355930125E+02 -0.68048840825E+02 -0.20761724802E+03  0.22182593128E+03  0.00000000000E+00 0. -1.
        -13    1    4    4    0    0  0.77985353304E+01  0.19047745151E+02 -0.15390150571E+02  0.25700009402E+02  0.00000000000E+00 0.  1.
         14    1    4    4    0    0 -0.41528728306E+02 -0.64483774194E+02 -0.55226487296E+02  0.94513265249E+02  0.00000000000E+00 0. -1.
          5    1    5    5  501    0  0.11429225204E+02  0.88797964421E+02  0.72712225386E+02  0.11543337210E+03  0.47000000000E+01 0.  1.
         -5    1    5    5    0  501  0.19874526118E+02 -0.55629370184E+01 -0.36487622292E+02  0.42182693575E+02  0.47000000000E+01 0.  1.
          1    1    1    2  502    0  0.35041503788E+01  0.65334310472E+02 -0.93996737059E+03  0.94224174657E+03  0.00000000000E+00 0. -1.
          1    1    1    2  503    0  0.68490189768E+02 -0.39010300230E+02  0.38379494375E+04  0.38387587309E+04  0.00000000000E+00 0. -1.
<mgrwt>
<rscale>  0 0.71804534E+02</rscale>
<asrwt>0</asrwt>
<pdfrwt beam="1">  1        2 0.58371054E+00 0.78802259E+02</pdfrwt>
<pdfrwt beam="2">  1        2 0.23264857E+00 0.65428214E+02</pdfrwt>
<totfact> 0.19160237E+00</totfact>
</mgrwt>
</event>
<event>
13    1  0.1942437E-008  0.7417921E+02  0.7546771E-02  0.1475652E+00
          4   -1    0    0  503    0 -0.00000000000E+00  0.00000000000E+00  0.11009314380E+04  0.11009314380E+04  0.00000000000E+00 0. -1.
          2   -1    0    0  502    0  0.00000000000E+00 -0.00000000000E+00 -0.97116292834E+03  0.97116292834E+03  0.00000000000E+00 0. -1.
         24    2    1    2    0    0 -0.91379237483E+02 -0.15805931400E+03  0.10426244172E+03  0.22509793264E+03  0.80408399686E+02 0.  0.
         24    2    1    2    0    0  0.14101098231E+03  0.17940966881E+03 -0.21565110144E+03  0.33141367726E+03  0.10610231631E+03 0.  0.
         25    2    1    2    0    0  0.32995068909E+02 -0.73857449477E+02 -0.77580147444E+02  0.16789150052E+03  0.12500111701E+03 0.  0.
        -11    1    4    4    0    0  0.30993469222E+01  0.82077620767E+02 -0.59051469372E+02  0.10116035694E+03  0.00000000000E+00 0.  1.
         12    1    4    4    0    0  0.13791163539E+03  0.97332048042E+02 -0.15659963207E+03  0.23025332032E+03  0.00000000000E+00 0. -1.
        -13    1    3    3    0    0 -0.78070179558E+02 -0.12008180778E+03  0.11473262295E+03  0.18351612536E+03  0.00000000000E+00 0.  1.
         14    1    3    3    0    0 -0.13309057925E+02 -0.37977506224E+02 -0.10470181238E+02  0.41581807284E+02  0.00000000000E+00 0. -1.
          5    1    5    5  501    0 -0.39272531951E+02  0.55722536287E+01 -0.10913480636E+02  0.41407436964E+02  0.47000000000E+01 0.  1.
         -5    1    5    5    0  501  0.72267600860E+02 -0.79429703106E+02 -0.66666666808E+02  0.12648406355E+03  0.47000000000E+01 0.  1.
          1    1    1    2  502    0 -0.55890348403E+02  0.48430165655E+02 -0.51159800343E+03  0.51691559185E+03  0.00000000000E+00 0. -1.
          3    1    1    2  503    0 -0.26736465333E+02  0.40769290141E+01  0.83033532030E+03  0.83077566410E+03  0.00000000000E+00 0. -1.
<mgrwt>
<rscale>  0 0.44790791E+02</rscale>
<asrwt>0</asrwt>
<pdfrwt beam="2">  1        2 0.14281808E+00 0.74179210E+02</pdfrwt>
<pdfrwt beam="1">  1        4 0.16190168E+00 0.27045516E+02</pdfrwt>
<totfact> 0.40613175E+00</totfact>
</mgrwt>
</event>
<event>
13    1  0.1942437E-008  0.6055406E+02  0.7546771E-02  0.1404167E+00
          2   -1    0    0  502    0  0.00000000000E+00  0.00000000000E+00  0.48269703836E+03  0.48269703836E+03  0.00000000000E+00 0. -1.
          2   -1    0    0  503    0 -0.00000000000E+00 -0.00000000000E+00 -0.13675247952E+04  0.13675247952E+04  0.00000000000E+00 0. -1.
         24    2    1    2    0    0 -0.98126207273E+02  0.23100292790E+02 -0.82884686776E+03  0.83914530947E+03  0.83757651177E+02 0.  0.
         24    2    1    2    0    0  0.93229155505E+02  0.35307663383E+02 -0.94196352931E+02  0.15925557671E+03  0.80938737814E+02 0.  0.
         25    2    1    2    0    0 -0.17676213932E+02 -0.27130550882E+02 -0.52933548747E+01  0.12923956898E+03  0.12500532490E+03 0.  0.
        -11    1    4    4    0    0 -0.98893199207E+01 -0.76187185965E+01 -0.24777926504E+02  0.27745074578E+02  0.00000000000E+00 0.  1.
         12    1    4    4    0    0  0.10311847543E+03  0.42926381980E+02 -0.69418426428E+02  0.13151050214E+03  0.00000000000E+00 0. -1.
        -13    1    3    3    0    0 -0.26076836257E+02  0.44941872679E+02 -0.24389019888E+03  0.24936359481E+03  0.00000000000E+00 0.  1.
         14    1    3    3    0    0 -0.72049371016E+02 -0.21841579889E+02 -0.58495666888E+03  0.58978171466E+03  0.00000000000E+00 0. -1.
          5    1    5    5  501    0  0.42041468212E+02 -0.22987176462E+02  0.32684743050E+02  0.58191732741E+02  0.47000000000E+01 0.  1.
         -5    1    5    5    0  501 -0.59717682144E+02 -0.41433744200E+01 -0.37978097925E+02  0.71047836239E+02  0.47000000000E+01 0.  1.
          1    1    1    2  502    0  0.51522925464E+02  0.23300782813E+02  0.37811479774E+03  0.38231968116E+03  0.00000000000E+00 0. -1.
          1    1    1    2  503    0 -0.28949659765E+02 -0.54578188104E+02 -0.33460597903E+03  0.34026169725E+03  0.00000000000E+00 0. -1.
<mgrwt>
<rscale>  0 0.58516127E+02</rscale>
<asrwt>0</asrwt>
<pdfrwt beam="1">  1        2 0.70984859E-01 0.56546780E+02</pdfrwt>
<pdfrwt beam="2">  1        2 0.20110659E+00 0.60554061E+02</pdfrwt>
<totfact> 0.20829561E+02</totfact>
</mgrwt>
</event>
<event>
13    1  0.1942437E-008  0.1373517E+03  0.7546771E-02  0.1271484E+00
          2   -1    0    0  503    0  0.00000000000E+00  0.00000000000E+00  0.32237160054E+04  0.32237160054E+04  0.00000000000E+00 0. -1.
          2   -1    0    0  502    0 -0.00000000000E+00 -0.00000000000E+00 -0.39366195209E+04  0.39366195209E+04  0.00000000000E+00 0. -1.
         24    2    1    2    0    0 -0.23252577262E+02 -0.12380921585E+02 -0.32878708757E+03  0.33956179835E+03  0.80667814994E+02 0.  0.
         24    2    1    2    0    0 -0.26892339115E+02 -0.41695715527E+02 -0.10257380529E+02  0.93391043704E+02  0.78453442197E+02 0.  0.
         25    2    1    2    0    0 -0.25435979908E+02 -0.15771662592E+03  0.74735540169E+03  0.77439364017E+03  0.12499556128E+03 0.  0.
        -11    1    4    4    0    0 -0.45118886863E+02  0.10706722744E+01 -0.12556695196E+02  0.46845820359E+02  0.00000000000E+00 0.  1.
         12    1    4    4    0    0  0.18226547748E+02 -0.42766387801E+02  0.22993146670E+01  0.46545223346E+02  0.00000000000E+00 0. -1.
        -13    1    3    3    0    0  0.29484845562E+02  0.23909990161E+01 -0.98123914493E+02  0.10248597753E+03  0.00000000000E+00 0.  1.
         14    1    3    3    0    0 -0.52737422824E+02 -0.14771920601E+02 -0.23066317308E+03  0.23707582082E+03  0.00000000000E+00 0. -1.
          5    1    5    5  501    0 -0.42449240052E+02 -0.17364017145E+03  0.67148014169E+03  0.69488165741E+03  0.47000000000E+01 0. -1.
         -5    1    5    5    0  501  0.17013260143E+02  0.15923545527E+02  0.75875259998E+02  0.79511982761E+02  0.47000000000E+01 0. -1.
          1    1    1    2  502    0 -0.35628141885E+00  0.23435535937E+03 -0.35325686977E+04  0.35403339059E+04  0.00000000000E+00 0. -1.
          1    1    1    2  503    0  0.75937177704E+02 -0.22562096335E+02  0.24113542486E+04  0.24126551381E+04  0.00000000000E+00 0. -1.
<mgrwt>
<rscale>  0 0.10431078E+03</rscale>
<asrwt>0</asrwt>
<pdfrwt beam="1">  1        2 0.47407588E+00 0.79218073E+02</pdfrwt>
<pdfrwt beam="2">  1        2 0.57891463E+00 0.13735172E+03</pdfrwt>
<totfact> 0.27057823E-01</totfact>
</mgrwt>
</event>
<event>
13    1  0.1942437E-008  0.4925847E+02  0.7546771E-02  0.1534221E+00
          2   -1    0    0  503    0  0.00000000000E+00  0.00000000000E+00  0.29960469220E+04  0.29960469220E+04  0.00000000000E+00 0. -1.
          2   -1    0    0  502    0 -0.00000000000E+00 -0.00000000000E+00 -0.22391617470E+04  0.22391617470E+04  0.00000000000E+00 0. -1.
         24    2    1    2    0    0 -0.70473420993E+02  0.30346619381E+02 -0.33603003299E+02  0.11483763347E+03  0.78556348281E+02 0.  0.
         24    2    1    2    0    0  0.30330481134E+02 -0.16851173615E+02  0.26696650943E+03  0.28037314445E+03  0.78320385809E+02 0.  0.
         25    2    1    2    0    0  0.13322220537E+02  0.12743719662E+02  0.59131872922E+03  0.60466743580E+03  0.12499993776E+03 0.  0.
        -11    1    3    3    0    0 -0.31729232983E+01 -0.19012059279E+02  0.88396295987E+01  0.21205303387E+02  0.00000000000E+00 0.  1.
         12    1    3    3    0    0 -0.67300497694E+02  0.49358678660E+02 -0.42442632898E+02  0.93632330080E+02  0.00000000000E+00 0. -1.
        -13    1    4    4    0    0 -0.61593821796E+00 -0.32467904243E+02  0.21784760921E+03  0.22025468219E+03  0.00000000000E+00 0.  1.
         14    1    4    4    0    0  0.30946419352E+02  0.15616730628E+02  0.49118900217E+02  0.60118462261E+02  0.00000000000E+00 0. -1.
          5    1    5    5  501    0  0.56023105003E+02  0.93063533775E+01  0.13797023341E+03  0.14927515471E+03  0.47000000000E+01 0. -1.
         -5    1    5    5    0  501 -0.42700884467E+02  0.34373662847E+01  0.45334849581E+03  0.45539228109E+03  0.47000000000E+01 0. -1.
          1    1    1    2  502    0  0.48349924711E+02 -0.94459965321E+01 -0.21511922931E+04  0.21517563114E+04  0.00000000000E+00 0. -1.
          1    1    1    2  503    0 -0.21529205389E+02 -0.16793168896E+02  0.20833952328E+04  0.20835741439E+04  0.00000000000E+00 0. -1.
<mgrwt>
<rscale>  0 0.36673712E+02</rscale>
<asrwt>0</asrwt>
<pdfrwt beam="1">  1        2 0.44059514E+00 0.27304161E+02</pdfrwt>
<pdfrwt beam="2">  1        2 0.32928849E+00 0.49258470E+02</pdfrwt>
<totfact> 0.43145894E+00</totfact>
</mgrwt>
</event>
<event>
13    1  0.1942437E-008  0.7760634E+02  0.7546771E-02  0.1478353E+00
          2   -1    0    0  503    0  0.00000000000E+00  0.00000000000E+00  0.17619072389E+04  0.17619072389E+04  0.00000000000E+00 0. -1.
          2   -1    0    0  502    0 -0.00000000000E+00 -0.00000000000E+00 -0.29755570466E+04  0.29755570466E+04  0.00000000000E+00 0. -1.
         24    2    1    2    0    0 -0.30413019883E+02 -0.10763133480E+03  0.40664020606E+01  0.13801525181E+03  0.80760250731E+02 0.  0.
         24    2    1    2    0    0  0.54590549504E+02 -0.10444309189E+03  0.22273687178E+03  0.26275235805E+03  0.74421771496E+02 0.  0.
         25    2    1    2    0    0  0.45923328871E+02  0.17320664107E+03  0.49323807551E+03  0.53946046960E+03  0.12499722592E+03 0.  0.
        -11    1    4    4    0    0  0.46544063868E+02 -0.11359881185E+03  0.17691400029E+03  0.21533602447E+03  0.00000000000E+00 0.  1.
         12    1    4    4    0    0  0.80464856362E+01  0.91557199594E+01  0.45822871483E+02  0.47416333579E+02  0.00000000000E+00 0. -1.
        -11    1    3    3    0    0  0.25381394631E+02 -0.54417596337E+02 -0.56154733749E+01  0.60307740181E+02  0.00000000000E+00 0.  1.
         12    1    3    3    0    0 -0.55794414514E+02 -0.53213738463E+02  0.96818754354E+01  0.77707511632E+02  0.00000000000E+00 0. -1.
          5    1    5    5  501    0  0.48844500632E+02  0.18935998025E+03  0.47836808026E+03  0.51681824424E+03  0.47000000000E+01 0. -1.
         -5    1    5    5    0  501 -0.29211717609E+01 -0.16153339175E+02  0.14869995245E+02  0.22642225367E+02  0.47000000000E+01 0. -1.
          1    1    1    2  502    0 -0.76283667505E+02  0.14272322159E+02 -0.28647655147E+04  0.28658165244E+04  0.00000000000E+00 0. -1.
          1    1    1    2  503    0  0.61828090126E+01  0.24595463454E+02  0.93107435760E+03  0.93141968164E+03  0.00000000000E+00 0. -1.
<mgrwt>
<rscale>  0 0.44363831E+02</rscale>
<asrwt>0</asrwt>
<pdfrwt beam="1">  1        2 0.25910401E+00 0.25360677E+02</pdfrwt>
<pdfrwt beam="2">  1        2 0.43758191E+00 0.77606345E+02</pdfrwt>
<totfact> 0.66008303E+00</totfact>
</mgrwt>
</event>
<event>
13    1  0.1942437E-008  0.1182730E+03  0.7546771E-02  0.1424503E+00
          2   -1    0    0  502    0  0.00000000000E+00  0.00000000000E+00  0.22655312104E+04  0.22655312104E+04  0.00000000000E+00 0. -1.
          2   -1    0    0  503    0 -0.00000000000E+00 -0.00000000000E+00 -0.15613244722E+04  0.15613244722E+04  0.00000000000E+00 0. -1.
         24    2    1    2    0    0  0.82120240290E+02  0.72338121674E+02 -0.50257208109E+03  0.52004300038E+03  0.76742998646E+02 0.  0.
         24    2    1    2    0    0  0.16489889110E+03 -0.26282308223E+02  0.88456721522E+00  0.18575115808E+03  0.81365264445E+02 0.  0.
         25    2    1    2    0    0 -0.15015588495E+03 -0.12856607610E+03  0.52504075084E+03  0.57477582110E+03  0.12499371491E+03 0.  0.
        -11    1    3    3    0    0 -0.88951576348E+01  0.57681078383E+01 -0.94809167909E+01  0.14222611595E+02  0.00000000000E+00 0.  1.
         12    1    3    3    0    0  0.91015397925E+02  0.66570013835E+02 -0.49309116430E+03  0.50582038879E+03  0.00000000000E+00 0. -1.
        -13    1    4    4    0    0  0.56093995315E+02  0.23564177441E+02  0.21057521520E+02  0.64383429401E+02  0.00000000000E+00 0.  1.
         14    1    4    4    0    0  0.10880489579E+03 -0.49846485664E+02 -0.20172954305E+02  0.12136772868E+03  0.00000000000E+00 0. -1.
          5    1    5    5  501    0 -0.13843554528E+02 -0.90904573246E+02  0.19268113668E+03  0.21354951620E+03  0.47000000000E+01 0.  1.
         -5    1    5    5    0  501 -0.13631233042E+03 -0.37661502857E+02  0.33235961417E+03  0.36122630490E+03  0.47000000000E+01 0.  1.
          1    1    1    2  502    0  0.58878736448E+01  0.24016295869E+02  0.16097273215E+04  0.16099172336E+04  0.00000000000E+00 0. -1.
          1    1    1    2  503    0 -0.10275112009E+03  0.58493966783E+02 -0.92887382017E+03  0.93636846948E+03  0.00000000000E+00 0. -1.
<mgrwt>
<rscale>  0 0.54079533E+02</rscale>
<asrwt>0</asrwt>
<pdfrwt beam="1">  1        2 0.33316636E+00 0.24727505E+02</pdfrwt>
<pdfrwt beam="2">  1        2 0.22960654E+00 0.11827298E+03</pdfrwt>
<totfact> 0.18728742E+01</totfact>
</mgrwt>
</event>
<event>
13    1  0.1942437E-008  0.1735479E+03  0.7546771E-02  0.1329481E+00
         -3   -1    0    0    0  501 -0.00000000000E+00  0.00000000000E+00  0.84674666512E+03  0.84674666512E+03  0.00000000000E+00 0.  1.
          2   -1    0    0  503    0  0.00000000000E+00 -0.00000000000E+00 -0.67624491133E+03  0.67624491133E+03  0.00000000000E+00 0. -1.
         24    2    1    2    0    0 -0.88049124491E+02  0.17582662499E+03  0.23986792329E+02  0.21377219339E+03  0.80346338305E+02 0.  0.
         24    2    1    2    0    0 -0.22358775218E+02 -0.11080787886E+03 -0.68979567907E+02  0.15481879592E+03  0.80202106798E+02 0.  0.
         25    2    1    2    0    0 -0.27400342351E+02 -0.11997300637E+03 -0.23037954242E+03  0.28956143108E+03  0.12500715092E+03 0.  0.
        -11    1    3    3    0    0 -0.98613934427E+02  0.11883002627E+03  0.19180021382E+02  0.15560577247E+03  0.00000000000E+00 0.  1.
         12    1    3    3    0    0  0.10564809935E+02  0.56996598728E+02  0.48067709465E+01  0.58166420919E+02  0.00000000000E+00 0. -1.
        -13    1    4    4    0    0 -0.10708310836E+02 -0.72257988800E+02  0.21512798760E+01  0.73078812740E+02  0.00000000000E+00 0.  1.
         14    1    4    4    0    0 -0.11650464382E+02 -0.38549890058E+02 -0.71130847783E+02  0.81739983179E+02  0.00000000000E+00 0. -1.
          5    1    5    5  502    0 -0.24618944595E+02 -0.67862387011E+02 -0.23370152348E+02  0.76024009527E+02  0.47000000000E+01 0. -1.
         -5    1    5    5    0  502 -0.27813977562E+01 -0.52110619363E+02 -0.20700939008E+03  0.21353742155E+03  0.47000000000E+01 0. -1.
          1    1    1    2  503    0 -0.15548977210E+02 -0.33285556801E+02 -0.19580107488E+03  0.19921787045E+03  0.00000000000E+00 0. -1.
         -4    1    1    2    0  501  0.15335721927E+03  0.88239817040E+02  0.64167514667E+03  0.66562128562E+03  0.00000000000E+00 0.  1.
<mgrwt>
<rscale>  0 0.79848898E+02</rscale>
<asrwt>0</asrwt>
<pdfrwt beam="2">  1        2 0.99447780E-01 0.36738250E+02</pdfrwt>
<pdfrwt beam="1">  1       -3 0.12452157E+00 0.17354791E+03</pdfrwt>
<totfact> 0.16251561E+01</totfact>
</mgrwt>
</event>
<event>
13    1  0.1942437E-008  0.1005558E+03  0.7546771E-02  0.1297987E+00
          2   -1    0    0  503    0  0.00000000000E+00  0.00000000000E+00  0.20755033765E+04  0.20755033765E+04  0.00000000000E+00 0. -1.
          2   -1    0    0  502    0 -0.00000000000E+00 -0.00000000000E+00 -0.82070601368E+03  0.82070601368E+03  0.00000000000E+00 0. -1.
         24    2    1    2    0    0 -0.16924024834E+03  0.83189297427E+02  0.29684014231E+02  0.20716478107E+03  0.80457348655E+02 0.  0.
         24    2    1    2    0    0 -0.17636248082E+02 -0.18298054569E+03  0.41231702665E+02  0.20443966322E+03  0.79388949146E+02 0.  0.
         25    2    1    2    0    0  0.20999229929E+03  0.19040128550E+02  0.39358422526E+03  0.46367401115E+03  0.12500301591E+03 0.  0.
        -11    1    4    4    0    0  0.24818357314E+02 -0.24754621838E+02  0.16565356317E+02  0.38770519625E+02  0.00000000000E+00 0.  1.
         12    1    4    4    0    0 -0.42454605396E+02 -0.15822592385E+03  0.24666346348E+02  0.16566914360E+03  0.00000000000E+00 0. -1.
        -13    1    3    3    0    0 -0.17726118230E+03  0.79978402829E+02  0.22195244407E+02  0.19573119461E+03  0.00000000000E+00 0.  1.
         14    1    3    3    0    0  0.80209339671E+01  0.32108945981E+01  0.74887698249E+01  0.11433586459E+02  0.00000000000E+00 0. -1.
          5    1    5    5  501    0  0.28655436080E+02 -0.37450413391E+02  0.38903867079E+02  0.61312872659E+02  0.47000000000E+01 0.  1.
         -5    1    5    5    0  501  0.18133686321E+03  0.56490541941E+02  0.35468035818E+03  0.40236113849E+03  0.47000000000E+01 0.  1.
          1    1    1    2  502    0  0.71296964717E+02  0.44875892853E+02 -0.61060665906E+03  0.61639078110E+03  0.00000000000E+00 0. -1.
          1    1    1    2  503    0 -0.94412767592E+02  0.35875226860E+02  0.14009040797E+04  0.14045401536E+04  0.00000000000E+00 0. -1.
<mgrwt>
<rscale>  0 0.92039434E+02</rscale>
<asrwt>0</asrwt>
<pdfrwt beam="1">  1        2 0.30522108E+00 0.10055585E+03</pdfrwt>
<pdfrwt beam="2">  1        2 0.12069206E+00 0.84244305E+02</pdfrwt>
<totfact> 0.49795234E+01</totfact>
</mgrwt>
</event>
<event>
13    1  0.1942437E-008  0.1332912E+03  0.7546771E-02  0.1353595E+00
          2   -1    0    0  503    0  0.00000000000E+00  0.00000000000E+00  0.26564079625E+04  0.26564079625E+04  0.00000000000E+00 0. -1.
          2   -1    0    0  502    0 -0.00000000000E+00 -0.00000000000E+00 -0.12147000437E+04  0.12147000437E+04  0.00000000000E+00 0. -1.
         24    2    1    2    0    0 -0.31072957260E+02 -0.77469890213E+02  0.87192391438E+02  0.13576677697E+03  0.62152972907E+02 0.  0.
         24    2    1    2    0    0  0.36456344535E+02  0.30154708654E+02 -0.40054246574E+02  0.97723759697E+02  0.75546138418E+02 0.  0.
         25    2    1    2    0    0  0.16119312392E+02 -0.88355562224E+02  0.12634960971E+04  0.12728368425E+04  0.12499881055E+03 0.  0.
        -13    1    4    4    0    0  0.28406202889E+02 -0.21024919112E+02 -0.63230553920E+01  0.35901819115E+02  0.00000000000E+00 0.  1.
         14    1    4    4    0    0  0.80501416454E+01  0.51179627766E+02 -0.33731191182E+02  0.61821940582E+02  0.00000000000E+00 0. -1.
        -13    1    3    3    0    0  0.56509072145E+01 -0.33152169352E+02  0.66651139507E+02  0.74655029855E+02  0.00000000000E+00 0.  1.
         14    1    3    3    0    0 -0.36723864475E+02 -0.44317720862E+02  0.20541251931E+02  0.61111747113E+02  0.00000000000E+00 0. -1.
          5    1    5    5  501    0 -0.46547971789E+02 -0.63129131975E+02  0.47674928344E+03  0.48318109467E+03  0.47000000000E+01 0.  1.
         -5    1    5    5    0  501  0.62667284181E+02 -0.25226430249E+02  0.78674681364E+03  0.78965574782E+03  0.47000000000E+01 0.  1.
          1    1    1    2  502    0 -0.88101284718E+01  0.17237277652E+03 -0.11098796226E+04  0.11232198223E+04  0.00000000000E+00 0. -1.
          1    1    1    2  503    0 -0.12692571195E+02 -0.36702032736E+02  0.12409532994E+04  0.12415608048E+04  0.00000000000E+00 0. -1.
<mgrwt>
<rscale>  0 0.71946742E+02</rscale>
<asrwt>0</asrwt>
<pdfrwt beam="1">  1        2 0.39064823E+00 0.38834786E+02</pdfrwt>
<pdfrwt beam="2">  1        2 0.17863236E+00 0.13329116E+03</pdfrwt>
<totfact> 0.17161140E+01</totfact>
</mgrwt>
</event>
<event>
13    1  0.1942437E-008  0.2942435E+03  0.7546771E-02  0.1252754E+00
          2   -1    0    0  503    0  0.00000000000E+00  0.00000000000E+00  0.16219038032E+04  0.16219038032E+04  0.00000000000E+00 0. -1.
          2   -1    0    0  502    0 -0.00000000000E+00 -0.00000000000E+00 -0.25984178230E+04  0.25984178230E+04  0.00000000000E+00 0. -1.
         24    2    1    2    0    0 -0.46766417737E+02 -0.16002957608E+01 -0.17289688536E+02  0.93903781832E+02  0.79557074722E+02 0.  0.
         24    2    1    2    0    0 -0.11572723942E+03 -0.90925762184E+02  0.69762066678E+02  0.18455755929E+03  0.86801259044E+02 0.  0.
         25    2    1    2    0    0 -0.80434993755E+02 -0.14599476578E+03  0.43484407849E+03  0.48218665469E+03  0.12502134822E+03 0.  0.
        -11    1    4    4    0    0 -0.40679742994E+02  0.11322794952E+02  0.61706149240E+01  0.42674625530E+02  0.00000000000E+00 0.  1.
         12    1    4    4    0    0 -0.75047496427E+02 -0.10224855714E+03  0.63591451754E+02  0.14188293376E+03  0.00000000000E+00 0. -1.
        -13    1    3    3    0    0 -0.50219714577E+02  0.27359295468E+02  0.46948910460E+01  0.57381118695E+02  0.00000000000E+00 0.  1.
         14    1    3    3    0    0  0.34532968404E+01 -0.28959591229E+02 -0.21984579582E+02  0.36522663137E+02  0.00000000000E+00 0. -1.
          5    1    5    5  501    0 -0.78552017015E+02 -0.11992315208E+03  0.43233687322E+03  0.45550987226E+03  0.47000000000E+01 0.  1.
         -5    1    5    5    0  501 -0.18829767398E+01 -0.26071613704E+02  0.25072052672E+01  0.26676782430E+02  0.47000000000E+01 0.  1.
          1    1    1    2  502    0  0.21749402472E+03  0.20209847985E+03 -0.24522996602E+04  0.24702066857E+04  0.00000000000E+00 0. -1.
          1    1    1    2  503    0  0.25434626188E+02  0.36422343871E+02  0.98846918378E+03  0.98946694469E+03  0.00000000000E+00 0. -1.
<mgrwt>
<rscale>  0 0.11433078E+03</rscale>
<asrwt>0</asrwt>
<pdfrwt beam="1">  1        2 0.23851527E+00 0.44424175E+02</pdfrwt>
<pdfrwt beam="2">  1        2 0.38212026E+00 0.29424354E+03</pdfrwt>
<totfact> 0.95026310E+00</totfact>
</mgrwt>
</event>
<event>
13    1  0.1942437E-008  0.1722025E+03  0.7546771E-02  0.1285256E+00
         -3   -1    0    0    0  501 -0.00000000000E+00  0.00000000000E+00  0.11232172728E+04  0.11232172728E+04  0.00000000000E+00 0.  1.
          2   -1    0    0  503    0  0.00000000000E+00 -0.00000000000E+00 -0.12077455869E+04  0.12077455869E+04  0.00000000000E+00 0. -1.
         24    2    1    2    0    0 -0.21675678740E+03 -0.11122785967E+02  0.63114893167E+02  0.23981063141E+03  0.80115091874E+02 0.  0.
         24    2    1    2    0    0  0.44467142451E+02 -0.91187303891E+02  0.10364917654E+03  0.16550054806E+03  0.79717177965E+02 0.  0.
         25    2    1    2    0    0  0.26520447672E+03  0.25943161219E+03 -0.22990063313E+03  0.45400206830E+03  0.12500160411E+03 0.  0.
        -11    1    4    4    0    0  0.45894548053E+02 -0.94976747669E+02  0.11344029403E+03  0.15490510788E+03  0.00000000000E+00 0.  1.
         12    1    4    4    0    0 -0.14274056018E+01  0.37894437780E+01 -0.97911174891E+01  0.10595440179E+02  0.00000000000E+00 0. -1.
        -13    1    3    3    0    0 -0.17171862537E+03 -0.39801708901E+02  0.35934081252E+02  0.17989641610E+03  0.00000000000E+00 0.  1.
         14    1    3    3    0    0 -0.45038162026E+02  0.28678922934E+02  0.27180811914E+02  0.59914215306E+02  0.00000000000E+00 0. -1.
          5    1    5    5  502    0  0.21496324566E+03  0.24695955581E+03 -0.15360622750E+03  0.36168381539E+03  0.47000000000E+01 0.  1.
         -5    1    5    5    0  502  0.50241231060E+02  0.12472056377E+02 -0.76294405634E+02  0.92318252906E+02  0.47000000000E+01 0.  1.
          1    1    1    2  503    0 -0.54588751260E+02  0.94802166710E+01 -0.73538825226E+03  0.73747249972E+03  0.00000000000E+00 0. -1.
         -4    1    1    2    0  501 -0.38326080515E+02 -0.16660173900E+03  0.71399650158E+03  0.73417711226E+03  0.00000000000E+00 0.  1.
<mgrwt>
<rscale>  0 0.97678160E+02</rscale>
<asrwt>0</asrwt>
<pdfrwt beam="2">  1        2 0.17760965E+00 0.55405832E+02</pdfrwt>
<pdfrwt beam="1">  1       -3 0.16517901E+00 0.17220250E+03</pdfrwt>
<totfact> 0.38812468E+00</totfact>
</mgrwt>
</event>
<event>
13    1  0.1942437E-008  0.7900136E+02  0.7546771E-02  0.1410805E+00
          2   -1    0    0  502    0  0.00000000000E+00  0.00000000000E+00  0.23136113292E+04  0.23136113292E+04  0.00000000000E+00 0. -1.
          2   -1    0    0  503    0 -0.00000000000E+00 -0.00000000000E+00 -0.11773300356E+04  0.11773300356E+04  0.00000000000E+00 0. -1.
         24    2    1    2    0    0  0.63343994946E+02  0.26057702237E+02 -0.74700004972E+02  0.12731990439E+03  0.77063621565E+02 0.  0.
         24    2    1    2    0    0 -0.53557562452E+01 -0.10241686564E+03  0.19101043569E+03  0.23157463126E+03  0.81387497855E+02 0.  0.
         25    2    1    2    0    0 -0.98458320794E+02  0.18848606256E+03  0.76153291828E+03  0.80048610243E+03  0.12499831136E+03 0.  0.
        -11    1    4    4    0    0  0.22824553566E+02 -0.50476130764E+01  0.69552150845E+02  0.73375338707E+02  0.00000000000E+00 0.  1.
         12    1    4    4    0    0 -0.28180309811E+02 -0.97369252567E+02  0.12145828485E+03  0.15819929255E+03  0.00000000000E+00 0. -1.
        -13    1    3    3    0    0 -0.16411526347E+02  0.37668132976E+01 -0.16962962265E+01  0.16923489603E+02  0.00000000000E+00 0.  1.
         14    1    3    3    0    0  0.79755521293E+02  0.22290888939E+02 -0.73003708746E+02  0.11039641478E+03  0.00000000000E+00 0. -1.
          5    1    5    5  501    0 -0.85232028193E+02  0.14476814114E+03  0.71731816635E+03  0.73674266545E+03  0.47000000000E+01 0. -1.
         -5    1    5    5    0  501 -0.13226292601E+02  0.43717921424E+02  0.44214751931E+02  0.63743436979E+02  0.47000000000E+01 0. -1.
          1    1    1    2  502    0  0.72893755825E+01 -0.40495981395E+02  0.12931686016E+04  0.12938230527E+04  0.00000000000E+00 0. -1.
          1    1    1    2  503    0  0.33180706511E+02 -0.71630917763E+02 -0.10347306569E+04  0.10377376740E+04  0.00000000000E+00 0. -1.
<mgrwt>
<rscale>  0 0.57014503E+02</rscale>
<asrwt>0</asrwt>
<pdfrwt beam="1">  1        2 0.34023696E+00 0.41146804E+02</pdfrwt>
<pdfrwt beam="2">  1        2 0.17313677E+00 0.79001360E+02</pdfrwt>
<totfact> 0.26742708E+01</totfact>
</mgrwt>
</event>
<event>
13    1  0.1942437E-008  0.1177050E+03  0.7546771E-02  0.1292881E+00
          2   -1    0    0  502    0  0.00000000000E+00  0.00000000000E+00  0.30885724669E+04  0.30885724669E+04  0.00000000000E+00 0. -1.
          2   -1    0    0  503    0 -0.00000000000E+00 -0.00000000000E+00 -0.34455940643E+04  0.34455940643E+04  0.00000000000E+00 0. -1.
         24    2    1    2    0    0 -0.80341430951E+02  0.85627462073E+02 -0.18882373240E+03  0.23668510244E+03  0.81108741888E+02 0.  0.
         24    2    1    2    0    0 -0.15849613848E+02 -0.55371664227E+02  0.16314932604E+03  0.19241055430E+03  0.84183652587E+02 0.  0.
         25    2    1    2    0    0  0.54848637954E+02 -0.15381795767E+02  0.26500571668E+03  0.29849343313E+03  0.12500130809E+03 0.  0.
        -11    1    4    4    0    0  0.44314705183E+01 -0.15680979232E+02 -0.60932290246E+01  0.17397082530E+02  0.00000000000E+00 0.  1.
         12    1    4    4    0    0 -0.20281084366E+02 -0.39690684995E+02  0.16924255506E+03  0.17501347177E+03  0.00000000000E+00 0. -1.
        -11    1    3    3    0    0  0.14039548323E+02  0.24844564094E+02 -0.55392986615E+02  0.62311670241E+02  0.00000000000E+00 0.  1.
         12    1    3    3    0    0 -0.94380979274E+02  0.60782897979E+02 -0.13343074578E+03  0.17437343219E+03  0.00000000000E+00 0. -1.
          5    1    5    5  501    0  0.68170327290E+02  0.20362584535E+02  0.70657690011E+02  0.10038141028E+03  0.47000000000E+01 0.  1.
         -5    1    5    5    0  501 -0.13321689336E+02 -0.35744380302E+02  0.19434802667E+03  0.19811202285E+03  0.47000000000E+01 0.  1.
          1    1    1    2  502    0 -0.75436302352E+02  0.20448836535E+01  0.26034780720E+04  0.26045715365E+04  0.00000000000E+00 0. -1.
          1    1    1    2  503    0  0.11677870920E+03 -0.16918885733E+02 -0.31998309797E+04  0.32020059048E+04  0.00000000000E+00 0. -1.
<mgrwt>
<rscale>  0 0.94246983E+02</rscale>
<asrwt>0</asrwt>
<pdfrwt beam="1">  1        2 0.45420183E+00 0.75464013E+02</pdfrwt>
<pdfrwt beam="2">  1        2 0.50670501E+00 0.11770503E+03</pdfrwt>
<totfact> 0.67194033E-01</totfact>
</mgrwt>
</event>
<event>
13    1  0.1942437E-008  0.1142776E+03  0.7546771E-02  0.1255104E+00
          2   -1    0    0  503    0  0.00000000000E+00  0.00000000000E+00  0.18375342540E+04  0.18375342540E+04  0.00000000000E+00 0. -1.
          2   -1    0    0  502    0 -0.00000000000E+00 -0.00000000000E+00 -0.18068724995E+04  0.18068724995E+04  0.00000000000E+00 0. -1.
         24    2    1    2    0    0 -0.29187509929E+02 -0.84162304307E+02 -0.32890119742E+03  0.35186401896E+03  0.87733038095E+02 0.  0.
         24    2    1    2    0    0  0.18000907816E+02 -0.40721889652E+02  0.26431658922E+03  0.28075771691E+03  0.83542392171E+02 0.  0.
         25    2    1    2    0    0  0.12513038719E+03 -0.95592587011E+02  0.43129646061E+03  0.47585724011E+03  0.12501167759E+03 0.  0.
        -11    1    3    3    0    0 -0.39874354185E+01 -0.94720108282E+02 -0.21941931923E+03  0.23902434229E+03  0.00000000000E+00 0.  1.
         12    1    3    3    0    0 -0.25200074510E+02  0.10557803975E+02 -0.10948187819E+03  0.11283967668E+03  0.00000000000E+00 0. -1.
        -13    1    4    4    0    0 -0.62469050288E+01  0.10555856556E+02  0.20604345236E+01  0.12437657356E+02  0.00000000000E+00 0.  1.
         14    1    4    4    0    0  0.24247812845E+02 -0.51277746208E+02  0.26225615470E+03  0.26832005956E+03  0.00000000000E+00 0. -1.
          5    1    5    5  501    0  0.14613663745E+03 -0.97449652062E+02  0.40719873970E+03  0.44349211391E+03  0.47000000000E+01 0. -1.
         -5    1    5    5    0  501 -0.21006250253E+02  0.18570650510E+01  0.24097720915E+02  0.32365126195E+02  0.47000000000E+01 0. -1.
          1    1    1    2  502    0 -0.39193091320E+01  0.11173539438E+03 -0.14283546397E+04  0.14327236775E+04  0.00000000000E+00 0. -1.
          1    1    1    2  503    0 -0.11002447595E+03  0.10874138659E+03  0.10923045418E+04  0.11032041001E+04  0.00000000000E+00 0. -1.
<mgrwt>
<rscale>  0 0.11300490E+03</rscale>
<asrwt>0</asrwt>
<pdfrwt beam="1">  1        2 0.27022563E+00 0.11427755E+03</pdfrwt>
<pdfrwt beam="2">  1        2 0.26571654E+00 0.11174643E+03</pdfrwt>
<totfact> 0.18950721E+01</totfact>
</mgrwt>
</event>
<event>
13    1  0.1942437E-008  0.5398604E+02  0.7546771E-02  0.1497743E+00
          2   -1    0    0  503    0  0.00000000000E+00  0.00000000000E+00  0.20142767730E+04  0.20142767730E+04  0.00000000000E+00 0. -1.
         -1   -1    0    0    0  501 -0.00000000000E+00 -0.00000000000E+00 -0.50726983477E+03  0.50726983477E+03  0.00000000000E+00 0.  1.
         24    2    1    2    0    0 -0.50964425410E+02  0.36706967117E+02 -0.11766049645E+03  0.15544063084E+03  0.79831216936E+02 0.  0.
         24    2    1    2    0    0 -0.34071117332E+01 -0.51318353533E+02  0.12599970025E+03  0.15807039885E+03  0.80406123585E+02 0.  0.
         25    2    1    2    0    0  0.42302270993E+02  0.76531630672E+02  0.79987762990E+03  0.81429446627E+03  0.12499872946E+03 0.  0.
        -11    1    4    4    0    0  0.34531587120E+02 -0.16197694229E+02  0.80996289213E+02  0.89527619614E+02  0.00000000000E+00 0.  1.
         12    1    4    4    0    0 -0.37938698854E+02 -0.35120659304E+02  0.45003411041E+02  0.68542779241E+02  0.00000000000E+00 0. -1.
        -13    1    3    3    0    0  0.52794677773E+00 -0.11393905915E+02 -0.68691388437E+02  0.69631937107E+02  0.00000000000E+00 0.  1.
         14    1    3    3    0    0 -0.51492372188E+02  0.48100873032E+02 -0.48969108013E+02  0.85808693730E+02  0.00000000000E+00 0. -1.
          5    1    5    5  502    0 -0.87074506421E+01  0.94732118954E+02  0.42843970226E+03  0.43889937632E+03  0.47000000000E+01 0. -1.
         -5    1    5    5    0  502  0.51009721635E+02 -0.18200488282E+02  0.37143792763E+03  0.37539508995E+03  0.47000000000E+01 0. -1.
          1    1    1    2  503    0  0.29891769889E+02 -0.10962086129E+02  0.10439246199E+04  0.10444100235E+04  0.00000000000E+00 0. -1.
         -2    1    1    2    0  501 -0.17822503738E+02 -0.50958158126E+02 -0.34513451537E+03  0.34933108826E+03  0.00000000000E+00 0.  1.
<mgrwt>
<rscale>  0 0.41458779E+02</rscale>
<asrwt>0</asrwt>
<pdfrwt beam="1">  1        2 0.29621717E+00 0.31838424E+02</pdfrwt>
<pdfrwt beam="2">  1       -1 0.74598506E-01 0.53986036E+02</pdfrwt>
<totfact> 0.23250551E+01</totfact>
</mgrwt>
</event>
<event>
13    1  0.1942437E-008  0.3766210E+02  0.7546771E-02  0.1553284E+00
          2   -1    0    0  503    0  0.00000000000E+00  0.00000000000E+00  0.26336604998E+04  0.26336604998E+04  0.00000000000E+00 0. -1.
         -1   -1    0    0    0  501 -0.00000000000E+00 -0.00000000000E+00 -0.42721795073E+03  0.42721795073E+03  0.00000000000E+00 0.  1.
         24    2    1    2    0    0  0.24535119416E+03  0.10205681089E+02  0.33132630797E+02  0.26146068611E+03  0.83441924453E+02 0.  0.
         24    2    1    2    0    0 -0.50821609667E+03  0.27161003953E+03  0.48951671389E+03  0.76081957806E+03  0.84641613239E+02 0.  0.
         25    2    1    2    0    0  0.19632437615E+03 -0.27445229468E+03  0.35229310146E+03  0.50359045474E+03  0.12500237615E+03 0.  0.
        -11    1    3    3    0    0  0.25587095790E+02 -0.14418251646E+02 -0.18053380014E+02  0.34474773117E+02  0.00000000000E+00 0.  1.
         12    1    3    3    0    0  0.21976409837E+03  0.24623932736E+02  0.51186010811E+02  0.22698591300E+03  0.00000000000E+00 0. -1.
        -13    1    4    4    0    0 -0.31235524553E+03  0.19624521488E+03  0.27010347199E+03  0.45720221932E+03  0.00000000000E+00 0.  1.
         14    1    4    4    0    0 -0.19586085115E+03  0.75364824644E+02  0.21941324190E+03  0.30361735874E+03  0.00000000000E+00 0. -1.
          5    1    5    5  502    0  0.37499735012E+02 -0.92750452161E+01  0.59795684981E+01  0.39371332580E+02  0.47000000000E+01 0.  1.
         -5    1    5    5    0  502  0.15882464114E+03 -0.26517724947E+03  0.34631353297E+03  0.46421912216E+03  0.47000000000E+01 0.  1.
          1    1    1    2  503    0  0.35432414538E+02 -0.12704522306E+02  0.14305527061E+04  0.14310478349E+04  0.00000000000E+00 0. -1.
         -2    1    1    2    0  501  0.31108111827E+02  0.53410963739E+01 -0.99052603161E+02  0.10395989671E+03  0.00000000000E+00 0.  1.
<mgrwt>
<rscale>  0 0.34478112E+02</rscale>
<asrwt>0</asrwt>
<pdfrwt beam="1">  1        2 0.38730301E+00 0.37662101E+02</pdfrwt>
<pdfrwt beam="2">  1       -1 0.62826170E-01 0.31563300E+02</pdfrwt>
<totfact> 0.16368310E+01</totfact>
</mgrwt>
</event>
<event>
13    1  0.1942437E-008  0.9292473E+02  0.7546771E-02  0.1344857E+00
          2   -1    0    0  503    0  0.00000000000E+00  0.00000000000E+00  0.16365359877E+04  0.16365359877E+04  0.00000000000E+00 0. -1.
          2   -1    0    0  502    0 -0.00000000000E+00 -0.00000000000E+00 -0.77927558042E+03  0.77927558042E+03  0.00000000000E+00 0. -1.
         24    2    1    2    0    0 -0.50909391518E+02 -0.41239985444E+02  0.23141476072E+03  0.25389051391E+03  0.81333259060E+02 0.  0.
         24    2    1    2    0    0  0.10892046461E+03 -0.15249894815E+02  0.57429305209E+02  0.14765276229E+03  0.80043651915E+02 0.  0.
         25    2    1    2    0    0 -0.80646353522E+02  0.32065254649E+02  0.51428050138E+03  0.53632130134E+03  0.12499635707E+03 0.  0.
        -13    1    4    4    0    0  0.92349375429E+02 -0.63967140106E+01  0.58466157257E+01  0.92755096936E+02  0.00000000000E+00 0.  1.
         14    1    4    4    0    0  0.16571089186E+02 -0.88531808046E+01  0.51582689483E+02  0.54897665356E+02  0.00000000000E+00 0. -1.
        -13    1    3    3    0    0 -0.69509044057E+02 -0.19310591533E+02  0.19196604225E+03  0.20507405376E+03  0.00000000000E+00 0.  1.
         14    1    3    3    0    0  0.18599652540E+02 -0.21929393911E+02  0.39448718475E+02  0.48816460147E+02  0.00000000000E+00 0. -1.
          5    1    5    5  501    0 -0.38219896715E+02 -0.57667888209E+01  0.31227754743E+02  0.49912714056E+02  0.47000000000E+01 0.  1.
         -5    1    5    5    0  501 -0.42426456807E+02  0.37832043470E+02  0.48305274663E+03  0.48640858728E+03  0.47000000000E+01 0.  1.
          1    1    1    2  502    0  0.68890704677E+02  0.62674064786E+02 -0.70767406162E+03  0.71377625702E+03  0.00000000000E+00 0. -1.
          1    1    1    2  503    0 -0.46255424252E+02 -0.38249439176E+02  0.76180990158E+03  0.76417073355E+03  0.00000000000E+00 0. -1.
<mgrwt>
<rscale>  0 0.74682557E+02</rscale>
<asrwt>0</asrwt>
<pdfrwt beam="1">  1        2 0.24066706E+00 0.60021528E+02</pdfrwt>
<pdfrwt beam="2">  1        2 0.11459935E+00 0.92924730E+02</pdfrwt>
<totfact> 0.89969665E+01</totfact>
</mgrwt>
</event>
<event>
13    1  0.1942437E-008  0.6080074E+02  0.7546771E-02  0.1469120E+00
          2   -1    0    0  502    0  0.00000000000E+00  0.00000000000E+00  0.12586715027E+04  0.12586715027E+04  0.00000000000E+00 0. -1.
          2   -1    0    0  503    0 -0.00000000000E+00 -0.00000000000E+00 -0.82678403786E+03  0.82678403786E+03  0.00000000000E+00 0. -1.
         24    2    1    2    0    0  0.12936704549E+02  0.29207498885E+02 -0.25522745208E+03  0.26888270818E+03  0.78335318646E+02 0.  0.
         24    2    1    2    0    0  0.14971840495E+03 -0.49584705517E+02  0.46698219381E+02  0.19273225821E+03  0.10045275438E+03 0.  0.
         25    2    1    2    0    0 -0.17167384167E+03  0.52868414284E+02  0.69732575781E+03  0.73086018266E+03  0.12500566765E+03 0.  0.
        -11    1    4    4    0    0  0.89208271028E+02  0.18285503763E+02  0.12329189053E+01  0.91071375068E+02  0.00000000000E+00 0.  1.
         12    1    4    4    0    0  0.60510133919E+02 -0.67870209281E+02  0.45465300476E+02  0.10166088315E+03  0.00000000000E+00 0. -1.
        -11    1    3    3    0    0 -0.19144026017E+02  0.23027651918E+02 -0.34216855248E+02  0.45470426302E+02  0.00000000000E+00 0.  1.
         12    1    3    3    0    0  0.32080730566E+02  0.61798469675E+01 -0.22101059683E+03  0.22341228188E+03  0.00000000000E+00 0. -1.
          5    1    5    5  501    0 -0.16534735866E+03  0.23071998091E+02  0.42252429316E+03  0.45433570675E+03  0.47000000000E+01 0.  1.
         -5    1    5    5    0  501 -0.63264830105E+01  0.29796416193E+02  0.27480146465E+03  0.27652447591E+03  0.47000000000E+01 0.  1.
          1    1    1    2  502    0 -0.12238864486E+02 -0.59755119746E+02  0.41517523325E+03  0.41963190828E+03  0.00000000000E+00 0. -1.
          1    1    1    2  503    0  0.21257596663E+02  0.27263912094E+02 -0.47208429356E+03  0.47334848320E+03  0.00000000000E+00 0. -1.
<mgrwt>
<rscale>  0 0.45847448E+02</rscale>
<asrwt>0</asrwt>
<pdfrwt beam="1">  1        2 0.18509875E+00 0.60800743E+02</pdfrwt>
<pdfrwt beam="2">  1        2 0.12158589E+00 0.34571756E+02</pdfrwt>
<totfact> 0.13277338E+02</totfact>
</mgrwt>
</event>
<event>
13    1  0.1942437E-008  0.1709416E+02  0.7546771E-02  0.1852202E+00
          2   -1    0    0  502    0  0.00000000000E+00  0.00000000000E+00  0.15356092503E+04  0.15356092503E+04  0.00000000000E+00 0. -1.
          2   -1    0    0  503    0 -0.00000000000E+00 -0.00000000000E+00 -0.24157508257E+04  0.24157508257E+04  0.00000000000E+00 0. -1.
         24    2    1    2    0    0  0.38451757020E+02  0.31485812099E+02 -0.15191716527E+04  0.15220716266E+04  0.79684578513E+02 0.  0.
         24    2    1    2    0    0 -0.37107496989E+01  0.13894530625E+02  0.12682648227E+03  0.15274273712E+03  0.83896123230E+02 0.  0.
         25    2    1    2    0    0 -0.12779739129E+02 -0.52767367234E+02  0.82534095523E+03  0.83651674592E+03  0.12499942816E+03 0.  0.
        -13    1    4    4    0    0 -0.34262721582E+02  0.21266163471E+02  0.28142797761E+02  0.49175205793E+02  0.00000000000E+00 0.  1.
         14    1    4    4    0    0  0.30551971883E+02 -0.73716328458E+01  0.98683684510E+02  0.10356753133E+03  0.00000000000E+00 0. -1.
        -13    1    3    3    0    0  0.23080536779E+02 -0.25334839956E+02 -0.65663856161E+03  0.65753233067E+03  0.00000000000E+00 0.  1.
         14    1    3    3    0    0  0.15371220241E+02  0.56820652055E+02 -0.86253309110E+03  0.86453929589E+03  0.00000000000E+00 0. -1.
          5    1    5    5  501    0 -0.46816451081E+02 -0.71277319609E+00  0.12772001601E+03  0.13611311703E+03  0.47000000000E+01 0. -1.
         -5    1    5    5    0  501  0.34036711952E+02 -0.52054594038E+02  0.69762093922E+03  0.70040362889E+03  0.47000000000E+01 0. -1.
          1    1    1    2  502    0 -0.12384994652E+02 -0.67728279971E+01  0.56327403386E+03  0.56345088207E+03  0.00000000000E+00 0. -1.
          1    1    1    2  503    0 -0.95762735395E+01  0.14159852507E+02 -0.87641139398E+03  0.87657808434E+03  0.00000000000E+00 0. -1.
<mgrwt>
<rscale>  0 0.15533830E+02</rscale>
<asrwt>0</asrwt>
<pdfrwt beam="1">  1        2 0.22582489E+00 0.14115923E+02</pdfrwt>
<pdfrwt beam="2">  1        2 0.35525747E+00 0.17094161E+02</pdfrwt>
<totfact> 0.21008773E+01</totfact>
</mgrwt>
</event>
<event>
13    1  0.1942437E-008  0.1005497E+03  0.7546771E-02  0.1387943E+00
          2   -1    0    0  502    0  0.00000000000E+00  0.00000000000E+00  0.29432323730E+04  0.29432323730E+04  0.00000000000E+00 0. -1.
          2   -1    0    0  503    0 -0.00000000000E+00 -0.00000000000E+00 -0.50976945531E+03  0.50976945531E+03  0.00000000000E+00 0. -1.
         24    2    1    2    0    0  0.81638752930E+01 -0.16078088122E+02 -0.46155544537E+02  0.96613135932E+02  0.82937385814E+02 0.  0.
         24    2    1    2    0    0  0.92878351007E+01  0.17802609237E+02  0.35941807212E+02  0.90146460839E+02  0.80195848519E+02 0.  0.
         25    2    1    2    0    0 -0.88298013383E+02  0.47570742362E+02  0.10645585484E+04  0.10765544648E+04  0.12500039160E+03 0.  0.
        -11    1    4    4    0    0  0.38303141548E+02 -0.99749893095E+00 -0.25577862901E+01  0.38401405277E+02  0.00000000000E+00 0.  1.
         12    1    4    4    0    0 -0.29015306447E+02  0.18800108168E+02  0.38499593502E+02  0.51745055562E+02  0.00000000000E+00 0. -1.
        -13    1    3    3    0    0  0.11838797932E+02 -0.46914745525E+02 -0.10838628044E+02  0.49584537328E+02  0.00000000000E+00 0.  1.
         14    1    3    3    0    0 -0.36749226387E+01  0.30836657402E+02 -0.35316916493E+02  0.47028598605E+02  0.00000000000E+00 0. -1.
          5    1    5    5  501    0  0.17659011688E+02  0.42304255977E+02  0.18700584220E+03  0.19260001502E+03  0.47000000000E+01 0.  1.
         -5    1    5    5    0  501 -0.10595702507E+03  0.52664863846E+01  0.87755270620E+03  0.88395444973E+03  0.47000000000E+01 0.  1.
          1    1    1    2  502    0 -0.33043022385E+02 -0.20243364994E+02  0.17770096720E+04  0.17774321392E+04  0.00000000000E+00 0. -1.
          1    1    1    2  503    0  0.10388932537E+03 -0.29051898482E+02 -0.39789156534E+03  0.41225562761E+03  0.00000000000E+00 0. -1.
<mgrwt>
<rscale>  0 0.62421116E+02</rscale>
<asrwt>0</asrwt>
<pdfrwt beam="1">  1        2 0.43282828E+00 0.38750937E+02</pdfrwt>
<pdfrwt beam="2">  1        2 0.74966098E-01 0.10054972E+03</pdfrwt>
<totfact> 0.36516332E+01</totfact>
</mgrwt>
</event>
<event>
13    1  0.1942437E-008  0.7561239E+02  0.7546771E-02  0.1384418E+00
          2   -1    0    0  503    0  0.00000000000E+00  0.00000000000E+00  0.13064914540E+04  0.13064914540E+04  0.00000000000E+00 0. -1.
          2   -1    0    0  502    0 -0.00000000000E+00 -0.00000000000E+00 -0.17220570760E+04  0.17220570760E+04  0.00000000000E+00 0. -1.
         24    2    1    2    0    0  0.36703962854E+02  0.15001591670E+02 -0.88638507460E+02  0.12594471575E+03  0.80206345010E+02 0.  0.
         24    2    1    2    0    0  0.87370003848E+01  0.43163254405E+02 -0.77752194376E+02  0.12054236827E+03  0.80905235372E+02 0.  0.
         25    2    1    2    0    0  0.71767747928E+02 -0.83870752629E+02 -0.10776799004E+03  0.19855138455E+03  0.12499519927E+03 0.  0.
        -13    1    4    4    0    0  0.44715879213E+02  0.17993581489E+02 -0.41318772946E+02  0.63486375124E+02  0.00000000000E+00 0.  1.
         14    1    4    4    0    0 -0.35978878829E+02  0.25169672917E+02 -0.36433421430E+02  0.57055993143E+02  0.00000000000E+00 0. -1.
        -13    1    3    3    0    0  0.48488363654E+01  0.23977160251E+02 -0.89555617150E+02  0.92836544480E+02  0.00000000000E+00 0.  1.
         14    1    3    3    0    0  0.31855126489E+02 -0.89755685806E+01  0.91710969003E+00  0.33108171275E+02  0.00000000000E+00 0. -1.
          5    1    5    5  501    0  0.78927759517E+02 -0.74026081395E+02 -0.13216887524E+03  0.17088052414E+03  0.47000000000E+01 0. -1.
         -5    1    5    5    0  501 -0.71600115891E+01 -0.98446712341E+01  0.24400885195E+02  0.27670860413E+02  0.47000000000E+01 0. -1.
          1    1    1    2  502    0 -0.65402582873E+02  0.36988133194E+02 -0.13608460815E+04  0.13629188081E+04  0.00000000000E+00 0. -1.
          1    1    1    2  503    0 -0.51806128294E+02 -0.11282226641E+02  0.12194391514E+04  0.12205912533E+04  0.00000000000E+00 0. -1.
<mgrwt>
<rscale>  0 0.63316662E+02</rscale>
<asrwt>0</asrwt>
<pdfrwt beam="1">  1        2 0.19213110E+00 0.53020407E+02</pdfrwt>
<pdfrwt beam="2">  1        2 0.25324369E+00 0.75612389E+02</pdfrwt>
<totfact> 0.41704070E+01</totfact>
</mgrwt>
</event>
<event>
13    1  0.1942437E-008  0.6149682E+02  0.7546771E-02  0.1392165E+00
          2   -1    0    0  502    0  0.00000000000E+00  0.00000000000E+00  0.14585067107E+04  0.14585067107E+04  0.00000000000E+00 0. -1.
          2   -1    0    0  503    0 -0.00000000000E+00 -0.00000000000E+00 -0.16918303455E+03  0.16918303455E+03  0.00000000000E+00 0. -1.
         24    2    1    2    0    0  0.16114775835E+03  0.11637894313E+03  0.12637810182E+03  0.25223438154E+03  0.90211419365E+02 0.  0.
         24    2    1    2    0    0 -0.45635721622E+02 -0.11600291449E+03  0.16604261630E+03  0.22328679052E+03  0.82143442427E+02 0.  0.
         25    2    1    2    0    0 -0.13662644212E+03 -0.64799463344E+02  0.87636316000E+03  0.89805492642E+03  0.12499803007E+03 0.  0.
        -13    1    4    4    0    0  0.98846123864E+01 -0.31650138989E+02  0.54801419660E+01  0.33607570814E+02  0.00000000000E+00 0.  1.
         14    1    4    4    0    0 -0.55520334008E+02 -0.84352775505E+02  0.16056247434E+03  0.18967921971E+03  0.00000000000E+00 0. -1.
        -13    1    3    3    0    0  0.67722459721E+02  0.11260423693E+01  0.56665255573E+02  0.88309403300E+02  0.00000000000E+00 0.  1.
         14    1    3    3    0    0  0.93425298627E+02  0.11525290076E+03  0.69712846252E+02  0.16392497824E+03  0.00000000000E+00 0. -1.
          5    1    5    5  501    0 -0.11941409747E+03 -0.30482346453E+02  0.36586273984E+03  0.38609135515E+03  0.47000000000E+01 0. -1.
         -5    1    5    5    0  501 -0.17212344654E+02 -0.34317116891E+02  0.51050042016E+03  0.51196357126E+03  0.47000000000E+01 0. -1.
          1    1    1    2  502    0 -0.38372948738E+02  0.47734856361E+02  0.16630611901E+03  0.17722535069E+03  0.00000000000E+00 0. -1.
          1    1    1    2  503    0  0.59487354134E+02  0.16688578346E+02 -0.45766320946E+02  0.76888296131E+02  0.00000000000E+00 0. -1.
<mgrwt>
<rscale>  0 0.61371395E+02</rscale>
<asrwt>0</asrwt>
<pdfrwt beam="1">  1        2 0.21448627E+00 0.61246222E+02</pdfrwt>
<pdfrwt beam="2">  1        2 0.24879859E-01 0.61496823E+02</pdfrwt>
<totfact> 0.55965156E+02</totfact>
</mgrwt>
</event>
<event>
13    1  0.1942437E-008  0.1568636E+03  0.7546771E-02  0.1217957E+00
          2   -1    0    0  503    0  0.00000000000E+00  0.00000000000E+00  0.15712763730E+04  0.15712763730E+04  0.00000000000E+00 0. -1.
          2   -1    0    0  502    0 -0.00000000000E+00 -0.00000000000E+00 -0.30110789823E+04  0.30110789823E+04  0.00000000000E+00 0. -1.
         24    2    1    2    0    0  0.22805530980E+02 -0.16224567888E+03 -0.76684356602E+03  0.78847070824E+03  0.82421177184E+02 0.  0.
         24    2    1    2    0    0  0.17004647659E+03  0.17555785296E+03 -0.10677819696E+04  0.10986110514E+04  0.83973470186E+02 0.  0.
         25    2    1    2    0    0  0.28780894030E+00 -0.51893649255E+02  0.69897830643E+02  0.15233517133E+03  0.12500905579E+03 0.  0.
        -11    1    4    4    0    0  0.17344686526E+03  0.14116532770E+03 -0.94029189295E+03  0.96651968876E+03  0.00000000000E+00 0.  1.
         12    1    4    4    0    0 -0.34003886722E+01  0.34392525261E+02 -0.12749007663E+03  0.13209136261E+03  0.00000000000E+00 0. -1.
        -13    1    3    3    0    0 -0.27682237084E+02 -0.45489901136E+02 -0.29573555973E+03  0.30049152840E+03  0.00000000000E+00 0.  1.
         14    1    3    3    0    0  0.50487768064E+02 -0.11675577774E+03 -0.47110800629E+03  0.48797917983E+03  0.00000000000E+00 0. -1.
          5    1    5    5  501    0  0.79146751819E+01 -0.86678380759E+02  0.17655845372E+02  0.88935946895E+02  0.47000000000E+01 0. -1.
         -5    1    5    5    0  501 -0.76268662416E+01  0.34784731504E+02  0.52241985271E+02  0.63399224439E+02  0.47000000000E+01 0. -1.
          1    1    1    2  502    0 -0.10397175135E+03  0.11735687778E+03 -0.11009749136E+04  0.11120829655E+04  0.00000000000E+00 0. -1.
          1    1    1    2  503    0 -0.89168065158E+02 -0.78775402608E+02  0.14259000092E+04  0.14308554589E+04  0.00000000000E+00 0. -1.
<mgrwt>
<rscale>  0 0.13661553E+03</rscale>
<asrwt>0</asrwt>
<pdfrwt beam="1">  1        2 0.23107006E+00 0.11898112E+03</pdfrwt>
<pdfrwt beam="2">  1        2 0.44280573E+00 0.15686356E+03</pdfrwt>
<totfact> 0.60513309E+00</totfact>
</mgrwt>
</event>
<event>
13    1  0.1942437E-008  0.5271053E+02  0.7546771E-02  0.1544309E+00
          2   -1    0    0  502    0  0.00000000000E+00  0.00000000000E+00  0.14718637862E+04  0.14718637862E+04  0.00000000000E+00 0. -1.
          2   -1    0    0  503    0 -0.00000000000E+00 -0.00000000000E+00 -0.35555825061E+04  0.35555825061E+04  0.00000000000E+00 0. -1.
         24    2    1    2    0    0 -0.22533336705E+02  0.42669583892E+02 -0.89564354986E+03  0.90043933221E+03  0.79279114142E+02 0.  0.
         24    2    1    2    0    0  0.15099371360E+03  0.13321154703E+03 -0.19009503965E+04  0.19133413941E+04  0.81966228039E+02 0.  0.
         25    2    1    2    0    0 -0.11646391684E+03 -0.21996557604E+03  0.14435180458E+03  0.31370581744E+03  0.12500079137E+03 0.  0.
        -13    1    4    4    0    0  0.19302843019E+02  0.48896683447E+00 -0.62670192130E+02  0.65577372765E+02  0.00000000000E+00 0.  1.
         14    1    4    4    0    0  0.13169087058E+03  0.13272258020E+03 -0.18382802044E+04  0.18477640213E+04  0.00000000000E+00 0. -1.
        -13    1    3    3    0    0 -0.14500817590E+02 -0.18906576793E+02 -0.12183148344E+03  0.12413960977E+03  0.00000000000E+00 0.  1.
         14    1    3    3    0    0 -0.80325191151E+01  0.61576160685E+02 -0.77381206642E+03  0.77629972244E+03  0.00000000000E+00 0. -1.
          5    1    5    5  501    0 -0.21715110835E+01 -0.13487260451E+03  0.57066857737E+02  0.14654027146E+03  0.47000000000E+01 0.  1.
         -5    1    5    5    0  501 -0.11429240576E+03 -0.85092971531E+02  0.87284946844E+02  0.16716554598E+03  0.47000000000E+01 0.  1.
          1    1    1    2  502    0 -0.35361810356E+02  0.39092048400E+02  0.12334641025E+04  0.12345899473E+04  0.00000000000E+00 0. -1.
          1    1    1    2  503    0  0.23365350306E+02  0.49923967162E+01 -0.66494068064E+03  0.66536980123E+03  0.00000000000E+00 0. -1.
<mgrwt>
<rscale>  0 0.35488022E+02</rscale>
<asrwt>0</asrwt>
<pdfrwt beam="1">  1        2 0.21645056E+00 0.52710531E+02</pdfrwt>
<pdfrwt beam="2">  1        2 0.52287977E+00 0.23892752E+02</pdfrwt>
<totfact> 0.51023296E+00</totfact>
</mgrwt>
</event>
<event>
13    1  0.1942437E-008  0.1242365E+03  0.7546771E-02  0.1397699E+00
          2   -1    0    0  502    0  0.00000000000E+00  0.00000000000E+00  0.19393394412E+04  0.19393394412E+04  0.00000000000E+00 0. -1.
          2   -1    0    0  503    0 -0.00000000000E+00 -0.00000000000E+00 -0.15798377264E+04  0.15798377264E+04  0.00000000000E+00 0. -1.
         24    2    1    2    0    0 -0.11413080396E+03  0.23124950464E+03 -0.29638463272E+03  0.40094685269E+03  0.80077177543E+02 0.  0.
         24    2    1    2    0    0  0.59613706433E+02 -0.60428417041E+02  0.21474340719E+03  0.24440407839E+03  0.80082676163E+02 0.  0.
         25    2    1    2    0    0 -0.82693345943E+02 -0.12015614838E+03  0.78578769954E+03  0.80892747311E+03  0.12500263419E+03 0.  0.
        -11    1    4    4    0    0  0.68199617317E+02 -0.43801323819E+02  0.20999970857E+03  0.22509913676E+03  0.00000000000E+00 0.  1.
         12    1    4    4    0    0 -0.85859108845E+01 -0.16627093222E+02  0.47436986189E+01  0.19304941629E+02  0.00000000000E+00 0. -1.
        -13    1    3    3    0    0 -0.12506934268E+03  0.19730825199E+03 -0.24631177453E+03  0.33947367653E+03  0.00000000000E+00 0.  1.
         14    1    3    3    0    0  0.10938538722E+02  0.33941252652E+02 -0.50072858184E+02  0.61473176164E+02  0.00000000000E+00 0. -1.
          5    1    5    5  501    0 -0.20509349444E+02 -0.12643724929E+03  0.56919764421E+03  0.58345099160E+03  0.47000000000E+01 0.  1.
         -5    1    5    5    0  501 -0.62183996498E+02  0.62811009063E+01  0.21659005533E+03  0.22547648151E+03  0.47000000000E+01 0.  1.
          1    1    1    2  502    0  0.16209942273E+02 -0.24055599067E+02  0.85669579691E+03  0.85718674892E+03  0.00000000000E+00 0. -1.
          1    1    1    2  503    0  0.12100050119E+03 -0.26609340150E+02 -0.12013405561E+04  0.12077120146E+04  0.00000000000E+00 0. -1.
<mgrwt>
<rscale>  0 0.60031550E+02</rscale>
<asrwt>0</asrwt>
<pdfrwt beam="1">  1        2 0.28519698E+00 0.29007483E+02</pdfrwt>
<pdfrwt beam="2">  1        2 0.23232908E+00 0.12423646E+03</pdfrwt>
<totfact> 0.25092320E+01</totfact>
</mgrwt>
</event>
<event>
13    1  0.1942437E-008  0.9601369E+02  0.7546771E-02  0.1342585E+00
          2   -1    0    0  503    0  0.00000000000E+00  0.00000000000E+00  0.33127321813E+04  0.33127321813E+04  0.00000000000E+00 0. -1.
         -1   -1    0    0    0  501 -0.00000000000E+00 -0.00000000000E+00 -0.53224260935E+03  0.53224260935E+03  0.00000000000E+00 0.  1.
         24    2    1    2    0    0  0.61928949502E+02 -0.74061141206E+02 -0.16133969052E+03  0.20402477974E+03  0.79217217745E+02 0.  0.
         24    2    1    2    0    0 -0.12937582476E+03  0.22956399840E+03  0.90942360705E+02  0.28979174474E+03  0.79189702341E+02 0.  0.
         25    2    1    2    0    0  0.75152277679E+02 -0.16369943090E+02  0.53708785364E+03  0.55677867568E+03  0.12499316500E+03 0.  0.
        -11    1    4    4    0    0 -0.11639044696E+03  0.14195245821E+03  0.81076062819E+02  0.20067527127E+03  0.00000000000E+00 0.  1.
         12    1    4    4    0    0 -0.12985377800E+02  0.87611540188E+02  0.98662978865E+01  0.89116473475E+02  0.00000000000E+00 0. -1.
        -13    1    3    3    0    0  0.59251250646E+02 -0.89706926253E+02 -0.14986421580E+03  0.18443786623E+03  0.00000000000E+00 0.  1.
         14    1    3    3    0    0  0.26776988567E+01  0.15645785046E+02 -0.11475474718E+02  0.19586913511E+02  0.00000000000E+00 0. -1.
          5    1    5    5  502    0 -0.23162335681E+02 -0.19040274599E+02  0.27732350371E+03  0.27897928518E+03  0.47000000000E+01 0.  1.
         -5    1    5    5    0  502  0.98314613360E+02  0.26703315087E+01  0.25976434993E+03  0.27779939050E+03  0.47000000000E+01 0.  1.
          1    1    1    2  503    0  0.27870929186E+02 -0.91766816203E+02  0.25495229356E+04  0.25513261525E+04  0.00000000000E+00 0. -1.
         -2    1    1    2    0  501 -0.35576331604E+02 -0.47366097901E+02 -0.23572388747E+03  0.24305343800E+03  0.00000000000E+00 0.  1.
<mgrwt>
<rscale>  0 0.75417011E+02</rscale>
<asrwt>0</asrwt>
<pdfrwt beam="1">  1        2 0.48716649E+00 0.96013692E+02</pdfrwt>
<pdfrwt beam="2">  1       -1 0.78270973E-01 0.59238692E+02</pdfrwt>
<totfact> 0.40386357E+00</totfact>
</mgrwt>
</event>
<event>
13    1  0.1942437E-008  0.1176029E+03  0.7546771E-02  0.1302561E+00
          2   -1    0    0  503    0  0.00000000000E+00  0.00000000000E+00  0.23086035497E+04  0.23086035497E+04  0.00000000000E+00 0. -1.
         -1   -1    0    0    0  501 -0.00000000000E+00 -0.00000000000E+00 -0.16548528103E+04  0.16548528103E+04  0.00000000000E+00 0.  1.
         24    2    1    2    0    0  0.58419810849E+01  0.88785522302E+02 -0.25785308389E+03  0.28506226848E+03  0.82796656489E+02 0.  0.
         24    2    1    2    0    0  0.61028115668E+02 -0.95394424561E+02 -0.26786772334E+03  0.30197661359E+03  0.81315624632E+02 0.  0.
         25    2    1    2    0    0 -0.94739687155E+02  0.68123122856E+02 -0.18231944058E+02  0.17196726358E+03  0.12499587100E+03 0.  0.
        -11    1    4    4    0    0  0.28408833610E+02 -0.98817392103E+02 -0.22963532527E+03  0.25160350042E+03  0.00000000000E+00 0.  1.
         12    1    4    4    0    0  0.32619282058E+02  0.34229675413E+01 -0.38232398062E+02  0.50373113169E+02  0.00000000000E+00 0. -1.
        -13    1    3    3    0    0 -0.26228101823E+02  0.58957134890E+02 -0.84837186178E+02  0.10658895458E+03  0.00000000000E+00 0.  1.
         14    1    3    3    0    0  0.32070082908E+02  0.29828387412E+02 -0.17301589772E+03  0.17847331390E+03  0.00000000000E+00 0. -1.
          5    1    5    5  502    0 -0.39576193678E+02  0.21986876441E+02  0.53529349743E+02  0.70265063336E+02  0.47000000000E+01 0. -1.
         -5    1    5    5    0  502 -0.55163493477E+02  0.46136246414E+02 -0.71761293802E+02  0.10170220024E+03  0.47000000000E+01 0. -1.
          1    1    1    2  503    0  0.38115065459E+02  0.57588832251E+02  0.21969717394E+04  0.21980568817E+04  0.00000000000E+00 0. -1.
         -2    1    1    2    0  501 -0.10245475057E+02 -0.11910305285E+03 -0.99926824871E+03  0.10063933326E+04  0.00000000000E+00 0.  1.
<mgrwt>
<rscale>  0 0.90119984E+02</rscale>
<asrwt>0</asrwt>
<pdfrwt beam="1">  1        2 0.33950052E+00 0.69059625E+02</pdfrwt>
<pdfrwt beam="2">  1       -1 0.24336071E+00 0.11760289E+03</pdfrwt>
<totfact> 0.74628065E-01</totfact>
</mgrwt>
</event>
<event>
13    1  0.1942437E-008  0.1675421E+03  0.7546771E-02  0.1317589E+00
          2   -1    0    0  502    0  0.00000000000E+00  0.00000000000E+00  0.20574754951E+04  0.20574754951E+04  0.00000000000E+00 0. -1.
          2   -1    0    0  503    0 -0.00000000000E+00 -0.00000000000E+00 -0.37214545408E+04  0.37214545408E+04  0.00000000000E+00 0. -1.
         24    2    1    2    0    0 -0.11594164675E+03 -0.13782988600E+03  0.14328580982E+03  0.24527131048E+03  0.84780006616E+02 0.  0.
         24    2    1    2    0    0  0.13989448439E+03 -0.32476460572E+02  0.39892542301E+03  0.43169037351E+03  0.81178187972E+02 0.  0.
         25    2    1    2    0    0 -0.55328049123E+02 -0.82356021814E+01  0.51414605226E+03  0.53207203598E+03  0.12500188103E+03 0.  0.
        -11    1    3    3    0    0 -0.95127452869E+02 -0.73846083897E+02  0.50331826661E+02  0.13052114454E+03  0.00000000000E+00 0.  1.
         12    1    3    3    0    0 -0.20814193886E+02 -0.63983802106E+02  0.92953983160E+02  0.11475016594E+03  0.00000000000E+00 0. -1.
        -13    1    4    4    0    0  0.71226541244E+02 -0.56192800672E+02  0.25089403645E+03  0.26679330680E+03  0.00000000000E+00 0.  1.
         14    1    4    4    0    0  0.68667943146E+02  0.23716340099E+02  0.14803138656E+03  0.16489706671E+03  0.00000000000E+00 0. -1.
          5    1    5    5  501    0  0.21435557593E+01  0.36803153684E+01 -0.59242562751E+01  0.86790762710E+01  0.47000000000E+01 0.  1.
         -5    1    5    5    0  501 -0.57471604882E+02 -0.11915917550E+02  0.52007030853E+03  0.52339295971E+03  0.47000000000E+01 0.  1.
          1    1    1    2  502    0 -0.10907982213E+02  0.17748862680E+03  0.91610756770E+03  0.93320644679E+03  0.00000000000E+00 0. -1.
          1    1    1    2  503    0  0.42283193700E+02  0.10533219588E+01 -0.36364438984E+04  0.36366898692E+04  0.00000000000E+00 0. -1.
<mgrwt>
<rscale>  0 0.84180824E+02</rscale>
<asrwt>0</asrwt>
<pdfrwt beam="1">  1        2 0.30256993E+00 0.16754206E+03</pdfrwt>
<pdfrwt beam="2">  1        2 0.54727272E+00 0.42296311E+02</pdfrwt>
<totfact> 0.16884433E+00</totfact>
</mgrwt>
</event>
<event>
13    1  0.1942437E-008  0.8553454E+02  0.7546771E-02  0.1500522E+00
          2   -1    0    0  502    0  0.00000000000E+00  0.00000000000E+00  0.33409064770E+03  0.33409064770E+03  0.00000000000E+00 0. -1.
          2   -1    0    0  503    0 -0.00000000000E+00 -0.00000000000E+00 -0.36533194879E+04  0.36533194879E+04  0.00000000000E+00 0. -1.
         24    2    1    2    0    0 -0.18262751812E+02  0.63448469063E+02 -0.38861368426E+03  0.40226749230E+03  0.80245270502E+02 0.  0.
         24    2    1    2    0    0  0.54224421293E+02 -0.53895482198E+02 -0.27635393994E+03  0.29832258037E+03  0.82339850464E+02 0.  0.
         25    2    1    2    0    0 -0.36295831209E+02  0.12491641285E+03  0.12645505312E+03  0.22031449080E+03  0.12500438726E+03 0.  0.
        -11    1    3    3    0    0  0.15219760123E+02  0.67929787281E+02 -0.24209026743E+03  0.25190036658E+03  0.00000000000E+00 0.  1.
         12    1    3    3    0    0 -0.33482511935E+02 -0.44813182176E+01 -0.14652341682E+03  0.15036712572E+03  0.00000000000E+00 0. -1.
        -13    1    4    4    0    0  0.64988663775E+02 -0.96024065497E+01 -0.14233682116E+03  0.15676575930E+03  0.00000000000E+00 0.  1.
         14    1    4    4    0    0 -0.10764242481E+02 -0.44293075649E+02 -0.13401711877E+03  0.14155682107E+03  0.00000000000E+00 0. -1.
          5    1    5    5  501    0 -0.52777185221E+02  0.12031379671E+03  0.14425988656E+03  0.19517644793E+03  0.47000000000E+01 0.  1.
         -5    1    5    5    0  501  0.16481354012E+02  0.46026161423E+01 -0.17804833437E+02  0.25138042866E+02  0.47000000000E+01 0.  1.
          1    1    1    2  502    0  0.14023619570E+02 -0.13856611218E+02  0.14094832848E+03  0.14232040923E+03  0.00000000000E+00 0. -1.
          1    1    1    2  503    0 -0.13689457841E+02 -0.12061278850E+03 -0.29216645977E+04  0.29241851630E+04  0.00000000000E+00 0. -1.
<mgrwt>
<rscale>  0 0.41064386E+02</rscale>
<asrwt>0</asrwt>
<pdfrwt beam="1">  1        2 0.49130976E-01 0.19714654E+02</pdfrwt>
<pdfrwt beam="2">  1        2 0.53725288E+00 0.85534537E+02</pdfrwt>
<totfact> 0.19688676E+01</totfact>
</mgrwt>
</event>
<event>
13    1  0.1942437E-008  0.1198921E+03  0.7546771E-02  0.1302442E+00
          2   -1    0    0  503    0  0.00000000000E+00  0.00000000000E+00  0.33543555519E+04  0.33543555519E+04  0.00000000000E+00 0. -1.
          2   -1    0    0  502    0 -0.00000000000E+00 -0.00000000000E+00 -0.18152538417E+04  0.18152538417E+04  0.00000000000E+00 0. -1.
         24    2    1    2    0    0  0.11900272609E+03 -0.64752011820E+02  0.38099991861E+02  0.16131957590E+03  0.78853816259E+02 0.  0.
         24    2    1    2    0    0  0.55811695094E+01  0.85914284994E+02  0.99276954943E+02  0.15416911134E+03  0.80621258299E+02 0.  0.
         25    2    1    2    0    0 -0.96075771957E+02 -0.90431091475E+02  0.58190005366E+03  0.60962203232E+03  0.12499205409E+03 0.  0.
        -13    1    3    3    0    0  0.12684991810E+03 -0.65497416265E+02  0.46167123961E+02  0.15004071645E+03  0.00000000000E+00 0.  1.
         14    1    3    3    0    0 -0.78471920081E+01  0.74540444539E+00 -0.80671321003E+01  0.11278859451E+02  0.00000000000E+00 0. -1.
        -13    1    4    4    0    0  0.22105306620E+02  0.83102227556E+01  0.62312279528E+02  0.66637261071E+02  0.00000000000E+00 0.  1.
         14    1    4    4    0    0 -0.16524137110E+02  0.77604062238E+02  0.36964675415E+02  0.87531850270E+02  0.00000000000E+00 0. -1.
          5    1    5    5  501    0 -0.47606144448E+02 -0.11363146531E+03  0.33681060038E+03  0.35866687250E+03  0.47000000000E+01 0. -1.
         -5    1    5    5    0  501 -0.48469627509E+02  0.23200373832E+02  0.24508945327E+03  0.25095515983E+03  0.47000000000E+01 0. -1.
          1    1    1    2  502    0  0.18229692567E+02  0.11840656526E+03 -0.17097865511E+04  0.17139785549E+04  0.00000000000E+00 0. -1.
          1    1    1    2  503    0 -0.46737816210E+02 -0.49137746958E+02  0.25296112609E+04  0.25305201191E+04  0.00000000000E+00 0. -1.
<mgrwt>
<rscale>  0 0.90169533E+02</rscale>
<asrwt>0</asrwt>
<pdfrwt beam="1">  1        2 0.49328758E+00 0.67815497E+02</pdfrwt>
<pdfrwt beam="2">  1        2 0.26694909E+00 0.11989213E+03</pdfrwt>
<totfact> 0.34052217E+00</totfact>
</mgrwt>
</event>
<event>
13    1  0.1942437E-008  0.1309354E+03  0.7546771E-02  0.1360032E+00
          2   -1    0    0  502    0  0.00000000000E+00  0.00000000000E+00  0.39890998153E+04  0.39890998153E+04  0.00000000000E+00 0. -1.
          2   -1    0    0  503    0 -0.00000000000E+00 -0.00000000000E+00 -0.94547339302E+03  0.94547339302E+03  0.00000000000E+00 0. -1.
         24    2    1    2    0    0 -0.47153701615E+03 -0.65595183321E+03  0.17574710669E+03  0.83060607146E+03  0.79996470823E+02 0.  0.
         24    2    1    2    0    0  0.96861190598E+03  0.74334007348E+03  0.73112511081E+03  0.14263635910E+04  0.95946217810E+02 0.  0.
         25    2    1    2    0    0 -0.34785794784E+03 -0.45109450831E+02  0.52705734490E+03  0.64533395495E+03  0.12500581654E+03 0.  0.
        -11    1    4    4    0    0  0.50722154260E+03  0.35831652778E+03  0.41953909381E+03  0.74945145179E+03  0.00000000000E+00 0.  1.
         12    1    4    4    0    0  0.46139036338E+03  0.38502354570E+03  0.31158601700E+03  0.67691213917E+03  0.00000000000E+00 0. -1.
        -13    1    3    3    0    0 -0.34430033019E+03 -0.53463636536E+03  0.14275278551E+03  0.65173393215E+03  0.00000000000E+00 0.  1.
         14    1    3    3    0    0 -0.12723668596E+03 -0.12131546785E+03  0.32994321182E+02  0.17887213931E+03  0.00000000000E+00 0. -1.
          5    1    5    5  501    0 -0.20917062351E+03  0.10705543034E+01  0.21134412728E+03  0.29739187273E+03  0.47000000000E+01 0. -1.
         -5    1    5    5    0  501 -0.13868732433E+03 -0.46180005135E+02  0.31571321762E+03  0.34794208222E+03  0.47000000000E+01 0. -1.
          1    1    1    2  502    0 -0.33022080509E+02  0.17648635657E+02  0.18005455662E+04  0.18009348317E+04  0.00000000000E+00 0. -1.
          1    1    1    2  503    0 -0.11619486148E+03 -0.59927425093E+02 -0.19084870633E+03  0.23133475922E+03  0.00000000000E+00 0. -1.
<mgrwt>
<rscale>  0 0.70018098E+02</rscale>
<asrwt>0</asrwt>
<pdfrwt beam="1">  1        2 0.58663232E+00 0.37442384E+02</pdfrwt>
<pdfrwt beam="2">  1        2 0.13904021E+00 0.13093541E+03</pdfrwt>
<totfact> 0.45396602E+00</totfact>
</mgrwt>
</event>
<event>
13    1  0.1942437E-008  0.1450086E+03  0.7546771E-02  0.1409825E+00
          4   -1    0    0  503    0 -0.00000000000E+00  0.00000000000E+00  0.41286954317E+03  0.41286954317E+03  0.00000000000E+00 0. -1.
          2   -1    0    0  502    0  0.00000000000E+00 -0.00000000000E+00 -0.11539084005E+04  0.11539084005E+04  0.00000000000E+00 0. -1.
         24    2    1    2    0    0 -0.10764716801E+02 -0.78179679811E+02  0.58423814262E+02  0.12235895840E+03  0.73009801844E+02 0.  0.
         24    2    1    2    0    0  0.19870747883E+02  0.37098358774E+02 -0.68032192692E+02  0.11205011117E+03  0.78458354088E+02 0.  0.
         25    2    1    2    0    0  0.79880349234E+02  0.15619828632E+03 -0.27945062245E+03  0.35284044291E+03  0.12499981167E+03 0.  0.
        -11    1    3    3    0    0  0.27228624667E+02 -0.23588461839E+02  0.36734089550E+01  0.36211979600E+02  0.00000000000E+00 0.  1.
         12    1    3    3    0    0 -0.37993341468E+02 -0.54591217972E+02  0.54750405307E+02  0.86146978803E+02  0.00000000000E+00 0. -1.
        -11    1    4    4    0    0  0.25835039939E+02  0.48885021745E+02 -0.14849225762E+02  0.57251149730E+02  0.00000000000E+00 0.  1.
         12    1    4    4    0    0 -0.59642920563E+01 -0.11786662971E+02 -0.53182966930E+02  0.54798961443E+02  0.00000000000E+00 0. -1.
          5    1    5    5  501    0  0.31114534063E+02  0.15687153189E+03 -0.24622085723E+03  0.29363854019E+03  0.47000000000E+01 0.  1.
         -5    1    5    5    0  501  0.48765815171E+02 -0.67324556744E+00 -0.33229765220E+02  0.59201902718E+02  0.47000000000E+01 0.  1.
          1    1    1    2  502    0 -0.67464196241E+02 -0.12197684647E+03 -0.70846656964E+03  0.72204892434E+03  0.00000000000E+00 0. -1.
          3    1    1    2  503    0 -0.21522184074E+02  0.68598811907E+01  0.25648671322E+03  0.25747950683E+03  0.00000000000E+00 0. -1.
<mgrwt>
<rscale>  0 0.57232831E+02</rscale>
<asrwt>0</asrwt>
<pdfrwt beam="2">  1        2 0.16969241E+00 0.14500858E+03</pdfrwt>
<pdfrwt beam="1">  1        4 0.60716109E-01 0.22588988E+02</pdfrwt>
<totfact> 0.26364037E+01</totfact>
</mgrwt>
</event>
<event>
13    1  0.1942437E-008  0.1329761E+03  0.7546771E-02  0.1373811E+00
          2   -1    0    0  502    0  0.00000000000E+00  0.00000000000E+00  0.16414574617E+04  0.16414574617E+04  0.00000000000E+00 0. -1.
          2   -1    0    0  503    0 -0.00000000000E+00 -0.00000000000E+00 -0.10761261033E+04  0.10761261033E+04  0.00000000000E+00 0. -1.
         24    2    1    2    0    0  0.31289556287E+02  0.14485262160E+02  0.51813586287E+02  0.80728244295E+02  0.51415392156E+02 0.  0.
         24    2    1    2    0    0  0.80729952852E+02  0.50107699374E+02  0.52489151772E+01  0.12388113631E+03  0.79315055305E+02 0.  0.
         25    2    1    2    0    0 -0.13825821078E+02 -0.16409319312E+03  0.45965496301E+03  0.50400898210E+03  0.12499855862E+03 0.  0.
        -11    1    3    3    0    0 -0.10443322620E+02  0.12127848564E+02  0.28962557240E+02  0.33090443032E+02  0.00000000000E+00 0.  1.
         12    1    3    3    0    0  0.41732878907E+02  0.23574135963E+01  0.22851029047E+02  0.47637801264E+02  0.00000000000E+00 0. -1.
        -13    1    4    4    0    0  0.16200264876E+02  0.47907235561E+02  0.24927111034E+02  0.56381846951E+02  0.00000000000E+00 0.  1.
         14    1    4    4    0    0  0.64529687976E+02  0.22004638132E+01 -0.19678195857E+02  0.67499289355E+02  0.00000000000E+00 0. -1.
          5    1    5    5  501    0 -0.17315125182E+02 -0.26453883484E+02  0.25689204564E+03  0.25887300868E+03  0.47000000000E+01 0. -1.
         -5    1    5    5    0  501  0.34893041040E+01 -0.13763930964E+03  0.20276291737E+03  0.24513597342E+03  0.47000000000E+01 0. -1.
          1    1    1    2  502    0 -0.11370457273E+03  0.70513313367E+02  0.10241614952E+04  0.10328637981E+04  0.00000000000E+00 0. -1.
          1    1    1    2  503    0  0.15510884672E+02  0.28986918223E+02 -0.97554760126E+03  0.97610140421E+03  0.00000000000E+00 0. -1.
<mgrwt>
<rscale>  0 0.66118957E+02</rscale>
<asrwt>0</asrwt>
<pdfrwt beam="1">  1        2 0.24139080E+00 0.13297607E+03</pdfrwt>
<pdfrwt beam="2">  1        2 0.15825384E+00 0.32875963E+02</pdfrwt>
<totfact> 0.58662935E+01</totfact>
</mgrwt>
</event>
<event>
13    1  0.1942437E-008  0.1739106E+03  0.7546771E-02  0.1220029E+00
          2   -1    0    0  502    0  0.00000000000E+00  0.00000000000E+00  0.24727422681E+04  0.24727422681E+04  0.00000000000E+00 0. -1.
          2   -1    0    0  503    0 -0.00000000000E+00 -0.00000000000E+00 -0.28544631390E+04  0.28544631390E+04  0.00000000000E+00 0. -1.
         24    2    1    2    0    0 -0.50432958727E+02  0.12022784610E+03 -0.12141527429E+03  0.19801387557E+03  0.86426892707E+02 0.  0.
         24    2    1    2    0    0  0.53031337888E+02  0.27503517380E+02  0.15358472008E+03  0.18367514820E+03  0.81114287015E+02 0.  0.
         25    2    1    2    0    0  0.14741749333E+03  0.82524117594E+02  0.10271144486E+04  0.10483943753E+04  0.12499811324E+03 0.  0.
        -11    1    4    4    0    0 -0.21828027303E+02  0.90400509359E+01  0.34928967960E+02  0.42168923387E+02  0.00000000000E+00 0.  1.
         12    1    4    4    0    0  0.74859365191E+02  0.18463466445E+02  0.11865575212E+03  0.14150622482E+03  0.00000000000E+00 0. -1.
        -13    1    3    3    0    0 -0.63548071734E+02  0.10182512765E+03 -0.12699107798E+03  0.17473822687E+03  0.00000000000E+00 0.  1.
         14    1    3    3    0    0  0.13115113008E+02  0.18402718448E+02  0.55758036933E+01  0.23275648698E+02  0.00000000000E+00 0. -1.
          5    1    5    5  501    0 -0.17826743986E+02  0.32564076602E+02  0.19112810532E+03  0.19475691138E+03  0.47000000000E+01 0. -1.
         -5    1    5    5    0  501  0.16524423731E+03  0.49960040992E+02  0.83598634332E+03  0.85363746396E+03  0.47000000000E+01 0. -1.
          1    1    1    2  502    0 -0.11005016584E+03  0.57967892632E+02  0.12169484654E+04  0.12232885526E+04  0.00000000000E+00 0. -1.
          1    1    1    2  503    0 -0.39965706652E+02 -0.28822337370E+03 -0.26579532306E+04  0.26738334554E+04  0.00000000000E+00 0. -1.
<mgrwt>
<rscale>  0 0.13513496E+03</rscale>
<asrwt>0</asrwt>
<pdfrwt beam="1">  1        2 0.36363857E+00 0.10500484E+03</pdfrwt>
<pdfrwt beam="2">  1        2 0.41977399E+00 0.17391061E+03</pdfrwt>
<totfact> 0.26636611E+00</totfact>
</mgrwt>
</event>
<event>
13    1  0.1942437E-008  0.8834416E+02  0.7546771E-02  0.1474729E+00
          2   -1    0    0  503    0  0.00000000000E+00  0.00000000000E+00  0.14511146999E+04  0.14511146999E+04  0.00000000000E+00 0. -1.
          2   -1    0    0  502    0 -0.00000000000E+00 -0.00000000000E+00 -0.40326403272E+03  0.40326403272E+03  0.00000000000E+00 0. -1.
         24    2    1    2    0    0  0.21102176074E+02 -0.16997202238E+02 -0.74895254643E+02  0.11884538182E+03  0.88208383342E+02 0.  0.
         24    2    1    2    0    0  0.64887043599E+02 -0.10971289504E+02 -0.20130538174E+02  0.10572628325E+03  0.80262760869E+02 0.  0.
         25    2    1    2    0    0 -0.46177773733E+02  0.81169659881E+02  0.21940032797E+03  0.26922562295E+03  0.12500012666E+03 0.  0.
        -13    1    4    4    0    0  0.50645395478E+02 -0.39681257090E+02 -0.31608845952E+02  0.71684568701E+02  0.00000000000E+00 0.  1.
         14    1    4    4    0    0  0.14241648121E+02  0.28709967587E+02  0.11478307778E+02  0.34041714549E+02  0.00000000000E+00 0. -1.
        -13    1    3    3    0    0  0.46335789465E+02 -0.25677131895E+02 -0.75407905058E+02  0.92155697777E+02  0.00000000000E+00 0.  1.
         14    1    3    3    0    0 -0.25233613390E+02  0.86799296569E+01  0.51265041496E+00  0.26689684038E+02  0.00000000000E+00 0. -1.
          5    1    5    5  501    0  0.25758300385E+02 -0.17813041463E+02  0.29570566756E+02  0.43327853664E+02  0.47000000000E+01 0. -1.
         -5    1    5    5    0  501 -0.71936074118E+02  0.98982701343E+02  0.18982976121E+03  0.22589776928E+03  0.47000000000E+01 0. -1.
          1    1    1    2  502    0 -0.49732807409E+02 -0.73794371326E+02 -0.20937416371E+03  0.22750055341E+03  0.00000000000E+00 0. -1.
          1    1    1    2  503    0  0.99213614688E+01  0.20593203187E+02  0.11328502957E+04  0.11330808912E+04  0.00000000000E+00 0. -1.
<mgrwt>
<rscale>  0 0.44937954E+02</rscale>
<asrwt>0</asrwt>
<pdfrwt beam="1">  1        2 0.21339922E+00 0.22858553E+02</pdfrwt>
<pdfrwt beam="2">  1        2 0.59303535E-01 0.88344163E+02</pdfrwt>
<totfact> 0.24732242E+02</totfact>
</mgrwt>
</event>
<event>
13    1  0.1942437E-008  0.1118217E+03  0.7546771E-02  0.1275511E+00
          2   -1    0    0  503    0  0.00000000000E+00  0.00000000000E+00  0.46379404335E+04  0.46379404335E+04  0.00000000000E+00 0. -1.
          2   -1    0    0  502    0 -0.00000000000E+00 -0.00000000000E+00 -0.11441705485E+04  0.11441705485E+04  0.00000000000E+00 0. -1.
         24    2    1    2    0    0  0.37216518588E+02 -0.25150670158E+03 -0.31238753166E+03  0.41078090594E+03  0.80711167474E+02 0.  0.
         24    2    1    2    0    0 -0.98815687795E+03  0.25839009782E+03  0.12187118906E+04  0.15912700205E+04  0.60515680983E+02 0.  0.
         25    2    1    2    0    0  0.96883664368E+03 -0.84705834142E+00  0.97503771631E+03  0.13802059497E+04  0.12499902255E+03 0.  0.
        -13    1    4    4    0    0 -0.67517886177E+03  0.14996734234E+03  0.84234616209E+03  0.10899099761E+04  0.00000000000E+00 0.  1.
         14    1    4    4    0    0 -0.31297801617E+03  0.10842275548E+03  0.37636572853E+03  0.50136004441E+03  0.00000000000E+00 0. -1.
        -13    1    3    3    0    0  0.18996270226E+02 -0.20428500752E+03 -0.19546085378E+03  0.28336931369E+03  0.00000000000E+00 0.  1.
         14    1    3    3    0    0  0.18220248361E+02 -0.47221694055E+02 -0.11692667788E+03  0.12741159225E+03  0.00000000000E+00 0. -1.
          5    1    5    5  501    0  0.64911117064E+03  0.32959929448E+02  0.58252702867E+03  0.87280667844E+03  0.47000000000E+01 0.  1.
         -5    1    5    5    0  501  0.31972547304E+03 -0.33806987789E+02  0.39251068764E+03  0.50739927123E+03  0.47000000000E+01 0.  1.
          1    1    1    2  502    0 -0.11101402301E+03 -0.15603626245E+02 -0.38462456992E+03  0.40062906315E+03  0.00000000000E+00 0. -1.
          1    1    1    2  503    0  0.93117738684E+02  0.95672883455E+01  0.19970323796E+04  0.19992250428E+04  0.00000000000E+00 0. -1.
<mgrwt>
<rscale>  0 0.10231030E+03</rscale>
<asrwt>0</asrwt>
<pdfrwt beam="1">  1        2 0.68205006E+00 0.93607939E+02</pdfrwt>
<pdfrwt beam="2">  1        2 0.16826038E+00 0.11182168E+03</pdfrwt>
<totfact> 0.94842120E-01</totfact>
</mgrwt>
</event>
<event>
13    1  0.1942437E-008  0.6363300E+02  0.7546771E-02  0.1388136E+00
          2   -1    0    0  502    0  0.00000000000E+00  0.00000000000E+00  0.19800611526E+04  0.19800611526E+04  0.00000000000E+00 0. -1.
          2   -1    0    0  503    0 -0.00000000000E+00 -0.00000000000E+00 -0.21205169909E+04  0.21205169909E+04  0.00000000000E+00 0. -1.
         24    2    1    2    0    0 -0.16075753948E+03  0.21316400672E+02 -0.65662775866E+02  0.19245757705E+03  0.80193162999E+02 0.  0.
         24    2    1    2    0    0 -0.12464411622E+03  0.79724082749E+02  0.57211234044E+02  0.17689260945E+03  0.78267393594E+02 0.  0.
         25    2    1    2    0    0  0.30582682047E+03  0.70600639406E+01  0.52432381806E+03  0.61977463102E+03  0.12500095379E+03 0.  0.
        -11    1    4    4    0    0 -0.30038830832E+02  0.63988091436E+02  0.32813447780E+02  0.77932852883E+02  0.00000000000E+00 0.  1.
         12    1    4    4    0    0 -0.94605285386E+02  0.15735991313E+02  0.24397786264E+02  0.98959756569E+02  0.00000000000E+00 0. -1.
        -11    1    3    3    0    0 -0.60718454160E+02  0.47262613142E+02 -0.35904990872E+02  0.84909679343E+02  0.00000000000E+00 0.  1.
         12    1    3    3    0    0 -0.10003908532E+03 -0.25946212470E+02 -0.29757784994E+02  0.10754789770E+03  0.00000000000E+00 0. -1.
          5    1    5    5  501    0  0.55461809332E+02 -0.30986634870E+02  0.18963896223E+03  0.20005301755E+03  0.47000000000E+01 0. -1.
         -5    1    5    5    0  501  0.25036501114E+03  0.38046698810E+02  0.33468485583E+03  0.41972161347E+03  0.47000000000E+01 0. -1.
          1    1    1    2  502    0  0.18326301576E+02 -0.60813398218E+02  0.12262444705E+04  0.12278882783E+04  0.00000000000E+00 0. -1.
          1    1    1    2  503    0 -0.38751466352E+02 -0.47287149143E+02 -0.18825725850E+04  0.18835650476E+04  0.00000000000E+00 0. -1.
<mgrwt>
<rscale>  0 0.62372591E+02</rscale>
<asrwt>0</asrwt>
<pdfrwt beam="1">  1        2 0.29118546E+00 0.63633002E+02</pdfrwt>
<pdfrwt beam="2">  1        2 0.31184073E+00 0.61137146E+02</pdfrwt>
<totfact> 0.12966295E+01</totfact>
</mgrwt>
</event>
<event>
13    1  0.1942437E-008  0.4611101E+02  0.7546771E-02  0.1524760E+00
          2   -1    0    0  503    0  0.00000000000E+00  0.00000000000E+00  0.41381691953E+04  0.41381691953E+04  0.00000000000E+00 0. -1.
         -1   -1    0    0    0  501 -0.00000000000E+00 -0.00000000000E+00 -0.15214597050E+03  0.15214597050E+03  0.00000000000E+00 0.  1.
         24    2    1    2    0    0 -0.67279275143E+02  0.63046093783E+01 -0.64139629858E+02  0.12170052651E+03  0.78299917438E+02 0.  0.
         24    2    1    2    0    0  0.34104325106E+02 -0.41836313127E+02  0.87547693034E+02  0.12990830913E+03  0.79361124853E+02 0.  0.
         25    2    1    2    0    0  0.80000122043E+02  0.20645902170E+02  0.28616672469E+04  0.28655872778E+04  0.12499896775E+03 0.  0.
        -13    1    3    3    0    0 -0.84122370218E+02 -0.28219384287E+01 -0.54293727223E+02  0.10016159605E+03  0.00000000000E+00 0.  1.
         14    1    3    3    0    0  0.16843095075E+02  0.91265478070E+01 -0.98459026357E+01  0.21538930458E+02  0.00000000000E+00 0. -1.
        -13    1    4    4    0    0  0.46595186981E+02 -0.17503942922E+02  0.89582229027E+02  0.10248158481E+03  0.00000000000E+00 0.  1.
         14    1    4    4    0    0 -0.12490861874E+02 -0.24332370205E+02 -0.20345359931E+01  0.27426724319E+02  0.00000000000E+00 0. -1.
          5    1    5    5  502    0  0.46278333040E+02 -0.27026521510E+02  0.44937554857E+03  0.45258434642E+03  0.47000000000E+01 0. -1.
         -5    1    5    5    0  502  0.33721789003E+02  0.47672423679E+02  0.24122916984E+04  0.24130029314E+04  0.47000000000E+01 0. -1.
          1    1    1    2  503    0 -0.20691333778E+02 -0.23147960818E+02  0.11219769728E+04  0.11224064713E+04  0.00000000000E+00 0. -1.
         -2    1    1    2    0  501 -0.26133838228E+02  0.38033762397E+02 -0.21029058135E+02  0.50712580970E+02  0.00000000000E+00 0.  1.
<mgrwt>
<rscale>  0 0.37837025E+02</rscale>
<asrwt>0</asrwt>
<pdfrwt beam="1">  1        2 0.60855422E+00 0.31047695E+02</pdfrwt>
<pdfrwt beam="2">  1       -1 0.22374410E-01 0.46111007E+02</pdfrwt>
<totfact> 0.14170064E+01</totfact>
</mgrwt>
</event>
<event>
13    1  0.1942437E-008  0.5568928E+02  0.7546771E-02  0.1535305E+00
          2   -1    0    0  503    0  0.00000000000E+00  0.00000000000E+00  0.11672000237E+04  0.11672000237E+04  0.00000000000E+00 0. -1.
          2   -1    0    0  502    0 -0.00000000000E+00 -0.00000000000E+00 -0.53716233104E+03  0.53716233104E+03  0.00000000000E+00 0. -1.
         24    2    1    2    0    0 -0.52000875860E+02  0.12801430544E+03 -0.32904270260E+03  0.36596512160E+03  0.81053171484E+02 0.  0.
         24    2    1    2    0    0  0.10805438520E+03 -0.86469754910E+02 -0.68619041299E+02  0.17420636174E+03  0.80538903425E+02 0.  0.
         25    2    1    2    0    0  0.11989298502E+02 -0.29722627672E+02  0.49321058240E+03  0.50981033249E+03  0.12499087425E+03 0.  0.
        -13    1    4    4    0    0  0.96994806898E+01 -0.54950397337E+02 -0.14731993326E+02  0.57711850780E+02  0.00000000000E+00 0.  1.
         14    1    4    4    0    0  0.98354904514E+02 -0.31519357573E+02 -0.53887047974E+02  0.11649451096E+03  0.00000000000E+00 0. -1.
        -13    1    3    3    0    0 -0.33496373901E+02  0.70373117161E+01 -0.43886072960E+02  0.55655352128E+02  0.00000000000E+00 0.  1.
         14    1    3    3    0    0 -0.18504501960E+02  0.12097699373E+03 -0.28515662964E+03  0.31030976947E+03  0.00000000000E+00 0. -1.
          5    1    5    5  501    0  0.45042073729E+02  0.32097995738E+02  0.27575043378E+03  0.28128181859E+03  0.47000000000E+01 0.  1.
         -5    1    5    5    0  501 -0.33052775227E+02 -0.61820623410E+02  0.21746014862E+03  0.22852851391E+03  0.47000000000E+01 0.  1.
          1    1    1    2  502    0 -0.19039709206E+02  0.14578647842E+02 -0.56185694253E+02  0.61089113091E+02  0.00000000000E+00 0. -1.
          1    1    1    2  503    0 -0.49003098640E+02 -0.26400570704E+02  0.59067454843E+03  0.59329142584E+03  0.00000000000E+00 0. -1.
<mgrwt>
<rscale>  0 0.36543633E+02</rscale>
<asrwt>0</asrwt>
<pdfrwt beam="1">  1        2 0.17164706E+00 0.55689277E+02</pdfrwt>
<pdfrwt beam="2">  1        2 0.78994460E-01 0.23980148E+02</pdfrwt>
<totfact> 0.23869280E+02</totfact>
</mgrwt>
</event>
<event>
13    1  0.1942437E-008  0.1796034E+03  0.7546771E-02  0.1462470E+00
          2   -1    0    0  503    0  0.00000000000E+00  0.00000000000E+00  0.30845425591E+04  0.30845425591E+04  0.00000000000E+00 0. -1.
          2   -1    0    0  502    0 -0.00000000000E+00 -0.00000000000E+00 -0.30625895894E+03  0.30625895894E+03  0.00000000000E+00 0. -1.
         24    2    1    2    0    0  0.35988656758E+01  0.60067883794E+02  0.13651535855E+03  0.16834370763E+03  0.77987552088E+02 0.  0.
         24    2    1    2    0    0  0.46169528203E+02  0.12818718480E+02  0.36070100575E+03  0.37234808693E+03  0.79005932769E+02 0.  0.
         25    2    1    2    0    0  0.83108912232E+02  0.39674674189E+02  0.22135858136E+04  0.22190238270E+04  0.12499367961E+03 0.  0.
        -13    1    4    4    0    0 -0.14689550106E+02  0.14806195743E+01  0.19336849583E+03  0.19393130304E+03  0.00000000000E+00 0.  1.
         14    1    4    4    0    0  0.60859078310E+02  0.11338098906E+02  0.16733250992E+03  0.17841678389E+03  0.00000000000E+00 0. -1.
        -13    1    3    3    0    0 -0.29188507554E+02  0.47231457408E+02  0.49157864894E+02  0.74157098265E+02  0.00000000000E+00 0.  1.
         14    1    3    3    0    0  0.32787373230E+02  0.12836426385E+02  0.87357493654E+02  0.94186609363E+02  0.00000000000E+00 0. -1.
          5    1    5    5  501    0 -0.68173042852E+01 -0.30585348965E+02  0.23263099648E+03  0.23477906579E+03  0.47000000000E+01 0. -1.
         -5    1    5    5    0  501  0.89926216517E+02  0.70260023154E+02  0.19809548171E+04  0.19842447613E+04  0.47000000000E+01 0. -1.
          1    1    1    2  502    0 -0.13093960408E+03 -0.12468529297E+03 -0.25267019419E+03  0.31069893665E+03  0.00000000000E+00 0. -1.
          1    1    1    2  503    0 -0.19377020346E+01  0.12124016510E+02  0.32015161650E+03  0.32038695981E+03  0.00000000000E+00 0. -1.
<mgrwt>
<rscale>  0 0.46959027E+02</rscale>
<asrwt>0</asrwt>
<pdfrwt beam="1">  1        2 0.45360918E+00 0.12277885E+02</pdfrwt>
<pdfrwt beam="2">  1        2 0.45038084E-01 0.17960343E+03</pdfrwt>
<totfact> 0.66856131E+01</totfact>
</mgrwt>
</event>
<event>
13    1  0.1942437E-008  0.1050681E+03  0.7546771E-02  0.1418624E+00
          2   -1    0    0  503    0  0.00000000000E+00  0.00000000000E+00  0.25855848618E+04  0.25855848618E+04  0.00000000000E+00 0. -1.
          2   -1    0    0  502    0 -0.00000000000E+00 -0.00000000000E+00 -0.85666988003E+03  0.85666988003E+03  0.00000000000E+00 0. -1.
         24    2    1    2    0    0 -0.20202949923E+03 -0.51682522989E+03 -0.35999591088E+03  0.66638977364E+03  0.80957011805E+02 0.  0.
         24    2    1    2    0    0  0.16855539663E+03  0.42101331746E+03  0.42695101815E+03  0.62747029552E+03  0.75951725781E+02 0.  0.
         25    2    1    2    0    0 -0.77407233264E+02  0.89894791013E+02  0.94251515321E+03  0.95814025532E+03  0.12499992650E+03 0.  0.
        -11    1    4    4    0    0  0.48894832155E+02  0.21557614804E+03  0.18487279002E+03  0.28816961794E+03  0.00000000000E+00 0.  1.
         12    1    4    4    0    0  0.11966056448E+03  0.20543716942E+03  0.24207822814E+03  0.33930067758E+03  0.00000000000E+00 0. -1.
        -11    1    3    3    0    0 -0.68530683812E+02 -0.13474105449E+03 -0.13844398148E+03  0.20498376130E+03  0.00000000000E+00 0.  1.
         12    1    3    3    0    0 -0.13349881542E+03 -0.38208417539E+03 -0.22155192940E+03  0.46140601234E+03  0.00000000000E+00 0. -1.
          5    1    5    5  501    0 -0.55713460372E+02  0.71045010056E+02  0.91004428012E+03  0.91452395535E+03  0.47000000000E+01 0. -1.
         -5    1    5    5    0  501 -0.21693772892E+02  0.18849780957E+02  0.32470873088E+02  0.43616299975E+02  0.47000000000E+01 0. -1.
          1    1    1    2  502    0  0.10271597304E+03 -0.22034122835E+02 -0.22344856200E+03  0.24691159055E+03  0.00000000000E+00 0. -1.
          1    1    1    2  503    0  0.81653628186E+01  0.27951244252E+02  0.94289328330E+03  0.94334282681E+03  0.00000000000E+00 0. -1.
<mgrwt>
<rscale>  0 0.55313015E+02</rscale>
<asrwt>0</asrwt>
<pdfrwt beam="1">  1        2 0.38023307E+00 0.29119499E+02</pdfrwt>
<pdfrwt beam="2">  1        2 0.12598087E+00 0.10506807E+03</pdfrwt>
<totfact> 0.31524221E+01</totfact>
</mgrwt>
</event>
<event>
13    1  0.1942437E-008  0.1185611E+03  0.7546771E-02  0.1254959E+00
          2   -1    0    0  503    0  0.00000000000E+00  0.00000000000E+00  0.32418076785E+04  0.32418076785E+04  0.00000000000E+00 0. -1.
          2   -1    0    0  502    0 -0.00000000000E+00 -0.00000000000E+00 -0.59717868111E+03  0.59717868111E+03  0.00000000000E+00 0. -1.
         24    2    1    2    0    0 -0.77829645818E+02 -0.97969788858E+00 -0.47549261312E+02  0.12637501942E+03  0.87471708026E+02 0.  0.
         24    2    1    2    0    0 -0.17373928475E+02  0.19488529783E+02  0.41151545376E+02  0.92068097699E+02  0.78111642815E+02 0.  0.
         25    2    1    2    0    0 -0.17940403204E+02  0.21983954740E+03  0.38497684893E+03  0.46095937824E+03  0.12500035804E+03 0.  0.
        -11    1    4    4    0    0  0.27635595793E+02  0.13287835519E+02  0.34485650526E+02  0.46147078129E+02  0.00000000000E+00 0.  1.
         12    1    4    4    0    0 -0.45009524268E+02  0.62006942639E+01  0.66658948493E+01  0.45921019570E+02  0.00000000000E+00 0. -1.
        -13    1    3    3    0    0 -0.42068181887E+02  0.42187525908E+02 -0.34405035026E+02  0.68798442603E+02  0.00000000000E+00 0.  1.
         14    1    3    3    0    0 -0.35761463931E+02 -0.43167223797E+02 -0.13144226286E+02  0.57576576813E+02  0.00000000000E+00 0. -1.
          5    1    5    5  501    0 -0.28580157234E+02  0.12796976985E+03  0.11134919213E+03  0.17208666413E+03  0.47000000000E+01 0. -1.
         -5    1    5    5    0  501  0.10639754031E+02  0.91869777552E+02  0.27362765680E+03  0.28887271411E+03  0.47000000000E+01 0. -1.
          1    1    1    2  502    0  0.45392623486E+02 -0.14098051782E+03 -0.43315365094E+03  0.45777514349E+03  0.00000000000E+00 0. -1.
          1    1    1    2  503    0  0.67751354010E+02 -0.97367861480E+02  0.26992035153E+04  0.27018087208E+04  0.00000000000E+00 0. -1.
<mgrwt>
<rscale>  0 0.11308646E+03</rscale>
<asrwt>0</asrwt>
<pdfrwt beam="1">  1        2 0.47673642E+00 0.11856112E+03</pdfrwt>
<pdfrwt beam="2">  1        2 0.87820396E-01 0.10786460E+03</pdfrwt>
<totfact> 0.17620528E+01</totfact>
</mgrwt>
</event>
<event>
13    1  0.1942437E-008  0.7857667E+02  0.7546771E-02  0.1434842E+00
          2   -1    0    0  502    0  0.00000000000E+00  0.00000000000E+00  0.39781596484E+04  0.39781596484E+04  0.00000000000E+00 0. -1.
          2   -1    0    0  503    0 -0.00000000000E+00 -0.00000000000E+00 -0.15775842064E+03  0.15775842064E+03  0.00000000000E+00 0. -1.
         24    2    1    2    0    0  0.54365832918E+02  0.10271042873E+02  0.84573704329E+02  0.12867943182E+03  0.79652662223E+02 0.  0.
         24    2    1    2    0    0  0.26646713886E+02 -0.39972579031E+02  0.75057581330E+02  0.12016654501E+03  0.80613296609E+02 0.  0.
         25    2    1    2    0    0 -0.96980937499E+02  0.13518197436E+03  0.16023556997E+04  0.16158110839E+04  0.12498880867E+03 0.  0.
        -11    1    4    4    0    0 -0.43955296144E+01 -0.50379783251E+02  0.71009638832E+02  0.87176900886E+02  0.00000000000E+00 0.  1.
         12    1    4    4    0    0  0.31042243501E+02  0.10407204220E+02  0.40479424982E+01  0.32989644128E+02  0.00000000000E+00 0. -1.
        -13    1    3    3    0    0  0.14425059276E+02  0.41725457045E+02  0.52381280157E+02  0.68504705033E+02  0.00000000000E+00 0.  1.
         14    1    3    3    0    0  0.39940773643E+02 -0.31454414171E+02  0.32192424171E+02  0.60174726788E+02  0.00000000000E+00 0. -1.
          5    1    5    5  501    0 -0.63080322332E+02  0.55334486782E+02  0.33142189826E+03  0.34191168032E+03  0.47000000000E+01 0. -1.
         -5    1    5    5    0  501 -0.33900615167E+02  0.79847487582E+02  0.12709338014E+04  0.12738994036E+04  0.47000000000E+01 0. -1.
          1    1    1    2  502    0 -0.11978243396E+02 -0.32260528755E+02  0.21502526422E+04  0.21505279922E+04  0.00000000000E+00 0. -1.
          1    1    1    2  503    0  0.27946634090E+02 -0.73219909451E+02 -0.91838399753E+02  0.12073301606E+03  0.00000000000E+00 0. -1.
<mgrwt>
<rscale>  0 0.52000188E+02</rscale>
<asrwt>0</asrwt>
<pdfrwt beam="1">  1        2 0.58502341E+00 0.34412498E+02</pdfrwt>
<pdfrwt beam="2">  1        2 0.23199770E-01 0.78576672E+02</pdfrwt>
<totfact> 0.33792187E+01</totfact>
</mgrwt>
</event>
<event>
13    1  0.1942437E-008  0.6900063E+02  0.7546771E-02  0.1374688E+00
          2   -1    0    0  503    0  0.00000000000E+00  0.00000000000E+00  0.87741379513E+03  0.87741379513E+03  0.00000000000E+00 0. -1.
          2   -1    0    0  502    0 -0.00000000000E+00 -0.00000000000E+00 -0.71017798456E+03  0.71017798456E+03  0.00000000000E+00 0. -1.
         24    2    1    2    0    0  0.20062242275E+02  0.61725356877E+02 -0.27257488129E+03  0.29148182257E+03  0.80324801486E+02 0.  0.
         24    2    1    2    0    0  0.34477507878E+02 -0.24379818606E+02 -0.89849711844E+02  0.12775750460E+03  0.80411038777E+02 0.  0.
         25    2    1    2    0    0 -0.52053423829E+02 -0.48230871506E+01  0.28041094108E+03  0.31142794678E+03  0.12499699621E+03 0.  0.
        -11    1    3    3    0    0  0.48371051982E+02  0.56676412991E+02 -0.19755924869E+03  0.21114362696E+03  0.00000000000E+00 0.  1.
         12    1    3    3    0    0 -0.28308809707E+02  0.50489438869E+01 -0.75015632593E+02  0.80338195616E+02  0.00000000000E+00 0. -1.
        -13    1    4    4    0    0  0.54867779450E+02 -0.35330256434E+02 -0.78180329917E+02  0.10183744020E+03  0.00000000000E+00 0.  1.
         14    1    4    4    0    0 -0.20390271573E+02  0.10950437828E+02 -0.11669381927E+02  0.25920064391E+02  0.00000000000E+00 0. -1.
          5    1    5    5  501    0  0.18512302481E+02 -0.44588720806E+02  0.15181279790E+03  0.15937400971E+03  0.47000000000E+01 0. -1.
         -5    1    5    5    0  501 -0.70565726311E+02  0.39765633656E+02  0.12859814318E+03  0.15205393707E+03  0.47000000000E+01 0. -1.
          1    1    1    2  502    0 -0.62885436043E+02  0.14488595130E+01 -0.29837483266E+03  0.30493313698E+03  0.00000000000E+00 0. -1.
          1    1    1    2  503    0  0.60399109720E+02 -0.33971310634E+02  0.54762429528E+03  0.55199136876E+03  0.00000000000E+00 0. -1.
<mgrwt>
<rscale>  0 0.65880848E+02</rscale>
<asrwt>0</asrwt>
<pdfrwt beam="1">  1        2 0.12903144E+00 0.69000628E+02</pdfrwt>
<pdfrwt beam="2">  1        2 0.10443794E+00 0.62902124E+02</pdfrwt>
<totfact> 0.24938145E+02</totfact>
</mgrwt>
</event>
<event>
13    1  0.1942437E-008  0.1379469E+03  0.7546771E-02  0.1256366E+00
          2   -1    0    0  503    0  0.00000000000E+00  0.00000000000E+00  0.28588734828E+04  0.28588734828E+04  0.00000000000E+00 0. -1.
          2   -1    0    0  502    0 -0.00000000000E+00 -0.00000000000E+00 -0.24034734716E+04  0.24034734716E+04  0.00000000000E+00 0. -1.
         24    2    1    2    0    0  0.21051243239E+03  0.45912573857E+02 -0.13017483387E+04  0.13219147591E+04  0.80538465985E+02 0.  0.
         24    2    1    2    0    0 -0.30646235280E+02 -0.51671713961E+02 -0.14336044875E+03  0.17652201366E+03  0.83657906267E+02 0.  0.
         25    2    1    2    0    0 -0.29752131051E+02 -0.15201988691E+03  0.10288157715E+04  0.10478934489E+04  0.12499421296E+03 0.  0.
        -11    1    3    3    0    0  0.20705777213E+02  0.16473832309E+02 -0.34877401601E+03  0.34977625792E+03  0.00000000000E+00 0.  1.
         12    1    3    3    0    0  0.18980665517E+03  0.29438741547E+02 -0.95297432268E+03  0.97213850121E+03  0.00000000000E+00 0. -1.
        -13    1    4    4    0    0 -0.22547495356E+02 -0.61155133326E+02 -0.49521257235E+02  0.81857771757E+02  0.00000000000E+00 0.  1.
         14    1    4    4    0    0 -0.80987399241E+01  0.94834193643E+01 -0.93839191517E+02  0.94664241907E+02  0.00000000000E+00 0. -1.
          5    1    5    5  501    0 -0.30103158810E+02 -0.13232267960E+03  0.48358943635E+03  0.50229107562E+03  0.47000000000E+01 0.  1.
         -5    1    5    5    0  501  0.35102775922E+00 -0.19697207319E+02  0.54522633515E+03  0.54560237329E+03  0.47000000000E+01 0.  1.
          1    1    1    2  502    0 -0.32915511288E+02  0.85292745132E+02 -0.91723951583E+03  0.92178447191E+03  0.00000000000E+00 0. -1.
          1    1    1    2  503    0 -0.11719855477E+03  0.72486281887E+02  0.17889325430E+04  0.17942322608E+04  0.00000000000E+00 0. -1.
<mgrwt>
<rscale>  0 0.11230143E+03</rscale>
<asrwt>0</asrwt>
<pdfrwt beam="1">  1        2 0.42042257E+00 0.13794693E+03</pdfrwt>
<pdfrwt beam="2">  1        2 0.35345198E+00 0.91423647E+02</pdfrwt>
<totfact> 0.30123308E+00</totfact>
</mgrwt>
</event>
<event>
13    1  0.1942437E-008  0.1591708E+03  0.7546771E-02  0.1213023E+00
         -3   -1    0    0    0  501 -0.00000000000E+00  0.00000000000E+00  0.27507384826E+03  0.27507384826E+03  0.00000000000E+00 0.  1.
          2   -1    0    0  503    0  0.00000000000E+00 -0.00000000000E+00 -0.20299751514E+04  0.20299751514E+04  0.00000000000E+00 0. -1.
         24    2    1    2    0    0 -0.15689644394E+01  0.15105215742E+03 -0.94028825771E+02  0.19516259444E+03  0.80173575944E+02 0.  0.
         24    2    1    2    0    0  0.11798158189E+03 -0.10334439535E+03 -0.16229833402E+03  0.23614916186E+03  0.69469127689E+02 0.  0.
         25    2    1    2    0    0 -0.79982778481E+02 -0.32540760053E+02 -0.11344900867E+04  0.11446164882E+04  0.12499200971E+03 0.  0.
        -11    1    3    3    0    0  0.25093627002E+01 -0.86393019983E+01 -0.13620309690E+02  0.16323212803E+02  0.00000000000E+00 0.  1.
         12    1    3    3    0    0 -0.40783271396E+01  0.15969145942E+03 -0.80408516081E+02  0.17883938163E+03  0.00000000000E+00 0. -1.
        -13    1    4    4    0    0  0.54226434073E+02 -0.25342574037E+02 -0.10333827653E+03  0.11942173842E+03  0.00000000000E+00 0.  1.
         14    1    4    4    0    0  0.63755147821E+02 -0.78001821316E+02 -0.58960057491E+02  0.11672742343E+03  0.00000000000E+00 0. -1.
          5    1    5    5  502    0 -0.33715809137E+02 -0.78822889609E+02 -0.59910978320E+03  0.60523088656E+03  0.47000000000E+01 0.  1.
         -5    1    5    5    0  502 -0.46266969344E+02  0.46282129556E+02 -0.53538030345E+03  0.53938560168E+03  0.47000000000E+01 0.  1.
          1    1    1    2  503    0  0.11792337207E+03  0.36823367883E+02 -0.50120900086E+03  0.51620959372E+03  0.00000000000E+00 0. -1.
         -4    1    1    2    0  501 -0.15435321104E+03 -0.51990369902E+02  0.13712494421E+03  0.21291116139E+03  0.00000000000E+00 0.  1.
<mgrwt>
<rscale>  0 0.14022769E+03</rscale>
<asrwt>0</asrwt>
<pdfrwt beam="2">  1        2 0.29852576E+00 0.12353899E+03</pdfrwt>
<pdfrwt beam="1">  1       -3 0.40452037E-01 0.15917084E+03</pdfrwt>
<totfact> 0.32156174E+01</totfact>
</mgrwt>
</event>
<event>
13    1  0.1942437E-008  0.8526914E+02  0.7546771E-02  0.1453715E+00
          2   -1    0    0  503    0  0.00000000000E+00  0.00000000000E+00  0.29443407958E+04  0.29443407958E+04  0.00000000000E+00 0. -1.
          2   -1    0    0  502    0 -0.00000000000E+00 -0.00000000000E+00 -0.32127850619E+03  0.32127850619E+03  0.00000000000E+00 0. -1.
         24    2    1    2    0    0  0.36724702202E+01 -0.32735414457E+02 -0.15041624809E+02  0.81805740297E+02  0.73354170103E+02 0.  0.
         24    2    1    2    0    0  0.40918755182E+02 -0.84174112015E+02  0.21985159405E+03  0.25194203184E+03  0.79877646068E+02 0.  0.
         25    2    1    2    0    0  0.52007309736E+02  0.17413807640E+03  0.95252249207E+03  0.97772821947E+03  0.12499817333E+03 0.  0.
        -11    1    3    3    0    0 -0.24261025391E+02 -0.38344130223E+02 -0.24775146475E+02  0.51697945399E+02  0.00000000000E+00 0.  1.
         12    1    3    3    0    0  0.27933495611E+02  0.56087157662E+01  0.97335216656E+01  0.30107794898E+02  0.00000000000E+00 0. -1.
        -11    1    4    4    0    0  0.59629769363E+02 -0.32402752535E+02  0.12714721853E+03  0.14412516417E+03  0.00000000000E+00 0.  1.
         12    1    4    4    0    0 -0.18711014180E+02 -0.51771359480E+02  0.92704375521E+02  0.10781686767E+03  0.00000000000E+00 0. -1.
          5    1    5    5  501    0  0.88741730216E+02  0.15481294699E+03  0.79098540421E+03  0.81087739080E+03  0.47000000000E+01 0.  1.
         -5    1    5    5    0  501 -0.36734420479E+02  0.19325129417E+02  0.16153708786E+03  0.16685082867E+03  0.47000000000E+01 0.  1.
          1    1    1    2  502    0 -0.22176636701E+02 -0.16369389271E+02 -0.24237124969E+03  0.24393356225E+03  0.00000000000E+00 0. -1.
          1    1    1    2  503    0 -0.74421898438E+02 -0.40859160658E+02  0.17081010780E+04  0.17102097481E+04  0.00000000000E+00 0. -1.
<mgrwt>
<rscale>  0 0.48480275E+02</rscale>
<asrwt>0</asrwt>
<pdfrwt beam="1">  1        2 0.43299128E+00 0.85269143E+02</pdfrwt>
<pdfrwt beam="2">  1        2 0.47246841E-01 0.27563746E+02</pdfrwt>
<totfact> 0.51550633E+01</totfact>
</mgrwt>
</event>
<event>
13    1  0.1942437E-008  0.1300330E+03  0.7546771E-02  0.1320312E+00
          2   -1    0    0  502    0  0.00000000000E+00  0.00000000000E+00  0.26889388861E+04  0.26889388861E+04  0.00000000000E+00 0. -1.
          2   -1    0    0  503    0 -0.00000000000E+00 -0.00000000000E+00 -0.19381157775E+04  0.19381157775E+04  0.00000000000E+00 0. -1.
         24    2    1    2    0    0  0.34380267569E+03  0.15041976004E+03 -0.47095337658E+03  0.61139746112E+03  0.10575154150E+03 0.  0.
         24    2    1    2    0    0 -0.16307821355E+03 -0.31952818205E+03  0.28745910674E+03  0.46674962288E+03  0.80806618260E+02 0.  0.
         25    2    1    2    0    0 -0.10818532721E+03  0.93750705487E+02  0.93924928687E+02  0.21199316641E+03  0.12500380223E+03 0.  0.
        -13    1    3    3    0    0  0.30171107486E+03  0.15010352441E+03 -0.36189783766E+03  0.49450044048E+03  0.00000000000E+00 0.  1.
         14    1    3    3    0    0  0.42091600834E+02  0.31623563189E+00 -0.10905553892E+03  0.11689702064E+03  0.00000000000E+00 0. -1.
        -13    1    4    4    0    0 -0.41061127830E+02 -0.15813916491E+03  0.10430202795E+03  0.19383736671E+03  0.00000000000E+00 0.  1.
         14    1    4    4    0    0 -0.12201708572E+03 -0.16138901714E+03  0.18315707879E+03  0.27291225617E+03  0.00000000000E+00 0. -1.
          5    1    5    5  501    0  0.27521430870E+02  0.17282548046E+02  0.26491731138E+02  0.42190252935E+02  0.47000000000E+01 0.  1.
         -5    1    5    5    0  501 -0.13570675808E+03  0.76468157441E+02  0.67433197550E+02  0.16980291347E+03  0.47000000000E+01 0.  1.
          1    1    1    2  502    0 -0.26138014724E+02 -0.46318975439E+02  0.20849170029E+04  0.20855952513E+04  0.00000000000E+00 0. -1.
          1    1    1    2  503    0 -0.46401120206E+02  0.12167669196E+03 -0.12445245532E+04  0.12513191618E+04  0.00000000000E+00 0. -1.
<mgrwt>
<rscale>  0 0.83161321E+02</rscale>
<asrwt>0</asrwt>
<pdfrwt beam="1">  1        2 0.39543219E+00 0.53184991E+02</pdfrwt>
<pdfrwt beam="2">  1        2 0.28501703E+00 0.13003303E+03</pdfrwt>
<totfact> 0.68513500E+00</totfact>
</mgrwt>
</event>
<event>
13    1  0.1942437E-008  0.9049676E+02  0.7546771E-02  0.1418649E+00
          4   -1    0    0  503    0 -0.00000000000E+00  0.00000000000E+00  0.12669708015E+03  0.12669708015E+03  0.00000000000E+00 0. -1.
          2   -1    0    0  502    0  0.00000000000E+00 -0.00000000000E+00 -0.18532969030E+04  0.18532969030E+04  0.00000000000E+00 0. -1.
         24    2    1    2    0    0  0.10649466433E+03 -0.52732658102E+02 -0.10136407111E+03  0.17638194739E+03  0.81939426973E+02 0.  0.
         24    2    1    2    0    0 -0.59369504826E+02  0.92323348322E+02 -0.83132016228E+02  0.15633816374E+03  0.74042896837E+02 0.  0.
         25    2    1    2    0    0  0.15474619332E+02 -0.39893636202E+01 -0.20522838490E+03  0.24083008985E+03  0.12500025338E+03 0.  0.
        -13    1    4    4    0    0 -0.10356968596E+02 -0.11416576571E+02 -0.14196388124E+01  0.15479676788E+02  0.00000000000E+00 0.  1.
         14    1    4    4    0    0 -0.49012536230E+02  0.10373992489E+03 -0.81712377416E+02  0.14085848696E+03  0.00000000000E+00 0. -1.
        -13    1    3    3    0    0  0.91331640024E+02 -0.66441023530E+02 -0.54812097261E+02  0.12553981075E+03  0.00000000000E+00 0.  1.
         14    1    3    3    0    0  0.15163024304E+02  0.13708365429E+02 -0.46551973852E+02  0.50842136642E+02  0.00000000000E+00 0. -1.
          5    1    5    5  501    0  0.46497391014E+02 -0.12728292280E+02 -0.20242421557E+03  0.20813858327E+03  0.47000000000E+01 0.  1.
         -5    1    5    5    0  501 -0.31022771682E+02  0.87389286601E+01 -0.28041693258E+01  0.32691506582E+02  0.47000000000E+01 0.  1.
          1    1    1    2  502    0 -0.58898649691E+02 -0.69199896840E+02 -0.13615594231E+04  0.13645884872E+04  0.00000000000E+00 0. -1.
          3    1    1    2  503    0 -0.37011291430E+01  0.33598570240E+02  0.24684072535E+02  0.41855294958E+02  0.00000000000E+00 0. -1.
<mgrwt>
<rscale>  0 0.55307813E+02</rscale>
<asrwt>0</asrwt>
<pdfrwt beam="2">  1        2 0.27254364E+00 0.90496761E+02</pdfrwt>
<pdfrwt beam="1">  1        4 0.18631925E-01 0.33801809E+02</pdfrwt>
<totfact> 0.11616055E+02</totfact>
</mgrwt>
</event>
<event>
13    1  0.1942437E-008  0.2278666E+03  0.7546771E-02  0.1284696E+00
          4   -1    0    0  503    0 -0.00000000000E+00  0.00000000000E+00  0.17467597611E+04  0.17467597611E+04  0.00000000000E+00 0. -1.
          2   -1    0    0  502    0  0.00000000000E+00 -0.00000000000E+00 -0.97979927467E+03  0.97979927467E+03  0.00000000000E+00 0. -1.
         24    2    1    2    0    0 -0.82597160744E+01 -0.63476632247E+02  0.79851069091E+02  0.12983850185E+03  0.79902049897E+02 0.  0.
         24    2    1    2    0    0  0.32438902507E+03  0.72287834784E+02  0.43573373664E+02  0.34678958877E+03  0.88941606361E+02 0.  0.
         25    2    1    2    0    0 -0.13366873492E+03  0.12713137451E+03  0.22275992527E+02  0.22394269443E+03  0.12499757383E+03 0.  0.
        -11    1    4    4    0    0  0.22647823363E+03  0.17766766870E+02  0.56173985675E+02  0.23401616393E+03  0.00000000000E+00 0.  1.
         12    1    4    4    0    0  0.97910791433E+02  0.54521067914E+02 -0.12600612012E+02  0.11277342483E+03  0.00000000000E+00 0. -1.
        -13    1    3    3    0    0 -0.25809834329E+02 -0.71265787181E+02  0.40230707462E+02  0.85810662470E+02  0.00000000000E+00 0.  1.
         14    1    3    3    0    0  0.17550118255E+02  0.77891549334E+01  0.39620361629E+02  0.44027839385E+02  0.00000000000E+00 0. -1.
          5    1    5    5  501    0  0.71843023335E+01 -0.53823316466E+00 -0.26303735486E+02  0.27674544178E+02  0.47000000000E+01 0.  1.
         -5    1    5    5    0  501 -0.14085303726E+03  0.12766960767E+03  0.48579728013E+02  0.19626815025E+03  0.47000000000E+01 0.  1.
          1    1    1    2  502    0  0.16980394106E+02 -0.38515808830E+02 -0.69241483692E+03  0.69369309330E+03  0.00000000000E+00 0. -1.
          3    1    1    2  503    0 -0.19944096817E+03 -0.97426768217E+02  0.13136748880E+04  0.13322951574E+04  0.00000000000E+00 0. -1.
<mgrwt>
<rscale>  0 0.97936384E+02</rscale>
<asrwt>0</asrwt>
<pdfrwt beam="2">  1        2 0.14408813E+00 0.42092770E+02</pdfrwt>
<pdfrwt beam="1">  1        4 0.25687643E+00 0.22786657E+03</pdfrwt>
<totfact> 0.10809402E+00</totfact>
</mgrwt>
</event>
<event>
13    1  0.1942437E-008  0.9012597E+02  0.7546771E-02  0.1320512E+00
          2   -1    0    0  503    0  0.00000000000E+00  0.00000000000E+00  0.22305511622E+04  0.22305511622E+04  0.00000000000E+00 0. -1.
          2   -1    0    0  502    0 -0.00000000000E+00 -0.00000000000E+00 -0.13482255956E+04  0.13482255956E+04  0.00000000000E+00 0. -1.
         24    2    1    2    0    0  0.93509101030E+02 -0.92543470495E+01  0.17793140511E+03  0.21278358334E+03  0.69193016275E+02 0.  0.
         24    2    1    2    0    0  0.13963848764E+02  0.14964030026E+03  0.49618138773E+03  0.52447619151E+03  0.79322742016E+02 0.  0.
         25    2    1    2    0    0 -0.92844300902E+02 -0.30016589826E+03  0.97548815945E+03  0.10324347634E+04  0.12499904302E+03 0.  0.
        -13    1    4    4    0    0 -0.24625422058E+02  0.78256494187E+02  0.32253139008E+03  0.33280172457E+03  0.00000000000E+00 0.  1.
         14    1    4    4    0    0  0.38589270822E+02  0.71383806071E+02  0.17364999765E+03  0.19167446694E+03  0.00000000000E+00 0. -1.
        -13    1    3    3    0    0  0.74403650399E+02  0.84722070783E+01  0.72687588670E+02  0.10436075427E+03  0.00000000000E+00 0.  1.
         14    1    3    3    0    0  0.19105450630E+02 -0.17726554128E+02  0.10524381644E+03  0.10842282907E+03  0.00000000000E+00 0. -1.
          5    1    5    5  501    0  0.30862879659E+02 -0.65138558316E+02  0.22615896162E+03  0.23741422670E+03  0.47000000000E+01 0. -1.
         -5    1    5    5    0  501 -0.12370718056E+03 -0.23502733994E+03  0.74932919783E+03  0.79502053669E+03  0.47000000000E+01 0. -1.
          1    1    1    2  502    0 -0.20152629535E+02  0.73899692813E+02 -0.12834747877E+04  0.12857584625E+04  0.00000000000E+00 0. -1.
          1    1    1    2  503    0  0.55239806436E+01  0.85880252237E+02  0.51619940207E+03  0.52332375714E+03  0.00000000000E+00 0. -1.
<mgrwt>
<rscale>  0 0.83087256E+02</rscale>
<asrwt>0</asrwt>
<pdfrwt beam="1">  1        2 0.32802223E+00 0.90125967E+02</pdfrwt>
<pdfrwt beam="2">  1        2 0.19826847E+00 0.76598258E+02</pdfrwt>
<totfact> 0.21724181E+01</totfact>
</mgrwt>
</event>
<event>
13    1  0.1942437E-008  0.8628476E+02  0.7546771E-02  0.1400042E+00
          2   -1    0    0  502    0  0.00000000000E+00  0.00000000000E+00  0.22245877832E+04  0.22245877832E+04  0.00000000000E+00 0. -1.
          2   -1    0    0  503    0 -0.00000000000E+00 -0.00000000000E+00 -0.95176561786E+03  0.95176561786E+03  0.00000000000E+00 0. -1.
         24    2    1    2    0    0 -0.20930641742E+02 -0.61740109579E+02  0.27660794474E+01  0.10336104093E+03  0.80161840625E+02 0.  0.
         24    2    1    2    0    0 -0.37463772490E+02  0.99010084246E+01  0.22348199412E+03  0.24100852965E+03  0.81482178732E+02 0.  0.
         25    2    1    2    0    0  0.13987203386E+03 -0.18535710340E+02  0.87274733774E+03  0.89287134381E+03  0.12499425049E+03 0.  0.
        -11    1    4    4    0    0 -0.53057701539E+02  0.27940690019E+02  0.11239279081E+03  0.12738893703E+03  0.00000000000E+00 0.  1.
         12    1    4    4    0    0  0.15593929049E+02 -0.18039681594E+02  0.11108920331E+03  0.11361959262E+03  0.00000000000E+00 0. -1.
        -13    1    3    3    0    0 -0.30062632506E+01  0.12985650021E+02  0.20540969106E+02  0.24486652221E+02  0.00000000000E+00 0.  1.
         14    1    3    3    0    0 -0.17924378491E+02 -0.74725759600E+02 -0.17774889658E+02  0.78874388710E+02  0.00000000000E+00 0. -1.
          5    1    5    5  501    0 -0.21173223190E+02  0.94196686958E+01  0.79351907209E+02  0.82800064712E+02  0.47000000000E+01 0.  1.
         -5    1    5    5    0  501  0.16104525706E+03 -0.27955379036E+02  0.79339543053E+03  0.81007127910E+03  0.47000000000E+01 0.  1.
          1    1    1    2  502    0 -0.37598704848E+00  0.40995741587E+02  0.10539626563E+04  0.10547597229E+04  0.00000000000E+00 0. -1.
          1    1    1    2  503    0 -0.81101632584E+02  0.29379069908E+02 -0.88013590219E+03  0.88435276382E+03  0.00000000000E+00 0. -1.
<mgrwt>
<rscale>  0 0.59476521E+02</rscale>
<asrwt>0</asrwt>
<pdfrwt beam="1">  1        2 0.32714526E+00 0.40997466E+02</pdfrwt>
<pdfrwt beam="2">  1        2 0.13996553E+00 0.86284761E+02</pdfrwt>
<totfact> 0.39083132E+01</totfact>
</mgrwt>
</event>
<event>
13    1  0.1942437E-008  0.2293214E+03  0.7546771E-02  0.1171315E+00
          2   -1    0    0  503    0  0.00000000000E+00  0.00000000000E+00  0.78124893912E+03  0.78124893912E+03  0.00000000000E+00 0. -1.
          2   -1    0    0  502    0 -0.00000000000E+00 -0.00000000000E+00 -0.33955390748E+04  0.33955390748E+04  0.00000000000E+00 0. -1.
         24    2    1    2    0    0  0.18461592635E+03  0.15300490696E+03 -0.10011603992E+03  0.27204440054E+03  0.80569178975E+02 0.  0.
         24    2    1    2    0    0 -0.23109503853E+03  0.14643470646E+02 -0.34274446401E+03  0.42593678145E+03  0.10163181645E+03 0.  0.
         25    2    1    2    0    0  0.23791492762E+03  0.23528372831E+02  0.10704512855E+03  0.29024380461E+03  0.12500283778E+03 0.  0.
        -13    1    4    4    0    0 -0.31932746173E+02 -0.35249137364E+02 -0.64001408002E+02  0.79739464441E+02  0.00000000000E+00 0.  1.
         14    1    4    4    0    0 -0.19916229236E+03  0.49892608010E+02 -0.27874305601E+03  0.34619731701E+03  0.00000000000E+00 0. -1.
        -13    1    3    3    0    0  0.22111415213E+02  0.63476421784E+02 -0.31448729362E+02  0.74210466807E+02  0.00000000000E+00 0.  1.
         14    1    3    3    0    0  0.16250451114E+03  0.89528485178E+02 -0.68667310557E+02  0.19783393373E+03  0.00000000000E+00 0. -1.
          5    1    5    5  501    0  0.20644881978E+03 -0.28814331328E+02  0.84442734125E+02  0.22495343123E+03  0.47000000000E+01 0.  1.
         -5    1    5    5    0  501  0.31466107842E+02  0.52342704159E+02  0.22602394423E+02  0.65290373372E+02  0.47000000000E+01 0.  1.
          1    1    1    2  502    0 -0.59575643117E+02 -0.22331546404E+03 -0.27183848370E+04  0.27281926574E+04  0.00000000000E+00 0. -1.
          1    1    1    2  503    0 -0.13186017232E+03  0.32138713598E+02  0.43991007669E+03  0.46037036996E+03  0.00000000000E+00 0. -1.
<mgrwt>
<rscale>  0 0.17641874E+03</rscale>
<asrwt>0</asrwt>
<pdfrwt beam="1">  1        2 0.11488955E+00 0.13572031E+03</pdfrwt>
<pdfrwt beam="2">  1        2 0.49934397E+00 0.22932140E+03</pdfrwt>
<totfact> 0.94084616E+00</totfact>
</mgrwt>
</event>
<event>
13    1  0.1942437E-008  0.1789654E+03  0.7546771E-02  0.1303886E+00
          2   -1    0    0  503    0  0.00000000000E+00  0.00000000000E+00  0.13921705906E+04  0.13921705906E+04  0.00000000000E+00 0. -1.
          2   -1    0    0  502    0 -0.00000000000E+00 -0.00000000000E+00 -0.34387875099E+03  0.34387875099E+03  0.00000000000E+00 0. -1.
         24    2    1    2    0    0  0.59509612033E+02  0.63405035259E+01 -0.56938963729E+02  0.11513740994E+03  0.80205870532E+02 0.  0.
         24    2    1    2    0    0  0.11333683753E+03  0.93008006249E+02  0.49652621645E+02  0.17425826491E+03  0.80030194825E+02 0.  0.
         25    2    1    2    0    0  0.71234529617E+01 -0.38431149754E+02  0.42440904420E+03  0.44415608995E+03  0.12499559427E+03 0.  0.
        -11    1    4    4    0    0  0.13856795198E+01  0.31083132771E+02  0.32811443256E+02  0.45218050148E+02  0.00000000000E+00 0.  1.
         12    1    4    4    0    0  0.11195115801E+03  0.61924873478E+02  0.16841178389E+02  0.12904021476E+03  0.00000000000E+00 0. -1.
        -13    1    3    3    0    0 -0.12100546843E+02  0.23230870981E+02 -0.11079696086E+02  0.28440398482E+02  0.00000000000E+00 0.  1.
         14    1    3    3    0    0  0.71610158875E+02 -0.16890367455E+02 -0.45859267643E+02  0.86697011458E+02  0.00000000000E+00 0. -1.
          5    1    5    5  501    0  0.53091517908E+02 -0.35962398521E+02  0.11898127492E+03  0.13524288211E+03  0.47000000000E+01 0.  1.
         -5    1    5    5    0  501 -0.45968064946E+02 -0.24687512328E+01  0.30542776928E+03  0.30891320783E+03  0.47000000000E+01 0.  1.
          1    1    1    2  502    0 -0.24051219892E+02  0.37835429482E+02 -0.17233415428E+03  0.17807032777E+03  0.00000000000E+00 0. -1.
          1    1    1    2  503    0 -0.15591868263E+03 -0.98752789503E+02  0.80350329180E+03  0.82442724904E+03  0.00000000000E+00 0. -1.
<mgrwt>
<rscale>  0 0.89574109E+02</rscale>
<asrwt>0</asrwt>
<pdfrwt beam="1">  1        2 0.20473097E+00 0.17896538E+03</pdfrwt>
<pdfrwt beam="2">  1        2 0.50570405E-01 0.44832811E+02</pdfrwt>
<totfact> 0.26579332E+02</totfact>
</mgrwt>
</event>
<event>
13    1  0.1942437E-008  0.9562905E+02  0.7546771E-02  0.1376091E+00
          2   -1    0    0  502    0  0.00000000000E+00  0.00000000000E+00  0.60612842710E+03  0.60612842710E+03  0.00000000000E+00 0. -1.
          2   -1    0    0  503    0 -0.00000000000E+00 -0.00000000000E+00 -0.14593792326E+04  0.14593792326E+04  0.00000000000E+00 0. -1.
         24    2    1    2    0    0 -0.35458861302E+02 -0.74583160902E+02 -0.27115818955E+03  0.29474242217E+03  0.80785846104E+02 0.  0.
         24    2    1    2    0    0  0.34368846315E+02  0.71324839032E+02  0.75597398578E+02  0.15028802317E+03  0.10297122402E+03 0.  0.
         25    2    1    2    0    0  0.63683941509E+02 -0.11334362879E+03  0.69599481431E+02  0.19331641113E+03  0.12499889761E+03 0.  0.
        -13    1    4    4    0    0  0.47810619771E+02 -0.79123594043E+01  0.37877069603E+02  0.61507180036E+02  0.00000000000E+00 0.  1.
         14    1    4    4    0    0 -0.13441773456E+02  0.79237198436E+02  0.37720328975E+02  0.88780843134E+02  0.00000000000E+00 0. -1.
        -13    1    3    3    0    0 -0.33920761828E+02  0.46830582029E+01 -0.10879863645E+03  0.11406003862E+03  0.00000000000E+00 0.  1.
         14    1    3    3    0    0 -0.15380994745E+01 -0.79266219105E+02 -0.16235955310E+03  0.18068238355E+03  0.00000000000E+00 0. -1.
          5    1    5    5  501    0  0.30595119765E+02 -0.13143010438E+03  0.75747033564E+02  0.15482130598E+03  0.47000000000E+01 0.  1.
         -5    1    5    5    0  501  0.33088821744E+02  0.18086475591E+02 -0.61475521331E+01  0.38495105156E+02  0.47000000000E+01 0.  1.
          1    1    1    2  502    0 -0.25320034844E+02  0.91628173129E+02  0.34300090725E+03  0.35593039861E+03  0.00000000000E+00 0. -1.
          1    1    1    2  503    0 -0.37273891677E+02  0.24973777529E+02 -0.10702904032E+04  0.10712304046E+04  0.00000000000E+00 0. -1.
<mgrwt>
<rscale>  0 0.65502463E+02</rscale>
<asrwt>0</asrwt>
<pdfrwt beam="1">  1        2 0.89136533E-01 0.95629053E+02</pdfrwt>
<pdfrwt beam="2">  1        2 0.21461459E+00 0.44866831E+02</pdfrwt>
<totfact> 0.14934256E+02</totfact>
</mgrwt>
</event>
<event>
13    1  0.1942437E-008  0.1379218E+03  0.7546771E-02  0.1349559E+00
          2   -1    0    0  503    0  0.00000000000E+00  0.00000000000E+00  0.28610502517E+04  0.28610502517E+04  0.00000000000E+00 0. -1.
          2   -1    0    0  502    0 -0.00000000000E+00 -0.00000000000E+00 -0.30266590432E+04  0.30266590432E+04  0.00000000000E+00 0. -1.
         24    2    1    2    0    0 -0.16043289669E+03  0.89649369430E+02 -0.28765199670E+03  0.35428149308E+03  0.94847147325E+02 0.  0.
         24    2    1    2    0    0  0.78043958843E+03 -0.10110899360E+03 -0.42886788749E+03  0.89984171485E+03  0.80488925261E+02 0.  0.
         25    2    1    2    0    0 -0.65398967322E+03  0.17537985509E+03  0.47439402311E+03  0.83614282430E+03  0.12499818884E+03 0.  0.
        -11    1    4    4    0    0  0.56830272348E+03 -0.58314440541E+02 -0.34729819791E+03  0.66856906731E+03  0.00000000000E+00 0.  1.
         12    1    4    4    0    0  0.21213686495E+03 -0.42794553059E+02 -0.81569689573E+02  0.23127264754E+03  0.00000000000E+00 0. -1.
        -13    1    3    3    0    0 -0.13494889877E+03  0.48906041048E+02 -0.26450285358E+03  0.30093980409E+03  0.00000000000E+00 0.  1.
         14    1    3    3    0    0 -0.25483997917E+02  0.40743328382E+02 -0.23149143111E+02  0.53341688989E+02  0.00000000000E+00 0. -1.
          5    1    5    5  501    0 -0.40110780124E+02  0.45871871989E+02  0.40630043842E+02  0.73389330182E+02  0.47000000000E+01 0. -1.
         -5    1    5    5    0  501 -0.61387889310E+03  0.12950798310E+03  0.43376397927E+03  0.76275349412E+03  0.47000000000E+01 0. -1.
          1    1    1    2  502    0  0.49910951409E+02 -0.12849361305E+03 -0.18577144850E+04  0.18628217359E+04  0.00000000000E+00 0. -1.
          1    1    1    2  503    0 -0.15927969924E+02 -0.35426617864E+02  0.19342315546E+04  0.19346215269E+04  0.00000000000E+00 0. -1.
<mgrwt>
<rscale>  0 0.73193161E+02</rscale>
<asrwt>0</asrwt>
<pdfrwt beam="1">  1        2 0.42074269E+00 0.38842573E+02</pdfrwt>
<pdfrwt beam="2">  1        2 0.44509691E+00 0.13792183E+03</pdfrwt>
<totfact> 0.16502824E+00</totfact>
</mgrwt>
</event>
<event>
13    1  0.1942437E-008  0.1102184E+03  0.7546771E-02  0.1370489E+00
          2   -1    0    0  502    0  0.00000000000E+00  0.00000000000E+00  0.91339890210E+03  0.91339890210E+03  0.00000000000E+00 0. -1.
          2   -1    0    0  503    0 -0.00000000000E+00 -0.00000000000E+00 -0.26038877262E+04  0.26038877262E+04  0.00000000000E+00 0. -1.
         24    2    1    2    0    0  0.91512522794E+02  0.10728041050E+03 -0.30765098634E+03  0.34807750873E+03  0.81395297037E+02 0.  0.
         24    2    1    2    0    0 -0.70607501088E+02 -0.11266536705E+03 -0.59539106094E+03  0.61540359115E+03  0.80945416230E+02 0.  0.
         25    2    1    2    0    0 -0.16538309169E+02  0.13701738576E+03  0.44155775293E+03  0.47921539358E+03  0.12500745818E+03 0.  0.
        -11    1    4    4    0    0  0.21925248802E+01 -0.85306253226E+01 -0.26506039046E+01  0.91980669058E+01  0.00000000000E+00 0.  1.
         12    1    4    4    0    0 -0.72800025968E+02 -0.10413474173E+03 -0.59274045704E+03  0.60620552425E+03  0.00000000000E+00 0. -1.
        -13    1    3    3    0    0  0.60151770414E+02  0.11485621620E+03 -0.23070055214E+03  0.26463735685E+03  0.00000000000E+00 0.  1.
         14    1    3    3    0    0  0.31360752380E+02 -0.75758056918E+01 -0.76950434203E+02  0.83440151880E+02  0.00000000000E+00 0. -1.
          5    1    5    5  501    0  0.11552575565E+02  0.15165978902E+03  0.33484352942E+03  0.36779944644E+03  0.47000000000E+01 0. -1.
         -5    1    5    5    0  501 -0.28090884734E+02 -0.14642403252E+02  0.10671422352E+03  0.11141594715E+03  0.47000000000E+01 0. -1.
          1    1    1    2  502    0 -0.32169358904E+02 -0.25040529476E+02  0.41996811672E+03  0.42194207521E+03  0.00000000000E+00 0. -1.
          1    1    1    2  503    0  0.27802646368E+02 -0.10659189974E+03 -0.16489726464E+04  0.16526480596E+04  0.00000000000E+00 0. -1.
<mgrwt>
<rscale>  0 0.67031346E+02</rscale>
<asrwt>0</asrwt>
<pdfrwt beam="1">  1        2 0.13432337E+00 0.40766356E+02</pdfrwt>
<pdfrwt beam="2">  1        2 0.38292466E+00 0.11021837E+03</pdfrwt>
<totfact> 0.24475880E+01</totfact>
</mgrwt>
</event>
<event>
13    1  0.1942437E-008  0.1026420E+03  0.7546771E-02  0.1398899E+00
          2   -1    0    0  503    0  0.00000000000E+00  0.00000000000E+00  0.18050420600E+04  0.18050420600E+04  0.00000000000E+00 0. -1.
          2   -1    0    0  502    0 -0.00000000000E+00 -0.00000000000E+00 -0.22271717221E+04  0.22271717221E+04  0.00000000000E+00 0. -1.
         24    2    1    2    0    0 -0.50093437839E+03  0.65937025280E+02 -0.10877988575E+04  0.12016391155E+04  0.73125007686E+02 0.  0.
         24    2    1    2    0    0 -0.32209873729E+03 -0.22167269223E+03 -0.67054747979E+02  0.40428986443E+03  0.77894648150E+02 0.  0.
         25    2    1    2    0    0  0.91349663036E+03  0.18888066853E+03  0.84493517796E+03  0.12647878303E+04  0.12498319969E+03 0.  0.
        -11    1    3    3    0    0 -0.53156032523E+02  0.30039730170E+02 -0.14271760174E+03  0.15522971052E+03  0.00000000000E+00 0.  1.
         12    1    3    3    0    0 -0.44777834586E+03  0.35897295110E+02 -0.94508125573E+03  0.10464094049E+04  0.00000000000E+00 0. -1.
        -13    1    4    4    0    0 -0.10172431476E+03 -0.99567917894E+02 -0.53226412928E+02  0.15196926505E+03  0.00000000000E+00 0.  1.
         14    1    4    4    0    0 -0.22037442253E+03 -0.12210477434E+03 -0.13828335051E+02  0.25232059938E+03  0.00000000000E+00 0. -1.
          5    1    5    5  501    0  0.58741038587E+03  0.14821946966E+03  0.47419175883E+03  0.76935030173E+03  0.47000000000E+01 0. -1.
         -5    1    5    5    0  501  0.32608624449E+03  0.40661198869E+02  0.37074341913E+03  0.49543752862E+03  0.47000000000E+01 0. -1.
          1    1    1    2  502    0  0.12214716582E+02 -0.32562013283E+02 -0.63134697955E+03  0.63230411402E+03  0.00000000000E+00 0. -1.
          1    1    1    2  503    0 -0.10267823127E+03 -0.58298829912E+00  0.51913574498E+03  0.52919285782E+03  0.00000000000E+00 0. -1.
<mgrwt>
<rscale>  0 0.59746522E+02</rscale>
<asrwt>0</asrwt>
<pdfrwt beam="1">  1        2 0.26544736E+00 0.10264202E+03</pdfrwt>
<pdfrwt beam="2">  1        2 0.32752525E+00 0.34777637E+02</pdfrwt>
<totfact> 0.14325009E+01</totfact>
</mgrwt>
</event>
<event>
13    1  0.1942437E-008  0.9851513E+02  0.7546771E-02  0.1290289E+00
          2   -1    0    0  503    0  0.00000000000E+00  0.00000000000E+00  0.22586224057E+03  0.22586224057E+03  0.00000000000E+00 0. -1.
          2   -1    0    0  502    0 -0.00000000000E+00 -0.00000000000E+00 -0.11439978372E+04  0.11439978372E+04  0.00000000000E+00 0. -1.
         24    2    1    2    0    0  0.69705097705E+01 -0.39148950305E+02 -0.35933893417E+03  0.37030447443E+03  0.80123066936E+02 0.  0.
         24    2    1    2    0    0  0.19584811572E+02  0.18718399075E+02 -0.55461892115E+02  0.10078404631E+03  0.79670943289E+02 0.  0.
         25    2    1    2    0    0  0.12922743474E+02 -0.13708458402E+03 -0.71109921806E+02  0.19909855389E+03  0.12499773080E+03 0.  0.
        -13    1    4    4    0    0 -0.26664866254E+02 -0.11156275357E+02 -0.15938848693E+02  0.33007945557E+02  0.00000000000E+00 0.  1.
         14    1    4    4    0    0  0.46249677826E+02  0.29874674433E+02 -0.39523043422E+02  0.67776100750E+02  0.00000000000E+00 0. -1.
        -13    1    3    3    0    0  0.73537514507E+01 -0.53081984094E+02 -0.13095401948E+03  0.14149462857E+03  0.00000000000E+00 0.  1.
         14    1    3    3    0    0 -0.38324168017E+00  0.13933033790E+02 -0.22838491469E+03  0.22880984586E+03  0.00000000000E+00 0. -1.
          5    1    5    5  501    0  0.62245974364E+02 -0.54768266164E+02 -0.59850928662E+02  0.10236380202E+03  0.47000000000E+01 0.  1.
         -5    1    5    5    0  501 -0.49323230890E+02 -0.82316317860E+02 -0.11258993144E+02  0.96734751864E+02  0.47000000000E+01 0.  1.
          1    1    1    2  502    0 -0.90731679672E+02  0.70525645169E+02 -0.53994134518E+03  0.55203510808E+03  0.00000000000E+00 0. -1.
          1    1    1    2  503    0  0.51253614855E+02  0.86989490085E+02  0.10771649662E+03  0.14763789508E+03  0.00000000000E+00 0. -1.
<mgrwt>
<rscale>  0 0.95395095E+02</rscale>
<asrwt>0</asrwt>
<pdfrwt beam="1">  1        2 0.33215036E-01 0.98515128E+02</pdfrwt>
<pdfrwt beam="2">  1        2 0.16823497E+00 0.92373875E+02</pdfrwt>
<totfact> 0.58516505E+02</totfact>
</mgrwt>
</event>
<event>
13    1  0.1942437E-008  0.7751983E+02  0.7546771E-02  0.1484126E+00
          2   -1    0    0  502    0  0.00000000000E+00  0.00000000000E+00  0.23914584506E+04  0.23914584506E+04  0.00000000000E+00 0. -1.
          2   -1    0    0  503    0 -0.00000000000E+00 -0.00000000000E+00 -0.34337375967E+03  0.34337375967E+03  0.00000000000E+00 0. -1.
         24    2    1    2    0    0 -0.49832750495E+01 -0.73699970291E+02 -0.17078286390E+03  0.20086898968E+03  0.75664032172E+02 0.  0.
         24    2    1    2    0    0  0.19078329731E+02  0.59906535050E+02  0.17806141789E+03  0.20539740537E+03  0.80805012131E+02 0.  0.
         25    2    1    2    0    0  0.35159885879E+02 -0.32899648325E+02  0.49985849322E+03  0.51749534662E+03  0.12499726436E+03 0.  0.
        -11    1    3    3    0    0 -0.10151675954E+02  0.10927525809E+02 -0.70744988663E+01  0.16508054979E+02  0.00000000000E+00 0.  1.
         12    1    3    3    0    0  0.51684009040E+01 -0.84627496101E+02 -0.16370836503E+03  0.18436093470E+03  0.00000000000E+00 0. -1.
        -13    1    4    4    0    0 -0.30025230260E+02  0.26792978088E+02  0.96905046555E+02  0.10492838593E+03  0.00000000000E+00 0.  1.
         14    1    4    4    0    0  0.49103559991E+02  0.33113556962E+02  0.81156371335E+02  0.10046901944E+03  0.00000000000E+00 0. -1.
          5    1    5    5  501    0  0.73861289879E+02 -0.10090570164E+02  0.18656164097E+03  0.20095931337E+03  0.47000000000E+01 0.  1.
         -5    1    5    5    0  501 -0.38701404000E+02 -0.22809078161E+02  0.31329685225E+03  0.31653603325E+03  0.47000000000E+01 0.  1.
          1    1    1    2  502    0 -0.37374769613E+02  0.67978316029E+02  0.16740035727E+04  0.16758000735E+04  0.00000000000E+00 0. -1.
          1    1    1    2  503    0 -0.11880170947E+02 -0.21285232463E+02 -0.13305592894E+03  0.13527039516E+03  0.00000000000E+00 0. -1.
<mgrwt>
<rscale>  0 0.43469985E+02</rscale>
<asrwt>0</asrwt>
<pdfrwt beam="1">  1        2 0.35168506E+00 0.77519828E+02</pdfrwt>
<pdfrwt beam="2">  1        2 0.50496142E-01 0.24376209E+02</pdfrwt>
<totfact> 0.92693257E+01</totfact>
</mgrwt>
</event>
<event>
13    1  0.1942437E-008  0.1289049E+03  0.7546771E-02  0.1424369E+00
          2   -1    0    0  503    0  0.00000000000E+00  0.00000000000E+00  0.16021633575E+04  0.16021633575E+04  0.00000000000E+00 0. -1.
          2   -1    0    0  502    0 -0.00000000000E+00 -0.00000000000E+00 -0.11728380828E+04  0.11728380828E+04  0.00000000000E+00 0. -1.
         24    2    1    2    0    0 -0.22146069057E+02 -0.23120735249E+02  0.16552371093E+03  0.18711105199E+03  0.81162984919E+02 0.  0.
         24    2    1    2    0    0  0.76440592595E+02 -0.34942023454E+02  0.23233679440E+03  0.26075367034E+03  0.83354552158E+02 0.  0.
         25    2    1    2    0    0 -0.46570416496E+02 -0.52989144789E+02  0.63528596523E+03  0.65129882805E+03  0.12500101057E+03 0.  0.
        -11    1    3    3    0    0 -0.53009058451E+02 -0.17695600427E+02  0.10833471468E+03  0.12189956914E+03  0.00000000000E+00 0.  1.
         12    1    3    3    0    0  0.30862989394E+02 -0.54251348219E+01  0.57188996259E+02  0.65211482848E+02  0.00000000000E+00 0. -1.
        -11    1    4    4    0    0  0.46425944162E+02 -0.48533969619E+02  0.21116581763E+03  0.22158952375E+03  0.00000000000E+00 0.  1.
         12    1    4    4    0    0  0.30014648434E+02  0.13591946164E+02  0.21170976766E+02  0.39164146593E+02  0.00000000000E+00 0. -1.
          5    1    5    5  501    0 -0.54470335909E+02 -0.87432789554E+02  0.53544526316E+03  0.54528454042E+03  0.47000000000E+01 0. -1.
         -5    1    5    5    0  501  0.78999194122E+01  0.34443644765E+02  0.99840702078E+02  0.10601428764E+03  0.47000000000E+01 0. -1.
          1    1    1    2  502    0 -0.23689151697E+02  0.12720478116E+03 -0.11359144375E+04  0.11432601811E+04  0.00000000000E+00 0. -1.
          1    1    1    2  503    0  0.15965044655E+02 -0.16152877670E+02  0.53209324167E+03  0.53257770882E+03  0.00000000000E+00 0. -1.
<mgrwt>
<rscale>  0 0.54107155E+02</rscale>
<asrwt>0</asrwt>
<pdfrwt beam="1">  1        2 0.23561226E+00 0.22711189E+02</pdfrwt>
<pdfrwt beam="2">  1        2 0.17247619E+00 0.12890493E+03</pdfrwt>
<totfact> 0.58914514E+01</totfact>
</mgrwt>
</event>
<event>
13    1  0.1942437E-008  0.1167834E+03  0.7546771E-02  0.1253832E+00
          2   -1    0    0  503    0  0.00000000000E+00  0.00000000000E+00  0.11004277956E+04  0.11004277956E+04  0.00000000000E+00 0. -1.
          2   -1    0    0  502    0 -0.00000000000E+00 -0.00000000000E+00 -0.30071709120E+04  0.30071709120E+04  0.00000000000E+00 0. -1.
         24    2    1    2    0    0 -0.68744867784E+02 -0.29567515289E+02 -0.34122063693E+03  0.35962565242E+03  0.85434138398E+02 0.  0.
         24    2    1    2    0    0 -0.19179687776E+02  0.11076941423E+02 -0.69376151186E+02  0.10898962746E+03  0.81087172147E+02 0.  0.
         25    2    1    2    0    0  0.25742867689E+02  0.15588579698E+03  0.16148157258E+03  0.25819426590E+03  0.12499961488E+03 0.  0.
        -11    1    3    3    0    0 -0.13173126246E+02 -0.51743490520E+02 -0.14694252528E+03  0.15634265509E+03  0.00000000000E+00 0.  1.
         12    1    3    3    0    0 -0.55571741538E+02  0.22175975231E+02 -0.19427811165E+03  0.20328299732E+03  0.00000000000E+00 0. -1.
        -13    1    4    4    0    0  0.30017069678E+02 -0.78877704680E+01 -0.30183489657E+02  0.43293006859E+02  0.00000000000E+00 0.  1.
         14    1    4    4    0    0 -0.49196757454E+02  0.18964711891E+02 -0.39192661529E+02  0.65696620604E+02  0.00000000000E+00 0. -1.
          5    1    5    5  501    0  0.62495859001E+02  0.12281885765E+03  0.71266513733E+02  0.15521343423E+03  0.47000000000E+01 0.  1.
         -5    1    5    5    0  501 -0.36752991312E+02  0.33066939335E+02  0.90215058847E+02  0.10298083166E+03  0.47000000000E+01 0.  1.
          1    1    1    2  502    0 -0.98486220115E+02 -0.10290896231E+03 -0.25093348668E+04  0.25133744775E+04  0.00000000000E+00 0. -1.
          1    1    1    2  503    0  0.16066790799E+03 -0.34486260805E+02  0.85170696594E+03  0.86741468438E+03  0.00000000000E+00 0. -1.
<mgrwt>
<rscale>  0 0.11371996E+03</rscale>
<asrwt>0</asrwt>
<pdfrwt beam="1">  1        2 0.16182762E+00 0.11678338E+03</pdfrwt>
<pdfrwt beam="2">  1        2 0.44223100E+00 0.11073691E+03</pdfrwt>
<totfact> 0.11244162E+01</totfact>
</mgrwt>
</event>
<event>
13    1  0.1942437E-008  0.3494424E+02  0.7546771E-02  0.1608587E+00
          2   -1    0    0  503    0  0.00000000000E+00  0.00000000000E+00  0.37866146738E+04  0.37866146738E+04  0.00000000000E+00 0. -1.
          2   -1    0    0  502    0 -0.00000000000E+00 -0.00000000000E+00 -0.17826946025E+04  0.17826946025E+04  0.00000000000E+00 0. -1.
         24    2    1    2    0    0  0.23538684726E+03  0.62961446327E+02 -0.47485270710E+03  0.53982241109E+03  0.80944613688E+02 0.  0.
         24    2    1    2    0    0 -0.55610930655E+03  0.48194321357E+02  0.70573390157E+03  0.90443288787E+03  0.91423494730E+02 0.  0.
         25    2    1    2    0    0  0.33114589294E+03 -0.88259224800E+02  0.12749244521E+04  0.13260858721E+04  0.12499635338E+03 0.  0.
        -13    1    4    4    0    0 -0.36520248555E+03  0.71841654378E+02  0.49112655302E+03  0.61622996506E+03  0.00000000000E+00 0.  1.
         14    1    4    4    0    0 -0.19090682101E+03 -0.23647333020E+02  0.21460734855E+03  0.28820292281E+03  0.00000000000E+00 0. -1.
        -13    1    3    3    0    0  0.45965316536E+02  0.44495612321E+01 -0.17011361148E+03  0.17627038813E+03  0.00000000000E+00 0.  1.
         14    1    3    3    0    0  0.18942153072E+03  0.58511885095E+02 -0.30473909562E+03  0.36355202296E+03  0.00000000000E+00 0. -1.
          5    1    5    5  501    0 -0.10434926105E+02 -0.22832949463E+01  0.59901211128E+02  0.61027421813E+02  0.47000000000E+01 0. -1.
         -5    1    5    5    0  501  0.34158081905E+03 -0.85975929854E+02  0.12150232410E+04  0.12650584503E+04  0.47000000000E+01 0. -1.
          1    1    1    2  502    0 -0.21981967114E+02  0.10085937220E+02 -0.11501144623E+04  0.11503687276E+04  0.00000000000E+00 0. -1.
          1    1    1    2  503    0  0.11558533467E+02 -0.32982480104E+02  0.16482288870E+04  0.16485993776E+04  0.00000000000E+00 0. -1.
<mgrwt>
<rscale>  0 0.29071293E+02</rscale>
<asrwt>0</asrwt>
<pdfrwt beam="1">  1        2 0.55685510E+00 0.34944242E+02</pdfrwt>
<pdfrwt beam="2">  1        2 0.26216097E+00 0.24185388E+02</pdfrwt>
<totfact> 0.26556545E+00</totfact>
</mgrwt>
</event>
<event>
13    1  0.1942437E-008  0.9892946E+02  0.7546771E-02  0.1310510E+00
          2   -1    0    0  503    0  0.00000000000E+00  0.00000000000E+00  0.19116605684E+04  0.19116605684E+04  0.00000000000E+00 0. -1.
          2   -1    0    0  502    0 -0.00000000000E+00 -0.00000000000E+00 -0.10254763731E+04  0.10254763731E+04  0.00000000000E+00 0. -1.
         24    2    1    2    0    0  0.27686450350E+03  0.25649970519E+03  0.77847022301E+02  0.39349146326E+03  0.79557028060E+02 0.  0.
         24    2    1    2    0    0 -0.33361045518E+03 -0.28609674032E+03  0.22518700008E+03  0.50054018251E+03  0.81755786768E+02 0.  0.
         25    2    1    2    0    0  0.21420948115E+03  0.10328225357E+03  0.31321922249E+03  0.41266352923E+03  0.12502792211E+03 0.  0.
        -11    1    3    3    0    0  0.11848397568E+03  0.15736122273E+03  0.20522019177E+02  0.19804585374E+03  0.00000000000E+00 0.  1.
         12    1    3    3    0    0  0.15838052782E+03  0.99138482460E+02  0.57325003124E+02  0.19544560952E+03  0.00000000000E+00 0. -1.
        -13    1    4    4    0    0 -0.17870815001E+03 -0.10650536164E+03  0.82772192143E+02  0.22390004629E+03  0.00000000000E+00 0.  1.
         14    1    4    4    0    0 -0.15490230517E+03 -0.17959137869E+03  0.14241480794E+03  0.27664013622E+03  0.00000000000E+00 0. -1.
          5    1    5    5  501    0 -0.14125530420E+02 -0.45451230540E+01  0.24957947438E+02  0.29413906465E+02  0.47000000000E+01 0.  1.
         -5    1    5    5    0  501  0.22833501157E+03  0.10782737663E+03  0.28826127505E+03  0.38324962277E+03  0.47000000000E+01 0.  1.
          1    1    1    2  502    0 -0.72389900624E+02 -0.24276707154E+02 -0.67555257856E+03  0.67985361853E+03  0.00000000000E+00 0. -1.
          1    1    1    2  503    0 -0.85073628852E+02 -0.49408511280E+02  0.94548352901E+03  0.95058814791E+03  0.00000000000E+00 0. -1.
<mgrwt>
<rscale>  0 0.86910760E+02</rscale>
<asrwt>0</asrwt>
<pdfrwt beam="1">  1        2 0.28112655E+00 0.98929456E+02</pdfrwt>
<pdfrwt beam="2">  1        2 0.15080535E+00 0.76352185E+02</pdfrwt>
<totfact> 0.45343452E+01</totfact>
</mgrwt>
</event>
<event>
13    1  0.1942437E-008  0.5581291E+02  0.7546771E-02  0.1418093E+00
          2   -1    0    0  503    0  0.00000000000E+00  0.00000000000E+00  0.10964284476E+04  0.10964284476E+04  0.00000000000E+00 0. -1.
          2   -1    0    0  502    0 -0.00000000000E+00 -0.00000000000E+00 -0.13027245704E+04  0.13027245704E+04  0.00000000000E+00 0. -1.
         24    2    1    2    0    0 -0.45884544856E+02 -0.63738063457E+01 -0.19968309128E+03  0.22002981393E+03  0.79961023088E+02 0.  0.
         24    2    1    2    0    0  0.80279936132E+02  0.46587210009E+02  0.10586728464E+03  0.16230213305E+03  0.80739483232E+02 0.  0.
         25    2    1    2    0    0  0.76081475253E+02 -0.42557179794E+02  0.41284050270E+03  0.44007785356E+03  0.12502692550E+03 0.  0.
        -13    1    3    3    0    0  0.23197955905E+01 -0.35270030151E+02 -0.62907630046E+02  0.72157649604E+02  0.00000000000E+00 0.  1.
         14    1    3    3    0    0 -0.48204340447E+02  0.28896223805E+02 -0.13677546123E+03  0.14787216433E+03  0.00000000000E+00 0. -1.
        -13    1    4    4    0    0  0.19331509315E+02 -0.11791190379E+02  0.64407547730E+02  0.68272041331E+02  0.00000000000E+00 0.  1.
         14    1    4    4    0    0  0.60948426817E+02  0.58378400388E+02  0.41459736910E+02  0.94030091715E+02  0.00000000000E+00 0. -1.
          5    1    5    5  501    0 -0.16349531162E+02 -0.93488682866E+01  0.24340641052E+03  0.24417919483E+03  0.47000000000E+01 0. -1.
         -5    1    5    5    0  501  0.92431006414E+02 -0.33208311507E+02  0.16943409218E+03  0.19589865873E+03  0.47000000000E+01 0. -1.
          1    1    1    2  502    0 -0.55505054517E+02  0.51379926004E+01 -0.10488491193E+04  0.10503293223E+04  0.00000000000E+00 0. -1.
          1    1    1    2  503    0 -0.54971812011E+02 -0.27942164699E+01  0.52352830043E+03  0.52641389525E+03  0.00000000000E+00 0. -1.
<mgrwt>
<rscale>  0 0.55426510E+02</rscale>
<asrwt>0</asrwt>
<pdfrwt beam="1">  1        2 0.16123948E+00 0.55042781E+02</pdfrwt>
<pdfrwt beam="2">  1        2 0.19157714E+00 0.55812913E+02</pdfrwt>
<totfact> 0.87378146E+01</totfact>
</mgrwt>
</event>
<event>
13    1  0.1942437E-008  0.1783187E+03  0.7546771E-02  0.1241175E+00
          2   -1    0    0  502    0  0.00000000000E+00  0.00000000000E+00  0.30940640989E+04  0.30940640989E+04  0.00000000000E+00 0. -1.
          2   -1    0    0  503    0 -0.00000000000E+00 -0.00000000000E+00 -0.57523222017E+03  0.57523222017E+03  0.00000000000E+00 0. -1.
         24    2    1    2    0    0 -0.88300086871E+01 -0.30933323289E+02 -0.12697006381E+03  0.15363513589E+03  0.80296440354E+02 0.  0.
         24    2    1    2    0    0  0.40887665184E+02 -0.21514409989E+03  0.35271051229E+03  0.42286182959E+03  0.80303403173E+02 0.  0.
         25    2    1    2    0    0  0.68379837283E+02  0.17234936932E+03  0.88025205655E+03  0.90821160186E+03  0.12499809376E+03 0.  0.
        -11    1    3    3    0    0 -0.43703284010E+02 -0.14787437984E+02 -0.85103189130E+02  0.96804949024E+02  0.00000000000E+00 0.  1.
         12    1    3    3    0    0  0.34873275323E+02 -0.16145885305E+02 -0.41866874677E+02  0.56830186866E+02  0.00000000000E+00 0. -1.
        -13    1    4    4    0    0  0.67028602944E+01 -0.17713622539E+03  0.23357882408E+03  0.29322557484E+03  0.00000000000E+00 0.  1.
         14    1    4    4    0    0  0.34184804889E+02 -0.38007874499E+02  0.11913168821E+03  0.12963625475E+03  0.00000000000E+00 0. -1.
          5    1    5    5  501    0  0.74568340255E+02  0.18667080043E+03  0.73355932560E+03  0.76061672298E+03  0.47000000000E+01 0.  1.
         -5    1    5    5    0  501 -0.61885029722E+01 -0.14321431114E+02  0.14669273095E+03  0.14759487888E+03  0.47000000000E+01 0.  1.
          1    1    1    2  502    0 -0.17823822868E+03  0.46766572677E+02  0.17895353163E+04  0.17989976728E+04  0.00000000000E+00 0. -1.
          1    1    1    2  503    0  0.77800734897E+02  0.26961481183E+02 -0.37669594258E+03  0.38559007894E+03  0.00000000000E+00 0. -1.
<mgrwt>
<rscale>  0 0.12117244E+03</rscale>
<asrwt>0</asrwt>
<pdfrwt beam="1">  1        2 0.45500942E+00 0.17831869E+03</pdfrwt>
<pdfrwt beam="2">  1        2 0.84592975E-01 0.82340001E+02</pdfrwt>
<totfact> 0.20943437E+01</totfact>
</mgrwt>
</event>
<event>
13    1  0.1942437E-008  0.3261947E+02  0.7546771E-02  0.1629840E+00
          2   -1    0    0  503    0  0.00000000000E+00  0.00000000000E+00  0.11158174425E+04  0.11158174425E+04  0.00000000000E+00 0. -1.
         -1   -1    0    0    0  501 -0.00000000000E+00 -0.00000000000E+00 -0.12749508260E+04  0.12749508260E+04  0.00000000000E+00 0.  1.
         24    2    1    2    0    0  0.12242095859E+03  0.11789763004E+03 -0.96272814522E+03  0.98133111849E+03  0.85314361301E+02 0.  0.
         24    2    1    2    0    0 -0.31798558541E+03 -0.77820463780E+02  0.21611449413E+03  0.39608106123E+03  0.54807621600E+02 0.  0.
         25    2    1    2    0    0  0.20988688145E+03  0.51164448151E+01  0.97696261014E+02  0.26315420476E+03  0.12500757998E+03 0.  0.
        -13    1    4    4    0    0 -0.19362416568E+03 -0.56237735734E+02  0.16244817042E+03  0.25892548837E+03  0.00000000000E+00 0.  1.
         14    1    4    4    0    0 -0.12436141973E+03 -0.21582728047E+02  0.53666323706E+02  0.13715557286E+03  0.00000000000E+00 0. -1.
        -13    1    3    3    0    0  0.13422667067E+03  0.10259127594E+03 -0.89897510833E+03  0.91471198440E+03  0.00000000000E+00 0.  1.
         14    1    3    3    0    0 -0.11805712073E+02  0.15306354102E+02 -0.63753036893E+02  0.66619134087E+02  0.00000000000E+00 0. -1.
          5    1    5    5  502    0  0.22095530603E+03  0.14251337453E+01  0.68529655479E+02  0.23139075598E+03  0.47000000000E+01 0.  1.
         -5    1    5    5    0  502 -0.11068424581E+02  0.36913110698E+01  0.29166605535E+02  0.31763448782E+02  0.47000000000E+01 0.  1.
          1    1    1    2  503    0  0.45632024339E+01 -0.32294879673E+02  0.61855574543E+03  0.61941504040E+03  0.00000000000E+00 0. -1.
         -2    1    1    2    0  501 -0.18885457074E+02 -0.12898731404E+02 -0.12877173880E+03  0.13078684366E+03  0.00000000000E+00 0.  1.
<mgrwt>
<rscale>  0 0.27313147E+02</rscale>
<asrwt>0</asrwt>
<pdfrwt beam="1">  1        2 0.16409080E+00 0.32619474E+02</pdfrwt>
<pdfrwt beam="2">  1       -1 0.18749277E+00 0.22870019E+02</pdfrwt>
<totfact> 0.77661260E+00</totfact>
</mgrwt>
</event>
<event>
13    1  0.1942437E-008  0.1900850E+03  0.7546771E-02  0.1347689E+00
          2   -1    0    0  503    0  0.00000000000E+00  0.00000000000E+00  0.14183876256E+04  0.14183876256E+04  0.00000000000E+00 0. -1.
          2   -1    0    0  502    0 -0.00000000000E+00 -0.00000000000E+00 -0.37014707812E+03  0.37014707812E+03  0.00000000000E+00 0. -1.
         24    2    1    2    0    0  0.21987007697E+03  0.30060918382E+02 -0.94088914895E+02  0.25406535799E+03  0.80311721852E+02 0.  0.
         24    2    1    2    0    0 -0.19876788192E+03 -0.13748042627E+02  0.31294980321E+03  0.37978996901E+03  0.81272145720E+02 0.  0.
         25    2    1    2    0    0  0.43228896867E+01  0.15321005375E+03  0.19214079071E+03  0.27574029077E+03  0.12499046584E+03 0.  0.
        -11    1    3    3    0    0  0.23617817044E+02  0.21571107182E+02  0.75894746880E+01  0.32874215930E+02  0.00000000000E+00 0.  1.
         12    1    3    3    0    0  0.19625225992E+03  0.84898111999E+01 -0.10167838958E+03  0.22119114206E+03  0.00000000000E+00 0. -1.
        -11    1    4    4    0    0 -0.68538727138E+02  0.33375368596E+02  0.99480062931E+02  0.12533058393E+03  0.00000000000E+00 0.  1.
         12    1    4    4    0    0 -0.13022915478E+03 -0.47123411223E+02  0.21346974028E+03  0.25445938508E+03  0.00000000000E+00 0. -1.
          5    1    5    5  501    0  0.39888242190E+02  0.21149830079E+02  0.76435514970E+01  0.46031522426E+02  0.47000000000E+01 0. -1.
         -5    1    5    5    0  501 -0.35565352503E+02  0.13206022367E+03  0.18449723922E+03  0.22970876834E+03  0.47000000000E+01 0. -1.
          1    1    1    2  502    0 -0.19018143074E+02  0.21410800110E+02 -0.10689962151E+03  0.11066906165E+03  0.00000000000E+00 0. -1.
          1    1    1    2  503    0 -0.64069416614E+01 -0.19093372962E+03  0.74413848999E+03  0.76827002434E+03  0.00000000000E+00 0. -1.
<mgrwt>
<rscale>  0 0.73780599E+02</rscale>
<asrwt>0</asrwt>
<pdfrwt beam="1">  1        2 0.20858641E+00 0.19008495E+03</pdfrwt>
<pdfrwt beam="2">  1        2 0.54433394E-01 0.28637600E+02</pdfrwt>
<totfact> 0.23728559E+02</totfact>
</mgrwt>
</event>
<event>
13    1  0.1942437E-008  0.8279979E+02  0.7546771E-02  0.1414254E+00
          2   -1    0    0  502    0  0.00000000000E+00  0.00000000000E+00  0.34282491853E+04  0.34282491853E+04  0.00000000000E+00 0. -1.
          2   -1    0    0  503    0 -0.00000000000E+00 -0.00000000000E+00 -0.22153610327E+04  0.22153610327E+04  0.00000000000E+00 0. -1.
         24    2    1    2    0    0  0.28795433421E+03  0.58755182230E+03 -0.17468534811E+03  0.68190594237E+03  0.79661163187E+02 0.  0.
         24    2    1    2    0    0  0.91022980111E+01 -0.12947163926E+04  0.17266153247E+02  0.12976296867E+04  0.84683497853E+02 0.  0.
         25    2    1    2    0    0 -0.29375972686E+03  0.63447006999E+03  0.48225876766E+03  0.85851441631E+03  0.12500574863E+03 0.  0.
        -11    1    4    4    0    0  0.21779714180E+02 -0.29862969882E+03  0.33804328976E+02  0.30132504978E+03  0.00000000000E+00 0.  1.
         12    1    4    4    0    0 -0.12677416168E+02 -0.99608669376E+03 -0.16538175729E+02  0.99630463696E+03  0.00000000000E+00 0. -1.
        -11    1    3    3    0    0  0.14002103873E+03  0.23877400443E+03 -0.10854035546E+03  0.29732124923E+03  0.00000000000E+00 0.  1.
         12    1    3    3    0    0  0.14793329548E+03  0.34877781786E+03 -0.66144992652E+02  0.38458469314E+03  0.00000000000E+00 0. -1.
          5    1    5    5  501    0 -0.27687116376E+03  0.54337601549E+03  0.45781542791E+03  0.76258258016E+03  0.47000000000E+01 0. -1.
         -5    1    5    5    0  501 -0.16888563101E+02  0.91094054500E+02  0.24443339747E+02  0.95931836148E+02  0.47000000000E+01 0. -1.
          1    1    1    2  502    0 -0.38142839749E+02 -0.24385943649E+01  0.18448174914E+04  0.18452133751E+04  0.00000000000E+00 0. -1.
          1    1    1    2  503    0  0.34845934381E+02  0.75133094660E+02 -0.95676891163E+03  0.96034679742E+03  0.00000000000E+00 0. -1.
<mgrwt>
<rscale>  0 0.56255374E+02</rscale>
<asrwt>0</asrwt>
<pdfrwt beam="1">  1        2 0.50415429E+00 0.38220714E+02</pdfrwt>
<pdfrwt beam="2">  1        2 0.32578839E+00 0.82799790E+02</pdfrwt>
<totfact> 0.23038830E+00</totfact>
</mgrwt>
</event>
<event>
13    1  0.1942437E-008  0.1649851E+03  0.7546771E-02  0.1227216E+00
          2   -1    0    0  503    0  0.00000000000E+00  0.00000000000E+00  0.18603450091E+04  0.18603450091E+04  0.00000000000E+00 0. -1.
          2   -1    0    0  502    0 -0.00000000000E+00 -0.00000000000E+00 -0.21429381164E+04  0.21429381164E+04  0.00000000000E+00 0. -1.
         24    2    1    2    0    0 -0.41133150717E+02  0.81735177804E+02 -0.40129169126E+03  0.41945776489E+03  0.80853074645E+02 0.  0.
         24    2    1    2    0    0 -0.18766970177E+02 -0.31379546438E+02 -0.26790641105E+03  0.28178810144E+03  0.79333561180E+02 0.  0.
         25    2    1    2    0    0  0.11268925832E+03  0.23104116944E+03  0.13481513042E+03  0.31602834750E+03  0.12497962282E+03 0.  0.
        -11    1    3    3    0    0 -0.58144442071E+01 -0.62645006989E+01 -0.15962920101E+03  0.15985785419E+03  0.00000000000E+00 0.  1.
         12    1    3    3    0    0 -0.35318706510E+02  0.87999678503E+02 -0.24166249024E+03  0.25959991070E+03  0.00000000000E+00 0. -1.
        -13    1    4    4    0    0  0.23023377961E+02 -0.33979787552E+02 -0.88417433069E+02  0.97479969046E+02  0.00000000000E+00 0.  1.
         14    1    4    4    0    0 -0.41790348138E+02  0.26002411136E+01 -0.17948897798E+03  0.18430813239E+03  0.00000000000E+00 0. -1.
          5    1    5    5  501    0  0.11990947105E+03  0.24293900636E+03  0.12532446473E+03  0.29853970174E+03  0.47000000000E+01 0.  1.
         -5    1    5    5    0  501 -0.72202127304E+01 -0.11897836922E+02  0.94906656853E+01  0.17488645758E+02  0.47000000000E+01 0.  1.
          1    1    1    2  502    0 -0.25431290585E+02 -0.91586906253E+02 -0.13597654004E+04  0.13630835837E+04  0.00000000000E+00 0. -1.
          1    1    1    2  503    0 -0.27357846836E+02 -0.18980989455E+03  0.16115552650E+04  0.16229253279E+04  0.00000000000E+00 0. -1.
<mgrwt>
<rscale>  0 0.13016141E+03</rscale>
<asrwt>0</asrwt>
<pdfrwt beam="1">  1        2 0.27358015E+00 0.16498506E+03</pdfrwt>
<pdfrwt beam="2">  1        2 0.31513796E+00 0.10268804E+03</pdfrwt>
<totfact> 0.12387504E+01</totfact>
</mgrwt>
</event>
<event>
13    1  0.1942437E-008  0.1090284E+03  0.7546771E-02  0.1267752E+00
          2   -1    0    0  502    0  0.00000000000E+00  0.00000000000E+00  0.21451603209E+04  0.21451603209E+04  0.00000000000E+00 0. -1.
          2   -1    0    0  503    0 -0.00000000000E+00 -0.00000000000E+00 -0.79926801146E+03  0.79926801146E+03  0.00000000000E+00 0. -1.
         24    2    1    2    0    0 -0.18559172338E+02 -0.73524640230E+02 -0.67403549854E+02  0.12928458119E+03  0.80130823039E+02 0.  0.
         24    2    1    2    0    0 -0.26615055498E+02  0.32578129808E+02  0.19793670326E+02  0.92978273924E+02  0.80520024317E+02 0.  0.
         25    2    1    2    0    0 -0.27118261645E+02  0.31961760005E+02  0.42582056337E+03  0.44576353907E+03  0.12500010542E+03 0.  0.
        -11    1    4    4    0    0 -0.70299029503E+01 -0.24908183538E+02  0.19232321504E+02  0.32244679144E+02  0.00000000000E+00 0.  1.
         12    1    4    4    0    0 -0.19585152548E+02  0.57486313346E+02  0.56134882171E+00  0.60733594780E+02  0.00000000000E+00 0. -1.
        -11    1    3    3    0    0 -0.24333991348E+02  0.97840701452E+01 -0.21990630175E+02  0.34226582929E+02  0.00000000000E+00 0.  1.
         12    1    3    3    0    0  0.57748190102E+01 -0.83308710376E+02 -0.45412919679E+02  0.95057998258E+02  0.00000000000E+00 0. -1.
          5    1    5    5  501    0 -0.38568544213E+02  0.76168709378E+02  0.29376015524E+03  0.30595150547E+03  0.47000000000E+01 0. -1.
         -5    1    5    5    0  501  0.11450282568E+02 -0.44206949373E+02  0.13206040813E+03  0.13981203360E+03  0.47000000000E+01 0. -1.
          1    1    1    2  502    0 -0.33508909110E+01 -0.10348127434E+03  0.16133460550E+04  0.16166648063E+04  0.00000000000E+00 0. -1.
          1    1    1    2  503    0  0.75643380391E+02  0.11246602475E+03 -0.64566442945E+03  0.65973713188E+03  0.00000000000E+00 0. -1.
<mgrwt>
<rscale>  0 0.10621110E+03</rscale>
<asrwt>0</asrwt>
<pdfrwt beam="1">  1        2 0.31546475E+00 0.10346656E+03</pdfrwt>
<pdfrwt beam="2">  1        2 0.11753941E+00 0.10902843E+03</pdfrwt>
<totfact> 0.46997380E+01</totfact>
</mgrwt>
</event>
<event>
13    1  0.1942437E-008  0.5644366E+02  0.7546771E-02  0.1452337E+00
         -3   -1    0    0    0  501 -0.00000000000E+00  0.00000000000E+00  0.23420377751E+03  0.23420377751E+03  0.00000000000E+00 0.  1.
          2   -1    0    0  503    0  0.00000000000E+00 -0.00000000000E+00 -0.23983639683E+04  0.23983639683E+04  0.00000000000E+00 0. -1.
         24    2    1    2    0    0  0.29830598225E+02 -0.49086467429E+02  0.23972062100E+02  0.10282979588E+03  0.81853291225E+02 0.  0.
         24    2    1    2    0    0 -0.45684093999E+02  0.68792353054E+02 -0.29353109322E+02  0.11942754698E+03  0.81128969355E+02 0.  0.
         25    2    1    2    0    0 -0.89845870222E+01 -0.37963826100E+02 -0.11319317924E+04  0.11394808512E+04  0.12500021133E+03 0.  0.
        -11    1    3    3    0    0 -0.23901683558E+02 -0.30245207449E+01 -0.76999782916E+01  0.25292842235E+02  0.00000000000E+00 0.  1.
         12    1    3    3    0    0  0.53732281784E+02 -0.46061946684E+02  0.31672040392E+02  0.77536953645E+02  0.00000000000E+00 0. -1.
        -11    1    4    4    0    0  0.16973656572E+02  0.45850625586E+02 -0.15389674413E+02  0.51256482152E+02  0.00000000000E+00 0.  1.
         12    1    4    4    0    0 -0.62657750571E+02  0.22941727467E+02 -0.13963434909E+02  0.68171064832E+02  0.00000000000E+00 0. -1.
          5    1    5    5  502    0 -0.59315350900E+02 -0.58862383702E+00 -0.75511523390E+03  0.75745611344E+03  0.47000000000E+01 0. -1.
         -5    1    5    5    0  502  0.50330763878E+02 -0.37375202263E+02 -0.37681655846E+03  0.38202473777E+03  0.47000000000E+01 0. -1.
          1    1    1    2  503    0 -0.30838446304E+02  0.28606581712E+02 -0.11418581306E+04  0.11426326342E+04  0.00000000000E+00 0. -1.
         -4    1    1    2    0  501  0.55676529100E+02 -0.10348641237E+02  0.11501077944E+03  0.12819691749E+03  0.00000000000E+00 0.  1.
<mgrwt>
<rscale>  0 0.48726006E+02</rscale>
<asrwt>0</asrwt>
<pdfrwt beam="2">  1        2 0.35270060E+00 0.42063598E+02</pdfrwt>
<pdfrwt beam="1">  1       -3 0.34441731E-01 0.56443665E+02</pdfrwt>
<totfact> 0.30874158E+01</totfact>
</mgrwt>
</event>
<event>
13    1  0.1942437E-008  0.2889616E+03  0.7546771E-02  0.1263667E+00
          2   -1    0    0  502    0  0.00000000000E+00  0.00000000000E+00  0.11931115580E+04  0.11931115580E+04  0.00000000000E+00 0. -1.
          2   -1    0    0  503    0 -0.00000000000E+00 -0.00000000000E+00 -0.46031897225E+04  0.46031897225E+04  0.00000000000E+00 0. -1.
         24    2    1    2    0    0  0.65096013791E+03  0.22171102532E+03 -0.61432555978E+03  0.92578243061E+03  0.82294201115E+02 0.  0.
         24    2    1    2    0    0 -0.22109352267E+03 -0.23075582461E+03 -0.19146613654E+03  0.38167464106E+03  0.82979839884E+02 0.  0.
         25    2    1    2    0    0 -0.12577002052E+03  0.99896112279E+02  0.16303195236E+03  0.26077314162E+03  0.12500353032E+03 0.  0.
        -11    1    4    4    0    0 -0.61250246801E+02 -0.23418852580E+02 -0.59277636979E+02  0.88396117761E+02  0.00000000000E+00 0.  1.
         12    1    4    4    0    0 -0.15984327586E+03 -0.20733697203E+03 -0.13218849956E+03  0.29327852329E+03  0.00000000000E+00 0. -1.
        -11    1    3    3    0    0  0.39789790956E+03  0.17345341672E+03 -0.36244724041E+03  0.56548813983E+03  0.00000000000E+00 0.  1.
         12    1    3    3    0    0  0.25306222835E+03  0.48257608603E+02 -0.25187831936E+03  0.36029429078E+03  0.00000000000E+00 0. -1.
          5    1    5    5  501    0 -0.91367547513E+02  0.21970165357E+02  0.23096120096E+02  0.96882597342E+02  0.47000000000E+01 0. -1.
         -5    1    5    5    0  501 -0.34402473004E+02  0.77925946921E+02  0.13993583227E+03  0.16389054428E+03  0.47000000000E+01 0. -1.
          1    1    1    2  502    0 -0.27944941042E+03 -0.58559546425E+02  0.70234904700E+03  0.75816579802E+03  0.00000000000E+00 0. -1.
          1    1    1    2  503    0 -0.24647184315E+02 -0.32291766563E+02 -0.34696674675E+04  0.34699052692E+04  0.00000000000E+00 0. -1.
<mgrwt>
<rscale>  0 0.10834452E+03</rscale>
<asrwt>0</asrwt>
<pdfrwt beam="1">  1        2 0.17545758E+00 0.28896156E+03</pdfrwt>
<pdfrwt beam="2">  1        2 0.67693967E+00 0.40623169E+02</pdfrwt>
<totfact> 0.11229443E+00</totfact>
</mgrwt>
</event>
<event>
13    1  0.1942437E-008  0.1088537E+03  0.7546771E-02  0.1421981E+00
          2   -1    0    0  502    0  0.00000000000E+00  0.00000000000E+00  0.67745677646E+03  0.67745677646E+03  0.00000000000E+00 0. -1.
          2   -1    0    0  503    0 -0.00000000000E+00 -0.00000000000E+00 -0.26319071272E+04  0.26319071272E+04  0.00000000000E+00 0. -1.
         24    2    1    2    0    0  0.56797969314E+01  0.28652287773E+02 -0.21747978632E+03  0.23138208659E+03  0.73396177345E+02 0.  0.
         24    2    1    2    0    0 -0.95681445974E+02 -0.78059265263E+02 -0.10193913694E+03  0.17938947213E+03  0.80875256254E+02 0.  0.
         25    2    1    2    0    0 -0.48567736750E+02  0.25384919690E+02  0.16836048696E+03  0.21672990589E+03  0.12499351718E+03 0.  0.
        -11    1    4    4    0    0 -0.85751180033E+02 -0.94756814605E+02 -0.92695695782E+02  0.15787530145E+03  0.00000000000E+00 0.  1.
         12    1    4    4    0    0 -0.99302659405E+01  0.16697549342E+02 -0.92434411588E+01  0.21514170682E+02  0.00000000000E+00 0. -1.
        -11    1    3    3    0    0  0.36821156156E+02  0.61179979371E+01 -0.14000955425E+03  0.14489962981E+03  0.00000000000E+00 0.  1.
         12    1    3    3    0    0 -0.31141359224E+02  0.22534289836E+02 -0.77470232076E+02  0.86482456779E+02  0.00000000000E+00 0. -1.
          5    1    5    5  501    0 -0.53295402957E+02  0.50466211191E+02  0.36068148296E+02  0.81916053188E+02  0.47000000000E+01 0.  1.
         -5    1    5    5    0  501  0.47276662070E+01 -0.25081291501E+02  0.13229233866E+03  0.13481385270E+03  0.47000000000E+01 0.  1.
          1    1    1    2  502    0 -0.13038492550E+02  0.24088627646E+02  0.43624295678E+03  0.43710202654E+03  0.00000000000E+00 0. -1.
          1    1    1    2  503    0  0.15160787834E+03 -0.66569845808E-01 -0.22396348712E+04  0.22447604125E+04  0.00000000000E+00 0. -1.
<mgrwt>
<rscale>  0 0.54604082E+02</rscale>
<asrwt>0</asrwt>
<pdfrwt beam="1">  1        2 0.99626000E-01 0.27390952E+02</pdfrwt>
<pdfrwt beam="2">  1        2 0.38704515E+00 0.10885367E+03</pdfrwt>
<totfact> 0.33787530E+01</totfact>
</mgrwt>
</event>
<event>
13    1  0.1942437E-008  0.1104470E+03  0.7546771E-02  0.1309485E+00
         -1   -1    0    0    0  501 -0.00000000000E+00  0.00000000000E+00  0.78128178040E+03  0.78128178040E+03  0.00000000000E+00 0.  1.
          2   -1    0    0  503    0  0.00000000000E+00 -0.00000000000E+00 -0.13127859090E+04  0.13127859090E+04  0.00000000000E+00 0. -1.
         24    2    1    2    0    0  0.86210201443E+02  0.38477674927E+02  0.93870088722E+02  0.15348273351E+03  0.76371628421E+02 0.  0.
         24    2    1    2    0    0  0.78962271194E+02  0.83463529193E+01 -0.34463569157E+03  0.36255184861E+03  0.79783338789E+02 0.  0.
         25    2    1    2    0    0 -0.19648753372E+02 -0.71551345160E+01 -0.28221470043E+03  0.30936750012E+03  0.12500337408E+03 0.  0.
        -11    1    4    4    0    0  0.77024940844E+02  0.35475197056E+02 -0.24452121066E+03  0.25880872007E+03  0.00000000000E+00 0.  1.
         12    1    4    4    0    0  0.19373303500E+01 -0.27128844136E+02 -0.10011448091E+03  0.10374312855E+03  0.00000000000E+00 0. -1.
        -11    1    3    3    0    0  0.10062987133E+03  0.35401833407E+02  0.83136498504E+02  0.13524547385E+03  0.00000000000E+00 0.  1.
         12    1    3    3    0    0 -0.14419669892E+02  0.30758415204E+01  0.10733590218E+02  0.18237259658E+02  0.00000000000E+00 0. -1.
          5    1    5    5  502    0 -0.32109082258E+02 -0.61973942561E+02 -0.16790105920E+03  0.18189177662E+03  0.47000000000E+01 0.  1.
         -5    1    5    5    0  502  0.12460328886E+02  0.54818808045E+02 -0.11431364123E+03  0.12747572350E+03  0.47000000000E+01 0.  1.
          1    1    1    2  503    0  0.19178042891E+02 -0.66311581612E+02 -0.62069022654E+03  0.62451691771E+03  0.00000000000E+00 0. -1.
         -2    1    1    2    0  501 -0.16470176216E+03  0.26642688282E+02  0.62216640123E+03  0.64414868945E+03  0.00000000000E+00 0.  1.
<mgrwt>
<rscale>  0 0.87315867E+02</rscale>
<asrwt>0</asrwt>
<pdfrwt beam="2">  1        2 0.19305675E+00 0.69029147E+02</pdfrwt>
<pdfrwt beam="1">  1       -1 0.11489438E+00 0.11044698E+03</pdfrwt>
<totfact> 0.18058091E+01</totfact>
</mgrwt>
</event>
<event>
13    1  0.1942437E-008  0.8591930E+02  0.7546771E-02  0.1513897E+00
          2   -1    0    0  502    0  0.00000000000E+00  0.00000000000E+00  0.36973967852E+04  0.36973967852E+04  0.00000000000E+00 0. -1.
          2   -1    0    0  503    0 -0.00000000000E+00 -0.00000000000E+00 -0.66914364400E+03  0.66914364400E+03  0.00000000000E+00 0. -1.
         24    2    1    2    0    0 -0.41959712957E+02  0.28916777506E+02 -0.26145080564E+03  0.27919650936E+03  0.83650281152E+02 0.  0.
         24    2    1    2    0    0 -0.45595661723E+02  0.88128965492E+01 -0.27675860598E+02  0.10152599342E+03  0.85935688554E+02 0.  0.
         25    2    1    2    0    0  0.34519547288E+02  0.26046913692E+02  0.34562129509E+03  0.37007195260E+03  0.12501651741E+03 0.  0.
        -11    1    4    4    0    0 -0.81886399905E+01 -0.31618009819E+02 -0.32698435963E+02  0.46216231826E+02  0.00000000000E+00 0.  1.
         12    1    4    4    0    0 -0.37407021732E+02  0.40430906368E+02  0.50225753644E+01  0.55309761597E+02  0.00000000000E+00 0. -1.
        -13    1    3    3    0    0 -0.33689528463E+02  0.40117739610E+02 -0.25996874473E+03  0.26519458063E+03  0.00000000000E+00 0.  1.
         14    1    3    3    0    0 -0.82701844944E+01 -0.11200962104E+02 -0.14820609101E+01  0.14001928730E+02  0.00000000000E+00 0. -1.
          5    1    5    5  501    0  0.75234958315E+02 -0.11037621554E+02  0.22034613675E+03  0.23314510079E+03  0.47000000000E+01 0. -1.
         -5    1    5    5    0  501 -0.40715411027E+02  0.37084535246E+02  0.12527515835E+03  0.13692685182E+03  0.47000000000E+01 0. -1.
          1    1    1    2  502    0  0.39985877063E+02 -0.76056447186E+02  0.32929420493E+04  0.32940629613E+04  0.00000000000E+00 0. -1.
          1    1    1    2  503    0  0.13049950329E+02  0.12279859438E+02 -0.32118353690E+03  0.32168301249E+03  0.00000000000E+00 0. -1.
<mgrwt>
<rscale>  0 0.39237753E+02</rscale>
<asrwt>0</asrwt>
<pdfrwt beam="1">  1        2 0.54373481E+00 0.85919298E+02</pdfrwt>
<pdfrwt beam="2">  1        2 0.98403479E-01 0.17919156E+02</pdfrwt>
<totfact> 0.92696536E+00</totfact>
</mgrwt>
</event>
<event>
13    1  0.1942437E-008  0.7039705E+02  0.7546771E-02  0.1418719E+00
          2   -1    0    0  503    0  0.00000000000E+00  0.00000000000E+00  0.10091566527E+04  0.10091566527E+04  0.00000000000E+00 0. -1.
          2   -1    0    0  502    0 -0.00000000000E+00 -0.00000000000E+00 -0.82162416659E+03  0.82162416659E+03  0.00000000000E+00 0. -1.
         24    2    1    2    0    0  0.40588315976E+02  0.94770765177E+01 -0.83967260536E+02  0.12642511989E+03  0.84826786593E+02 0.  0.
         24    2    1    2    0    0 -0.15413231108E+02  0.77271924908E+02 -0.16832082261E+03  0.20238999672E+03  0.80132973089E+02 0.  0.
         25    2    1    2    0    0  0.83104825557E+02 -0.56609874821E+02  0.39394780622E+03  0.42536015895E+03  0.12500120335E+03 0.  0.
        -11    1    3    3    0    0  0.58801552130E+02  0.23018746662E+02 -0.34399148990E+02  0.71908182303E+02  0.00000000000E+00 0.  1.
         12    1    3    3    0    0 -0.18213236154E+02 -0.13541670144E+02 -0.49568111546E+02  0.54516937586E+02  0.00000000000E+00 0. -1.
        -13    1    4    4    0    0 -0.28771287732E+02  0.10055889613E+02 -0.14005420318E+02  0.33541909784E+02  0.00000000000E+00 0.  1.
         14    1    4    4    0    0  0.13358056624E+02  0.67216035294E+02 -0.15431540229E+03  0.16884808693E+03  0.00000000000E+00 0. -1.
          5    1    5    5  501    0 -0.11530837509E+02  0.42315956732E+01 -0.23636677529E+01  0.13362018592E+02  0.47000000000E+01 0.  1.
         -5    1    5    5    0  501  0.94635663066E+02 -0.60841470495E+02  0.39631147397E+03  0.41199814036E+03  0.47000000000E+01 0.  1.
          1    1    1    2  502    0 -0.69315739713E+02 -0.10958223845E+02 -0.51212976152E+03  0.51691551252E+03  0.00000000000E+00 0. -1.
          1    1    1    2  503    0 -0.38964170712E+02 -0.19180902759E+02  0.55800252454E+03  0.55969003120E+03  0.00000000000E+00 0. -1.
<mgrwt>
<rscale>  0 0.55292879E+02</rscale>
<asrwt>0</asrwt>
<pdfrwt beam="1">  1        2 0.14840539E+00 0.43429410E+02</pdfrwt>
<pdfrwt beam="2">  1        2 0.12082708E+00 0.70397053E+02</pdfrwt>
<totfact> 0.17974195E+02</totfact>
</mgrwt>
</event>
<event>
13    1  0.1942437E-008  0.1441399E+03  0.7546771E-02  0.1319515E+00
          2   -1    0    0  503    0  0.00000000000E+00  0.00000000000E+00  0.62857515071E+03  0.62857515071E+03  0.00000000000E+00 0. -1.
          2   -1    0    0  502    0 -0.00000000000E+00 -0.00000000000E+00 -0.39301758804E+04  0.39301758804E+04  0.00000000000E+00 0. -1.
         24    2    1    2    0    0  0.68277480142E+02  0.87511751278E+01 -0.47204051309E+03  0.48419119880E+03  0.82948620449E+02 0.  0.
         24    2    1    2    0    0 -0.48983466492E+01  0.63596062015E+01 -0.13748341492E+03  0.15895073752E+03  0.79367557527E+02 0.  0.
         25    2    1    2    0    0 -0.22761328643E+03 -0.58311445566E+02 -0.11015479911E+02  0.26636896710E+03  0.12499221173E+03 0.  0.
        -11    1    4    4    0    0  0.40366061824E+01 -0.11779840032E+02  0.61589392566E+01  0.13892132789E+02  0.00000000000E+00 0.  1.
         12    1    4    4    0    0 -0.89349528316E+01  0.18139446234E+02 -0.14364235418E+03  0.14505860473E+03  0.00000000000E+00 0. -1.
        -11    1    3    3    0    0  0.21396805210E+02  0.40832724731E+02 -0.28533440995E+03  0.28903435814E+03  0.00000000000E+00 0.  1.
         12    1    3    3    0    0  0.46880674931E+02 -0.32081549603E+02 -0.18670610314E+03  0.19515684066E+03  0.00000000000E+00 0. -1.
          5    1    5    5  501    0 -0.16628209714E+03 -0.19643924359E+02 -0.60905875144E+02  0.17823365345E+03  0.47000000000E+01 0. -1.
         -5    1    5    5    0  501 -0.61331189285E+02 -0.38667521207E+02  0.49890395233E+02  0.88135313648E+02  0.47000000000E+01 0. -1.
          1    1    1    2  502    0  0.11625273140E+03  0.48932755040E+02 -0.31626846105E+04  0.31651987391E+04  0.00000000000E+00 0. -1.
          1    1    1    2  503    0  0.47981421537E+02 -0.57320908036E+01  0.48162328874E+03  0.48404138866E+03  0.00000000000E+00 0. -1.
<mgrwt>
<rscale>  0 0.83457875E+02</rscale>
<asrwt>0</asrwt>
<pdfrwt beam="1">  1        2 0.92437524E-01 0.48322600E+02</pdfrwt>
<pdfrwt beam="2">  1        2 0.57796703E+00 0.14413995E+03</pdfrwt>
<totfact> 0.62309246E+00</totfact>
</mgrwt>
</event>
<event>
13    1  0.1942437E-008  0.6037902E+02  0.7546771E-02  0.1426358E+00
          2   -1    0    0  503    0  0.00000000000E+00  0.00000000000E+00  0.16868616059E+04  0.16868616059E+04  0.00000000000E+00 0. -1.
          2   -1    0    0  502    0 -0.00000000000E+00 -0.00000000000E+00 -0.17057965409E+04  0.17057965409E+04  0.00000000000E+00 0. -1.
         24    2    1    2    0    0 -0.13781780396E+03 -0.16156306686E+03 -0.28444255844E+03  0.36386140909E+03  0.79944882957E+02 0.  0.
         24    2    1    2    0    0  0.12791678819E+02 -0.73931621754E+01  0.54901115351E+01  0.81808900804E+02  0.80276204645E+02 0.  0.
         25    2    1    2    0    0  0.12662979434E+03  0.18549511121E+03  0.83430920837E+03  0.87300601235E+03  0.12499640529E+03 0.  0.
        -11    1    3    3    0    0 -0.11676708812E+03 -0.16502030257E+03 -0.27286263452E+03  0.33958838385E+03  0.00000000000E+00 0.  1.
         12    1    3    3    0    0 -0.21050715845E+02  0.34572357090E+01 -0.11579923916E+02  0.24273025239E+02  0.00000000000E+00 0. -1.
        -13    1    4    4    0    0  0.45552680839E+02  0.65472447108E+01  0.30468147796E+01  0.46121537542E+02  0.00000000000E+00 0.  1.
         14    1    4    4    0    0 -0.32761002021E+02 -0.13940406886E+02  0.24432967554E+01  0.35687363262E+02  0.00000000000E+00 0. -1.
          5    1    5    5  501    0  0.40928245019E+02  0.13555462372E+03  0.33184389442E+03  0.36082216883E+03  0.47000000000E+01 0.  1.
         -5    1    5    5    0  501  0.85701549324E+02  0.49940487492E+02  0.50246531394E+03  0.51218384352E+03  0.47000000000E+01 0.  1.
          1    1    1    2  502    0  0.29686684152E+02 -0.52616380468E+02 -0.13226861961E+04  0.13240651630E+04  0.00000000000E+00 0. -1.
          1    1    1    2  503    0 -0.31290353353E+02  0.36077498295E+02  0.74839449966E+03  0.74991666152E+03  0.00000000000E+00 0. -1.
<mgrwt>
<rscale>  0 0.53698079E+02</rscale>
<asrwt>0</asrwt>
<pdfrwt beam="1">  1        2 0.24806788E+00 0.47756383E+02</pdfrwt>
<pdfrwt beam="2">  1        2 0.25085243E+00 0.60379023E+02</pdfrwt>
<totfact> 0.28733200E+01</totfact>
</mgrwt>
</event>
<event>
13    1  0.1942437E-008  0.2648958E+03  0.7546771E-02  0.1173936E+00
          2   -1    0    0  503    0  0.00000000000E+00  0.00000000000E+00  0.93959936544E+03  0.93959936544E+03  0.00000000000E+00 0. -1.
          2   -1    0    0  502    0 -0.00000000000E+00 -0.00000000000E+00 -0.22013545214E+04  0.22013545214E+04  0.00000000000E+00 0. -1.
         24    2    1    2    0    0  0.11437264231E+03 -0.16731812850E+03 -0.32324777783E+03  0.39001775305E+03  0.80921346936E+02 0.  0.
         24    2    1    2    0    0 -0.64796731526E+01 -0.89866975985E+02  0.52275176221E+02  0.13136212245E+03  0.80032828440E+02 0.  0.
         25    2    1    2    0    0 -0.15214964004E+03 -0.11337760907E+03  0.13083356788E+03  0.26219567239E+03  0.12500061173E+03 0.  0.
        -11    1    3    3    0    0  0.49945748006E+01  0.72940668763E+01 -0.32391726119E+01  0.94149576868E+01  0.00000000000E+00 0.  1.
         12    1    3    3    0    0  0.10937806751E+03 -0.17461219537E+03 -0.32000860522E+03  0.38060279537E+03  0.00000000000E+00 0. -1.
        -11    1    4    4    0    0 -0.13674895992E+02 -0.18128812111E+02 -0.19275822742E+02  0.29786136898E+02  0.00000000000E+00 0.  1.
         12    1    4    4    0    0  0.71952228395E+01 -0.71738163875E+02  0.71550998963E+02  0.10157598555E+03  0.00000000000E+00 0. -1.
          5    1    5    5  501    0 -0.29124052977E+02 -0.71350918876E+02 -0.67795834444E+00  0.77212134498E+02  0.47000000000E+01 0.  1.
         -5    1    5    5    0  501 -0.12302558707E+03 -0.42026690193E+02  0.13151152623E+03  0.18498353789E+03  0.47000000000E+01 0.  1.
          1    1    1    2  502    0 -0.66014264187E+02  0.28434393048E+03 -0.17191050514E+04  0.17437119979E+04  0.00000000000E+00 0. -1.
          1    1    1    2  503    0  0.11027093507E+03  0.86218783069E+02  0.59748892915E+03  0.61366634105E+03  0.00000000000E+00 0. -1.
<mgrwt>
<rscale>  0 0.17380625E+03</rscale>
<asrwt>0</asrwt>
<pdfrwt beam="1">  1        2 0.13817638E+00 0.11403960E+03</pdfrwt>
<pdfrwt beam="2">  1        2 0.32372860E+00 0.26489583E+03</pdfrwt>
<totfact> 0.32515032E+01</totfact>
</mgrwt>
</event>
<event>
13    1  0.1942437E-008  0.2950995E+03  0.7546771E-02  0.1245917E+00
          2   -1    0    0  503    0  0.00000000000E+00  0.00000000000E+00  0.76866632948E+03  0.76866632948E+03  0.00000000000E+00 0. -1.
          2   -1    0    0  502    0 -0.00000000000E+00 -0.00000000000E+00 -0.25013352624E+04  0.25013352624E+04  0.00000000000E+00 0. -1.
         24    2    1    2    0    0  0.23875228506E+02 -0.18323013512E+03 -0.85942703630E+02  0.21868300257E+03  0.79327160254E+02 0.  0.
         24    2    1    2    0    0 -0.78689148683E+02 -0.61265723816E+02  0.39431602688E+02  0.13415564351E+03  0.80606540436E+02 0.  0.
         25    2    1    2    0    0 -0.11457982220E+03 -0.76544378550E+01  0.33697105481E+03  0.37730833106E+03  0.12499983533E+03 0.  0.
        -13    1    4    4    0    0 -0.61118273359E+02  0.28660249192E+01  0.12707014386E+02  0.62491004567E+02  0.00000000000E+00 0.  1.
         14    1    4    4    0    0 -0.17570875324E+02 -0.64131748735E+02  0.26724588302E+02  0.71664638947E+02  0.00000000000E+00 0. -1.
        -13    1    3    3    0    0  0.13577237830E+02  0.13523684769E+01  0.22934333373E+01  0.13835827553E+02  0.00000000000E+00 0.  1.
         14    1    3    3    0    0  0.10297990675E+02 -0.18458250359E+03 -0.88236136968E+02  0.20484717501E+03  0.00000000000E+00 0. -1.
          5    1    5    5  501    0 -0.82624793262E+02 -0.44999391143E+01  0.33466379715E+03  0.34477391583E+03  0.47000000000E+01 0.  1.
         -5    1    5    5    0  501 -0.31955028935E+02 -0.31544987407E+01  0.23072576639E+01  0.32534415232E+02  0.47000000000E+01 0.  1.
          1    1    1    2  502    0  0.20478164184E+03  0.22057065910E+03 -0.22692917846E+04  0.22891640701E+04  0.00000000000E+00 0. -1.
          1    1    1    2  503    0 -0.35387899469E+02  0.31579637685E+02  0.24616289774E+03  0.25069054464E+03  0.00000000000E+00 0. -1.
<mgrwt>
<rscale>  0 0.11830672E+03</rscale>
<asrwt>0</asrwt>
<pdfrwt beam="1">  1        2 0.11303917E+00 0.47429705E+02</pdfrwt>
<pdfrwt beam="2">  1        2 0.36784342E+00 0.29509946E+03</pdfrwt>
<totfact> 0.29813402E+01</totfact>
</mgrwt>
</event>
<event>
13    1  0.1942437E-008  0.7388464E+02  0.7546771E-02  0.1490318E+00
          2   -1    0    0  503    0  0.00000000000E+00  0.00000000000E+00  0.20658779316E+04  0.20658779316E+04  0.00000000000E+00 0. -1.
          2   -1    0    0  502    0 -0.00000000000E+00 -0.00000000000E+00 -0.29718156723E+03  0.29718156723E+03  0.00000000000E+00 0. -1.
         24    2    1    2    0    0  0.74650639922E+02 -0.15717466805E+03  0.18944646310E+03  0.27067398978E+03  0.84248751023E+02 0.  0.
         24    2    1    2    0    0 -0.51538133451E+02  0.58957814399E+02  0.14893070910E+03  0.18864088918E+03  0.85280864661E+02 0.  0.
         25    2    1    2    0    0 -0.72481385821E+02  0.48647470116E+02  0.57357056546E+03  0.59347833745E+03  0.12495285439E+03 0.  0.
        -13    1    3    3    0    0  0.32566570933E+01  0.99730865688E+01  0.17892664318E+02  0.20741641872E+02  0.00000000000E+00 0.  1.
         14    1    3    3    0    0  0.71393982829E+02 -0.16714775462E+03  0.17155379878E+03  0.24993234791E+03  0.00000000000E+00 0. -1.
        -13    1    4    4    0    0 -0.35833131853E+02  0.79259329567E+02  0.94357892318E+02  0.12833341928E+03  0.00000000000E+00 0.  1.
         14    1    4    4    0    0 -0.15705001598E+02 -0.20301515168E+02  0.54572816785E+02  0.60307469896E+02  0.00000000000E+00 0. -1.
          5    1    5    5  501    0 -0.59399936830E+02 -0.34008520135E+02  0.25893463592E+03  0.26786968402E+03  0.47000000000E+01 0.  1.
         -5    1    5    5    0  501 -0.13081448991E+02  0.82655990251E+02  0.31463592954E+03  0.32560865343E+03  0.47000000000E+01 0.  1.
          1    1    1    2  502    0  0.31873973859E+02  0.66709175468E+02 -0.22058965178E+03  0.23264964813E+03  0.00000000000E+00 0. -1.
          1    1    1    2  503    0  0.17494905492E+02 -0.17139791935E+02  0.10773382785E+04  0.10776166343E+04  0.00000000000E+00 0. -1.
<mgrwt>
<rscale>  0 0.42538942E+02</rscale>
<asrwt>0</asrwt>
<pdfrwt beam="1">  1        2 0.30380557E+00 0.24491717E+02</pdfrwt>
<pdfrwt beam="2">  1        2 0.43703173E-01 0.73884637E+02</pdfrwt>
<totfact> 0.17889656E+02</totfact>
</mgrwt>
</event>
<event>
13    1  0.1942437E-008  0.7965584E+02  0.7546771E-02  0.1406834E+00
          2   -1    0    0  502    0  0.00000000000E+00  0.00000000000E+00  0.15578912229E+04  0.15578912229E+04  0.00000000000E+00 0. -1.
          2   -1    0    0  503    0 -0.00000000000E+00 -0.00000000000E+00 -0.10634554856E+03  0.10634554856E+03  0.00000000000E+00 0. -1.
         24    2    1    2    0    0 -0.19095367010E+02  0.12673120528E+03  0.92797075476E+02  0.17794763617E+03  0.81416414602E+02 0.  0.
         24    2    1    2    0    0  0.48356787776E+02  0.16576767621E+01  0.16290397371E+03  0.18760341313E+03  0.79474581796E+02 0.  0.
         25    2    1    2    0    0  0.18835237274E+02 -0.43053075850E+02  0.96538470564E+03  0.97458041128E+03  0.12502405632E+03 0.  0.
        -11    1    3    3    0    0  0.14432186838E+02  0.43152357474E+00  0.29297218697E+02  0.32661923595E+02  0.00000000000E+00 0.  1.
         12    1    3    3    0    0 -0.33527553848E+02  0.12629968171E+03  0.63499856779E+02  0.14528571257E+03  0.00000000000E+00 0. -1.
        -11    1    4    4    0    0 -0.25627454960E+01 -0.22079283384E+02  0.10342523151E+03  0.10578677106E+03  0.00000000000E+00 0.  1.
         12    1    4    4    0    0  0.50919533272E+02  0.23736960146E+02  0.59478742205E+02  0.81816642072E+02  0.00000000000E+00 0. -1.
          5    1    5    5  501    0 -0.20853055147E+02  0.22584823935E+02  0.61868275951E+03  0.61946377706E+03  0.47000000000E+01 0. -1.
         -5    1    5    5    0  501  0.39688292421E+02 -0.65637899785E+02  0.34670194614E+03  0.35511663422E+03  0.47000000000E+01 0. -1.
          1    1    1    2  502    0 -0.41635352713E+02 -0.62056572135E+01  0.24043087098E+03  0.24408813264E+03  0.00000000000E+00 0. -1.
          1    1    1    2  503    0 -0.64613053274E+01 -0.79130148980E+02 -0.99709514399E+01  0.80017178260E+02  0.00000000000E+00 0. -1.
<mgrwt>
<rscale>  0 0.57906259E+02</rscale>
<asrwt>0</asrwt>
<pdfrwt beam="1">  1        2 0.22910164E+00 0.42095282E+02</pdfrwt>
<pdfrwt beam="2">  1        2 0.15639052E-01 0.79655836E+02</pdfrwt>
<totfact> 0.87570332E+02</totfact>
</mgrwt>
</event>
<event>
13    1  0.1942437E-008  0.4196689E+02  0.7546771E-02  0.1549910E+00
          2   -1    0    0  502    0  0.00000000000E+00  0.00000000000E+00  0.15395085333E+04  0.15395085333E+04  0.00000000000E+00 0. -1.
          2   -1    0    0  503    0 -0.00000000000E+00 -0.00000000000E+00 -0.82034150503E+03  0.82034150503E+03  0.00000000000E+00 0. -1.
         24    2    1    2    0    0 -0.80510396480E+02  0.17035731277E+02 -0.19501740665E+03  0.22647306890E+03  0.80536463517E+02 0.  0.
         24    2    1    2    0    0 -0.15477210623E+02  0.74796823028E+02 -0.30794567063E+03  0.32527887475E+03  0.71705658908E+02 0.  0.
         25    2    1    2    0    0  0.56001845255E+02 -0.12474987234E+03  0.35503909678E+03  0.40047042143E+03  0.12500024352E+03 0.  0.
        -13    1    4    4    0    0 -0.27332695437E+01 -0.71935309645E+01 -0.11488721627E+03  0.11514464865E+03  0.00000000000E+00 0.  1.
         14    1    4    4    0    0 -0.12743941079E+02  0.81990353992E+02 -0.19305845435E+03  0.21013422610E+03  0.00000000000E+00 0. -1.
        -13    1    3    3    0    0 -0.25350765610E+02 -0.28838103085E+02 -0.38888972290E+02  0.54650248602E+02  0.00000000000E+00 0.  1.
         14    1    3    3    0    0 -0.55159630870E+02  0.45873834362E+02 -0.15612843436E+03  0.17182282029E+03  0.00000000000E+00 0. -1.
          5    1    5    5  501    0  0.29515698309E+02 -0.14516555952E+03  0.25570060181E+03  0.29554881810E+03  0.47000000000E+01 0. -1.
         -5    1    5    5    0  501  0.26486146946E+02  0.20415687173E+02  0.99338494968E+02  0.10492160333E+03  0.47000000000E+01 0. -1.
          1    1    1    2  502    0  0.28009348277E+02 -0.73000118239E+01  0.11355449921E+04  0.11359138360E+04  0.00000000000E+00 0. -1.
          1    1    1    2  503    0  0.11976413571E+02  0.40217329862E+02 -0.26845398340E+03  0.27171383716E+03  0.00000000000E+00 0. -1.
<mgrwt>
<rscale>  0 0.34853007E+02</rscale>
<asrwt>0</asrwt>
<pdfrwt beam="1">  1        2 0.22639831E+00 0.28945013E+02</pdfrwt>
<pdfrwt beam="2">  1        2 0.12063846E+00 0.41966889E+02</pdfrwt>
<totfact> 0.10321442E+02</totfact>
</mgrwt>
</event>
<event>
13    1  0.1942437E-008  0.4583540E+02  0.7546771E-02  0.1474551E+00
          2   -1    0    0  502    0  0.00000000000E+00  0.00000000000E+00  0.55707173691E+03  0.55707173691E+03  0.00000000000E+00 0. -1.
          2   -1    0    0  503    0 -0.00000000000E+00 -0.00000000000E+00 -0.32148684587E+03  0.32148684587E+03  0.00000000000E+00 0. -1.
         24    2    1    2    0    0 -0.36131077337E+02 -0.53293714957E+02 -0.14969789505E+03  0.18187385697E+03  0.80764876431E+02 0.  0.
         24    2    1    2    0    0  0.45057947622E+02  0.34957413214E+02  0.29482616188E+01  0.10308247265E+03  0.85819954195E+02 0.  0.
         25    2    1    2    0    0 -0.52242097735E+01  0.19763547456E+02  0.28217961155E+03  0.30930215637E+03  0.12499840232E+03 0.  0.
        -11    1    4    4    0    0 -0.51635639287E+01  0.45619800946E+02  0.18408775354E+02  0.49464246086E+02  0.00000000000E+00 0.  1.
         12    1    4    4    0    0  0.50221511551E+02 -0.10662387732E+02 -0.15460513736E+02  0.53618226561E+02  0.00000000000E+00 0. -1.
        -11    1    3    3    0    0  0.19187508415E+02 -0.41417607013E+02 -0.54063174770E+02  0.70755957460E+02  0.00000000000E+00 0.  1.
         12    1    3    3    0    0 -0.55318585752E+02 -0.11876107944E+02 -0.95634720277E+02  0.11111789951E+03  0.00000000000E+00 0. -1.
          5    1    5    5  501    0 -0.59984038223E+02 -0.13753736588E+02  0.12356862327E+03  0.13812510549E+03  0.47000000000E+01 0. -1.
         -5    1    5    5    0  501  0.54759828450E+02  0.33517284044E+02  0.15861098829E+03  0.17117705088E+03  0.47000000000E+01 0. -1.
          1    1    1    2  502    0  0.11314108196E+02  0.42638306446E+02  0.18355767402E+03  0.18878414635E+03  0.00000000000E+00 0. -1.
          1    1    1    2  503    0 -0.15016768708E+02 -0.44065552160E+02 -0.83402761099E+02  0.95515950440E+02  0.00000000000E+00 0. -1.
<mgrwt>
<rscale>  0 0.44966403E+02</rscale>
<asrwt>0</asrwt>
<pdfrwt beam="1">  1        2 0.81922314E-01 0.44113878E+02</pdfrwt>
<pdfrwt beam="2">  1        2 0.47277477E-01 0.45835405E+02</pdfrwt>
<totfact> 0.97513271E+02</totfact>
</mgrwt>
</event>
<event>
13    1  0.1942437E-008  0.1043624E+03  0.7546771E-02  0.1291688E+00
          2   -1    0    0  502    0  0.00000000000E+00  0.00000000000E+00  0.19948383930E+04  0.19948383930E+04  0.00000000000E+00 0. -1.
          2   -1    0    0  503    0 -0.00000000000E+00 -0.00000000000E+00 -0.17696620184E+04  0.17696620184E+04  0.00000000000E+00 0. -1.
         24    2    1    2    0    0 -0.17692907224E+02  0.17253662003E+02 -0.20361509533E+03  0.22007485010E+03  0.79769071572E+02 0.  0.
         24    2    1    2    0    0  0.57721710805E+03  0.85608394808E+02  0.23961030222E+02  0.58783098531E+03  0.66803811543E+02 0.  0.
         25    2    1    2    0    0 -0.50619587166E+03 -0.19356006894E+03  0.62352344148E+03  0.83552779460E+03  0.12500181081E+03 0.  0.
        -11    1    4    4    0    0  0.20840405365E+03  0.63513903506E+02  0.93022640932E+01  0.21806603962E+03  0.00000000000E+00 0.  1.
         12    1    4    4    0    0  0.36881305440E+03  0.22094491302E+02  0.14658766129E+02  0.36976494569E+03  0.00000000000E+00 0. -1.
        -13    1    3    3    0    0  0.31712894595E+02  0.67634367840E+01 -0.67319129374E+02  0.74721596212E+02  0.00000000000E+00 0.  1.
         14    1    3    3    0    0 -0.49405801819E+02  0.10490225219E+02 -0.13629596596E+03  0.14535325388E+03  0.00000000000E+00 0. -1.
          5    1    5    5  501    0 -0.61695556091E+02 -0.41045500076E+02  0.34167335286E+02  0.81734763219E+02  0.47000000000E+01 0.  1.
         -5    1    5    5    0  501 -0.44450031557E+03 -0.15251456887E+03  0.58935610619E+03  0.75379303138E+03  0.47000000000E+01 0.  1.
          1    1    1    2  502    0 -0.81959077926E+02 -0.26218008394E+02  0.94613290572E+03  0.95003797277E+03  0.00000000000E+00 0. -1.
          1    1    1    2  503    0  0.28630748759E+02  0.11691602052E+03 -0.11648259075E+04  0.11710288086E+04  0.00000000000E+00 0. -1.
<mgrwt>
<rscale>  0 0.94773147E+02</rscale>
<asrwt>0</asrwt>
<pdfrwt beam="1">  1        2 0.29335859E+00 0.86064955E+02</pdfrwt>
<pdfrwt beam="2">  1        2 0.26024442E+00 0.10436245E+03</pdfrwt>
<totfact> 0.17178069E+01</totfact>
</mgrwt>
</event>
<event>
13    1  0.1975197E-008  0.4747106E+02  0.7546771E-02  0.1601538E+00
          2   -1    0    0  502    0  0.00000000000E+00  0.00000000000E+00  0.39632543948E+04  0.39632543948E+04  0.00000000000E+00 0. -1.
          2   -1    0    0  503    0 -0.00000000000E+00 -0.00000000000E+00 -0.37552101596E+04  0.37552101596E+04  0.00000000000E+00 0. -1.
         24    2    1    2    0    0  0.22200068463E+03  0.45154447931E+03 -0.90594809369E+03  0.10394402051E+04  0.80729615437E+02 0.  0.
         24    2    1    2    0    0 -0.40145002494E+03 -0.96658342334E+03  0.31800612906E+03  0.10954079106E+04  0.57835591499E+02 0.  0.
         25    2    1    2    0    0  0.11604360383E+03  0.52466377898E+03  0.49851963326E+03  0.74356485655E+03  0.12501468789E+03 0.  0.
        -11    1    3    3    0    0  0.11889721019E+03  0.24134860434E+03 -0.56576383593E+03  0.62647778369E+03  0.00000000000E+00 0.  1.
         12    1    3    3    0    0  0.10310347444E+03  0.21019587497E+03 -0.34018425776E+03  0.41296242145E+03  0.00000000000E+00 0. -1.
        -13    1    4    4    0    0 -0.16279115234E+03 -0.40169103816E+03  0.10225392273E+03  0.44532293241E+03  0.00000000000E+00 0.  1.
         14    1    4    4    0    0 -0.23865887260E+03 -0.56489238518E+03  0.21575220633E+03  0.65008497817E+03  0.00000000000E+00 0. -1.
          5    1    5    5  501    0 -0.49806969860E+01  0.17968009027E+03  0.11368452301E+03  0.21273458335E+03  0.47000000000E+01 0. -1.
         -5    1    5    5    0  501  0.12102430082E+03  0.34498368871E+03  0.38483511025E+03  0.53083027320E+03  0.47000000000E+01 0. -1.
          1    1    1    2  502    0  0.47468613063E+02 -0.94273358248E-01  0.25685018165E+04  0.25689404158E+04  0.00000000000E+00 0. -1.
          1    1    1    2  503    0  0.15937123417E+02 -0.95305615857E+01 -0.22710352500E+04  0.22711111664E+04  0.00000000000E+00 0. -1.
<mgrwt>
<rscale>  0 0.29690240E+02</rscale>
<asrwt>0</asrwt>
<pdfrwt beam="1">  1        2 0.58283153E+00 0.47471064E+02</pdfrwt>
<pdfrwt beam="2">  1        2 0.55223679E+00 0.18569424E+02</pdfrwt>
<totfact> 0.22019565E-01</totfact>
</mgrwt>
</event>
<event>
13    1  0.1942437E-008  0.2984037E+03  0.7546771E-02  0.1181381E+00
          2   -1    0    0  502    0  0.00000000000E+00  0.00000000000E+00  0.11177298153E+04  0.11177298153E+04  0.00000000000E+00 0. -1.
          2   -1    0    0  503    0 -0.00000000000E+00 -0.00000000000E+00 -0.22975863762E+04  0.22975863762E+04  0.00000000000E+00 0. -1.
         24    2    1    2    0    0 -0.46882407939E+02 -0.10119684254E+02 -0.43460837449E+03  0.44451367267E+03  0.80047472349E+02 0.  0.
         24    2    1    2    0    0  0.32667167884E+02  0.46593542271E+02  0.15315965245E+02  0.99697727893E+02  0.80417386906E+02 0.  0.
         25    2    1    2    0    0  0.79824170765E+02 -0.38762992055E+03  0.40207798903E+03  0.57785883691E+03  0.12500109036E+03 0.  0.
        -11    1    3    3    0    0  0.12349761262E+02 -0.28609143039E+02 -0.13551758360E+03  0.13905400078E+03  0.00000000000E+00 0.  1.
         12    1    3    3    0    0 -0.59232169201E+02  0.18489458785E+02 -0.29909079090E+03  0.30545967190E+03  0.00000000000E+00 0. -1.
        -11    1    4    4    0    0 -0.37222659362E+01 -0.20412062597E+02 -0.37882477403E+01  0.21091666224E+02  0.00000000000E+00 0.  1.
         12    1    4    4    0    0  0.36389433820E+02  0.67005604868E+02  0.19104212985E+02  0.78606061670E+02  0.00000000000E+00 0. -1.
          5    1    5    5  501    0  0.56512373270E+02 -0.38521741508E+03  0.38992353307E+03  0.55104315335E+03  0.47000000000E+01 0.  1.
         -5    1    5    5    0  501  0.23311797495E+02 -0.24125054692E+01  0.12154455958E+02  0.26815683559E+02  0.47000000000E+01 0.  1.
          1    1    1    2  502    0 -0.47745071465E+02  0.25981126767E+03  0.53309559519E+03  0.59495579690E+03  0.00000000000E+00 0. -1.
          1    1    1    2  503    0 -0.17863859244E+02  0.91344794868E+02 -0.16957377358E+04  0.16982901571E+04  0.00000000000E+00 0. -1.
<mgrwt>
<rscale>  0 0.16665526E+03</rscale>
<asrwt>0</asrwt>
<pdfrwt beam="1">  1        2 0.16437203E+00 0.29840367E+03</pdfrwt>
<pdfrwt beam="2">  1        2 0.33788035E+00 0.93075179E+02</pdfrwt>
<totfact> 0.24588985E+01</totfact>
</mgrwt>
</event>
<event>
13    1  0.1942437E-008  0.8444570E+02  0.7546771E-02  0.1384007E+00
          2   -1    0    0  503    0  0.00000000000E+00  0.00000000000E+00  0.32462041164E+04  0.32462041164E+04  0.00000000000E+00 0. -1.
          2   -1    0    0  502    0 -0.00000000000E+00 -0.00000000000E+00 -0.32797225914E+03  0.32797225914E+03  0.00000000000E+00 0. -1.
         24    2    1    2    0    0  0.75010018288E+01  0.15576741777E+02 -0.35076743670E+02  0.91709073873E+02  0.82953459068E+02 0.  0.
         24    2    1    2    0    0  0.97473320789E+01  0.13525355121E+03 -0.25125549936E+02  0.15927292885E+03  0.79674581930E+02 0.  0.
         25    2    1    2    0    0  0.85916426058E+02 -0.16297002177E+03  0.48807572518E+03  0.53646629032E+03  0.12504921780E+03 0.  0.
        -13    1    4    4    0    0 -0.60359731376E+01 -0.96657502581E+01 -0.31169883395E+00  0.11399862102E+02  0.00000000000E+00 0.  1.
         14    1    4    4    0    0  0.15783305217E+02  0.14491930147E+03 -0.24813851102E+02  0.14787306675E+03  0.00000000000E+00 0. -1.
        -13    1    3    3    0    0 -0.14799333034E+02 -0.39757565395E+01  0.22336635460E+02  0.27087860417E+02  0.00000000000E+00 0.  1.
         14    1    3    3    0    0  0.22300334863E+02  0.19552498317E+02 -0.57413379130E+02  0.64621213456E+02  0.00000000000E+00 0. -1.
          5    1    5    5  501    0  0.86022794879E+02 -0.17978480011E+03  0.40296946906E+03  0.44958756498E+03  0.47000000000E+01 0. -1.
         -5    1    5    5    0  501 -0.10636882133E+00  0.16814778342E+02  0.85106256124E+02  0.86878725339E+02  0.47000000000E+01 0. -1.
          1    1    1    2  502    0 -0.32841691983E+02 -0.34500673197E+02 -0.14366385762E+03  0.15135447522E+03  0.00000000000E+00 0. -1.
          1    1    1    2  503    0 -0.70323067983E+02  0.46640401974E+02  0.26340222834E+04  0.26353736073E+04  0.00000000000E+00 0. -1.
<mgrwt>
<rscale>  0 0.63422203E+02</rscale>
<asrwt>0</asrwt>
<pdfrwt beam="1">  1        2 0.47738294E+00 0.84445699E+02</pdfrwt>
<pdfrwt beam="2">  1        2 0.48231216E-01 0.47632690E+02</pdfrwt>
<totfact> 0.35030580E+01</totfact>
</mgrwt>
</event>
<event>
13    1  0.1942437E-008  0.1437527E+03  0.7546771E-02  0.1420348E+00
          2   -1    0    0  502    0  0.00000000000E+00  0.00000000000E+00  0.36135370838E+04  0.36135370838E+04  0.00000000000E+00 0. -1.
          2   -1    0    0  503    0 -0.00000000000E+00 -0.00000000000E+00 -0.16312730108E+04  0.16312730108E+04  0.00000000000E+00 0. -1.
         24    2    1    2    0    0 -0.33189248578E+03  0.11620466266E+03 -0.12243924693E+04  0.12753908715E+04  0.61877382523E+02 0.  0.
         24    2    1    2    0    0  0.61241510814E+03 -0.29285607664E+03  0.58442583829E+03  0.90014398646E+03  0.88818295407E+02 0.  0.
         25    2    1    2    0    0 -0.27455032882E+03  0.32639106137E+03  0.98772941504E+03  0.10831179872E+04  0.12500467573E+03 0.  0.
        -11    1    4    4    0    0  0.52553708096E+03 -0.26318015136E+03  0.53998860849E+03  0.79814830253E+03  0.00000000000E+00 0.  1.
         12    1    4    4    0    0  0.86878027181E+02 -0.29675925278E+02  0.44437229794E+02  0.10199568393E+03  0.00000000000E+00 0. -1.
        -13    1    3    3    0    0 -0.13779017207E+03  0.78477342604E+02 -0.58609316399E+03  0.60716556366E+03  0.00000000000E+00 0.  1.
         14    1    3    3    0    0 -0.19410231371E+03  0.37727320056E+02 -0.63829930528E+03  0.66822530780E+03  0.00000000000E+00 0. -1.
          5    1    5    5  501    0 -0.20411790242E+03  0.19265809013E+03  0.75576409213E+03  0.80621505242E+03  0.47000000000E+01 0. -1.
         -5    1    5    5    0  501 -0.70432426399E+02  0.13373297124E+03  0.23196532290E+03  0.27690293482E+03  0.47000000000E+01 0. -1.
          1    1    1    2  502    0  0.13942034910E+02 -0.14306577570E+03  0.18068373330E+04  0.18125460945E+04  0.00000000000E+00 0. -1.
          1    1    1    2  503    0 -0.19914328447E+02 -0.66738716945E+01 -0.17233604404E+03  0.17361115493E+03  0.00000000000E+00 0. -1.
<mgrwt>
<rscale>  0 0.54947445E+02</rscale>
<asrwt>0</asrwt>
<pdfrwt beam="1">  1        2 0.53140251E+00 0.14375274E+03</pdfrwt>
<pdfrwt beam="2">  1        2 0.23989309E+00 0.21002882E+02</pdfrwt>
<totfact> 0.30230978E+00</totfact>
</mgrwt>
</event>
<event>
13    1  0.1942437E-008  0.1500405E+03  0.7546771E-02  0.1347611E+00
          2   -1    0    0  503    0  0.00000000000E+00  0.00000000000E+00  0.14276949893E+04  0.14276949893E+04  0.00000000000E+00 0. -1.
          2   -1    0    0  502    0 -0.00000000000E+00 -0.00000000000E+00 -0.33536362829E+04  0.33536362829E+04  0.00000000000E+00 0. -1.
         24    2    1    2    0    0 -0.13206696240E+03  0.16244495388E+02 -0.78467919436E+03  0.79969313708E+03  0.77987878810E+02 0.  0.
         24    2    1    2    0    0  0.12449885382E+03  0.35173004341E+01  0.54076422256E+01  0.15150576736E+03  0.86095406058E+02 0.  0.
         25    2    1    2    0    0 -0.81972027110E+02 -0.13627352522E+03  0.86261129453E+03  0.88600591563E+03  0.12497339787E+03 0.  0.
        -13    1    4    4    0    0  0.10712564400E+03 -0.31716426852E+02  0.88438608016E+01  0.11207162535E+03  0.00000000000E+00 0.  1.
         14    1    4    4    0    0  0.17373209817E+02  0.35233727286E+02 -0.34362185760E+01  0.39434142008E+02  0.00000000000E+00 0. -1.
        -13    1    3    3    0    0 -0.10844870021E+03  0.36637186117E+02 -0.70295801349E+03  0.71221722298E+03  0.00000000000E+00 0.  1.
         14    1    3    3    0    0 -0.23618262194E+02 -0.20392690729E+02 -0.81721180873E+02  0.87475914099E+02  0.00000000000E+00 0. -1.
          5    1    5    5  501    0 -0.36517016693E+02 -0.42534560119E+02  0.88261399925E+02  0.10466540034E+03  0.47000000000E+01 0.  1.
         -5    1    5    5    0  501 -0.45455010417E+02 -0.93738965102E+02  0.77434989460E+03  0.78134051528E+03  0.47000000000E+01 0.  1.
          1    1    1    2  502    0  0.11732529862E+03  0.93144288400E+02 -0.24737294876E+04  0.24782612175E+04  0.00000000000E+00 0. -1.
          1    1    1    2  503    0 -0.27785162925E+02  0.23367440999E+02  0.46444845165E+03  0.46586523461E+03  0.00000000000E+00 0. -1.
<mgrwt>
<rscale>  0 0.73805279E+02</rscale>
<asrwt>0</asrwt>
<pdfrwt beam="1">  1        2 0.20995515E+00 0.36304994E+02</pdfrwt>
<pdfrwt beam="2">  1        2 0.49318180E+00 0.15004049E+03</pdfrwt>
<totfact> 0.50573249E+00</totfact>
</mgrwt>
</event>
<event>
13    1  0.1942437E-008  0.1782987E+03  0.7546771E-02  0.1287662E+00
          2   -1    0    0  502    0  0.00000000000E+00  0.00000000000E+00  0.30849251086E+04  0.30849251086E+04  0.00000000000E+00 0. -1.
          2   -1    0    0  503    0 -0.00000000000E+00 -0.00000000000E+00 -0.30915403032E+04  0.30915403032E+04  0.00000000000E+00 0. -1.
         24    2    1    2    0    0 -0.70157329007E+03 -0.10938756350E+04 -0.11876228084E+04  0.17624999431E+04  0.84788727101E+02 0.  0.
         24    2    1    2    0    0 -0.14572932145E+03  0.54372424094E+03  0.22719369156E+03  0.61228616751E+03  0.80026821269E+02 0.  0.
         25    2    1    2    0    0  0.97333032341E+03  0.52994844011E+03  0.18759005980E+04  0.21823944180E+04  0.12500029687E+03 0.  0.
        -11    1    3    3    0    0 -0.11354661831E+03 -0.23138145219E+03 -0.25816864945E+03  0.36480304619E+03  0.00000000000E+00 0.  1.
         12    1    3    3    0    0 -0.58802667176E+03 -0.86249418278E+03 -0.92945415895E+03  0.13976968969E+04  0.00000000000E+00 0. -1.
        -11    1    4    4    0    0 -0.68697727209E+02  0.29441680579E+03  0.16343036766E+03  0.34367152680E+03  0.00000000000E+00 0.  1.
         12    1    4    4    0    0 -0.77031594243E+02  0.24930743514E+03  0.63763323903E+02  0.26861464071E+03  0.00000000000E+00 0. -1.
          5    1    5    5  501    0  0.49269251056E+03  0.23081866547E+03  0.81592517643E+03  0.98070339544E+03  0.47000000000E+01 0. -1.
         -5    1    5    5    0  501  0.48063781285E+03  0.29912977464E+03  0.10599754216E+04  0.12016910225E+04  0.47000000000E+01 0. -1.
          1    1    1    2  502    0  0.51878320981E+02  0.67242842631E+01  0.34032791917E+03  0.34432494646E+03  0.00000000000E+00 0. -1.
          1    1    1    2  503    0 -0.17790603287E+03  0.13478669672E+02 -0.12624145949E+04  0.12749599368E+04  0.00000000000E+00 0. -1.
<mgrwt>
<rscale>  0 0.96577515E+02</rscale>
<asrwt>0</asrwt>
<pdfrwt beam="1">  1        2 0.45366546E+00 0.52312295E+02</pdfrwt>
<pdfrwt beam="2">  1        2 0.45463828E+00 0.17829874E+03</pdfrwt>
<totfact> 0.10681306E+00</totfact>
</mgrwt>
</event>
<event>
13    1  0.1942437E-008  0.9602747E+02  0.7546771E-02  0.1403608E+00
          2   -1    0    0  502    0  0.00000000000E+00  0.00000000000E+00  0.40130144918E+03  0.40130144918E+03  0.00000000000E+00 0. -1.
          2   -1    0    0  503    0 -0.00000000000E+00 -0.00000000000E+00 -0.21242126628E+04  0.21242126628E+04  0.00000000000E+00 0. -1.
         24    2    1    2    0    0  0.10186009691E+03 -0.29989937680E+03 -0.95713002717E+03  0.10139618020E+04  0.10819210465E+03 0.  0.
         24    2    1    2    0    0 -0.89567566354E+02  0.16540063079E+03  0.33173383808E+02  0.20747175344E+03  0.81020599079E+02 0.  0.
         25    2    1    2    0    0  0.73505252893E+01  0.75420672911E+02  0.28541099927E+01  0.14621088267E+03  0.12500867227E+03 0.  0.
        -11    1    4    4    0    0 -0.95948992776E+02  0.98278390740E+02  0.23866901321E+02  0.13940760481E+03  0.00000000000E+00 0.  1.
         12    1    4    4    0    0  0.63814264215E+01  0.67122240046E+02  0.93064824871E+01  0.68064148626E+02  0.00000000000E+00 0. -1.
        -13    1    3    3    0    0 -0.48148094981E+01 -0.12609241173E+03 -0.28763524066E+03  0.31409633929E+03  0.00000000000E+00 0.  1.
         14    1    3    3    0    0  0.10667490641E+03 -0.17380696507E+03 -0.66949478651E+03  0.69986546273E+03  0.00000000000E+00 0. -1.
          5    1    5    5  501    0 -0.56628965762E+02  0.16924616429E+02  0.34594144074E+01  0.59391413122E+02  0.47000000000E+01 0. -1.
         -5    1    5    5    0  501  0.63979491051E+02  0.58496056481E+02 -0.60530441469E+00  0.86819469548E+02  0.47000000000E+01 0. -1.
          1    1    1    2  502    0 -0.42798108989E+02  0.86401304174E+02  0.16461926649E+03  0.19077831742E+03  0.00000000000E+00 0. -1.
          1    1    1    2  503    0  0.23155053146E+02 -0.27323231068E+02 -0.96642794678E+03  0.96709135648E+03  0.00000000000E+00 0. -1.
<mgrwt>
<rscale>  0 0.58644911E+02</rscale>
<asrwt>0</asrwt>
<pdfrwt beam="1">  1        2 0.59014920E-01 0.96027474E+02</pdfrwt>
<pdfrwt beam="2">  1        2 0.31238421E+00 0.35815017E+02</pdfrwt>
<totfact> 0.11737843E+02</totfact>
</mgrwt>
</event>
<event>
13    1  0.1942437E-008  0.3803241E+02  0.7546771E-02  0.1587485E+00
         -1   -1    0    0    0  501 -0.00000000000E+00  0.00000000000E+00  0.23355845221E+04  0.23355845221E+04  0.00000000000E+00 0.  1.
          2   -1    0    0  503    0  0.00000000000E+00 -0.00000000000E+00 -0.79787451630E+02  0.79787451630E+02  0.00000000000E+00 0. -1.
         24    2    1    2    0    0  0.18007186504E+02  0.69114819304E+02  0.87734803279E+03  0.88389146693E+03  0.80146351409E+02 0.  0.
         24    2    1    2    0    0 -0.83376819893E+01 -0.48354870481E+02  0.37996371270E+03  0.39143901923E+03  0.80276848266E+02 0.  0.
         25    2    1    2    0    0  0.45968767594E+01 -0.56881278469E+02  0.19380079039E+02  0.13876732693E+03  0.12499668973E+03 0.  0.
        -11    1    4    4    0    0 -0.36670408092E+01  0.13841922860E+02  0.20836586124E+03  0.20885731529E+03  0.00000000000E+00 0.  1.
         12    1    4    4    0    0 -0.46706411801E+01 -0.62196793341E+02  0.17159785145E+03  0.18258170394E+03  0.00000000000E+00 0. -1.
        -13    1    3    3    0    0 -0.25885229751E+02  0.70998565584E+01  0.35937588874E+03  0.36037686176E+03  0.00000000000E+00 0.  1.
         14    1    3    3    0    0  0.43892416256E+02  0.62014962746E+02  0.51797214405E+03  0.52351460517E+03  0.00000000000E+00 0. -1.
          5    1    5    5  502    0  0.22669144246E+02  0.27214888845E+02  0.36346919719E+02  0.50967919800E+02  0.47000000000E+01 0. -1.
         -5    1    5    5    0  502 -0.18072267486E+02 -0.84096167314E+02 -0.16966840680E+02  0.87799407126E+02  0.47000000000E+01 0. -1.
          1    1    1    2  503    0 -0.25235767274E+02 -0.33726098468E+00  0.41513679866E+01  0.25577168550E+02  0.00000000000E+00 0. -1.
         -2    1    1    2    0  501  0.10969385999E+02  0.36458590630E+02  0.97495387799E+03  0.97569699214E+03  0.00000000000E+00 0.  1.
<mgrwt>
<rscale>  0 0.30981653E+02</rscale>
<asrwt>0</asrwt>
<pdfrwt beam="2">  1        2 0.11733450E-01 0.25238021E+02</pdfrwt>
<pdfrwt beam="1">  1       -1 0.34346827E+00 0.38032412E+02</pdfrwt>
<totfact> 0.14154753E+01</totfact>
</mgrwt>
</event>
<event>
13    1  0.1942437E-008  0.3232268E+02  0.7546771E-02  0.1706803E+00
          2   -1    0    0  503    0  0.00000000000E+00  0.00000000000E+00  0.32105326776E+03  0.32105326776E+03  0.00000000000E+00 0. -1.
          2   -1    0    0  502    0 -0.00000000000E+00 -0.00000000000E+00 -0.81355695524E+03  0.81355695524E+03  0.00000000000E+00 0. -1.
         24    2    1    2    0    0  0.71126797902E+02 -0.20061060591E+02 -0.18170001488E+03  0.21095524326E+03  0.77625715573E+02 0.  0.
         24    2    1    2    0    0 -0.62855694872E+02  0.56513919648E+02 -0.11433525612E+03  0.16335222134E+03  0.80416017887E+02 0.  0.
         25    2    1    2    0    0  0.14892389682E+01 -0.76676567148E+02  0.15730958375E+03  0.21506437176E+03  0.12499946032E+03 0.  0.
        -11    1    4    4    0    0  0.13234567073E+01  0.30395597624E+02 -0.80870260181E+02  0.86403951729E+02  0.00000000000E+00 0.  1.
         12    1    4    4    0    0 -0.64179151580E+02  0.26118322024E+02 -0.33464995935E+02  0.76948269608E+02  0.00000000000E+00 0. -1.
        -11    1    3    3    0    0  0.84208365431E+02 -0.56009370954E+01 -0.16479562605E+03  0.18514863670E+03  0.00000000000E+00 0.  1.
         12    1    3    3    0    0 -0.13081567529E+02 -0.14460123495E+02 -0.16904388833E+02  0.25806606564E+02  0.00000000000E+00 0. -1.
          5    1    5    5  501    0  0.32138628502E+02 -0.96592117163E+02  0.14285591038E+03  0.17547885819E+03  0.47000000000E+01 0.  1.
         -5    1    5    5    0  501 -0.30649389533E+02  0.19915550016E+02  0.14453673366E+02  0.39585513575E+02  0.47000000000E+01 0.  1.
          1    1    1    2  502    0  0.76124607750E+01  0.13027543985E+02 -0.44665743604E+03  0.44691221915E+03  0.00000000000E+00 0. -1.
          1    1    1    2  503    0 -0.17372802773E+02  0.27196164106E+02  0.92879435802E+02  0.98326167489E+02  0.00000000000E+00 0. -1.
<mgrwt>
<rscale>  0 0.22084036E+02</rscale>
<asrwt>0</asrwt>
<pdfrwt beam="1">  1        2 0.47213716E-01 0.32322681E+02</pdfrwt>
<pdfrwt beam="2">  1        2 0.11964073E+00 0.15088620E+02</pdfrwt>
<totfact> 0.66516892E+02</totfact>
</mgrwt>
</event>
<event>
13    1  0.1942437E-008  0.6829482E+02  0.7546771E-02  0.1371678E+00
          2   -1    0    0  503    0  0.00000000000E+00  0.00000000000E+00  0.35236349873E+03  0.35236349873E+03  0.00000000000E+00 0. -1.
          2   -1    0    0  502    0 -0.00000000000E+00 -0.00000000000E+00 -0.30956544929E+04  0.30956544929E+04  0.00000000000E+00 0. -1.
         24    2    1    2    0    0  0.11123071102E+03 -0.26238240968E+02 -0.79049581621E+03  0.80303249648E+03  0.83167533314E+02 0.  0.
         24    2    1    2    0    0  0.33373736250E+02 -0.46495950598E+02 -0.12119475785E+03  0.15682393351E+03  0.81424180053E+02 0.  0.
         25    2    1    2    0    0 -0.17480438995E+03 -0.19429347144E+02  0.56501002327E+02  0.22304981453E+03  0.12499912888E+03 0.  0.
        -11    1    3    3    0    0  0.31140973384E+02  0.26212539929E+02 -0.34323917089E+03  0.34564430547E+03  0.00000000000E+00 0.  1.
         12    1    3    3    0    0  0.80089737635E+02 -0.52450780898E+02 -0.44725664532E+03  0.45738819101E+03  0.00000000000E+00 0. -1.
        -13    1    4    4    0    0 -0.23242909248E+02 -0.52661643854E+00 -0.48844494454E+02  0.54095238179E+02  0.00000000000E+00 0.  1.
         14    1    4    4    0    0  0.56616645498E+02 -0.45969334159E+02 -0.72350263398E+02  0.10272869533E+03  0.00000000000E+00 0. -1.
          5    1    5    5  501    0 -0.51877905304E+02  0.24301660705E+02  0.71380141133E+02  0.91646616522E+02  0.47000000000E+01 0. -1.
         -5    1    5    5    0  501 -0.12292648465E+03 -0.43731007849E+02 -0.14879138806E+02  0.13140319801E+03  0.47000000000E+01 0. -1.
          1    1    1    2  502    0  0.57941882263E+02  0.29782581221E+02 -0.20698957149E+04  0.20709206973E+04  0.00000000000E+00 0. -1.
          1    1    1    2  503    0 -0.27741939577E+02  0.62380957489E+02  0.18179429246E+03  0.19419104984E+03  0.00000000000E+00 0. -1.
<mgrwt>
<rscale>  0 0.66702863E+02</rscale>
<asrwt>0</asrwt>
<pdfrwt beam="1">  1        2 0.51818163E-01 0.68294820E+02</pdfrwt>
<pdfrwt beam="2">  1        2 0.45524329E+00 0.65148015E+02</pdfrwt>
<totfact> 0.41155582E+01</totfact>
</mgrwt>
</event>
<event>
13    1  0.1942437E-008  0.8606479E+02  0.7546771E-02  0.1534978E+00
          2   -1    0    0  502    0  0.00000000000E+00  0.00000000000E+00  0.20273089005E+04  0.20273089005E+04  0.00000000000E+00 0. -1.
          2   -1    0    0  503    0 -0.00000000000E+00 -0.00000000000E+00 -0.88563409075E+03  0.88563409075E+03  0.00000000000E+00 0. -1.
         24    2    1    2    0    0 -0.13547926969E+03 -0.21236934535E+02 -0.11378678045E+03  0.19531028271E+03  0.79956458300E+02 0.  0.
         24    2    1    2    0    0  0.12869907919E+03  0.14967113613E+03  0.22438414472E+03  0.30938608024E+03  0.80041241060E+02 0.  0.
         25    2    1    2    0    0  0.91555245899E+02 -0.12398140225E+03  0.20710264186E+03  0.28682753564E+03  0.12499911912E+03 0.  0.
        -11    1    4    4    0    0  0.65431907776E+02  0.28191870361E+02  0.47319041951E+02  0.85528988307E+02  0.00000000000E+00 0.  1.
         12    1    4    4    0    0  0.63267171411E+02  0.12147926577E+03  0.17706510277E+03  0.22385709193E+03  0.00000000000E+00 0. -1.
        -13    1    3    3    0    0 -0.93190212156E+02  0.24470252746E+02 -0.65362303445E+02  0.11642783010E+03  0.00000000000E+00 0.  1.
         14    1    3    3    0    0 -0.42289057532E+02 -0.45707187281E+02 -0.48424477000E+02  0.78882452604E+02  0.00000000000E+00 0. -1.
          5    1    5    5  501    0  0.17198119942E+02 -0.98208895117E+02  0.51325373094E+02  0.11223700964E+03  0.47000000000E+01 0.  1.
         -5    1    5    5    0  501  0.74357125956E+02 -0.25772507134E+02  0.15577726877E+03  0.17459052600E+03  0.47000000000E+01 0.  1.
          1    1    1    2  502    0  0.58604993462E+00 -0.15538868816E+02  0.14698002501E+04  0.14698825038E+04  0.00000000000E+00 0. -1.
          1    1    1    2  503    0 -0.85361105333E+02  0.11086069473E+02 -0.64582544649E+03  0.65153658882E+03  0.00000000000E+00 0. -1.
<mgrwt>
<rscale>  0 0.36582787E+02</rscale>
<asrwt>0</asrwt>
<pdfrwt beam="1">  1        2 0.29813366E+00 0.15549916E+02</pdfrwt>
<pdfrwt beam="2">  1        2 0.13024031E+00 0.86064791E+02</pdfrwt>
<totfact> 0.59654875E+01</totfact>
</mgrwt>
</event>
<event>
13    1  0.1942437E-008  0.2467678E+03  0.7546771E-02  0.1329029E+00
          2   -1    0    0  502    0  0.00000000000E+00  0.00000000000E+00  0.10757934051E+04  0.10757934051E+04  0.00000000000E+00 0. -1.
          2   -1    0    0  503    0 -0.00000000000E+00 -0.00000000000E+00 -0.29405909609E+04  0.29405909609E+04  0.00000000000E+00 0. -1.
         24    2    1    2    0    0  0.11344853814E+03  0.27347630376E+03 -0.22479914140E+03  0.38035250783E+03  0.80458167492E+02 0.  0.
         24    2    1    2    0    0 -0.10095061992E+02 -0.13099223338E+03  0.51644521467E+02  0.16258722568E+03  0.80663336613E+02 0.  0.
         25    2    1    2    0    0  0.15279778430E+03 -0.11531230351E+03  0.59279856752E+03  0.63535683258E+03  0.12499629121E+03 0.  0.
        -11    1    3    3    0    0  0.89477488249E+02  0.15425691703E+03 -0.93366198324E+02  0.20129248457E+03  0.00000000000E+00 0.  1.
         12    1    3    3    0    0  0.23971049894E+02  0.11921938673E+03 -0.13143294308E+03  0.17906002326E+03  0.00000000000E+00 0. -1.
        -13    1    4    4    0    0  0.19285787031E+02 -0.12189297817E+03  0.41265680072E+02  0.13012569332E+03  0.00000000000E+00 0.  1.
         14    1    4    4    0    0 -0.29380849023E+02 -0.90992552089E+01  0.10378841395E+02  0.32461532363E+02  0.00000000000E+00 0. -1.
          5    1    5    5  501    0  0.89566963142E+02 -0.13096095693E+03  0.35731197444E+03  0.39098203309E+03  0.47000000000E+01 0.  1.
         -5    1    5    5    0  501  0.63230821158E+02  0.15648653421E+02  0.23548659309E+03  0.24437479948E+03  0.47000000000E+01 0.  1.
          1    1    1    2  502    0 -0.95899354574E+01 -0.24102572785E+02  0.27026593819E+03  0.27150797083E+03  0.00000000000E+00 0. -1.
          1    1    1    2  503    0 -0.24656132499E+03 -0.30691940825E+01 -0.25547074416E+04  0.25665798290E+04  0.00000000000E+00 0. -1.
<mgrwt>
<rscale>  0 0.80007745E+02</rscale>
<asrwt>0</asrwt>
<pdfrwt beam="1">  1        2 0.15820491E+00 0.25940333E+02</pdfrwt>
<pdfrwt beam="2">  1        2 0.43243984E+00 0.24676782E+03</pdfrwt>
<totfact> 0.12202500E+01</totfact>
</mgrwt>
</event>
<event>
13    1  0.1942437E-008  0.3076356E+03  0.7546771E-02  0.1141471E+00
          2   -1    0    0  502    0  0.00000000000E+00  0.00000000000E+00  0.24739570396E+04  0.24739570396E+04  0.00000000000E+00 0. -1.
          2   -1    0    0  503    0 -0.00000000000E+00 -0.00000000000E+00 -0.29366796199E+04  0.29366796199E+04  0.00000000000E+00 0. -1.
         24    2    1    2    0    0  0.76535048992E+02  0.63601197624E+01 -0.45426448437E+03  0.46786024202E+03  0.81479564680E+02 0.  0.
         24    2    1    2    0    0 -0.81793617508E+02  0.11101374330E+03 -0.41576054018E+03  0.44533965635E+03  0.80351326536E+02 0.  0.
         25    2    1    2    0    0  0.47356895210E+03 -0.31419808509E+03 -0.33166966756E+03  0.66978965359E+03  0.12500169044E+03 0.  0.
        -11    1    3    3    0    0  0.51666233861E+02 -0.13777014232E+02 -0.11206980319E+03  0.12417264847E+03  0.00000000000E+00 0.  1.
         12    1    3    3    0    0  0.24868815131E+02  0.20137133994E+02 -0.34219468118E+03  0.34368759355E+03  0.00000000000E+00 0. -1.
        -13    1    4    4    0    0  0.16410992775E+02  0.16733109556E+02 -0.58509301837E+02  0.63029009518E+02  0.00000000000E+00 0.  1.
         14    1    4    4    0    0 -0.98204610284E+02  0.94280633740E+02 -0.35725123835E+03  0.38231064683E+03  0.00000000000E+00 0. -1.
          5    1    5    5  501    0  0.30710404007E+02 -0.27929209428E+02  0.79746110388E+01  0.42530625139E+02  0.47000000000E+01 0.  1.
         -5    1    5    5    0  501  0.44285854809E+03 -0.28626887566E+03 -0.33964427860E+03  0.62725902845E+03  0.47000000000E+01 0.  1.
          1    1    1    2  502    0 -0.56880586553E+03  0.90353407765E+02  0.22433809809E+04  0.23161308418E+04  0.00000000000E+00 0. -1.
          1    1    1    2  503    0  0.10049548195E+03  0.10647081427E+03 -0.15044088691E+04  0.15115162657E+04  0.00000000000E+00 0. -1.
<mgrwt>
<rscale>  0 0.21012030E+03</rscale>
<asrwt>0</asrwt>
<pdfrwt beam="1">  1        2 0.36381722E+00 0.30763559E+03</pdfrwt>
<pdfrwt beam="2">  1        2 0.43186465E+00 0.14351571E+03</pdfrwt>
<totfact> 0.21720885E+00</totfact>
</mgrwt>
</event>
<event>
13    1  0.1942437E-008  0.1034597E+03  0.7546771E-02  0.1318329E+00
          2   -1    0    0  503    0  0.00000000000E+00  0.00000000000E+00  0.33952075565E+04  0.33952075565E+04  0.00000000000E+00 0. -1.
          2   -1    0    0  502    0 -0.00000000000E+00 -0.00000000000E+00 -0.83461693186E+03  0.83461693186E+03  0.00000000000E+00 0. -1.
         24    2    1    2    0    0 -0.29245214857E+01 -0.65404381371E+00 -0.30340608752E+03  0.31521263558E+03  0.85409432048E+02 0.  0.
         24    2    1    2    0    0  0.81706085938E+01 -0.14533748065E+02  0.29580270359E+02  0.88872552721E+02  0.82130077042E+02 0.  0.
         25    2    1    2    0    0 -0.32059300938E+02 -0.52205581829E+02  0.10692877304E+04  0.10783115517E+04  0.12500532276E+03 0.  0.
        -11    1    3    3    0    0 -0.11461257578E+02  0.41111350496E+02 -0.16124930093E+03  0.16680180040E+03  0.00000000000E+00 0.  1.
         12    1    3    3    0    0  0.85367360921E+01 -0.41765394310E+02 -0.14215678659E+03  0.14841083518E+03  0.00000000000E+00 0. -1.
        -11    1    4    4    0    0  0.39916142910E+01 -0.42546790611E+02  0.40155325701E+02  0.58639684158E+02  0.00000000000E+00 0.  1.
         12    1    4    4    0    0  0.41789943028E+01  0.28013042546E+02 -0.10575055342E+02  0.30232868563E+02  0.00000000000E+00 0. -1.
          5    1    5    5  501    0 -0.29445046314E+02  0.37011856409E+02  0.28343895842E+03  0.28739627941E+03  0.47000000000E+01 0. -1.
         -5    1    5    5    0  501 -0.26142546243E+01 -0.89217438237E+02  0.78584877197E+03  0.79091527234E+03  0.47000000000E+01 0. -1.
          1    1    1    2  502    0 -0.65155140947E+02  0.19607424957E+02 -0.48759580747E+03  0.49232033776E+03  0.00000000000E+00 0. -1.
          1    1    1    2  503    0  0.91968354777E+02  0.47785948750E+02  0.22527245189E+04  0.22551074106E+04  0.00000000000E+00 0. -1.
<mgrwt>
<rscale>  0 0.83902041E+02</rscale>
<asrwt>0</asrwt>
<pdfrwt beam="1">  1        2 0.49929523E+00 0.10345971E+03</pdfrwt>
<pdfrwt beam="2">  1        2 0.12273778E+00 0.68041484E+02</pdfrwt>
<totfact> 0.10156775E+01</totfact>
</mgrwt>
</event>
<event>
13    1  0.1942437E-008  0.7496430E+02  0.7546771E-02  0.1480908E+00
          2   -1    0    0  503    0  0.00000000000E+00  0.00000000000E+00  0.27937714006E+04  0.27937714006E+04  0.00000000000E+00 0. -1.
          2   -1    0    0  502    0 -0.00000000000E+00 -0.00000000000E+00 -0.62145861957E+03  0.62145861957E+03  0.00000000000E+00 0. -1.
         24    2    1    2    0    0  0.36959509794E+02 -0.23100900723E+03  0.56225008550E+02  0.26040711771E+03  0.99596428557E+02 0.  0.
         24    2    1    2    0    0 -0.30251032381E+02  0.25624389433E+03  0.28772343688E+02  0.27207990285E+03  0.81385302315E+02 0.  0.
         25    2    1    2    0    0  0.41044825379E+02 -0.59557656401E+02  0.41705848806E+03  0.44135588717E+03  0.12500177818E+03 0.  0.
        -13    1    3    3    0    0  0.51325046745E+01 -0.21879930670E+03  0.57526779620E+02  0.22629363577E+03  0.00000000000E+00 0.  1.
         14    1    3    3    0    0  0.31827005119E+02 -0.12209700526E+02 -0.13017710706E+01  0.34113481935E+02  0.00000000000E+00 0. -1.
        -13    1    4    4    0    0  0.27027070627E+02  0.54504919644E+02  0.70686669361E+01  0.61247162092E+02  0.00000000000E+00 0.  1.
         14    1    4    4    0    0 -0.57278103009E+02  0.20173897468E+03  0.21703676752E+02  0.21083274076E+03  0.00000000000E+00 0. -1.
          5    1    5    5  501    0 -0.36309676010E+02 -0.44326596806E+02  0.25060861076E+03  0.25711866044E+03  0.47000000000E+01 0.  1.
         -5    1    5    5    0  501  0.77354501389E+02 -0.15231059595E+02  0.16644987730E+03  0.18423722673E+03  0.47000000000E+01 0.  1.
          1    1    1    2  502    0  0.23453612103E+02  0.10713097106E+02 -0.38444871380E+03  0.38531241339E+03  0.00000000000E+00 0. -1.
          1    1    1    2  503    0 -0.71206914894E+02  0.23609672193E+02  0.20547056545E+04  0.20560746990E+04  0.00000000000E+00 0. -1.
<mgrwt>
<rscale>  0 0.43964984E+02</rscale>
<asrwt>0</asrwt>
<pdfrwt beam="1">  1        2 0.41084873E+00 0.74964300E+02</pdfrwt>
<pdfrwt beam="2">  1        2 0.91390975E-01 0.25784537E+02</pdfrwt>
<totfact> 0.32340810E+01</totfact>
</mgrwt>
</event>
<event>
13    1  0.1942437E-008  0.9377885E+02  0.7546771E-02  0.1304942E+00
          2   -1    0    0  502    0  0.00000000000E+00  0.00000000000E+00  0.14488863134E+04  0.14488863134E+04  0.00000000000E+00 0. -1.
          2   -1    0    0  503    0 -0.00000000000E+00 -0.00000000000E+00 -0.64376533630E+03  0.64376533630E+03  0.00000000000E+00 0. -1.
         24    2    1    2    0    0 -0.55180788717E+02  0.40964584440E+01 -0.52522553580E+02  0.10626824888E+03  0.73977169925E+02 0.  0.
         24    2    1    2    0    0  0.20725909653E+02 -0.42612420244E+02  0.83931493988E+02  0.12249030836E+03  0.75590993303E+02 0.  0.
         25    2    1    2    0    0  0.66922636256E+02  0.31231702940E+02  0.30582426357E+03  0.33854008246E+03  0.12500739472E+03 0.  0.
        -13    1    4    4    0    0 -0.28129888849E+02 -0.20956283902E+02  0.25918165392E+02  0.43614307044E+02  0.00000000000E+00 0.  1.
         14    1    4    4    0    0  0.48855798502E+02 -0.21656136342E+02  0.58013328596E+02  0.78876001314E+02  0.00000000000E+00 0. -1.
        -13    1    3    3    0    0 -0.87969732317E+01 -0.29351675883E+02 -0.33057674054E+01  0.30819404818E+02  0.00000000000E+00 0.  1.
         14    1    3    3    0    0 -0.46383815485E+02  0.33448134327E+02 -0.49216786174E+02  0.75448844062E+02  0.00000000000E+00 0. -1.
          5    1    5    5  501    0  0.18723378484E+02 -0.28786787493E+02  0.22179046092E+03  0.22448238815E+03  0.47000000000E+01 0.  1.
         -5    1    5    5    0  501  0.48199257772E+02  0.60018490433E+02  0.84033802648E+02  0.11405769431E+03  0.47000000000E+01 0.  1.
          1    1    1    2  502    0 -0.25835564919E+02  0.91759693496E+02  0.99092333093E+03  0.99549804899E+03  0.00000000000E+00 0. -1.
          1    1    1    2  503    0 -0.66321922736E+01 -0.84475434636E+02 -0.52303555778E+03  0.52985496104E+03  0.00000000000E+00 0. -1.
<mgrwt>
<rscale>  0 0.89142508E+02</rscale>
<asrwt>0</asrwt>
<pdfrwt beam="1">  1        2 0.21307152E+00 0.93778851E+02</pdfrwt>
<pdfrwt beam="2">  1        2 0.94671373E-01 0.84735382E+02</pdfrwt>
<totfact> 0.13375060E+02</totfact>
</mgrwt>
</event>
<event>
13    1  0.1942437E-008  0.2756862E+02  0.7546771E-02  0.1815983E+00
          2   -1    0    0  502    0  0.00000000000E+00  0.00000000000E+00  0.15762464023E+04  0.15762464023E+04  0.00000000000E+00 0. -1.
          2   -1    0    0  503    0 -0.00000000000E+00 -0.00000000000E+00 -0.10981407824E+04  0.10981407824E+04  0.00000000000E+00 0. -1.
         24    2    1    2    0    0  0.58171609169E+03 -0.30927412168E+03 -0.20280730791E+03  0.69543625270E+03  0.91960229214E+02 0.  0.
         24    2    1    2    0    0 -0.68108518078E+03  0.34957028718E+02  0.59341280656E+03  0.90751897580E+03  0.79705176164E+02 0.  0.
         25    2    1    2    0    0  0.87486302400E+02  0.23892966671E+03  0.21927685292E+03  0.35839954718E+03  0.12500663364E+03 0.  0.
        -13    1    3    3    0    0  0.43676435811E+03 -0.27375543710E+03 -0.16845659753E+03  0.54229398771E+03  0.00000000000E+00 0.  1.
         14    1    3    3    0    0  0.14495173358E+03 -0.35518684578E+02 -0.34350710382E+02  0.15314226499E+03  0.00000000000E+00 0. -1.
        -13    1    4    4    0    0 -0.45531610765E+03 -0.13895926771E+02  0.38635130882E+03  0.59730493761E+03  0.00000000000E+00 0.  1.
         14    1    4    4    0    0 -0.22576907313E+03  0.48852955489E+02  0.20706149774E+03  0.31021403819E+03  0.00000000000E+00 0. -1.
          5    1    5    5  501    0  0.22041569750E+02 -0.93683500878E+00 -0.54693787938E+01  0.23210182276E+02  0.47000000000E+01 0.  1.
         -5    1    5    5    0  501  0.65444732650E+02  0.23986650172E+03  0.22474623171E+03  0.33518936491E+03  0.47000000000E+01 0.  1.
          1    1    1    2  502    0  0.58657237036E+01  0.84868776973E+01  0.29008633027E+03  0.29026972426E+03  0.00000000000E+00 0. -1.
          1    1    1    2  503    0  0.60170629889E+01  0.26900548554E+02 -0.42186306194E+03  0.42276268472E+03  0.00000000000E+00 0. -1.
<mgrwt>
<rscale>  0 0.16864654E+02</rscale>
<asrwt>0</asrwt>
<pdfrwt beam="1">  1        2 0.23180094E+00 0.10316676E+02</pdfrwt>
<pdfrwt beam="2">  1        2 0.16149129E+00 0.27568623E+02</pdfrwt>
<totfact> 0.78497211E+01</totfact>
</mgrwt>
</event>
<event>
13    1  0.1942437E-008  0.1697477E+03  0.7546771E-02  0.1404515E+00
          2   -1    0    0  503    0  0.00000000000E+00  0.00000000000E+00  0.30806101094E+04  0.30806101094E+04  0.00000000000E+00 0. -1.
          2   -1    0    0  502    0 -0.00000000000E+00 -0.00000000000E+00 -0.20258025431E+04  0.20258025431E+04  0.00000000000E+00 0. -1.
         24    2    1    2    0    0 -0.10135949215E+04  0.12001346286E+03 -0.55343957324E+03  0.11623963674E+04  0.55606272287E+02 0.  0.
         24    2    1    2    0    0  0.12120395437E+04 -0.33615407237E+03  0.46040344420E+03  0.13417463022E+04  0.79198435541E+02 0.  0.
         25    2    1    2    0    0 -0.17428875579E+03  0.28470896128E+02  0.29849799076E+03  0.36866219665E+03  0.12499440960E+03 0.  0.
        -11    1    4    4    0    0  0.17840212487E+03 -0.73735353999E+02  0.88157405236E+02  0.21221674931E+03  0.00000000000E+00 0.  1.
         12    1    4    4    0    0  0.10336374188E+04 -0.26241871837E+03  0.37224603896E+03  0.11295295529E+04  0.00000000000E+00 0. -1.
        -13    1    3    3    0    0 -0.40342721866E+03  0.20823292401E+02 -0.21327547182E+03  0.45680800906E+03  0.00000000000E+00 0.  1.
         14    1    3    3    0    0 -0.61016770289E+03  0.99190170457E+02 -0.34016410141E+03  0.70558835836E+03  0.00000000000E+00 0. -1.
          5    1    5    5  501    0  0.15119539406E+02  0.15157121374E+02  0.12184310861E+02  0.25077604179E+02  0.47000000000E+01 0. -1.
         -5    1    5    5    0  501 -0.18940829519E+03  0.13313774755E+02  0.28631367990E+03  0.34358459247E+03  0.47000000000E+01 0. -1.
          1    1    1    2  502    0 -0.17398459432E+02  0.16872191787E+03 -0.68167222792E+03  0.70245769857E+03  0.00000000000E+00 0. -1.
          1    1    1    2  503    0 -0.67574069188E+01  0.18947795516E+02  0.15310179325E+04  0.15311500877E+04  0.00000000000E+00 0. -1.
<mgrwt>
<rscale>  0 0.58435969E+02</rscale>
<asrwt>0</asrwt>
<pdfrwt beam="1">  1        2 0.45303090E+00 0.20116697E+02</pdfrwt>
<pdfrwt beam="2">  1        2 0.29791214E+00 0.16974767E+03</pdfrwt>
<totfact> 0.45769071E+00</totfact>
</mgrwt>
</event>
<event>
13    1  0.1942437E-008  0.1664252E+03  0.7546771E-02  0.1281336E+00
          2   -1    0    0  502    0  0.00000000000E+00  0.00000000000E+00  0.12654156818E+04  0.12654156818E+04  0.00000000000E+00 0. -1.
          2   -1    0    0  503    0 -0.00000000000E+00 -0.00000000000E+00 -0.39432518684E+04  0.39432518684E+04  0.00000000000E+00 0. -1.
         24    2    1    2    0    0  0.30736677054E+03  0.23456033815E+03 -0.22328962677E+04  0.22675777785E+04  0.81181003933E+02 0.  0.
         24    2    1    2    0    0 -0.21321565546E+03 -0.89267828400E+01 -0.12455770013E+03  0.25927885454E+03  0.78551260724E+02 0.  0.
         25    2    1    2    0    0 -0.70860848269E+02 -0.12365415802E+03  0.43219579998E+03  0.47194527366E+03  0.12501008438E+03 0.  0.
        -11    1    3    3    0    0  0.91225206624E+02  0.64531293041E+02 -0.45394161656E+03  0.46749258534E+03  0.00000000000E+00 0.  1.
         12    1    3    3    0    0  0.21614156391E+03  0.17002904510E+03 -0.17789546511E+04  0.18000851931E+04  0.00000000000E+00 0. -1.
        -13    1    4    4    0    0 -0.30292513435E+02 -0.46260069037E+01  0.99124947587E+01  0.32207046782E+02  0.00000000000E+00 0.  1.
         14    1    4    4    0    0 -0.18292314203E+03 -0.43007759363E+01 -0.13447019489E+03  0.22707180776E+03  0.00000000000E+00 0. -1.
          5    1    5    5  501    0 -0.66948005136E+02 -0.11517855820E+03  0.43944936993E+03  0.45922322937E+03  0.47000000000E+01 0.  1.
         -5    1    5    5    0  501 -0.39128431332E+01 -0.84755998249E+01 -0.72535699538E+01  0.12722044287E+02  0.47000000000E+01 0.  1.
          1    1    1    2  502    0  0.30041314975E+02  0.51354567810E+02  0.72296988561E+03  0.72541383205E+03  0.00000000000E+00 0. -1.
          1    1    1    2  503    0 -0.53331581778E+02 -0.15333396509E+03 -0.14755479043E+04  0.14844518114E+04  0.00000000000E+00 0. -1.
<mgrwt>
<rscale>  0 0.99506941E+02</rscale>
<asrwt>0</asrwt>
<pdfrwt beam="1">  1        2 0.18609054E+00 0.59495985E+02</pdfrwt>
<pdfrwt beam="2">  1        2 0.57988998E+00 0.16642520E+03</pdfrwt>
<totfact> 0.24721224E+00</totfact>
</mgrwt>
</event>
<event>
13    1  0.1942437E-008  0.1335342E+03  0.7546771E-02  0.1319319E+00
          2   -1    0    0  502    0  0.00000000000E+00  0.00000000000E+00  0.10409871099E+04  0.10409871099E+04  0.00000000000E+00 0. -1.
          2   -1    0    0  503    0 -0.00000000000E+00 -0.00000000000E+00 -0.20461837687E+03  0.20461837687E+03  0.00000000000E+00 0. -1.
         24    2    1    2    0    0 -0.77042283302E+02 -0.56808232351E+02  0.14986475442E+03  0.19503591640E+03  0.80105401751E+02 0.  0.
         24    2    1    2    0    0 -0.13048032253E+01  0.81183315046E+02  0.24319368019E+03  0.26899016913E+03  0.81364069790E+02 0.  0.
         25    2    1    2    0    0 -0.74769383483E+02 -0.97023923061E+01  0.27608209742E+03  0.31231449949E+03  0.12503769412E+03 0.  0.
        -13    1    4    4    0    0  0.11118670770E+02 -0.10983150472E+02  0.76766687044E+02  0.78341423741E+02  0.00000000000E+00 0.  1.
         14    1    4    4    0    0 -0.12423473996E+02  0.92166465518E+02  0.16642699314E+03  0.19064874539E+03  0.00000000000E+00 0. -1.
        -13    1    3    3    0    0 -0.52827988091E+02  0.75172326343E+01  0.86020342811E+02  0.10122650092E+03  0.00000000000E+00 0.  1.
         14    1    3    3    0    0 -0.24214295211E+02 -0.64325464985E+02  0.63844411605E+02  0.93809415472E+02  0.00000000000E+00 0. -1.
          5    1    5    5  501    0  0.17820630761E+02  0.33226929264E+02  0.40502592569E+02  0.55535157457E+02  0.47000000000E+01 0.  1.
         -5    1    5    5    0  501 -0.92590014244E+02 -0.42929321570E+02  0.23557950485E+03  0.25677934203E+03  0.47000000000E+01 0.  1.
          1    1    1    2  502    0  0.25197814897E+02  0.45774897592E+02  0.28217635267E+03  0.28697345719E+03  0.00000000000E+00 0. -1.
          1    1    1    2  503    0  0.12791865511E+03 -0.60447587980E+02 -0.11494815162E+03  0.18229144461E+03  0.00000000000E+00 0. -1.
<mgrwt>
<rscale>  0 0.83531001E+02</rscale>
<asrwt>0</asrwt>
<pdfrwt beam="1">  1        2 0.15308634E+00 0.52251996E+02</pdfrwt>
<pdfrwt beam="2">  1        2 0.30090938E-01 0.13353419E+03</pdfrwt>
<totfact> 0.76777956E+02</totfact>
</mgrwt>
</event>
<event>
13    1  0.1942437E-008  0.9248048E+02  0.7546771E-02  0.1463208E+00
         -1   -1    0    0    0  501 -0.00000000000E+00  0.00000000000E+00  0.31327332519E+03  0.31327332519E+03  0.00000000000E+00 0.  1.
          2   -1    0    0  503    0  0.00000000000E+00 -0.00000000000E+00 -0.23100097106E+04  0.23100097106E+04  0.00000000000E+00 0. -1.
         24    2    1    2    0    0 -0.13200998536E+02  0.11735327536E+03  0.10928807895E+02  0.14272170830E+03  0.79397667338E+02 0.  0.
         24    2    1    2    0    0  0.94972555643E+02 -0.14559946567E+03 -0.15701348119E+03  0.24883950363E+03  0.83957575963E+02 0.  0.
         25    2    1    2    0    0 -0.88773204772E+02 -0.64938421284E+02 -0.11314795572E+03  0.20130780583E+03  0.12499876943E+03 0.  0.
        -13    1    4    4    0    0  0.67683587669E+02 -0.87568690151E+02 -0.44405971494E+02  0.11925281480E+03  0.00000000000E+00 0.  1.
         14    1    4    4    0    0  0.27288967975E+02 -0.58030775521E+02 -0.11260750969E+03  0.12958668882E+03  0.00000000000E+00 0. -1.
        -13    1    3    3    0    0 -0.31369409070E+01  0.10440463138E+03 -0.21262309227E+02  0.10659387058E+03  0.00000000000E+00 0.  1.
         14    1    3    3    0    0 -0.10064057629E+02  0.12948643981E+02  0.32191117122E+02  0.36127837722E+02  0.00000000000E+00 0. -1.
          5    1    5    5  502    0 -0.27827765152E+02 -0.64653589520E+02 -0.12061106059E+03  0.13972683739E+03  0.47000000000E+01 0.  1.
         -5    1    5    5    0  502 -0.60945439620E+02 -0.28483176385E+00  0.74631048647E+01  0.61580968439E+02  0.47000000000E+01 0.  1.
          1    1    1    2  503    0 -0.16614024463E+02  0.90990072402E+02 -0.18818553080E+04  0.18841270179E+04  0.00000000000E+00 0. -1.
         -2    1    1    2    0  501  0.23615672127E+02  0.21945391943E+01  0.14435155161E+03  0.14628700019E+03  0.00000000000E+00 0.  1.
<mgrwt>
<rscale>  0 0.46833730E+02</rscale>
<asrwt>0</asrwt>
<pdfrwt beam="2">  1        2 0.33970730E+00 0.92480478E+02</pdfrwt>
<pdfrwt beam="1">  1       -1 0.46069609E-01 0.23717419E+02</pdfrwt>
<totfact> 0.35912935E+01</totfact>
</mgrwt>
</event>
<event>
13    1  0.1942437E-008  0.3862288E+02  0.7546771E-02  0.1550632E+00
          2   -1    0    0  503    0  0.00000000000E+00  0.00000000000E+00  0.39400958297E+04  0.39400958297E+04  0.00000000000E+00 0. -1.
          2   -1    0    0  502    0 -0.00000000000E+00 -0.00000000000E+00 -0.99523144110E+03  0.99523144110E+03  0.00000000000E+00 0. -1.
         24    2    1    2    0    0  0.79854119891E+01 -0.92279691745E+01 -0.47822518216E+02  0.10163554909E+03  0.88847449999E+02 0.  0.
         24    2    1    2    0    0  0.23891053659E+02 -0.37968574104E+02 -0.34344540358E+02  0.99911236049E+02  0.82403352917E+02 0.  0.
         25    2    1    2    0    0 -0.51933355916E+02  0.49451691636E+02  0.30528948959E+03  0.33759288283E+03  0.12499895528E+03 0.  0.
        -11    1    4    4    0    0  0.49648454747E+01  0.22271325089E+02 -0.28484305948E+02  0.36496812150E+02  0.00000000000E+00 0.  1.
         12    1    4    4    0    0  0.18926208184E+02 -0.60239899193E+02 -0.58602344106E+01  0.63414423899E+02  0.00000000000E+00 0. -1.
        -11    1    3    3    0    0 -0.29292047534E+01  0.14303601872E+02  0.22420836804E+02  0.26755694534E+02  0.00000000000E+00 0.  1.
         12    1    3    3    0    0  0.10914616742E+02 -0.23531571047E+02 -0.70243355019E+02  0.74879854560E+02  0.00000000000E+00 0. -1.
          5    1    5    5  501    0  0.13608463848E+01  0.20435811775E+02  0.26215263522E+03  0.26299347608E+03  0.47000000000E+01 0.  1.
         -5    1    5    5    0  501 -0.53294202301E+02  0.29015879861E+02  0.43136854366E+02  0.74599406751E+02  0.47000000000E+01 0.  1.
          1    1    1    2  502    0  0.26169797107E+02  0.28447920887E+02 -0.83670777347E+03  0.83760016754E+03  0.00000000000E+00 0. -1.
          1    1    1    2  503    0 -0.61129068382E+01 -0.30703069245E+02  0.35584497311E+04  0.35585874353E+04  0.00000000000E+00 0. -1.
<mgrwt>
<rscale>  0 0.34772344E+02</rscale>
<asrwt>0</asrwt>
<pdfrwt beam="1">  1        2 0.57942585E+00 0.31305688E+02</pdfrwt>
<pdfrwt beam="2">  1        2 0.14635757E+00 0.38622882E+02</pdfrwt>
<totfact> 0.50480674E+00</totfact>
</mgrwt>
</event>
<event>
13    1  0.1942437E-008  0.1134189E+03  0.7546771E-02  0.1358906E+00
          2   -1    0    0  502    0  0.00000000000E+00  0.00000000000E+00  0.23105501229E+04  0.23105501229E+04  0.00000000000E+00 0. -1.
          2   -1    0    0  503    0 -0.00000000000E+00 -0.00000000000E+00 -0.16277203303E+04  0.16277203303E+04  0.00000000000E+00 0. -1.
         24    2    1    2    0    0 -0.12246449482E+03 -0.36264717235E+02 -0.16333441264E+03  0.22261048624E+03  0.81022318072E+02 0.  0.
         24    2    1    2    0    0  0.41124220233E+02  0.88402805526E+02  0.25286793703E+03  0.28254496884E+03  0.79894983074E+02 0.  0.
         25    2    1    2    0    0  0.21206484704E+02 -0.15787720600E+02  0.22598256574E+03  0.25961210612E+03  0.12502543144E+03 0.  0.
        -11    1    3    3    0    0 -0.36733148620E+02  0.26213384545E+02 -0.46328014386E+02  0.64674188467E+02  0.00000000000E+00 0.  1.
         12    1    3    3    0    0 -0.85731346196E+02 -0.62478101780E+02 -0.11700639825E+03  0.15793629778E+03  0.00000000000E+00 0. -1.
        -13    1    4    4    0    0  0.60942287130E+02  0.83860327267E+02  0.22772195124E+03  0.25020752172E+03  0.00000000000E+00 0.  1.
         14    1    4    4    0    0 -0.19818066897E+02  0.45424782595E+01  0.25145985791E+02  0.32337447112E+02  0.00000000000E+00 0. -1.
          5    1    5    5  501    0 -0.31654990263E+02 -0.25201466680E+02  0.17602663352E+02  0.44374498177E+02  0.47000000000E+01 0.  1.
         -5    1    5    5    0  501  0.52861474968E+02  0.94137460799E+01  0.20837990239E+03  0.21523760794E+03  0.47000000000E+01 0.  1.
          1    1    1    2  502    0  0.99530591884E+02 -0.55112448153E+02  0.17682404442E+04  0.17718967208E+04  0.00000000000E+00 0. -1.
          1    1    1    2  503    0 -0.39396802005E+02  0.18762080461E+02 -0.14009267417E+04  0.14016061713E+04  0.00000000000E+00 0. -1.
<mgrwt>
<rscale>  0 0.70350378E+02</rscale>
<asrwt>0</asrwt>
<pdfrwt beam="1">  1        2 0.33978678E+00 0.11341887E+03</pdfrwt>
<pdfrwt beam="2">  1        2 0.23937064E+00 0.43636266E+02</pdfrwt>
<totfact> 0.14824354E+01</totfact>
</mgrwt>
</event>
<event>
13    1  0.1942437E-008  0.1635875E+03  0.7546771E-02  0.1390889E+00
          2   -1    0    0  502    0  0.00000000000E+00  0.00000000000E+00  0.23627027038E+04  0.23627027038E+04  0.00000000000E+00 0. -1.
          2   -1    0    0  503    0 -0.00000000000E+00 -0.00000000000E+00 -0.52379113988E+03  0.52379113988E+03  0.00000000000E+00 0. -1.
         24    2    1    2    0    0  0.69110208704E+02 -0.70456170202E+02  0.12098623202E+02  0.12862225216E+03  0.81590527639E+02 0.  0.
         24    2    1    2    0    0 -0.14133664517E+03 -0.81881529980E+02  0.35745970874E+03  0.40215043710E+03  0.85246105277E+02 0.  0.
         25    2    1    2    0    0 -0.29386654287E+02 -0.13389347502E+02  0.19615497156E+03  0.23482418347E+03  0.12499109648E+03 0.  0.
        -11    1    4    4    0    0 -0.61304034485E+01  0.51350889575E+01  0.88019115986E+02  0.88381648344E+02  0.00000000000E+00 0.  1.
         12    1    4    4    0    0 -0.13520624172E+03 -0.87016618937E+02  0.26944059275E+03  0.31376878875E+03  0.00000000000E+00 0. -1.
        -11    1    3    3    0    0  0.45173960715E+01 -0.60618088104E+02  0.16948517055E+02  0.63104767672E+02  0.00000000000E+00 0.  1.
         12    1    3    3    0    0  0.64592812633E+02 -0.98380820989E+01 -0.48498938530E+01  0.65517484487E+02  0.00000000000E+00 0. -1.
          5    1    5    5  501    0  0.36669498197E+02  0.11050573342E+02  0.16811716430E+02  0.42089085028E+02  0.47000000000E+01 0.  1.
         -5    1    5    5    0  501 -0.66056152483E+02 -0.24439920845E+02  0.17934325513E+03  0.19273509844E+03  0.47000000000E+01 0.  1.
          1    1    1    2  502    0 -0.39908892380E+01 -0.22915811952E+02  0.16693935504E+04  0.16695555959E+04  0.00000000000E+00 0. -1.
          1    1    1    2  503    0  0.10560397999E+03  0.18864285964E+03 -0.39619528996E+03  0.45134137509E+03  0.00000000000E+00 0. -1.
<mgrwt>
<rscale>  0 0.61686020E+02</rscale>
<asrwt>0</asrwt>
<pdfrwt beam="1">  1        2 0.34745628E+00 0.23260732E+02</pdfrwt>
<pdfrwt beam="2">  1        2 0.77028110E-01 0.16358751E+03</pdfrwt>
<totfact> 0.72436985E+01</totfact>
</mgrwt>
</event>
<event>
13    1  0.1942437E-008  0.1101508E+03  0.7546771E-02  0.1338972E+00
          2   -1    0    0  503    0  0.00000000000E+00  0.00000000000E+00  0.53679123034E+04  0.53679123034E+04  0.00000000000E+00 0. -1.
          2   -1    0    0  502    0 -0.00000000000E+00 -0.00000000000E+00 -0.54658899552E+03  0.54658899552E+03  0.00000000000E+00 0. -1.
         24    2    1    2    0    0  0.16337928244E+02 -0.13575305126E+02 -0.25910123073E+02  0.86713075061E+02  0.79978785314E+02 0.  0.
         24    2    1    2    0    0 -0.95472308820E+02 -0.72973019953E+02  0.89749796702E+02  0.17146146003E+03  0.83090209264E+02 0.  0.
         25    2    1    2    0    0  0.13548248978E+03 -0.37028106646E+02  0.13547339704E+04  0.13677190331E+04  0.12499854863E+03 0.  0.
        -13    1    4    4    0    0 -0.48561290901E+02 -0.50501078790E+02  0.96241825191E+02  0.11904220617E+03  0.00000000000E+00 0.  1.
         14    1    4    4    0    0 -0.46911017918E+02 -0.22471941164E+02 -0.64920284893E+01  0.52419253864E+02  0.00000000000E+00 0. -1.
        -13    1    3    3    0    0 -0.20723987904E+02 -0.34266208596E+02 -0.16009624083E+02  0.43127309091E+02  0.00000000000E+00 0.  1.
         14    1    3    3    0    0  0.37061916148E+02  0.20690903469E+02 -0.99004989902E+01  0.43585765970E+02  0.00000000000E+00 0. -1.
          5    1    5    5  501    0  0.62873860812E+02  0.42989208622E+02  0.43434987475E+03  0.44100237882E+03  0.47000000000E+01 0.  1.
         -5    1    5    5    0  501  0.72608628967E+02 -0.80017315268E+02  0.92038409563E+03  0.92671665423E+03  0.47000000000E+01 0.  1.
          1    1    1    2  502    0 -0.51521097358E+02  0.13557946876E+02 -0.44053549742E+03  0.44374515872E+03  0.00000000000E+00 0. -1.
          1    1    1    2  503    0 -0.48270118463E+01  0.11001848485E+03  0.38432851613E+04  0.38448625721E+04  0.00000000000E+00 0. -1.
<mgrwt>
<rscale>  0 0.76604836E+02</rscale>
<asrwt>0</asrwt>
<pdfrwt beam="1">  1        2 0.78939884E+00 0.11015081E+03</pdfrwt>
<pdfrwt beam="2">  1        2 0.80380738E-01 0.53275148E+02</pdfrwt>
<totfact> 0.42424632E-01</totfact>
</mgrwt>
</event>
<event>
13    1  0.1942437E-008  0.1509216E+03  0.7546771E-02  0.1348245E+00
          2   -1    0    0  503    0  0.00000000000E+00  0.00000000000E+00  0.21640680353E+04  0.21640680353E+04  0.00000000000E+00 0. -1.
          2   -1    0    0  502    0 -0.00000000000E+00 -0.00000000000E+00 -0.72797408206E+03  0.72797408206E+03  0.00000000000E+00 0. -1.
         24    2    1    2    0    0  0.59989757465E+02  0.44465260242E+02 -0.13443140498E+03  0.17300779323E+03  0.79271454518E+02 0.  0.
         24    2    1    2    0    0  0.16577743034E+02 -0.37666873699E+02 -0.14781734213E+03  0.17437461152E+03  0.82842764144E+02 0.  0.
         25    2    1    2    0    0 -0.16354172830E+03  0.10395712119E+03  0.55078452206E+02  0.23709034580E+03  0.12500086493E+03 0.  0.
        -11    1    3    3    0    0 -0.16334214592E+02  0.24347464806E+02 -0.28356572809E+02  0.40788488943E+02  0.00000000000E+00 0.  1.
         12    1    3    3    0    0  0.76323972057E+02  0.20117795436E+02 -0.10607483218E+03  0.13221930428E+03  0.00000000000E+00 0. -1.
        -13    1    4    4    0    0 -0.90749544510E+01 -0.53908966213E+02 -0.58637526996E+02  0.80167892629E+02  0.00000000000E+00 0.  1.
         14    1    4    4    0    0  0.25652697485E+02  0.16242092513E+02 -0.89179815131E+02  0.94206718891E+02  0.00000000000E+00 0. -1.
          5    1    5    5  501    0 -0.10634088139E+03  0.36183743412E+02  0.87586847727E+02  0.14251734013E+03  0.47000000000E+01 0.  1.
         -5    1    5    5    0  501 -0.57200846910E+02  0.67773377782E+02 -0.32508395521E+02  0.94573005676E+02  0.47000000000E+01 0.  1.
          1    1    1    2  502    0  0.24531992950E+02  0.26207305133E+02 -0.31828911059E+03  0.32030703932E+03  0.00000000000E+00 0. -1.
          1    1    1    2  503    0  0.62442234852E+02 -0.13696281287E+03  0.19815533587E+04  0.19872623275E+04  0.00000000000E+00 0. -1.
<mgrwt>
<rscale>  0 0.73605234E+02</rscale>
<asrwt>0</asrwt>
<pdfrwt beam="1">  1        2 0.31824530E+00 0.15092158E+03</pdfrwt>
<pdfrwt beam="2">  1        2 0.10705501E+00 0.35897653E+02</pdfrwt>
<totfact> 0.51005980E+01</totfact>
</mgrwt>
</event>
<event>
13    1  0.1942437E-008  0.2489683E+03  0.7546771E-02  0.1333814E+00
          2   -1    0    0  503    0  0.00000000000E+00  0.00000000000E+00  0.93824263767E+03  0.93824263767E+03  0.00000000000E+00 0. -1.
          2   -1    0    0  502    0 -0.00000000000E+00 -0.00000000000E+00 -0.24182681921E+04  0.24182681921E+04  0.00000000000E+00 0. -1.
         24    2    1    2    0    0  0.13333346899E+03  0.14975761956E+03 -0.97345742191E+03  0.99740763895E+03  0.83650985586E+02 0.  0.
         24    2    1    2    0    0  0.12360571874E+03 -0.12771144161E+02 -0.49934869738E+02  0.15562080414E+03  0.79264542115E+02 0.  0.
         25    2    1    2    0    0 -0.12332087132E+03  0.92822177631E+02  0.29098933700E+03  0.35231263877E+03  0.12500162888E+03 0.  0.
        -11    1    3    3    0    0  0.48057401692E+01 -0.10660026086E+02 -0.50015938150E+02  0.51364631448E+02  0.00000000000E+00 0.  1.
         12    1    3    3    0    0  0.12852772882E+03  0.16041764564E+03 -0.92344148376E+03  0.94604300750E+03  0.00000000000E+00 0. -1.
        -11    1    4    4    0    0  0.18248825917E+02  0.23429505126E+02  0.70009156826E+01  0.30511869464E+02  0.00000000000E+00 0.  1.
         12    1    4    4    0    0  0.10535689282E+03 -0.36200649287E+02 -0.56935785420E+02  0.12510893468E+03  0.00000000000E+00 0. -1.
          5    1    5    5  501    0  0.25482590563E+01  0.62074788385E+02  0.14036228595E+03  0.15356898871E+03  0.47000000000E+01 0. -1.
         -5    1    5    5    0  501 -0.12586913038E+03  0.30747389246E+02  0.15062705106E+03  0.19874365006E+03  0.47000000000E+01 0. -1.
          1    1    1    2  502    0 -0.12613521491E+03 -0.25329923547E+03 -0.12837041696E+04  0.13145215822E+04  0.00000000000E+00 0. -1.
          1    1    1    2  503    0 -0.74831014992E+01  0.23490582445E+02  0.53608156979E+03  0.53664816569E+03  0.00000000000E+00 0. -1.
<mgrwt>
<rscale>  0 0.78345303E+02</rscale>
<asrwt>0</asrwt>
<pdfrwt beam="1">  1        2 0.13797686E+00 0.24653687E+02</pdfrwt>
<pdfrwt beam="2">  1        2 0.35562767E+00 0.24896830E+03</pdfrwt>
<totfact> 0.27270871E+01</totfact>
</mgrwt>
</event>
<event>
13    1  0.1942437E-008  0.1631805E+03  0.7546771E-02  0.1387210E+00
          2   -1    0    0  502    0  0.00000000000E+00  0.00000000000E+00  0.11708368160E+03  0.11708368160E+03  0.00000000000E+00 0. -1.
          2   -1    0    0  503    0 -0.00000000000E+00 -0.00000000000E+00 -0.45580000876E+04  0.45580000876E+04  0.00000000000E+00 0. -1.
         24    2    1    2    0    0  0.14560901803E+02  0.28867304069E+02 -0.13982031799E+04  0.14007113921E+04  0.77297675901E+02 0.  0.
         24    2    1    2    0    0 -0.15848561696E+02  0.39613684611E+02 -0.92606930638E+03  0.93063121922E+03  0.81545601037E+02 0.  0.
         25    2    1    2    0    0  0.64684570935E+02  0.67772124947E+02 -0.11696875676E+04  0.11800726499E+04  0.12500119429E+03 0.  0.
        -11    1    3    3    0    0  0.16336340640E+02  0.55108300748E+02 -0.96784265760E+03  0.96954794141E+03  0.00000000000E+00 0.  1.
         12    1    3    3    0    0 -0.17754388379E+01 -0.26240996678E+02 -0.43036052231E+03  0.43116345074E+03  0.00000000000E+00 0. -1.
        -13    1    4    4    0    0  0.26232786484E+02  0.39861659711E+02 -0.59237307739E+03  0.59429199373E+03  0.00000000000E+00 0.  1.
         14    1    4    4    0    0 -0.42081348180E+02 -0.24797509996E+00 -0.33369622899E+03  0.33633922549E+03  0.00000000000E+00 0. -1.
          5    1    5    5  501    0  0.54968481642E+02  0.87075694602E+02 -0.11295626094E+04  0.11342563595E+04  0.47000000000E+01 0. -1.
         -5    1    5    5    0  501  0.97160892937E+01 -0.19303569655E+02 -0.40124958245E+02  0.45816290408E+02  0.47000000000E+01 0. -1.
          1    1    1    2  502    0 -0.54226984071E+02 -0.15845317835E+03  0.43410872072E+02  0.17301005562E+03  0.00000000000E+00 0. -1.
          1    1    1    2  503    0 -0.91699269710E+01  0.22200064724E+02 -0.99036722413E+03  0.99065845228E+03  0.00000000000E+00 0. -1.
<mgrwt>
<rscale>  0 0.62605868E+02</rscale>
<asrwt>0</asrwt>
<pdfrwt beam="1">  1        2 0.17218186E-01 0.16318053E+03</pdfrwt>
<pdfrwt beam="2">  1        2 0.67029422E+00 0.24019376E+02</pdfrwt>
<totfact> 0.21074321E+01</totfact>
</mgrwt>
</event>
<event>
13    1  0.1942437E-008  0.1057204E+03  0.7546771E-02  0.1380002E+00
          2   -1    0    0  503    0  0.00000000000E+00  0.00000000000E+00  0.16911221435E+04  0.16911221435E+04  0.00000000000E+00 0. -1.
         -1   -1    0    0    0  501 -0.00000000000E+00 -0.00000000000E+00 -0.33693772661E+03  0.33693772661E+03  0.00000000000E+00 0.  1.
         24    2    1    2    0    0  0.66724879806E+02  0.43445977661E+02 -0.19357663962E+02  0.11686525441E+03  0.83324702067E+02 0.  0.
         24    2    1    2    0    0  0.27291357083E+02  0.82261422341E+02  0.53942893765E+03  0.55164417948E+03  0.76262456087E+02 0.  0.
         25    2    1    2    0    0 -0.23721035648E+02  0.32061085905E+02  0.36736725682E+03  0.39009351819E+03  0.12499460301E+03 0.  0.
        -13    1    4    4    0    0  0.10585225172E+02 -0.11847685704E+02  0.38010382060E+02  0.41197133309E+02  0.00000000000E+00 0.  1.
         14    1    4    4    0    0  0.16706131912E+02  0.94109108045E+02  0.50141855559E+03  0.51044704618E+03  0.00000000000E+00 0. -1.
        -13    1    3    3    0    0  0.66672630439E+02 -0.22135415058E+01 -0.24169560859E+02  0.70952851160E+02  0.00000000000E+00 0.  1.
         14    1    3    3    0    0  0.52249366462E-01  0.45659519167E+02  0.48118968972E+01  0.45912403251E+02  0.00000000000E+00 0. -1.
          5    1    5    5  502    0  0.21929148126E+02  0.63840056428E+02  0.26492993674E+03  0.27343445599E+03  0.47000000000E+01 0.  1.
         -5    1    5    5    0  502 -0.45650183774E+02 -0.31778970523E+02  0.10243732009E+03  0.11665906220E+03  0.47000000000E+01 0.  1.
          1    1    1    2  503    0  0.32057963792E+02 -0.22744177875E+02  0.68892449992E+03  0.69004490960E+03  0.00000000000E+00 0. -1.
         -2    1    1    2    0  501 -0.10235316503E+03 -0.13502430803E+03 -0.22217861353E+03  0.27941200844E+03  0.00000000000E+00 0.  1.
<mgrwt>
<rscale>  0 0.64463246E+02</rscale>
<asrwt>0</asrwt>
<pdfrwt beam="1">  1        2 0.24869443E+00 0.39306624E+02</pdfrwt>
<pdfrwt beam="2">  1       -1 0.49549666E-01 0.10572035E+03</pdfrwt>
<totfact> 0.68148941E+01</totfact>
</mgrwt>
</event>
<event>
13    1  0.1942437E-008  0.6664929E+02  0.7546771E-02  0.1496209E+00
          2   -1    0    0  502    0  0.00000000000E+00  0.00000000000E+00  0.83347935591E+03  0.83347935591E+03  0.00000000000E+00 0. -1.
          2   -1    0    0  503    0 -0.00000000000E+00 -0.00000000000E+00 -0.42347010892E+03  0.42347010892E+03  0.00000000000E+00 0. -1.
         24    2    1    2    0    0  0.30887662087E+02  0.50417020501E+02 -0.20990924260E+02  0.95737173725E+02  0.72312266637E+02 0.  0.
         24    2    1    2    0    0  0.11641617151E+03  0.10247373499E+03 -0.13863911808E+02  0.17605787741E+03  0.82161893825E+02 0.  0.
         25    2    1    2    0    0 -0.15014084721E+03 -0.21117595520E+03  0.43283613010E+02  0.29092330102E+03  0.12500135146E+03 0.  0.
        -13    1    3    3    0    0  0.10752101072E+02  0.82979043042E+01 -0.42294318385E+02  0.44421529251E+02  0.00000000000E+00 0.  1.
         14    1    3    3    0    0  0.20135561015E+02  0.42119116196E+02  0.21303394125E+02  0.51315644474E+02  0.00000000000E+00 0. -1.
        -13    1    4    4    0    0 -0.12433383705E+02  0.15627335182E+02  0.77298337369E+00  0.19984997837E+02  0.00000000000E+00 0.  1.
         14    1    4    4    0    0  0.12884955521E+03  0.86846399804E+02 -0.14636895182E+02  0.15607287957E+03  0.00000000000E+00 0. -1.
          5    1    5    5  501    0  0.12116174302E+02 -0.51469246448E+02 -0.16314679222E+02  0.55535067910E+02  0.47000000000E+01 0.  1.
         -5    1    5    5    0  501 -0.16225702151E+03 -0.15970670875E+03  0.59598292232E+02  0.23538823311E+03  0.47000000000E+01 0.  1.
          1    1    1    2  502    0  0.28830412244E+02  0.60195624571E+02  0.54469181503E+03  0.54876577813E+03  0.00000000000E+00 0. -1.
          1    1    1    2  503    0 -0.25993398630E+02 -0.19104248558E+01 -0.14311134498E+03  0.14546533455E+03  0.00000000000E+00 0. -1.
<mgrwt>
<rscale>  0 0.41678705E+02</rscale>
<asrwt>0</asrwt>
<pdfrwt beam="1">  1        2 0.12257049E+00 0.66649293E+02</pdfrwt>
<pdfrwt beam="2">  1        2 0.62275016E-01 0.26063509E+02</pdfrwt>
<totfact> 0.46382012E+02</totfact>
</mgrwt>
</event>
<event>
13    1  0.1942437E-008  0.3474896E+03  0.7546771E-02  0.1150168E+00
          2   -1    0    0  502    0  0.00000000000E+00  0.00000000000E+00  0.18895509352E+04  0.18895509352E+04  0.00000000000E+00 0. -1.
          2   -1    0    0  503    0 -0.00000000000E+00 -0.00000000000E+00 -0.12936171564E+04  0.12936171564E+04  0.00000000000E+00 0. -1.
         24    2    1    2    0    0 -0.26366459634E+01  0.82998437327E+02 -0.12039300136E+03  0.16734897139E+03  0.81335791316E+02 0.  0.
         24    2    1    2    0    0 -0.10512777024E+03  0.10188682981E+03  0.10876561629E+02  0.16754269493E+03  0.80743302297E+02 0.  0.
         25    2    1    2    0    0 -0.34866918603E+03 -0.14100085560E+02  0.79547922380E+03  0.87759841687E+03  0.12499108813E+03 0.  0.
        -11    1    3    3    0    0  0.32248230972E+02  0.26328264847E+02 -0.78092052308E+02  0.88495731899E+02  0.00000000000E+00 0.  1.
         12    1    3    3    0    0 -0.34884876935E+02  0.56670172480E+02 -0.42300949048E+02  0.78853239490E+02  0.00000000000E+00 0. -1.
        -13    1    4    4    0    0 -0.57469393450E+02  0.35541665400E+02  0.42634993770E+02  0.79897959027E+02  0.00000000000E+00 0.  1.
         14    1    4    4    0    0 -0.47658376794E+02  0.66345164408E+02 -0.31758432141E+02  0.87644735900E+02  0.00000000000E+00 0. -1.
          5    1    5    5  501    0 -0.71456648488E+01  0.94042704359E+00 -0.29131805543E+01  0.90841372787E+01  0.47000000000E+01 0.  1.
         -5    1    5    5    0  501 -0.34152352118E+03 -0.15040512604E+02  0.79839240435E+03  0.86851427960E+03  0.47000000000E+01 0.  1.
          1    1    1    2  502    0  0.34171574807E+03 -0.89174110205E+02  0.90201914265E+03  0.96868994427E+03  0.00000000000E+00 0. -1.
          1    1    1    2  503    0  0.11471785416E+03 -0.81611071370E+02 -0.99204814787E+03  0.10019880642E+04  0.00000000000E+00 0. -1.
<mgrwt>
<rscale>  0 0.19949273E+03</rscale>
<asrwt>0</asrwt>
<pdfrwt beam="1">  1        2 0.27787514E+00 0.34748960E+03</pdfrwt>
<pdfrwt beam="2">  1        2 0.19023782E+00 0.11452817E+03</pdfrwt>
<totfact> 0.29015146E+01</totfact>
</mgrwt>
</event>
<event>
13    1  0.1942437E-008  0.3980950E+02  0.7546771E-02  0.1624503E+00
         -3   -1    0    0    0  501 -0.00000000000E+00  0.00000000000E+00  0.24857596531E+04  0.24857596531E+04  0.00000000000E+00 0.  1.
          2   -1    0    0  503    0  0.00000000000E+00 -0.00000000000E+00 -0.38728200040E+03  0.38728200040E+03  0.00000000000E+00 0. -1.
         24    2    1    2    0    0 -0.47886346020E+02  0.51183728367E+01  0.64529977934E+03  0.65219435443E+03  0.81402523634E+02 0.  0.
         24    2    1    2    0    0 -0.62188232349E+02 -0.44688820813E+01  0.41140644883E+03  0.42342113153E+03  0.78376280449E+02 0.  0.
         25    2    1    2    0    0  0.81019403550E+02 -0.31628891598E+02  0.12429157991E+03  0.19656423637E+03  0.12499828659E+03 0.  0.
        -11    1    4    4    0    0 -0.20423192044E+02 -0.27584698068E+02  0.62849191765E+02  0.71610357116E+02  0.00000000000E+00 0.  1.
         12    1    4    4    0    0 -0.41765040304E+02  0.23115815987E+02  0.34855725707E+03  0.35181077442E+03  0.00000000000E+00 0. -1.
        -11    1    3    3    0    0 -0.62930128396E+02  0.45169295723E+01  0.29980764808E+03  0.30637432915E+03  0.00000000000E+00 0.  1.
         12    1    3    3    0    0  0.15043782376E+02  0.60144326435E+00  0.34549213126E+03  0.34582002528E+03  0.00000000000E+00 0. -1.
          5    1    5    5  502    0  0.35067158994E+02 -0.61772007953E+02  0.13013891076E+02  0.72366691008E+02  0.47000000000E+01 0.  1.
         -5    1    5    5    0  502  0.45952244556E+02  0.30143116355E+02  0.11127768883E+03  0.12419754537E+03  0.47000000000E+01 0.  1.
          1    1    1    2  503    0 -0.83864148743E+01  0.17415731599E+02 -0.34110248815E+03  0.34164974328E+03  0.00000000000E+00 0. -1.
         -4    1    1    2    0  501  0.37441589693E+02  0.13563669244E+02  0.12585823327E+04  0.12592121879E+04  0.00000000000E+00 0.  1.
<mgrwt>
<rscale>  0 0.27740009E+02</rscale>
<asrwt>0</asrwt>
<pdfrwt beam="2">  1        2 0.56953236E-01 0.19329761E+02</pdfrwt>
<pdfrwt beam="1">  1       -3 0.36555288E+00 0.39809498E+02</pdfrwt>
<totfact> 0.12867979E+00</totfact>
</mgrwt>
</event>
<event>
13    1  0.1942437E-008  0.2486062E+02  0.7546771E-02  0.1753424E+00
          2   -1    0    0  503    0  0.00000000000E+00  0.00000000000E+00  0.21461964991E+04  0.21461964991E+04  0.00000000000E+00 0. -1.
         -1   -1    0    0    0  501 -0.00000000000E+00 -0.00000000000E+00 -0.15164597111E+04  0.15164597111E+04  0.00000000000E+00 0.  1.
         24    2    1    2    0    0  0.22402862987E+02 -0.26235306540E+03 -0.10090142305E+04  0.10461086576E+04  0.83081809559E+02 0.  0.
         24    2    1    2    0    0  0.11685693828E+03  0.19596480016E+03 -0.18606023334E+03  0.30516587224E+03  0.80312217146E+02 0.  0.
         25    2    1    2    0    0 -0.13653916668E+03  0.53633037780E+02  0.84330367692E+03  0.86504832964E+03  0.12501229674E+03 0.  0.
        -13    1    4    4    0    0  0.76971290284E+02  0.13672759483E+03 -0.17119526634E+03  0.23222151910E+03  0.00000000000E+00 0.  1.
         14    1    4    4    0    0  0.39885647999E+02  0.59237205329E+02 -0.14864967007E+02  0.72944353144E+02  0.00000000000E+00 0. -1.
        -13    1    3    3    0    0  0.39890229874E+02 -0.24602182116E+03 -0.86778967393E+03  0.90287146655E+03  0.00000000000E+00 0.  1.
         14    1    3    3    0    0 -0.17487366888E+02 -0.16331244244E+02 -0.14122455652E+03  0.14323719107E+03  0.00000000000E+00 0. -1.
          5    1    5    5  502    0 -0.52133750197E+02  0.86223351780E+02  0.49342014648E+03  0.50362478618E+03  0.47000000000E+01 0.  1.
         -5    1    5    5    0  502 -0.84405416478E+02 -0.32590314000E+02  0.34988353043E+03  0.36142354346E+03  0.47000000000E+01 0.  1.
          1    1    1    2  503    0 -0.11226827685E+02 -0.10615378151E+02  0.12132057837E+04  0.12133041669E+04  0.00000000000E+00 0. -1.
         -2    1    1    2    0  501  0.85061930910E+01  0.23370605615E+02 -0.23169820884E+03  0.23302918381E+03  0.00000000000E+00 0.  1.
<mgrwt>
<rscale>  0 0.19598904E+02</rscale>
<asrwt>0</asrwt>
<pdfrwt beam="1">  1        2 0.31561713E+00 0.15450822E+02</pdfrwt>
<pdfrwt beam="2">  1       -1 0.22300878E+00 0.24860621E+02</pdfrwt>
<totfact> 0.16950523E+00</totfact>
</mgrwt>
</event>
<event>
13    1  0.1942437E-008  0.6325760E+02  0.7546771E-02  0.1408890E+00
         -3   -1    0    0    0  501 -0.00000000000E+00  0.00000000000E+00  0.57336456505E+03  0.57336456505E+03  0.00000000000E+00 0.  1.
          2   -1    0    0  503    0  0.00000000000E+00 -0.00000000000E+00 -0.29810296312E+04  0.29810296312E+04  0.00000000000E+00 0. -1.
         24    2    1    2    0    0  0.78415461336E+02  0.18852977643E+02  0.20789072459E+03  0.23669892365E+03  0.79394003182E+02 0.  0.
         24    2    1    2    0    0 -0.84296942568E+00 -0.62035564328E+02 -0.26043897196E+01  0.10048238586E+03  0.78998766974E+02 0.  0.
         25    2    1    2    0    0 -0.12838020682E+03  0.13656922338E+03 -0.35144837859E+03  0.41745903983E+03  0.12499382722E+03 0.  0.
        -13    1    4    4    0    0  0.27701173152E+02 -0.55038863448E+02 -0.21822955754E+02  0.65367215647E+02  0.00000000000E+00 0.  1.
         14    1    4    4    0    0 -0.28544142578E+02 -0.69967008799E+01  0.19218566034E+02  0.35115170213E+02  0.00000000000E+00 0. -1.
        -13    1    3    3    0    0 -0.12121971226E+02 -0.93511081069E+01  0.52232466095E+02  0.54429917542E+02  0.00000000000E+00 0.  1.
         14    1    3    3    0    0  0.90537432562E+02  0.28204085750E+02  0.15565825850E+03  0.18226900610E+03  0.00000000000E+00 0. -1.
          5    1    5    5  502    0 -0.10352428127E+03  0.22359103117E+02 -0.19695924769E+03  0.22367888045E+03  0.47000000000E+01 0.  1.
         -5    1    5    5    0  502 -0.24855925543E+02  0.11421012026E+03 -0.15448913090E+03  0.19378015939E+03  0.47000000000E+01 0.  1.
          1    1    1    2  503    0  0.41905802133E+02 -0.31059939038E+02 -0.25266733981E+04  0.25272117594E+04  0.00000000000E+00 0. -1.
         -4    1    1    2    0  501  0.89019127739E+01 -0.62326697659E+02  0.26517037572E+03  0.27254208749E+03  0.00000000000E+00 0.  1.
<mgrwt>
<rscale>  0 0.57442210E+02</rscale>
<asrwt>0</asrwt>
<pdfrwt beam="2">  1        2 0.43838671E+00 0.52161442E+02</pdfrwt>
<pdfrwt beam="1">  1       -3 0.84318319E-01 0.63257598E+02</pdfrwt>
<totfact> 0.26219292E+00</totfact>
</mgrwt>
</event>
<event>
13    1  0.1942437E-008  0.8417868E+02  0.7546771E-02  0.1363730E+00
          2   -1    0    0  502    0  0.00000000000E+00  0.00000000000E+00  0.35699492965E+04  0.35699492965E+04  0.00000000000E+00 0. -1.
          4   -1    0    0  503    0 -0.00000000000E+00 -0.00000000000E+00 -0.38665145997E+03  0.38665145997E+03  0.00000000000E+00 0. -1.
         24    2    1    2    0    0  0.40629896714E+02  0.37171483839E+01  0.35686963137E+02  0.80105528867E+02  0.58980765662E+02 0.  0.
         24    2    1    2    0    0 -0.67719553914E+02  0.62473218491E+02  0.16289192005E+03  0.20297828377E+03  0.78597487579E+02 0.  0.
         25    2    1    2    0    0  0.69436057535E+02  0.54532400988E+02  0.88111403712E+03  0.89430418731E+03  0.12499153644E+03 0.  0.
        -11    1    4    4    0    0 -0.83331454356E+02  0.44521048258E+02  0.14559880504E+03  0.17356631889E+03  0.00000000000E+00 0.  1.
         12    1    4    4    0    0  0.15611900442E+02  0.17952170234E+02  0.17293115009E+02  0.29411964882E+02  0.00000000000E+00 0. -1.
        -11    1    3    3    0    0 -0.36971788937E+01  0.26124272510E+01 -0.13289184174E+02  0.14039099826E+02  0.00000000000E+00 0.  1.
         12    1    3    3    0    0  0.44327075608E+02  0.11047211329E+01  0.48976147311E+02  0.66066429041E+02  0.00000000000E+00 0. -1.
          5    1    5    5  501    0  0.97410659796E+02  0.11097343081E+02  0.65513291092E+03  0.66244487215E+03  0.47000000000E+01 0. -1.
         -5    1    5    5    0  501 -0.27974602260E+02  0.43435057907E+02  0.22598112620E+03  0.23185931516E+03  0.47000000000E+01 0. -1.
          1    1    1    2  502    0  0.44888326755E+02 -0.34249870841E+02  0.24299041908E+04  0.24305600984E+04  0.00000000000E+00 0. -1.
          3    1    1    2  503    0 -0.87234727090E+02 -0.86472897021E+02 -0.32629927450E+03  0.34865265819E+03  0.00000000000E+00 0. -1.
<mgrwt>
<rscale>  0 0.68941567E+02</rscale>
<asrwt>0</asrwt>
<pdfrwt beam="1">  1        2 0.52499253E+00 0.56462514E+02</pdfrwt>
<pdfrwt beam="2">  1        4 0.56860511E-01 0.84178676E+02</pdfrwt>
<totfact> 0.22800770E+00</totfact>
</mgrwt>
</event>
<event>
13    1  0.1942437E-008  0.8726541E+02  0.7546771E-02  0.1386940E+00
          2   -1    0    0  502    0  0.00000000000E+00  0.00000000000E+00  0.74881522186E+03  0.74881522186E+03  0.00000000000E+00 0. -1.
          2   -1    0    0  503    0 -0.00000000000E+00 -0.00000000000E+00 -0.92295464779E+03  0.92295464779E+03  0.00000000000E+00 0. -1.
         24    2    1    2    0    0 -0.18575045416E+03  0.73325496643E+02 -0.22301852240E+03  0.31014354243E+03  0.81067230726E+02 0.  0.
         24    2    1    2    0    0  0.10540304694E+03 -0.41054001202E+02 -0.43759853467E+02  0.14449256700E+03  0.78536258022E+02 0.  0.
         25    2    1    2    0    0  0.60834916819E+02  0.63266099287E+01  0.54077414292E+03  0.55838976923E+03  0.12498618977E+03 0.  0.
        -11    1    4    4    0    0  0.10868573006E+03 -0.13083986432E+02 -0.32875226468E+02  0.11430030243E+03  0.00000000000E+00 0.  1.
         12    1    4    4    0    0 -0.32826831279E+01 -0.27970014770E+02 -0.10884626999E+02  0.30192264567E+02  0.00000000000E+00 0. -1.
        -11    1    3    3    0    0 -0.37424932925E+01  0.19052983399E+02 -0.32666188459E+01  0.19689927149E+02  0.00000000000E+00 0.  1.
         12    1    3    3    0    0 -0.18200796087E+03  0.54272513244E+02 -0.21975190355E+03  0.29045361528E+03  0.00000000000E+00 0. -1.
          5    1    5    5  501    0  0.95880990634E+02 -0.12082247404E+02  0.42729337528E+03  0.43811056096E+03  0.47000000000E+01 0. -1.
         -5    1    5    5    0  501 -0.35046073815E+02  0.18408857332E+02  0.11348076764E+03  0.12027920828E+03  0.47000000000E+01 0. -1.
          1    1    1    2  502    0 -0.92056064993E+01  0.44061514110E+02  0.96838895175E+02  0.10678919344E+03  0.00000000000E+00 0. -1.
          1    1    1    2  503    0  0.28718096902E+02 -0.82659619479E+02 -0.54497408816E+03  0.55195479755E+03  0.00000000000E+00 0. -1.
<mgrwt>
<rscale>  0 0.62674304E+02</rscale>
<asrwt>0</asrwt>
<pdfrwt beam="1">  1        2 0.11011989E+00 0.45012889E+02</pdfrwt>
<pdfrwt beam="2">  1        2 0.13572862E+00 0.87265414E+02</pdfrwt>
<totfact> 0.22046460E+02</totfact>
</mgrwt>
</event>
<event>
13    1  0.1942437E-008  0.2238684E+03  0.7546771E-02  0.1185865E+00
          2   -1    0    0  503    0  0.00000000000E+00  0.00000000000E+00  0.98467185011E+03  0.98467185011E+03  0.00000000000E+00 0. -1.
         -1   -1    0    0    0  501 -0.00000000000E+00 -0.00000000000E+00 -0.85308675088E+03  0.85308675088E+03  0.00000000000E+00 0.  1.
         24    2    1    2    0    0  0.11652745653E+03 -0.84472943564E+02 -0.91090036008E+02  0.18683847058E+03  0.76791230675E+02 0.  0.
         24    2    1    2    0    0  0.35630933292E+01  0.29136035320E+03 -0.19560608071E+03  0.36011698704E+03  0.80740042677E+02 0.  0.
         25    2    1    2    0    0  0.13671851153E+03 -0.43491309644E+03  0.30032145524E+03  0.56005351287E+03  0.12500243178E+03 0.  0.
        -11    1    4    4    0    0  0.10442137892E+01  0.26288353919E+03 -0.20112812240E+03  0.33100055465E+03  0.00000000000E+00 0.  1.
         12    1    4    4    0    0  0.25188795400E+01  0.28476814018E+02  0.55220416922E+01  0.29116432391E+02  0.00000000000E+00 0. -1.
        -13    1    3    3    0    0  0.86381687214E+02 -0.92516178304E+02 -0.52039651678E+02  0.13685453767E+03  0.00000000000E+00 0.  1.
         14    1    3    3    0    0  0.30145769312E+02  0.80432347405E+01 -0.39050384330E+02  0.49983932907E+02  0.00000000000E+00 0. -1.
          5    1    5    5  502    0  0.77676797355E+02 -0.35493383988E+03  0.27937831141E+03  0.45835144423E+03  0.47000000000E+01 0.  1.
         -5    1    5    5    0  502  0.59041714177E+02 -0.79979256561E+02  0.20943143833E+02  0.10170206865E+03  0.47000000000E+01 0.  1.
          1    1    1    2  503    0 -0.17296201536E+03  0.14499114454E+03  0.38078648479E+03  0.44264730627E+03  0.00000000000E+00 0. -1.
         -2    1    1    2    0  501 -0.83847046026E+02  0.83034542257E+02 -0.26282672409E+03  0.28810232423E+03  0.00000000000E+00 0.  1.
<mgrwt>
<rscale>  0 0.16253456E+03</rscale>
<asrwt>0</asrwt>
<pdfrwt beam="1">  1        2 0.14480468E+00 0.22386843E+03</pdfrwt>
<pdfrwt beam="2">  1       -1 0.12545393E+00 0.11800450E+03</pdfrwt>
<totfact> 0.20734620E+01</totfact>
</mgrwt>
</event>
<event>
13    1  0.1942437E-008  0.3793759E+02  0.7546771E-02  0.1620128E+00
          2   -1    0    0  503    0  0.00000000000E+00  0.00000000000E+00  0.10978469117E+03  0.10978469117E+03  0.00000000000E+00 0. -1.
          2   -1    0    0  502    0 -0.00000000000E+00 -0.00000000000E+00 -0.21340998475E+04  0.21340998475E+04  0.00000000000E+00 0. -1.
         24    2    1    2    0    0  0.23466553567E+02  0.57613347543E+01 -0.77482565081E+03  0.77893606468E+03  0.76175662752E+02 0.  0.
         24    2    1    2    0    0 -0.39973920916E+02  0.10748078945E+03 -0.24630677494E+03  0.28371277277E+03  0.81706031573E+02 0.  0.
         25    2    1    2    0    0 -0.20505222891E+02 -0.97348853610E+02 -0.24353431204E+03  0.29125716548E+03  0.12499804733E+03 0.  0.
        -11    1    3    3    0    0  0.71262433773E+00 -0.31910770059E+02 -0.21163795330E+03  0.21403137237E+03  0.00000000000E+00 0.  1.
         12    1    3    3    0    0  0.22753929230E+02  0.37672104814E+02 -0.56318769751E+03  0.56490469232E+03  0.00000000000E+00 0. -1.
        -13    1    4    4    0    0 -0.44568157118E+02  0.14623070650E+02 -0.67768015718E+02  0.82417587798E+02  0.00000000000E+00 0.  1.
         14    1    4    4    0    0  0.45942362019E+01  0.92857718796E+02 -0.17853875922E+03  0.20129518497E+03  0.00000000000E+00 0. -1.
          5    1    5    5  501    0  0.48915399418E+02 -0.34583266097E+02 -0.58578505385E+02  0.83918114179E+02  0.47000000000E+01 0. -1.
         -5    1    5    5    0  501 -0.69420622309E+02 -0.62765587513E+02 -0.18495580666E+03  0.20733905130E+03  0.47000000000E+01 0. -1.
          1    1    1    2  502    0  0.22370569134E+02 -0.30679442737E+02 -0.82270314113E+03  0.82357885414E+03  0.00000000000E+00 0. -1.
          1    1    1    2  503    0  0.14642021106E+02  0.14786172146E+02  0.63054722620E+02  0.66399681577E+02  0.00000000000E+00 0. -1.
<mgrwt>
<rscale>  0 0.28097119E+02</rscale>
<asrwt>0</asrwt>
<pdfrwt beam="1">  1        2 0.16144808E-01 0.20809125E+02</pdfrwt>
<pdfrwt beam="2">  1        2 0.31383820E+00 0.37937594E+02</pdfrwt>
<totfact> 0.42784873E+02</totfact>
</mgrwt>
</event>
<event>
13    1  0.1942437E-008  0.5471080E+02  0.7546771E-02  0.1450602E+00
          2   -1    0    0  502    0  0.00000000000E+00  0.00000000000E+00  0.88388902199E+03  0.88388902199E+03  0.00000000000E+00 0. -1.
          2   -1    0    0  503    0 -0.00000000000E+00 -0.00000000000E+00 -0.15887161463E+04  0.15887161463E+04  0.00000000000E+00 0. -1.
         24    2    1    2    0    0  0.87950485998E+02  0.39929834145E+01 -0.24359272885E+03  0.27112295137E+03  0.80118695122E+02 0.  0.
         24    2    1    2    0    0 -0.70114348214E+02 -0.11984963985E+03 -0.46132132231E+01  0.16231214904E+03  0.83928505242E+02 0.  0.
         25    2    1    2    0    0  0.23421105579E+02  0.44606668495E+02 -0.15417363482E+03  0.20477636916E+03  0.12500219451E+03 0.  0.
        -11    1    3    3    0    0 -0.21122935550E+00  0.23566278772E+02 -0.89171797867E+02  0.92233527786E+02  0.00000000000E+00 0.  1.
         12    1    3    3    0    0  0.88161715353E+02 -0.19573295358E+02 -0.15442093099E+03  0.17888942359E+03  0.00000000000E+00 0. -1.
        -11    1    4    4    0    0 -0.78950414137E+02 -0.12771798082E+03 -0.18468793934E+01  0.15016145138E+03  0.00000000000E+00 0.  1.
         12    1    4    4    0    0  0.88360659234E+01  0.78683409740E+01 -0.27663338297E+01  0.12150697657E+02  0.00000000000E+00 0. -1.
          5    1    5    5  501    0  0.51070411681E+02  0.36491507558E+02 -0.17941522945E+02  0.65450785470E+02  0.47000000000E+01 0. -1.
         -5    1    5    5    0  501 -0.27649306101E+02  0.81151609379E+01 -0.13623211188E+03  0.13932558369E+03  0.47000000000E+01 0. -1.
          1    1    1    2  502    0 -0.47147178599E+02  0.27693496780E+02  0.76454423613E+03  0.76649701579E+03  0.00000000000E+00 0. -1.
          1    1    1    2  503    0  0.58899352355E+01  0.43556491159E+02 -0.10669917836E+04  0.10678966829E+04  0.00000000000E+00 0. -1.
<mgrwt>
<rscale>  0 0.49037734E+02</rscale>
<asrwt>0</asrwt>
<pdfrwt beam="1">  1        2 0.12998368E+00 0.54710798E+02</pdfrwt>
<pdfrwt beam="2">  1        2 0.23363473E+00 0.43952921E+02</pdfrwt>
<totfact> 0.85402463E+01</totfact>
</mgrwt>
</event>
<event>
13    1  0.1942437E-008  0.1735563E+03  0.7546771E-02  0.1264972E+00
          2   -1    0    0  502    0  0.00000000000E+00  0.00000000000E+00  0.32940023136E+04  0.32940023136E+04  0.00000000000E+00 0. -1.
          2   -1    0    0  503    0 -0.00000000000E+00 -0.00000000000E+00 -0.25148294243E+04  0.25148294243E+04  0.00000000000E+00 0. -1.
         24    2    1    2    0    0 -0.41970543418E+02 -0.73610165269E+02 -0.46869284057E+02  0.12419351496E+03  0.77764493337E+02 0.  0.
         24    2    1    2    0    0 -0.33416138582E+03 -0.21426978636E+02  0.65273438531E+03  0.73782754740E+03  0.78767790010E+02 0.  0.
         25    2    1    2    0    0  0.75653590184E+02  0.22252104905E+03  0.15207033075E+04  0.15438271858E+04  0.12499898922E+03 0.  0.
        -11    1    3    3    0    0  0.83417969791E+01 -0.56305915403E+02 -0.42054930638E+02  0.70771172643E+02  0.00000000000E+00 0.  1.
         12    1    3    3    0    0 -0.50312340397E+02 -0.17304249866E+02 -0.48143534183E+01  0.53422342315E+02  0.00000000000E+00 0. -1.
        -13    1    4    4    0    0 -0.66396067490E+02 -0.88778499762E+01  0.20835547724E+03  0.21885899318E+03  0.00000000000E+00 0.  1.
         14    1    4    4    0    0 -0.26776531833E+03 -0.12549128660E+02  0.44437890807E+03  0.51896855422E+03  0.00000000000E+00 0. -1.
          5    1    5    5  501    0  0.10717663625E+02  0.19382324964E+03  0.10550947916E+04  0.10728137908E+04  0.47000000000E+01 0.  1.
         -5    1    5    5    0  501  0.64935926559E+02  0.28697799415E+02  0.46560851585E+03  0.47101339501E+03  0.47000000000E+01 0.  1.
          1    1    1    2  502    0  0.47134805026E+02 -0.47305051988E+02  0.10192657378E+04  0.10214509788E+04  0.00000000000E+00 0. -1.
          1    1    1    2  503    0  0.25334353403E+03 -0.80178853160E+02 -0.23666612572E+04  0.23815325110E+04  0.00000000000E+00 0. -1.
<mgrwt>
<rscale>  0 0.10765660E+03</rscale>
<asrwt>0</asrwt>
<pdfrwt beam="1">  1        2 0.48441211E+00 0.66779172E+02</pdfrwt>
<pdfrwt beam="2">  1        2 0.36982785E+00 0.17355625E+03</pdfrwt>
<totfact> 0.16000926E+00</totfact>
</mgrwt>
</event>
<event>
13    1  0.1942437E-008  0.4294181E+02  0.7546771E-02  0.1505631E+00
          2   -1    0    0  502    0  0.00000000000E+00  0.00000000000E+00  0.17845887366E+04  0.17845887366E+04  0.00000000000E+00 0. -1.
          2   -1    0    0  503    0 -0.00000000000E+00 -0.00000000000E+00 -0.22884633737E+03  0.22884633737E+03  0.00000000000E+00 0. -1.
         24    2    1    2    0    0  0.13842873691E+03 -0.53673055353E+02  0.81361123945E+02  0.18113331276E+03  0.64392021451E+02 0.  0.
         24    2    1    2    0    0 -0.24891674120E+03  0.92828566343E+02  0.38339725756E+03  0.47321437730E+03  0.79760284590E+02 0.  0.
         25    2    1    2    0    0  0.39004309155E+02 -0.23003314153E+01  0.15821985776E+03  0.20538749168E+03  0.12499548268E+03 0.  0.
        -13    1    4    4    0    0 -0.95401484187E+02  0.53964577197E+02  0.98985312301E+02  0.14768788315E+03  0.00000000000E+00 0.  1.
         14    1    4    4    0    0 -0.15351525701E+03  0.38863989146E+02  0.28441194526E+03  0.32552649415E+03  0.00000000000E+00 0. -1.
        -13    1    3    3    0    0  0.33286899916E+02 -0.70453283823E+01 -0.86215421370E+01  0.35099648814E+02  0.00000000000E+00 0.  1.
         14    1    3    3    0    0  0.10514183700E+03 -0.46627726971E+02  0.89982666082E+02  0.14603366394E+03  0.00000000000E+00 0. -1.
          5    1    5    5  501    0  0.20927017729E+02 -0.46720913784E+02  0.14725092139E+03  0.15596700839E+03  0.47000000000E+01 0. -1.
         -5    1    5    5    0  501  0.18077291426E+02  0.44420582368E+02  0.10968936373E+02  0.49420483288E+02  0.47000000000E+01 0. -1.
          1    1    1    2  502    0  0.36335475517E+02 -0.22624278715E+02  0.10395244209E+04  0.10404052798E+04  0.00000000000E+00 0. -1.
          1    1    1    2  503    0  0.35148219612E+02 -0.14230900859E+02 -0.10676026092E+03  0.11329461237E+03  0.00000000000E+00 0. -1.
<mgrwt>
<rscale>  0 0.40352789E+02</rscale>
<asrwt>0</asrwt>
<pdfrwt beam="1">  1        2 0.26243951E+00 0.42941813E+02</pdfrwt>
<pdfrwt beam="2">  1        2 0.33653874E-01 0.37919861E+02</pdfrwt>
<totfact> 0.29079375E+02</totfact>
</mgrwt>
</event>
<event>
13    1  0.1942437E-008  0.7563952E+02  0.7546771E-02  0.1440232E+00
          2   -1    0    0  503    0  0.00000000000E+00  0.00000000000E+00  0.16778254269E+04  0.16778254269E+04  0.00000000000E+00 0. -1.
          2   -1    0    0  502    0 -0.00000000000E+00 -0.00000000000E+00 -0.40798665919E+03  0.40798665919E+03  0.00000000000E+00 0. -1.
         24    2    1    2    0    0  0.39322886580E+00 -0.65519106822E+02  0.49849691062E+02  0.11234834768E+03  0.76447704614E+02 0.  0.
         24    2    1    2    0    0  0.51381217720E+02  0.89697929892E+02  0.91280049266E+02  0.16001400458E+03  0.81158401336E+02 0.  0.
         25    2    1    2    0    0 -0.10434458871E+02 -0.27902585164E+02  0.70034379631E+03  0.71203542505E+03  0.12500232520E+03 0.  0.
        -11    1    4    4    0    0  0.10776751979E+01  0.30370849750E+02 -0.10287402444E+02  0.32083960906E+02  0.00000000000E+00 0.  1.
         12    1    4    4    0    0  0.50303542522E+02  0.59327080142E+02  0.10156745171E+03  0.12793004368E+03  0.00000000000E+00 0. -1.
        -13    1    3    3    0    0  0.32377518454E+02 -0.21004258497E+02  0.41891947161E+02  0.56959791196E+02  0.00000000000E+00 0.  1.
         14    1    3    3    0    0 -0.31984289588E+02 -0.44514848325E+02  0.79577439012E+01  0.55388556488E+02  0.00000000000E+00 0. -1.
          5    1    5    5  501    0 -0.49842286176E+02 -0.19667763174E+02  0.13618408362E+03  0.14642154565E+03  0.47000000000E+01 0. -1.
         -5    1    5    5    0  501  0.39407827305E+02 -0.82348219900E+01  0.56415971269E+03  0.56561387940E+03  0.47000000000E+01 0. -1.
          1    1    1    2  502    0 -0.75662966932E+02  0.45453044058E+01 -0.33186389427E+03  0.34041032398E+03  0.00000000000E+00 0. -1.
          1    1    1    2  503    0  0.34322979217E+02 -0.82154231183E+00  0.76022912536E+03  0.76100398480E+03  0.00000000000E+00 0. -1.
<mgrwt>
<rscale>  0 0.50959957E+02</rscale>
<asrwt>0</asrwt>
<pdfrwt beam="1">  1        2 0.24673903E+00 0.34332810E+02</pdfrwt>
<pdfrwt beam="2">  1        2 0.59998038E-01 0.75639519E+02</pdfrwt>
<totfact> 0.18538398E+02</totfact>
</mgrwt>
</event>
<event>
13    1  0.1942437E-008  0.4122871E+02  0.7546771E-02  0.1582788E+00
          2   -1    0    0  502    0  0.00000000000E+00  0.00000000000E+00  0.25199793435E+04  0.25199793435E+04  0.00000000000E+00 0. -1.
          2   -1    0    0  503    0 -0.00000000000E+00 -0.00000000000E+00 -0.33224659147E+03  0.33224659147E+03  0.00000000000E+00 0. -1.
         24    2    1    2    0    0  0.36331461817E+01 -0.16909876985E+02 -0.31715386234E+02  0.87177910386E+02  0.79340901459E+02 0.  0.
         24    2    1    2    0    0 -0.51682150438E+02  0.15367752450E+03  0.41311302696E+03  0.44994702369E+03  0.74176309356E+02 0.  0.
         25    2    1    2    0    0  0.26680039351E+02 -0.11967582784E+03  0.11080122889E+04  0.11217634407E+04  0.12501142411E+03 0.  0.
        -13    1    3    3    0    0  0.40913803047E+02 -0.15768793127E+02 -0.18787258736E+02  0.47702779869E+02  0.00000000000E+00 0.  1.
         14    1    3    3    0    0 -0.37280656865E+02 -0.11410838578E+01 -0.12928127498E+02  0.39475130516E+02  0.00000000000E+00 0. -1.
        -13    1    4    4    0    0 -0.26945984682E+01  0.40005995821E+02  0.39182766314E+02  0.56062730388E+02  0.00000000000E+00 0.  1.
         14    1    4    4    0    0 -0.48987551969E+02  0.11367152868E+03  0.37393026065E+03  0.39388429330E+03  0.00000000000E+00 0. -1.
          5    1    5    5  501    0  0.51384248483E+02 -0.13304906807E+03  0.99674006315E+03  0.10069037883E+04  0.47000000000E+01 0.  1.
         -5    1    5    5    0  501 -0.24704209131E+02  0.13373240234E+02  0.11127222577E+03  0.11485965232E+03  0.47000000000E+01 0.  1.
          1    1    1    2  502    0 -0.19731491615E+02 -0.13595499360E+02  0.94395848797E+03  0.94426256749E+03  0.00000000000E+00 0. -1.
          1    1    1    2  503    0  0.41100456519E+02 -0.34963203152E+01 -0.24563566560E+03  0.24907499272E+03  0.00000000000E+00 0. -1.
<mgrwt>
<rscale>  0 0.31431120E+02</rscale>
<asrwt>0</asrwt>
<pdfrwt beam="1">  1        2 0.37058519E+00 0.23961831E+02</pdfrwt>
<pdfrwt beam="2">  1        2 0.48859794E-01 0.41228707E+02</pdfrwt>
<totfact> 0.99033125E+01</totfact>
</mgrwt>
</event>
<event>
13    1  0.1942437E-008  0.8336787E+02  0.7546771E-02  0.1379666E+00
          2   -1    0    0  502    0  0.00000000000E+00  0.00000000000E+00  0.16794745360E+04  0.16794745360E+04  0.00000000000E+00 0. -1.
          2   -1    0    0  503    0 -0.00000000000E+00 -0.00000000000E+00 -0.28138832170E+04  0.28138832170E+04  0.00000000000E+00 0. -1.
         24    2    1    2    0    0  0.30607558520E+02 -0.11316175527E+03 -0.55587768031E+03  0.57387841087E+03  0.81203629875E+02 0.  0.
         24    2    1    2    0    0  0.18449812217E+02  0.10213169054E+03 -0.76029160624E+02  0.15256000169E+03  0.81992945217E+02 0.  0.
         25    2    1    2    0    0  0.76982105510E+01  0.75142228737E+02  0.26895125346E+02  0.14850903347E+03  0.12500387302E+03 0.  0.
        -11    1    3    3    0    0 -0.16669734114E+02 -0.59421554345E+02 -0.15821996737E+03  0.16983038371E+03  0.00000000000E+00 0.  1.
         12    1    3    3    0    0  0.47277292634E+02 -0.53740200924E+02 -0.39765771294E+03  0.40404802716E+03  0.00000000000E+00 0. -1.
        -11    1    4    4    0    0  0.49121871570E+02  0.62663470357E+02 -0.61190437665E+02  0.10041881520E+03  0.00000000000E+00 0.  1.
         12    1    4    4    0    0 -0.30672059353E+02  0.39468220186E+02 -0.14838722959E+02  0.52141186491E+02  0.00000000000E+00 0. -1.
          5    1    5    5  501    0  0.28185803476E+02  0.13578522842E+02  0.65587219326E+02  0.72818879002E+02  0.47000000000E+01 0.  1.
         -5    1    5    5    0  501 -0.20487592925E+02  0.61563705895E+02 -0.38692093980E+02  0.75690154471E+02  0.47000000000E+01 0.  1.
          1    1    1    2  502    0 -0.80870464269E+02 -0.20331873813E+02  0.15430796278E+04  0.15453310826E+04  0.00000000000E+00 0. -1.
          1    1    1    2  503    0  0.24114882980E+02 -0.43780290198E+02 -0.20724765932E+04  0.20730792244E+04  0.00000000000E+00 0. -1.
<mgrwt>
<rscale>  0 0.64551742E+02</rscale>
<asrwt>0</asrwt>
<pdfrwt beam="1">  1        2 0.24698155E+00 0.83367874E+02</pdfrwt>
<pdfrwt beam="2">  1        2 0.41380636E+00 0.49982411E+02</pdfrwt>
<totfact> 0.83342987E+00</totfact>
</mgrwt>
</event>
<event>
13    1  0.1942437E-008  0.1369340E+03  0.7546771E-02  0.1446282E+00
          2   -1    0    0  502    0  0.00000000000E+00  0.00000000000E+00  0.15886528136E+04  0.15886528136E+04  0.00000000000E+00 0. -1.
          2   -1    0    0  503    0 -0.00000000000E+00 -0.00000000000E+00 -0.32405069919E+04  0.32405069919E+04  0.00000000000E+00 0. -1.
         24    2    1    2    0    0  0.38431775017E+02  0.29102923851E+02 -0.26718981589E+03  0.28366764419E+03  0.82176353872E+02 0.  0.
         24    2    1    2    0    0 -0.12785094157E+02  0.40516745031E+02 -0.14156822602E+03  0.17150011734E+03  0.86980816090E+02 0.  0.
         25    2    1    2    0    0  0.33481975652E+02  0.17125687561E+03  0.99771727861E+03  0.10205462081E+04  0.12499933889E+03 0.  0.
        -11    1    3    3    0    0 -0.73975128502E+01 -0.13891923926E+02 -0.94064094973E+01  0.18335465262E+02  0.00000000000E+00 0.  1.
         12    1    3    3    0    0  0.45829287868E+02  0.42994847777E+02 -0.25778340639E+03  0.26533217893E+03  0.00000000000E+00 0. -1.
        -13    1    4    4    0    0  0.14936948058E+02 -0.20826753965E+02 -0.63142414682E+02  0.68145657454E+02  0.00000000000E+00 0.  1.
         14    1    4    4    0    0 -0.27722042215E+02  0.61343498996E+02 -0.78425811341E+02  0.10335445989E+03  0.00000000000E+00 0. -1.
          5    1    5    5  501    0  0.60755641149E+02  0.13569602221E+03  0.90847805785E+03  0.92057543416E+03  0.47000000000E+01 0.  1.
         -5    1    5    5    0  501 -0.27273665497E+02  0.35560853400E+02  0.89239220755E+02  0.99970773955E+02  0.47000000000E+01 0.  1.
          1    1    1    2  502    0 -0.65835691888E+01 -0.16892571238E+02  0.55143625245E+03  0.55173421397E+03  0.00000000000E+00 0. -1.
          1    1    1    2  503    0 -0.52545087324E+02 -0.22398397326E+03 -0.27922496675E+04  0.28017116219E+04  0.00000000000E+00 0. -1.
<mgrwt>
<rscale>  0 0.49826036E+02</rscale>
<asrwt>0</asrwt>
<pdfrwt beam="1">  1        2 0.23362541E+00 0.18130150E+02</pdfrwt>
<pdfrwt beam="2">  1        2 0.47654515E+00 0.13693399E+03</pdfrwt>
<totfact> 0.53495385E+00</totfact>
</mgrwt>
</event>
<event>
13    1  0.1942437E-008  0.6518484E+02  0.7546771E-02  0.1517351E+00
          2   -1    0    0  503    0  0.00000000000E+00  0.00000000000E+00  0.25987427475E+04  0.25987427475E+04  0.00000000000E+00 0. -1.
          2   -1    0    0  502    0 -0.00000000000E+00 -0.00000000000E+00 -0.89565788808E+03  0.89565788808E+03  0.00000000000E+00 0. -1.
         24    2    1    2    0    0 -0.13388722371E+03  0.18777724170E+03 -0.43813095039E+03  0.50182938135E+03  0.81779686458E+02 0.  0.
         24    2    1    2    0    0  0.76722059408E+02 -0.21244143080E+03 -0.57095686333E+02  0.24569961425E+03  0.78043238809E+02 0.  0.
         25    2    1    2    0    0  0.56896841833E+02  0.83774942295E+02  0.89291621402E+02  0.18399317062E+03  0.12500000646E+03 0.  0.
        -11    1    3    3    0    0 -0.55091141151E+02  0.81922645617E+02 -0.10811466988E+03  0.14640742994E+03  0.00000000000E+00 0.  1.
         12    1    3    3    0    0 -0.78796082560E+02  0.10585459609E+03 -0.33001628051E+03  0.35542195141E+03  0.00000000000E+00 0. -1.
        -13    1    4    4    0    0 -0.10404626839E+01 -0.20727982774E+02  0.16081025130E+02  0.26255117629E+02  0.00000000000E+00 0.  1.
         14    1    4    4    0    0  0.77762522092E+02 -0.19171344803E+03 -0.73176711463E+02  0.21944449662E+03  0.00000000000E+00 0. -1.
          5    1    5    5  501    0 -0.24146748741E+02  0.25836120524E+02  0.75245585346E+02  0.83273997818E+02  0.47000000000E+01 0. -1.
         -5    1    5    5    0  501  0.81043590574E+02  0.57938821771E+02  0.14046036056E+02  0.10071917280E+03  0.47000000000E+01 0. -1.
          1    1    1    2  502    0 -0.22705108353E+02 -0.61289762343E+02 -0.22216474085E+03  0.23157963855E+03  0.00000000000E+00 0. -1.
          1    1    1    2  503    0  0.22973430823E+02  0.21790091433E+01  0.23311846156E+04  0.23312988308E+04  0.00000000000E+00 0. -1.
<mgrwt>
<rscale>  0 0.38784537E+02</rscale>
<asrwt>0</asrwt>
<pdfrwt beam="1">  1        2 0.38216805E+00 0.23076538E+02</pdfrwt>
<pdfrwt beam="2">  1        2 0.13171440E+00 0.65184836E+02</pdfrwt>
<totfact> 0.31136374E+01</totfact>
</mgrwt>
</event>
<event>
13    1  0.1942437E-008  0.1345831E+03  0.7546771E-02  0.1381796E+00
          2   -1    0    0  503    0  0.00000000000E+00  0.00000000000E+00  0.48193421153E+03  0.48193421153E+03  0.00000000000E+00 0. -1.
          2   -1    0    0  502    0 -0.00000000000E+00 -0.00000000000E+00 -0.34200082680E+04  0.34200082680E+04  0.00000000000E+00 0. -1.
         24    2    1    2    0    0 -0.33673476276E+02 -0.72818578899E+01 -0.46545791879E+03  0.47269132153E+03  0.74827019396E+02 0.  0.
         24    2    1    2    0    0  0.12055272228E+02 -0.68357198618E+02 -0.49713052476E+03  0.50800054353E+03  0.78152142518E+02 0.  0.
         25    2    1    2    0    0 -0.49718057224E+02 -0.75851527786E+01 -0.34540010638E+03  0.37074930390E+03  0.12499757236E+03 0.  0.
        -11    1    3    3    0    0  0.13264310748E+02 -0.27095185743E+02 -0.13505192927E+03  0.13838032602E+03  0.00000000000E+00 0.  1.
         12    1    3    3    0    0 -0.46937787024E+02  0.19813327853E+02 -0.33040598952E+03  0.33431099552E+03  0.00000000000E+00 0. -1.
        -11    1    4    4    0    0 -0.29535455567E+02 -0.18537574773E+02 -0.10784698904E+03  0.11334442138E+03  0.00000000000E+00 0.  1.
         12    1    4    4    0    0  0.41590727795E+02 -0.49819623846E+02 -0.38928353573E+03  0.39465612215E+03  0.00000000000E+00 0. -1.
          5    1    5    5  501    0 -0.31608474495E+02 -0.62979246942E+02 -0.24050525271E+03  0.25065982483E+03  0.47000000000E+01 0. -1.
         -5    1    5    5    0  501 -0.18109582729E+02  0.55394094163E+02 -0.10489485368E+03  0.12008947907E+03  0.47000000000E+01 0. -1.
          1    1    1    2  502    0 -0.72149613179E+01 -0.29561436739E+02 -0.20799174843E+04  0.20801400615E+04  0.00000000000E+00 0. -1.
          1    1    1    2  503    0  0.78551222590E+02  0.11278564603E+03  0.44983197768E+03  0.47036124911E+03  0.00000000000E+00 0. -1.
<mgrwt>
<rscale>  0 0.63994149E+02</rscale>
<asrwt>0</asrwt>
<pdfrwt beam="1">  1        2 0.70872674E-01 0.13458308E+03</pdfrwt>
<pdfrwt beam="2">  1        2 0.50294242E+00 0.30429167E+02</pdfrwt>
<totfact> 0.22731959E+01</totfact>
</mgrwt>
</event>
<event>
13    1  0.1942437E-008  0.9724220E+02  0.7546771E-02  0.1437796E+00
          2   -1    0    0  503    0  0.00000000000E+00  0.00000000000E+00  0.27685305167E+04  0.27685305167E+04  0.00000000000E+00 0. -1.
         -1   -1    0    0    0  501 -0.00000000000E+00 -0.00000000000E+00 -0.22117330972E+04  0.22117330972E+04  0.00000000000E+00 0.  1.
         24    2    1    2    0    0 -0.45205207581E+02  0.26586742968E+02 -0.13058160535E+04  0.13092680747E+04  0.79227269128E+02 0.  0.
         24    2    1    2    0    0  0.20691477649E+03 -0.15134746530E+03 -0.29077262926E+03  0.39617693008E+03  0.81778102288E+02 0.  0.
         25    2    1    2    0    0 -0.39940813108E+02  0.10055222731E+03  0.70043557117E+03  0.71968164261E+03  0.12500263349E+03 0.  0.
        -11    1    3    3    0    0  0.12335379931E+02  0.32798796653E+02 -0.36673873146E+03  0.36840903872E+03  0.00000000000E+00 0.  1.
         12    1    3    3    0    0 -0.57540587511E+02 -0.62120536844E+01 -0.93907732205E+03  0.94085903600E+03  0.00000000000E+00 0. -1.
        -13    1    4    4    0    0  0.16785761584E+03 -0.10458363978E+03 -0.16954189682E+03  0.26049639475E+03  0.00000000000E+00 0.  1.
         14    1    4    4    0    0  0.39057160650E+02 -0.46763825524E+02 -0.12123073245E+03  0.13568053532E+03  0.00000000000E+00 0. -1.
          5    1    5    5  502    0 -0.39113926869E+02  0.59728272964E+02  0.65303327040E+03  0.65694132776E+03  0.47000000000E+01 0. -1.
         -5    1    5    5    0  502 -0.82688623940E+00  0.40823954346E+02  0.47402300768E+02  0.62740314850E+02  0.47000000000E+01 0. -1.
          1    1    1    2  503    0 -0.94642473361E+02  0.22251797920E+02  0.20025281290E+04  0.20048868416E+04  0.00000000000E+00 0. -1.
         -2    1    1    2    0  501 -0.27126282439E+02  0.19566971043E+01 -0.54957759785E+03  0.55025012487E+03  0.00000000000E+00 0.  1.
<mgrwt>
<rscale>  0 0.51426385E+02</rscale>
<asrwt>0</asrwt>
<pdfrwt beam="1">  1        2 0.40713684E+00 0.97242205E+02</pdfrwt>
<pdfrwt beam="2">  1       -1 0.32525487E+00 0.27196762E+02</pdfrwt>
<totfact> 0.16387296E-01</totfact>
</mgrwt>
</event>
<event>
13    1  0.1942437E-008  0.1998743E+03  0.7546771E-02  0.1370663E+00
          2   -1    0    0  503    0  0.00000000000E+00  0.00000000000E+00  0.27922965845E+04  0.27922965845E+04  0.00000000000E+00 0. -1.
          2   -1    0    0  502    0 -0.00000000000E+00 -0.00000000000E+00 -0.19033571658E+04  0.19033571658E+04  0.00000000000E+00 0. -1.
         24    2    1    2    0    0 -0.15684361543E+03  0.51166335932E+01 -0.10956987196E+03  0.20740373743E+03  0.79904028796E+02 0.  0.
         24    2    1    2    0    0 -0.13827550742E+03  0.11832563819E+03 -0.26314665994E+01  0.20082668976E+03  0.84872622800E+02 0.  0.
         25    2    1    2    0    0  0.21409821226E+03  0.10084472510E+03  0.13776442443E+04  0.14033992209E+04  0.12497202226E+03 0.  0.
        -11    1    4    4    0    0 -0.13629366653E+03  0.11923555529E+03  0.16253204891E+02  0.18181652249E+03  0.00000000000E+00 0.  1.
         12    1    4    4    0    0 -0.19818408895E+01 -0.90991710432E+00 -0.18884671491E+02  0.19010167273E+02  0.00000000000E+00 0. -1.
        -11    1    3    3    0    0 -0.99632463485E+02  0.27140579371E+00 -0.11204313245E+03  0.14993453562E+03  0.00000000000E+00 0.  1.
         12    1    3    3    0    0 -0.57211151943E+02  0.48452277995E+01  0.24732604948E+01  0.57469201809E+02  0.00000000000E+00 0. -1.
          5    1    5    5  501    0  0.10641367793E+03 -0.16117248658E+02  0.50242802190E+03  0.51384787997E+03  0.47000000000E+01 0. -1.
         -5    1    5    5    0  501  0.10768453433E+03  0.11696197376E+03  0.87521622237E+03  0.88955134093E+03  0.47000000000E+01 0. -1.
          1    1    1    2  502    0  0.10271545995E+03 -0.23005382738E+03 -0.16204280347E+04  0.16398970226E+04  0.00000000000E+00 0. -1.
          1    1    1    2  503    0 -0.21694549365E+02  0.57668304974E+01  0.12439245477E+04  0.12441270796E+04  0.00000000000E+00 0. -1.
<mgrwt>
<rscale>  0 0.66983317E+02</rscale>
<asrwt>0</asrwt>
<pdfrwt beam="1">  1        2 0.41063185E+00 0.22447935E+02</pdfrwt>
<pdfrwt beam="2">  1        2 0.27990546E+00 0.19987427E+03</pdfrwt>
<totfact> 0.70209074E+00</totfact>
</mgrwt>
</event>
<event>
13    1  0.1942437E-008  0.1696009E+03  0.7546771E-02  0.1367669E+00
          2   -1    0    0  502    0  0.00000000000E+00  0.00000000000E+00  0.19703937680E+04  0.19703937680E+04  0.00000000000E+00 0. -1.
          2   -1    0    0  503    0 -0.00000000000E+00 -0.00000000000E+00 -0.55732342290E+03  0.55732342290E+03  0.00000000000E+00 0. -1.
         24    2    1    2    0    0 -0.94695884539E+01  0.10404318666E+03  0.12189393459E+02  0.12954496217E+03  0.75621809778E+02 0.  0.
         24    2    1    2    0    0  0.10279131578E+03 -0.90071189272E+02  0.42445360743E+02  0.16441056479E+03  0.80934241404E+02 0.  0.
         25    2    1    2    0    0 -0.17935138449E+03  0.97136326144E+02  0.11425821792E+03  0.26510589281E+03  0.12499523619E+03 0.  0.
        -11    1    3    3    0    0 -0.40005333916E+02  0.55108797055E+02 -0.76987441911E+01  0.68532305643E+02  0.00000000000E+00 0.  1.
         12    1    3    3    0    0  0.30535745462E+02  0.48934389609E+02  0.19888137651E+02  0.61012656527E+02  0.00000000000E+00 0. -1.
        -13    1    4    4    0    0  0.34435971680E+02 -0.83169681524E+02  0.20937033302E+02  0.92419648527E+02  0.00000000000E+00 0.  1.
         14    1    4    4    0    0  0.68355344096E+02 -0.69015077474E+01  0.21508327441E+02  0.71990916268E+02  0.00000000000E+00 0. -1.
          5    1    5    5  501    0 -0.18240256688E+03  0.86178315574E+02  0.61534069559E+02  0.21096428654E+03  0.47000000000E+01 0. -1.
         -5    1    5    5    0  501  0.30511823952E+01  0.10958010569E+02  0.52724148358E+02  0.54141606272E+02  0.47000000000E+01 0. -1.
          1    1    1    2  502    0 -0.17782425379E+02  0.20475549391E+02  0.15869072800E+04  0.15871389914E+04  0.00000000000E+00 0. -1.
          1    1    1    2  503    0  0.10381208254E+03 -0.13158387293E+03 -0.34272990697E+03  0.38151677974E+03  0.00000000000E+00 0. -1.
<mgrwt>
<rscale>  0 0.67819451E+02</rscale>
<asrwt>0</asrwt>
<pdfrwt beam="1">  1        2 0.28976379E+00 0.27119417E+02</pdfrwt>
<pdfrwt beam="2">  1        2 0.81959327E-01 0.16960092E+03</pdfrwt>
<totfact> 0.99382093E+01</totfact>
</mgrwt>
</event>
<event>
13    1  0.1942437E-008  0.8257893E+02  0.7546771E-02  0.1447345E+00
          2   -1    0    0  503    0  0.00000000000E+00  0.00000000000E+00  0.10118625340E+04  0.10118625340E+04  0.00000000000E+00 0. -1.
          2   -1    0    0  502    0 -0.00000000000E+00 -0.00000000000E+00 -0.73626690279E+03  0.73626690279E+03  0.00000000000E+00 0. -1.
         24    2    1    2    0    0 -0.76407722723E+02  0.27099545471E+02 -0.13649157454E+03  0.17941738826E+03  0.83594998840E+02 0.  0.
         24    2    1    2    0    0  0.10023053259E+00 -0.41072266840E+02 -0.13248645398E+02  0.89906288354E+02  0.78871242739E+02 0.  0.
         25    2    1    2    0    0  0.85881322141E+02  0.10423252988E+03  0.26794585477E+03  0.32505369334E+03  0.12499960275E+03 0.  0.
        -11    1    4    4    0    0  0.60249825459E+01 -0.51842407531E+02 -0.36443327571E+02  0.63655728397E+02  0.00000000000E+00 0.  1.
         12    1    4    4    0    0 -0.59247520133E+01  0.10770140691E+02  0.23194682173E+02  0.26250559957E+02  0.00000000000E+00 0. -1.
        -11    1    3    3    0    0 -0.52389498174E+02  0.57086481156E+02 -0.82842767798E+02  0.11343037524E+03  0.00000000000E+00 0.  1.
         12    1    3    3    0    0 -0.24018224549E+02 -0.29986935684E+02 -0.53648806746E+02  0.65987013021E+02  0.00000000000E+00 0. -1.
          5    1    5    5  501    0  0.90493050357E+02  0.11920278499E+02  0.12829175083E+03  0.15751808954E+03  0.47000000000E+01 0.  1.
         -5    1    5    5    0  501 -0.46117282154E+01  0.92312251381E+02  0.13965410394E+03  0.16753560379E+03  0.47000000000E+01 0.  1.
          1    1    1    2  502    0 -0.35045816672E+02 -0.74738910101E+02 -0.49441812324E+03  0.50126180239E+03  0.00000000000E+00 0. -1.
          1    1    1    2  503    0  0.25471986722E+02 -0.15520898411E+02  0.65180811965E+03  0.65249026448E+03  0.00000000000E+00 0. -1.
<mgrwt>
<rscale>  0 0.49630429E+02</rscale>
<asrwt>0</asrwt>
<pdfrwt beam="1">  1        2 0.14880331E+00 0.29828181E+02</pdfrwt>
<pdfrwt beam="2">  1        2 0.10827454E+00 0.82578935E+02</pdfrwt>
<totfact> 0.20677392E+02</totfact>
</mgrwt>
</event>
<event>
13    1  0.1942437E-008  0.1751645E+03  0.7546771E-02  0.1335831E+00
          2   -1    0    0  502    0  0.00000000000E+00  0.00000000000E+00  0.21479119224E+04  0.21479119224E+04  0.00000000000E+00 0. -1.
          2   -1    0    0  503    0 -0.00000000000E+00 -0.00000000000E+00 -0.60719799188E+03  0.60719799188E+03  0.00000000000E+00 0. -1.
         24    2    1    2    0    0 -0.46284937207E+01  0.12400701694E+03 -0.11031858995E+02  0.14932719654E+03  0.82327070324E+02 0.  0.
         24    2    1    2    0    0  0.14032831234E+02 -0.97362777543E+02  0.28456108028E+02  0.13185399763E+03  0.83061999752E+02 0.  0.
         25    2    1    2    0    0  0.13805135660E+03  0.61714321312E+02  0.15141867136E+04  0.15268444115E+04  0.12500247518E+03 0.  0.
        -11    1    3    3    0    0  0.24952966884E+02  0.83613982909E+02  0.21182345358E+02  0.89792207062E+02  0.00000000000E+00 0.  1.
         12    1    3    3    0    0 -0.29581460605E+02  0.40393034035E+02 -0.32214204353E+02  0.59534989478E+02  0.00000000000E+00 0. -1.
        -13    1    4    4    0    0  0.23709325720E+00 -0.39696368729E+02  0.54225076811E+02  0.67202803950E+02  0.00000000000E+00 0.  1.
         14    1    4    4    0    0  0.13795737977E+02 -0.57666408814E+02 -0.25768968783E+02  0.64651193678E+02  0.00000000000E+00 0. -1.
          5    1    5    5  501    0  0.24450705737E+02  0.72817178110E+02  0.44875966427E+03  0.45531033890E+03  0.47000000000E+01 0.  1.
         -5    1    5    5    0  501  0.11360065086E+03 -0.11102856797E+02  0.10654270494E+04  0.10715340726E+04  0.47000000000E+01 0.  1.
          1    1    1    2  502    0  0.33791032214E+02  0.66000107934E+01  0.45509452279E+03  0.45639502482E+03  0.00000000000E+00 0. -1.
          1    1    1    2  503    0 -0.18124672632E+03 -0.94958571507E+02 -0.44599155495E+03  0.49068928375E+03  0.00000000000E+00 0. -1.
<mgrwt>
<rscale>  0 0.77658443E+02</rscale>
<asrwt>0</asrwt>
<pdfrwt beam="1">  1        2 0.31586940E+00 0.34429551E+02</pdfrwt>
<pdfrwt beam="2">  1        2 0.89293823E-01 0.17516446E+03</pdfrwt>
<totfact> 0.72733506E+01</totfact>
</mgrwt>
</event>
<event>
13    1  0.1942437E-008  0.1675106E+03  0.7546771E-02  0.1302186E+00
          2   -1    0    0  503    0  0.00000000000E+00  0.00000000000E+00  0.93227417850E+03  0.93227417850E+03  0.00000000000E+00 0. -1.
          2   -1    0    0  502    0 -0.00000000000E+00 -0.00000000000E+00 -0.18208049876E+04  0.18208049876E+04  0.00000000000E+00 0. -1.
         24    2    1    2    0    0  0.58290327046E+02  0.52543398221E+02  0.97680374447E+01  0.11253523876E+03  0.80063690168E+02 0.  0.
         24    2    1    2    0    0 -0.77032148238E+02 -0.28643389129E+03 -0.24333418176E+03  0.39215090869E+03  0.81194120685E+02 0.  0.
         25    2    1    2    0    0  0.22261644110E+03  0.16350249748E+03  0.10148361674E+03  0.31971370432E+03  0.12500712672E+03 0.  0.
        -11    1    4    4    0    0 -0.70557691188E+02 -0.19728948254E+03 -0.21029842717E+03  0.29686184696E+03  0.00000000000E+00 0.  1.
         12    1    4    4    0    0 -0.64744570503E+01 -0.89144408747E+02 -0.33035754585E+02  0.95289061733E+02  0.00000000000E+00 0. -1.
        -11    1    3    3    0    0  0.57694436937E+01  0.55704487184E+02  0.18954920584E+02  0.59123306634E+02  0.00000000000E+00 0.  1.
         12    1    3    3    0    0  0.52520883352E+02 -0.31610889633E+01 -0.91868831392E+01  0.53411932125E+02  0.00000000000E+00 0. -1.
          5    1    5    5  501    0  0.20764897994E+03  0.13895088268E+03  0.12759891216E+03  0.28058691889E+03  0.47000000000E+01 0. -1.
         -5    1    5    5    0  501  0.14967461166E+02  0.24551614801E+02 -0.26115295424E+02  0.39126785431E+02  0.47000000000E+01 0. -1.
          1    1    1    2  502    0 -0.15664191607E+03  0.58723728454E+02 -0.13363300282E+04  0.13467602275E+04  0.00000000000E+00 0. -1.
          1    1    1    2  503    0 -0.47232703838E+02  0.11664267127E+02  0.57988174669E+03  0.58191908680E+03  0.00000000000E+00 0. -1.
<mgrwt>
<rscale>  0 0.90275505E+02</rscale>
<asrwt>0</asrwt>
<pdfrwt beam="1">  1        2 0.13709915E+00 0.48651654E+02</pdfrwt>
<pdfrwt beam="2">  1        2 0.26776543E+00 0.16751058E+03</pdfrwt>
<totfact> 0.55147961E+01</totfact>
</mgrwt>
</event>
<event>
13    1  0.1942437E-008  0.1580898E+03  0.7546771E-02  0.1230674E+00
          2   -1    0    0  503    0  0.00000000000E+00  0.00000000000E+00  0.15191521247E+04  0.15191521247E+04  0.00000000000E+00 0. -1.
          2   -1    0    0  502    0 -0.00000000000E+00 -0.00000000000E+00 -0.32073813899E+04  0.32073813899E+04  0.00000000000E+00 0. -1.
         24    2    1    2    0    0 -0.11817667491E+03 -0.77973601179E+02 -0.19122180411E+04  0.19191074568E+04  0.79686793831E+02 0.  0.
         24    2    1    2    0    0  0.23742876825E+01 -0.14171797746E+03 -0.51858548173E+03  0.54173867432E+03  0.66785230518E+02 0.  0.
         25    2    1    2    0    0  0.88993554166E+02 -0.18727093295E+02 -0.23107260856E+02  0.15631752718E+03  0.12502266632E+03 0.  0.
        -11    1    3    3    0    0  0.99852662497E+01 -0.62779430402E+01 -0.29495725250E+03  0.29519298588E+03  0.00000000000E+00 0.  1.
         12    1    3    3    0    0 -0.12816194116E+03 -0.71695658139E+02 -0.16172607886E+04  0.16239144709E+04  0.00000000000E+00 0. -1.
        -13    1    4    4    0    0  0.20576598366E+02 -0.12061992101E+03 -0.34784478979E+03  0.36873914835E+03  0.00000000000E+00 0.  1.
         14    1    4    4    0    0 -0.18202310683E+02 -0.21098056449E+02 -0.17074069194E+03  0.17299952596E+03  0.00000000000E+00 0. -1.
          5    1    5    5  501    0  0.26753189522E+02 -0.29531276089E+02 -0.67806642710E+02  0.78788706124E+02  0.47000000000E+01 0.  1.
         -5    1    5    5    0  501  0.62240364644E+02  0.10804182794E+02  0.44699381854E+02  0.77528821060E+02  0.47000000000E+01 0.  1.
          1    1    1    2  502    0  0.60559769577E+02  0.83812550106E+02 -0.66347227516E+03  0.67148156278E+03  0.00000000000E+00 0. -1.
          1    1    1    2  503    0 -0.33750936516E+02  0.15460612183E+03  0.14291537937E+04  0.14378882935E+04  0.00000000000E+00 0. -1.
<mgrwt>
<rscale>  0 0.12785478E+03</rscale>
<asrwt>0</asrwt>
<pdfrwt beam="1">  1        2 0.22340473E+00 0.15808982E+03</pdfrwt>
<pdfrwt beam="2">  1        2 0.47167372E+00 0.10340227E+03</pdfrwt>
<totfact> 0.52325371E+00</totfact>
</mgrwt>
</event>
<event>
13    1  0.1942437E-008  0.6014922E+02  0.7546771E-02  0.1456054E+00
          2   -1    0    0  503    0  0.00000000000E+00  0.00000000000E+00  0.81124666629E+03  0.81124666629E+03  0.00000000000E+00 0. -1.
          2   -1    0    0  502    0 -0.00000000000E+00 -0.00000000000E+00 -0.26370490250E+04  0.26370490250E+04  0.00000000000E+00 0. -1.
         24    2    1    2    0    0  0.62196347391E+02  0.47184755585E+02 -0.64054799162E+03  0.65012759955E+03  0.79179412330E+02 0.  0.
         24    2    1    2    0    0  0.11886458821E+02 -0.16402201237E+01  0.87144751103E+02  0.11933708253E+03  0.80642131645E+02 0.  0.
         25    2    1    2    0    0 -0.34310246814E+02 -0.40972798619E+01  0.33660590784E+03  0.36072537833E+03  0.12500112255E+03 0.  0.
        -11    1    4    4    0    0 -0.10423282483E+02  0.35741155281E+02  0.48378059065E+02  0.61045160311E+02  0.00000000000E+00 0.  1.
         12    1    4    4    0    0  0.22309741303E+02 -0.37381375405E+02  0.38766692038E+02  0.58291922217E+02  0.00000000000E+00 0. -1.
        -11    1    3    3    0    0  0.42200700415E+02  0.18180821480E+02 -0.56392631774E+03  0.56579531036E+03  0.00000000000E+00 0.  1.
         12    1    3    3    0    0  0.19995646976E+02  0.29003934105E+02 -0.76621673884E+02  0.84332289192E+02  0.00000000000E+00 0. -1.
          5    1    5    5  501    0 -0.70673212384E+02  0.12269590706E+02  0.11579256992E+03  0.13629106740E+03  0.47000000000E+01 0. -1.
         -5    1    5    5    0  501  0.36362965570E+02 -0.16366870568E+02  0.22081333793E+03  0.22443431093E+03  0.47000000000E+01 0. -1.
          1    1    1    2  502    0 -0.60600338805E+01 -0.59858288407E+02 -0.19620524608E+04  0.19629746808E+04  0.00000000000E+00 0. -1.
          1    1    1    2  503    0 -0.33712525516E+02  0.18411032807E+02  0.35304743475E+03  0.35513095005E+03  0.00000000000E+00 0. -1.
<mgrwt>
<rscale>  0 0.48067314E+02</rscale>
<asrwt>0</asrwt>
<pdfrwt beam="1">  1        2 0.11930098E+00 0.38412244E+02</pdfrwt>
<pdfrwt beam="2">  1        2 0.38780132E+00 0.60149224E+02</pdfrwt>
<totfact> 0.29564472E+01</totfact>
</mgrwt>
</event>
<event>
13    1  0.1942437E-008  0.9987718E+02  0.7546771E-02  0.1284624E+00
          2   -1    0    0  503    0  0.00000000000E+00  0.00000000000E+00  0.58743724731E+03  0.58743724731E+03  0.00000000000E+00 0. -1.
          2   -1    0    0  502    0 -0.00000000000E+00 -0.00000000000E+00 -0.37240940326E+04  0.37240940326E+04  0.00000000000E+00 0. -1.
         24    2    1    2    0    0  0.22040933892E+03  0.76909767228E+01 -0.13159895638E+04  0.13369558281E+04  0.83563906119E+02 0.  0.
         24    2    1    2    0    0 -0.83756092840E+02  0.40702977693E+02 -0.45784586464E+03  0.47432499361E+03  0.81789658996E+02 0.  0.
         25    2    1    2    0    0 -0.64687205613E+02 -0.19671846352E+03 -0.78129731283E+02  0.25418432344E+03  0.12499130735E+03 0.  0.
        -11    1    4    4    0    0 -0.49555000638E+02  0.14644410176E+02 -0.39385484302E+03  0.39723015269E+03  0.00000000000E+00 0.  1.
         12    1    4    4    0    0 -0.34201092202E+02  0.26058567517E+02 -0.63991021619E+02  0.77094840922E+02  0.00000000000E+00 0. -1.
        -13    1    3    3    0    0  0.25230350853E+02  0.27268606297E+02 -0.14694407810E+03  0.15156750833E+03  0.00000000000E+00 0.  1.
         14    1    3    3    0    0  0.19517898807E+03 -0.19577629574E+02 -0.11690454857E+04  0.11853883197E+04  0.00000000000E+00 0. -1.
          5    1    5    5  501    0  0.27969700808E+01 -0.53755999763E+02  0.30750013465E+02  0.62170603023E+02  0.47000000000E+01 0.  1.
         -5    1    5    5    0  501 -0.67484175694E+02 -0.14296246375E+03 -0.10887974475E+03  0.19201372042E+03  0.47000000000E+01 0.  1.
          1    1    1    2  502    0 -0.84034034968E+02  0.52986262780E+02 -0.17591603713E+04  0.17619632445E+04  0.00000000000E+00 0. -1.
          1    1    1    2  503    0  0.12067994498E+02  0.95338246320E+02  0.47446874572E+03  0.48410289027E+03  0.00000000000E+00 0. -1.
<mgrwt>
<rscale>  0 0.97969876E+02</rscale>
<asrwt>0</asrwt>
<pdfrwt beam="1">  1        2 0.86387833E-01 0.96098999E+02</pdfrwt>
<pdfrwt beam="2">  1        2 0.54766087E+00 0.99877176E+02</pdfrwt>
<totfact> 0.96358706E+00</totfact>
</mgrwt>
</event>
<event>
13    1  0.1942437E-008  0.1539742E+03  0.7546771E-02  0.1346710E+00
          2   -1    0    0  503    0  0.00000000000E+00  0.00000000000E+00  0.23895480988E+04  0.23895480988E+04  0.00000000000E+00 0. -1.
          2   -1    0    0  502    0 -0.00000000000E+00 -0.00000000000E+00 -0.32106534782E+03  0.32106534782E+03  0.00000000000E+00 0. -1.
         24    2    1    2    0    0 -0.40093835987E+02 -0.17843240652E+02 -0.15474343223E+02  0.88038804991E+02  0.74736062011E+02 0.  0.
         24    2    1    2    0    0  0.14168772662E+03  0.64961903771E+02  0.43889331183E+03  0.47245761580E+03  0.79330944400E+02 0.  0.
         25    2    1    2    0    0 -0.24151168340E+03 -0.39330642280E+02  0.80485322470E+03  0.85046465421E+03  0.12500648828E+03 0.  0.
        -11    1    3    3    0    0 -0.57766156474E+02 -0.55178461193E+01  0.50930511237E+01  0.58252164160E+02  0.00000000000E+00 0.  1.
         12    1    3    3    0    0  0.17672320487E+02 -0.12325394533E+02 -0.20567394347E+02  0.29786640831E+02  0.00000000000E+00 0. -1.
        -13    1    4    4    0    0  0.14972131656E+03  0.55760828085E+02  0.37844391958E+03  0.41078649302E+03  0.00000000000E+00 0.  1.
         14    1    4    4    0    0 -0.80335899408E+01  0.92010756858E+01  0.60449392247E+02  0.61671122774E+02  0.00000000000E+00 0. -1.
          5    1    5    5  501    0 -0.10429888804E+03 -0.45893356227E+02  0.54172287646E+03  0.55359752806E+03  0.47000000000E+01 0. -1.
         -5    1    5    5    0  501 -0.13721279536E+03  0.65627139467E+01  0.26313034824E+03  0.29686712615E+03  0.47000000000E+01 0. -1.
          1    1    1    2  502    0 -0.17161685566E+02  0.31249292378E+02 -0.22217020862E+03  0.22501254037E+03  0.00000000000E+00 0. -1.
          1    1    1    2  503    0  0.15707947834E+03 -0.39037313217E+02  0.10623807663E+04  0.10746398313E+04  0.00000000000E+00 0. -1.
<mgrwt>
<rscale>  0 0.74090745E+02</rscale>
<asrwt>0</asrwt>
<pdfrwt beam="1">  1        2 0.35140412E+00 0.15397422E+03</pdfrwt>
<pdfrwt beam="2">  1        2 0.47215493E-01 0.35651672E+02</pdfrwt>
<totfact> 0.91817359E+01</totfact>
</mgrwt>
</event>
<event>
13    1  0.1942437E-008  0.1003781E+03  0.7546771E-02  0.1297651E+00
          2   -1    0    0  503    0  0.00000000000E+00  0.00000000000E+00  0.12399043252E+04  0.12399043252E+04  0.00000000000E+00 0. -1.
          2   -1    0    0  502    0 -0.00000000000E+00 -0.00000000000E+00 -0.19459772483E+04  0.19459772483E+04  0.00000000000E+00 0. -1.
         24    2    1    2    0    0  0.47076510841E+02 -0.12424278033E+03 -0.74236417770E+03  0.75861397331E+03  0.82086063646E+02 0.  0.
         24    2    1    2    0    0  0.16251433381E+02  0.30817000247E+02 -0.14580976888E+03  0.16996630129E+03  0.80089064698E+02 0.  0.
         25    2    1    2    0    0 -0.14064887053E+03 -0.46547110754E+02  0.40573281829E+03  0.44965879063E+03  0.12500067940E+03 0.  0.
        -11    1    3    3    0    0 -0.49298944443E+01 -0.34958572384E+02 -0.70445404682E+02  0.78796958591E+02  0.00000000000E+00 0.  1.
         12    1    3    3    0    0  0.52006405285E+02 -0.89284207946E+02 -0.67191877301E+03  0.67981701472E+03  0.00000000000E+00 0. -1.
        -11    1    4    4    0    0  0.28900292121E+02 -0.19369446061E+02 -0.70073243917E+02  0.78234658806E+02  0.00000000000E+00 0.  1.
         12    1    4    4    0    0 -0.12648858739E+02  0.50186446308E+02 -0.75736524958E+02  0.91731642485E+02  0.00000000000E+00 0. -1.
          5    1    5    5  501    0 -0.12036619889E+03 -0.67384090773E+02  0.39481275883E+03  0.41824375914E+03  0.47000000000E+01 0. -1.
         -5    1    5    5    0  501 -0.20282671639E+02  0.20836980020E+02  0.10920059468E+02  0.31415031497E+02  0.47000000000E+01 0. -1.
          1    1    1    2  502    0  0.58596746111E+01  0.94586704703E+02 -0.10111530059E+04  0.10155842564E+04  0.00000000000E+00 0. -1.
          1    1    1    2  503    0  0.71461251694E+02  0.45386186134E+02  0.78752121113E+03  0.79205825188E+03  0.00000000000E+00 0. -1.
<mgrwt>
<rscale>  0 0.92182397E+02</rscale>
<asrwt>0</asrwt>
<pdfrwt beam="1">  1        2 0.18233887E+00 0.84655870E+02</pdfrwt>
<pdfrwt beam="2">  1        2 0.28617312E+00 0.10037809E+03</pdfrwt>
<totfact> 0.33221666E+01</totfact>
</mgrwt>
</event>
<event>
13    1  0.1942437E-008  0.1025427E+03  0.7546771E-02  0.1419185E+00
          2   -1    0    0  503    0  0.00000000000E+00  0.00000000000E+00  0.72650710010E+03  0.72650710010E+03  0.00000000000E+00 0. -1.
         -1   -1    0    0    0  501 -0.00000000000E+00 -0.00000000000E+00 -0.10008775376E+04  0.10008775376E+04  0.00000000000E+00 0.  1.
         24    2    1    2    0    0 -0.15378557146E+03 -0.15682081308E+03 -0.21706231783E+03  0.31911517698E+03  0.80471590976E+02 0.  0.
         24    2    1    2    0    0 -0.72731593053E+02  0.22398856143E+02  0.16198024140E+01  0.11020511476E+03  0.79692848955E+02 0.  0.
         25    2    1    2    0    0  0.13662186259E+03  0.22693074997E+03  0.40350335946E+03  0.49860150096E+03  0.12500158816E+03 0.  0.
        -13    1    4    4    0    0 -0.69074804526E+02  0.47256963217E+02  0.85838453765E+01  0.84132226847E+02  0.00000000000E+00 0.  1.
         14    1    4    4    0    0 -0.36567885265E+01 -0.24858107075E+02 -0.69640429625E+01  0.26072887911E+02  0.00000000000E+00 0. -1.
        -13    1    3    3    0    0 -0.12680563045E+03 -0.14559217056E+03 -0.21622587672E+03  0.28987993688E+03  0.00000000000E+00 0.  1.
         14    1    3    3    0    0 -0.26979941014E+02 -0.11228642517E+02 -0.83644110447E+00  0.29235240099E+02  0.00000000000E+00 0. -1.
          5    1    5    5  502    0  0.73013713045E+02  0.18980359217E+03  0.35841873364E+03  0.41211950272E+03  0.47000000000E+01 0. -1.
         -5    1    5    5    0  502  0.63608149550E+02  0.37127157795E+02  0.45084625825E+02  0.86481998248E+02  0.47000000000E+01 0. -1.
          1    1    1    2  503    0  0.27417951023E+02 -0.11438052327E+02  0.16301360294E+03  0.16569854503E+03  0.00000000000E+00 0. -1.
         -2    1    1    2    0  501  0.62477350895E+02 -0.81070740708E+02 -0.62544488454E+03  0.63376430001E+03  0.00000000000E+00 0.  1.
<mgrwt>
<rscale>  0 0.55193770E+02</rscale>
<asrwt>0</asrwt>
<pdfrwt beam="1">  1        2 0.10683928E+00 0.29708132E+02</pdfrwt>
<pdfrwt beam="2">  1       -1 0.14718787E+00 0.10254271E+03</pdfrwt>
<totfact> 0.22082666E+01</totfact>
</mgrwt>
</event>
<event>
13    1  0.1942437E-008  0.6537705E+02  0.7546771E-02  0.1425523E+00
          2   -1    0    0  503    0  0.00000000000E+00  0.00000000000E+00  0.56272958634E+03  0.56272958634E+03  0.00000000000E+00 0. -1.
          2   -1    0    0  502    0 -0.00000000000E+00 -0.00000000000E+00 -0.15033468465E+04  0.15033468465E+04  0.00000000000E+00 0. -1.
         24    2    1    2    0    0 -0.36229416660E+02 -0.30819501735E+02 -0.32313575196E+03  0.33830559145E+03  0.88156376337E+02 0.  0.
         24    2    1    2    0    0 -0.15031988868E+02  0.54492277688E+02 -0.26767533182E+03  0.28494104028E+03  0.79661434538E+02 0.  0.
         25    2    1    2    0    0  0.18994449004E+02 -0.35121155430E+02  0.20308290588E+03  0.24179052800E+03  0.12500283243E+03 0.  0.
        -11    1    4    4    0    0 -0.17777166754E+02  0.61852144954E+02 -0.11280631204E+03  0.12987293609E+03  0.00000000000E+00 0.  1.
         12    1    4    4    0    0  0.27451778864E+01 -0.73598672666E+01 -0.15486901978E+03  0.15506810419E+03  0.00000000000E+00 0. -1.
        -11    1    3    3    0    0  0.97590190845E+01  0.21418818018E+02 -0.37194410760E+02  0.44016228945E+02  0.00000000000E+00 0.  1.
         12    1    3    3    0    0 -0.45988435744E+02 -0.52238319753E+02 -0.28594134120E+03  0.29428936250E+03  0.00000000000E+00 0. -1.
          5    1    5    5  501    0 -0.51670296973E+02 -0.23377263336E+02  0.11372119130E+03  0.12716491411E+03  0.47000000000E+01 0. -1.
         -5    1    5    5    0  501  0.70664745978E+02 -0.11743892094E+02  0.89361714584E+02  0.11462561389E+03  0.47000000000E+01 0. -1.
          1    1    1    2  502    0 -0.22240276867E+01 -0.44331451003E+02 -0.87307668103E+03  0.87420427522E+03  0.00000000000E+00 0. -1.
          1    1    1    2  503    0  0.34490984210E+02  0.55779830480E+02  0.32018759875E+03  0.32683499793E+03  0.00000000000E+00 0. -1.
<mgrwt>
<rscale>  0 0.53869328E+02</rscale>
<asrwt>0</asrwt>
<pdfrwt beam="1">  1        2 0.82754352E-01 0.65377051E+02</pdfrwt>
<pdfrwt beam="2">  1        2 0.22108042E+00 0.44387204E+02</pdfrwt>
<totfact> 0.15560660E+02</totfact>
</mgrwt>
</event>
<event>
13    1  0.1942437E-008  0.1664616E+03  0.7546771E-02  0.1227109E+00
          2   -1    0    0  502    0  0.00000000000E+00  0.00000000000E+00  0.15350613917E+04  0.15350613917E+04  0.00000000000E+00 0. -1.
          2   -1    0    0  503    0 -0.00000000000E+00 -0.00000000000E+00 -0.27685337012E+04  0.27685337012E+04  0.00000000000E+00 0. -1.
         24    2    1    2    0    0 -0.13926756886E+03 -0.79288701854E+02 -0.36999889876E+03  0.41094360958E+03  0.79330392605E+02 0.  0.
         24    2    1    2    0    0 -0.42919273204E+01  0.58020626856E+02 -0.16006323562E+02  0.98375769095E+02  0.77696690858E+02 0.  0.
         25    2    1    2    0    0  0.16439573517E+03 -0.57620669490E+02  0.91493781818E+03  0.93972416353E+03  0.12499677234E+03 0.  0.
        -11    1    3    3    0    0 -0.36829276729E+02  0.14525463003E+02 -0.92672913953E+02  0.10077526324E+03  0.00000000000E+00 0.  1.
         12    1    3    3    0    0 -0.10243829213E+03 -0.93814164857E+02 -0.27732598481E+03  0.31016834635E+03  0.00000000000E+00 0. -1.
        -13    1    4    4    0    0 -0.37219701491E+02  0.15353222239E+02  0.49170427407E+01  0.40561125743E+02  0.00000000000E+00 0.  1.
         14    1    4    4    0    0  0.32927774171E+02  0.42667404616E+02 -0.20923366303E+02  0.57814643352E+02  0.00000000000E+00 0. -1.
          5    1    5    5  501    0  0.82641353809E+02  0.32725786581E+02  0.47144281557E+03  0.47977180911E+03  0.47000000000E+01 0.  1.
         -5    1    5    5    0  501  0.81754381358E+02 -0.90346456071E+02  0.44349500261E+03  0.45995235442E+03  0.47000000000E+01 0.  1.
          1    1    1    2  502    0 -0.53512373596E+02 -0.11273822245E+03  0.53478441216E+03  0.54915193564E+03  0.00000000000E+00 0. -1.
          1    1    1    2  503    0  0.32676134612E+02  0.19162696694E+03 -0.22971893176E+04  0.23053996151E+04  0.00000000000E+00 0. -1.
<mgrwt>
<rscale>  0 0.13023369E+03</rscale>
<asrwt>0</asrwt>
<pdfrwt beam="1">  1        2 0.22574432E+00 0.10189022E+03</pdfrwt>
<pdfrwt beam="2">  1        2 0.40713731E+00 0.16646165E+03</pdfrwt>
<totfact> 0.85301337E+00</totfact>
</mgrwt>
</event>
<event>
13    1  0.1942437E-008  0.4291694E+02  0.7546771E-02  0.1536103E+00
         -1   -1    0    0    0  501  0.00000000000E+00  0.00000000000E+00  0.12896359710E+04  0.12896359710E+04  0.00000000000E+00 0.  1.
         -3   -1    0    0    0  502 -0.00000000000E+00 -0.00000000000E+00 -0.26773224919E+03  0.26773224919E+03  0.00000000000E+00 0.  1.
         24    2    1    2    0    0 -0.32072955130E+02 -0.53995302323E+01  0.29843403140E+02  0.91195578758E+02  0.79800848972E+02 0.  0.
         24    2    1    2    0    0 -0.14716290169E+01  0.74047059454E+02  0.76622627421E+02  0.13494967229E+03  0.82796463158E+02 0.  0.
         25    2    1    2    0    0  0.21964684638E+02 -0.43771221964E+02  0.48134935241E+03  0.49972211938E+03  0.12500652096E+03 0.  0.
        -13    1    4    4    0    0  0.18823922622E+01  0.65847308983E+02  0.86936151039E+01  0.66445394457E+02  0.00000000000E+00 0.  1.
         14    1    4    4    0    0 -0.33540212792E+01  0.81997504705E+01  0.67929012317E+02  0.68504277829E+02  0.00000000000E+00 0. -1.
        -13    1    3    3    0    0 -0.34577720245E+02  0.19761499499E+02 -0.12616573638E+02  0.41776949747E+02  0.00000000000E+00 0.  1.
         14    1    3    3    0    0  0.25047651149E+01 -0.25161029732E+02  0.42459976777E+02  0.49418629012E+02  0.00000000000E+00 0. -1.
          5    1    5    5  503    0  0.29858085781E+02 -0.79711191953E+02  0.22329072816E+03  0.23901091751E+03  0.47000000000E+01 0. -1.
         -5    1    5    5    0  503 -0.78934011426E+01  0.35939969989E+02  0.25805862426E+03  0.26071120186E+03  0.47000000000E+01 0. -1.
         -2    1    1    2    0  501 -0.15196953655E+02 -0.40406502584E+02  0.63084688900E+03  0.63232225188E+03  0.00000000000E+00 0.  1.
         -4    1    1    2    0  502  0.26776853164E+02  0.15530195327E+02 -0.19675855012E+03  0.19917859794E+03  0.00000000000E+00 0.  1.
<mgrwt>
<rscale>  0 0.36448269E+02</rscale>
<asrwt>0</asrwt>
<pdfrwt beam="1">  1       -1 0.18965235E+00 0.42916937E+02</pdfrwt>
<pdfrwt beam="2">  1       -3 0.39372390E-01 0.30954593E+02</pdfrwt>
<totfact> 0.58635743E+00</totfact>
</mgrwt>
</event>
<event>
13    1  0.1942437E-008  0.8985385E+02  0.7546771E-02  0.1479459E+00
         -1   -1    0    0    0  501 -0.00000000000E+00  0.00000000000E+00  0.13766567932E+04  0.13766567932E+04  0.00000000000E+00 0.  1.
          2   -1    0    0  503    0  0.00000000000E+00 -0.00000000000E+00 -0.17332274377E+04  0.17332274377E+04  0.00000000000E+00 0. -1.
         24    2    1    2    0    0 -0.60491209197E+03  0.18761485789E+03  0.86140288331E+03  0.10728479229E+04  0.88711692548E+02 0.  0.
         24    2    1    2    0    0  0.14152639889E+03 -0.16750755386E+02 -0.87439048665E+01  0.16372607963E+03  0.80121556951E+02 0.  0.
         25    2    1    2    0    0  0.43394807582E+03 -0.10381079536E+03 -0.11684406119E+04  0.12569670604E+04  0.12500045498E+03 0.  0.
        -11    1    4    4    0    0  0.11643979446E+03  0.20484294908E+02 -0.11228379443E+02  0.11875987781E+03  0.00000000000E+00 0.  1.
         12    1    4    4    0    0  0.25086604436E+02 -0.37235050294E+02  0.24844745769E+01  0.44966201823E+02  0.00000000000E+00 0. -1.
        -13    1    3    3    0    0 -0.42704197004E+03  0.17025106579E+03  0.59167931887E+03  0.74928945406E+03  0.00000000000E+00 0.  1.
         14    1    3    3    0    0 -0.17787012193E+03  0.17363792104E+02  0.26972356444E+03  0.32355846885E+03  0.00000000000E+00 0. -1.
          5    1    5    5  502    0  0.37543984559E+03 -0.41494121735E+02 -0.94963963701E+03  0.10220148580E+04  0.47000000000E+01 0. -1.
         -5    1    5    5    0  502  0.58508230232E+02 -0.62316673627E+02 -0.21880097489E+03  0.23495220243E+03  0.47000000000E+01 0. -1.
          1    1    1    2  503    0 -0.20235402176E+02  0.79282973753E+01 -0.32116215221E+03  0.32189665642E+03  0.00000000000E+00 0. -1.
         -2    1    1    2    0  501  0.49673019430E+02 -0.74981604519E+02  0.28037314119E+03  0.29444651157E+03  0.00000000000E+00 0.  1.
<mgrwt>
<rscale>  0 0.44190569E+02</rscale>
<asrwt>0</asrwt>
<pdfrwt beam="2">  1        2 0.25488639E+00 0.21733141E+02</pdfrwt>
<pdfrwt beam="1">  1       -1 0.20244953E+00 0.89853852E+02</pdfrwt>
<totfact> 0.29228673E+00</totfact>
</mgrwt>
</event>
<event>
13    1  0.1942437E-008  0.1065226E+03  0.7546771E-02  0.1391488E+00
          2   -1    0    0  503    0  0.00000000000E+00  0.00000000000E+00  0.19579732219E+04  0.19579732219E+04  0.00000000000E+00 0. -1.
          2   -1    0    0  502    0 -0.00000000000E+00 -0.00000000000E+00 -0.95572778124E+03  0.95572778124E+03  0.00000000000E+00 0. -1.
         24    2    1    2    0    0 -0.74654590962E+02 -0.32791410548E+02 -0.26503471711E+02  0.11787619062E+03  0.80893619922E+02 0.  0.
         24    2    1    2    0    0 -0.21619861129E+02 -0.37562569569E+02  0.76677831012E+02  0.10860311315E+03  0.63535670204E+02 0.  0.
         25    2    1    2    0    0  0.73125042968E+02 -0.21851886308E+02  0.89245965870E+03  0.90440013417E+03  0.12502233180E+03 0.  0.
        -13    1    4    4    0    0 -0.44223125168E+02 -0.22250470914E+02  0.46698419112E+02  0.68055202616E+02  0.00000000000E+00 0.  1.
         14    1    4    4    0    0  0.22603264039E+02 -0.15312098655E+02  0.29979411900E+02  0.40547910530E+02  0.00000000000E+00 0. -1.
        -13    1    3    3    0    0  0.12629867525E+02 -0.22274640061E+02  0.13837072427E+01  0.25643474595E+02  0.00000000000E+00 0.  1.
         14    1    3    3    0    0 -0.87284458487E+02 -0.10516770486E+02 -0.27887178954E+02  0.92232716022E+02  0.00000000000E+00 0. -1.
          5    1    5    5  501    0  0.83241732867E+02 -0.27695538634E+02  0.88581612488E+03  0.89016207853E+03  0.47000000000E+01 0. -1.
         -5    1    5    5    0  501 -0.10116689899E+02  0.58436523260E+01  0.66435338172E+01  0.14238055646E+02  0.47000000000E+01 0. -1.
          1    1    1    2  502    0 -0.94957032705E+01  0.10628210274E+03 -0.85795580025E+03  0.86456590780E+03  0.00000000000E+00 0. -1.
          1    1    1    2  503    0  0.32645112394E+02 -0.14076236312E+02  0.91756722295E+03  0.91825565744E+03  0.00000000000E+00 0. -1.
<mgrwt>
<rscale>  0 0.61538123E+02</rscale>
<asrwt>0</asrwt>
<pdfrwt beam="1">  1        2 0.28793724E+00 0.35550581E+02</pdfrwt>
<pdfrwt beam="2">  1        2 0.14054820E+00 0.10652261E+03</pdfrwt>
<totfact> 0.51949757E+01</totfact>
</mgrwt>
</event>
<event>
13    1  0.1942437E-008  0.5667240E+02  0.7546771E-02  0.1508647E+00
          2   -1    0    0  503    0  0.00000000000E+00  0.00000000000E+00  0.62923188901E+03  0.62923188901E+03  0.00000000000E+00 0. -1.
         -1   -1    0    0    0  501 -0.00000000000E+00 -0.00000000000E+00 -0.48324534768E+04  0.48324534768E+04  0.00000000000E+00 0.  1.
         24    2    1    2    0    0  0.23041426696E+02  0.21975597099E+02 -0.15753273817E+04  0.15775566802E+04  0.77555693069E+02 0.  0.
         24    2    1    2    0    0 -0.44843600330E+01 -0.50719611829E+01  0.27056485381E+02  0.84822939331E+02  0.80106450180E+02 0.  0.
         25    2    1    2    0    0  0.44127346297E+02  0.52922557953E+01  0.23420710999E+03  0.26917161445E+03  0.12500062798E+03 0.  0.
        -11    1    4    4    0    0 -0.39119812908E+01 -0.42629789129E+02  0.13445303421E+02  0.44870688683E+02  0.00000000000E+00 0.  1.
         12    1    4    4    0    0 -0.57237874219E+00  0.37557827946E+02  0.13611181961E+02  0.39952250648E+02  0.00000000000E+00 0. -1.
        -13    1    3    3    0    0  0.25991986196E+02  0.16381394270E+02 -0.21200598056E+03  0.21422060876E+03  0.00000000000E+00 0.  1.
         14    1    3    3    0    0 -0.29505594996E+01  0.55942028286E+01 -0.13633214011E+04  0.13633360714E+04  0.00000000000E+00 0. -1.
          5    1    5    5  502    0 -0.52545995910E+01 -0.17244606835E+02  0.20778461014E+03  0.20861812360E+03  0.47000000000E+01 0.  1.
         -5    1    5    5    0  502  0.49381945888E+02  0.22536862631E+02  0.26422499847E+02  0.60553490858E+02  0.47000000000E+01 0.  1.
          1    1    1    2  503    0 -0.22134258621E+02  0.17390810201E+02  0.31961940296E+03  0.32085655429E+03  0.00000000000E+00 0. -1.
         -2    1    1    2    0  501 -0.40550154339E+02 -0.39586701913E+02 -0.32087772045E+04  0.32092775776E+04  0.00000000000E+00 0.  1.
<mgrwt>
<rscale>  0 0.39940843E+02</rscale>
<asrwt>0</asrwt>
<pdfrwt beam="1">  1        2 0.92534103E-01 0.28148991E+02</pdfrwt>
<pdfrwt beam="2">  1       -1 0.71065491E+00 0.56672402E+02</pdfrwt>
<totfact> 0.18832027E-02</totfact>
</mgrwt>
</event>
<event>
13    1  0.1942437E-008  0.3499309E+02  0.7546771E-02  0.1592028E+00
          2   -1    0    0  502    0  0.00000000000E+00  0.00000000000E+00  0.24307965532E+04  0.24307965532E+04  0.00000000000E+00 0. -1.
          2   -1    0    0  503    0 -0.00000000000E+00 -0.00000000000E+00 -0.20358318528E+04  0.20358318528E+04  0.00000000000E+00 0. -1.
         24    2    1    2    0    0  0.42544269627E+03 -0.24344018776E+03 -0.57969704338E+03  0.76337760901E+03  0.80200367856E+02 0.  0.
         24    2    1    2    0    0 -0.41763388547E+03 -0.15811254752E+03 -0.45654913248E+03  0.64383235744E+03  0.81641620182E+02 0.  0.
         25    2    1    2    0    0 -0.11818833710E+02  0.39089117406E+03  0.22970200158E+03  0.47045231375E+03  0.12500710058E+03 0.  0.
        -11    1    3    3    0    0  0.22390145248E+03 -0.15374663182E+03 -0.37022998221E+03  0.45917330818E+03  0.00000000000E+00 0.  1.
         12    1    3    3    0    0  0.20154124379E+03 -0.89693555944E+02 -0.20946706117E+03  0.30420430083E+03  0.00000000000E+00 0. -1.
        -13    1    4    4    0    0 -0.11641599200E+03 -0.22155582964E+02 -0.80808018933E+02  0.14343461567E+03  0.00000000000E+00 0.  1.
         14    1    4    4    0    0 -0.30121789347E+03 -0.13595696456E+03 -0.37574111355E+03  0.50039774177E+03  0.00000000000E+00 0. -1.
          5    1    5    5  501    0  0.26672270747E+02  0.52809466563E+02 -0.94197386257E+00  0.59356778048E+02  0.47000000000E+01 0.  1.
         -5    1    5    5    0  501 -0.38491104457E+02  0.33808170749E+03  0.23064397545E+03  0.41109553570E+03  0.47000000000E+01 0.  1.
          1    1    1    2  502    0 -0.94566246268E+01  0.33694306475E+02  0.18948193311E+04  0.18951424832E+04  0.00000000000E+00 0. -1.
          1    1    1    2  503    0  0.13466647535E+02 -0.23032745246E+02 -0.69331045645E+03  0.69382364256E+03  0.00000000000E+00 0. -1.
<mgrwt>
<rscale>  0 0.30555507E+02</rscale>
<asrwt>0</asrwt>
<pdfrwt beam="1">  1        2 0.35747008E+00 0.34993093E+02</pdfrwt>
<pdfrwt beam="2">  1        2 0.29938704E+00 0.26680666E+02</pdfrwt>
<totfact> 0.10398592E+01</totfact>
</mgrwt>
</event>
<event>
13    1  0.1942437E-008  0.1271221E+03  0.7546771E-02  0.1274085E+00
          2   -1    0    0  503    0  0.00000000000E+00  0.00000000000E+00  0.88644422132E+03  0.88644422132E+03  0.00000000000E+00 0. -1.
          2   -1    0    0  502    0 -0.00000000000E+00 -0.00000000000E+00 -0.42208049344E+04  0.42208049344E+04  0.00000000000E+00 0. -1.
         24    2    1    2    0    0 -0.23165978010E+03  0.34553173330E+02 -0.97593635772E+03  0.10091346082E+04  0.10507477204E+03 0.  0.
         24    2    1    2    0    0 -0.36024203704E+02 -0.13165130900E+03 -0.19995074308E+03  0.25504882569E+03  0.80248323454E+02 0.  0.
         25    2    1    2    0    0  0.27310853194E+03  0.40838816627E+02  0.26909093754E+03  0.40532726135E+03  0.12499670781E+03 0.  0.
        -11    1    4    4    0    0 -0.24130208077E+02 -0.16012080599E+01 -0.54201457464E+02  0.59351737972E+02  0.00000000000E+00 0.  1.
         12    1    4    4    0    0 -0.11893995627E+02 -0.13005010094E+03 -0.14574928562E+03  0.19569708772E+03  0.00000000000E+00 0. -1.
        -11    1    3    3    0    0 -0.91020983890E+01  0.29994422852E+02 -0.17756578688E+03  0.18031118176E+03  0.00000000000E+00 0.  1.
         12    1    3    3    0    0 -0.22255768171E+03  0.45587504780E+01 -0.79837057085E+03  0.82882342648E+03  0.00000000000E+00 0. -1.
          5    1    5    5  501    0  0.37610330948E+02 -0.15470657299E+01  0.11398785428E+03  0.12013430539E+03  0.47000000000E+01 0. -1.
         -5    1    5    5    0  501  0.23549820099E+03  0.42385882357E+02  0.15510308325E+03  0.28519295596E+03  0.47000000000E+01 0. -1.
          1    1    1    2  502    0  0.53043211438E+02  0.11583940049E+03 -0.29278075822E+04  0.29305783708E+04  0.00000000000E+00 0. -1.
          1    1    1    2  503    0 -0.58467759577E+02 -0.59580081449E+02  0.50024303242E+03  0.50716008961E+03  0.00000000000E+00 0. -1.
<mgrwt>
<rscale>  0 0.10301291E+03</rscale>
<asrwt>0</asrwt>
<pdfrwt beam="1">  1        2 0.13035944E+00 0.83476134E+02</pdfrwt>
<pdfrwt beam="2">  1        2 0.62070661E+00 0.12712209E+03</pdfrwt>
<totfact> 0.26532309E+00</totfact>
</mgrwt>
</event>
<event>
13    1  0.1942437E-008  0.1067888E+03  0.7546771E-02  0.1369090E+00
          2   -1    0    0  502    0  0.00000000000E+00  0.00000000000E+00  0.80188856946E+03  0.80188856946E+03  0.00000000000E+00 0. -1.
          2   -1    0    0  503    0 -0.00000000000E+00 -0.00000000000E+00 -0.22435246220E+04  0.22435246220E+04  0.00000000000E+00 0. -1.
         24    2    1    2    0    0 -0.57549915040E+02  0.69986329840E+02 -0.82372957386E+03  0.83268418130E+03  0.81378472909E+02 0.  0.
         24    2    1    2    0    0  0.36958686905E+01  0.82320647012E+02 -0.14987661772E+03  0.18674076253E+03  0.74958411680E+02 0.  0.
         25    2    1    2    0    0  0.17283594531E+03 -0.17937593888E+03  0.48800002894E+03  0.56197631138E+03  0.12500141945E+03 0.  0.
        -13    1    3    3    0    0 -0.44602214436E+02  0.80524385158E+02 -0.78667849667E+03  0.79204582649E+03  0.00000000000E+00 0.  1.
         14    1    3    3    0    0 -0.12947700604E+02 -0.10538055318E+02 -0.37051077185E+02  0.40638354807E+02  0.00000000000E+00 0. -1.
        -13    1    4    4    0    0  0.36632001368E+02  0.24025512724E+02 -0.49737204742E+02  0.66279094150E+02  0.00000000000E+00 0.  1.
         14    1    4    4    0    0 -0.32936132677E+02  0.58295134288E+02 -0.10013941297E+03  0.12046166838E+03  0.00000000000E+00 0. -1.
          5    1    5    5  501    0  0.85985198361E+02 -0.11539515588E+03  0.15341010551E+03  0.21039545340E+03  0.47000000000E+01 0.  1.
         -5    1    5    5    0  501  0.86850746953E+02 -0.63980783004E+02  0.33458992343E+03  0.35158085799E+03  0.47000000000E+01 0.  1.
          1    1    1    2  502    0 -0.89629891599E+02  0.57896022416E+02  0.24238991585E+03  0.26483643666E+03  0.00000000000E+00 0. -1.
          1    1    1    2  503    0 -0.29352007367E+02 -0.30827060384E+02 -0.11984198057E+04  0.11991754996E+04  0.00000000000E+00 0. -1.
<mgrwt>
<rscale>  0 0.67420714E+02</rscale>
<asrwt>0</asrwt>
<pdfrwt beam="1">  1        2 0.11792479E+00 0.10678883E+03</pdfrwt>
<pdfrwt beam="2">  1        2 0.32993010E+00 0.42565808E+02</pdfrwt>
<totfact> 0.46783847E+01</totfact>
</mgrwt>
</event>
<event>
13    1  0.1942437E-008  0.4661454E+02  0.7546771E-02  0.1525495E+00
          2   -1    0    0  503    0  0.00000000000E+00  0.00000000000E+00  0.82890445963E+03  0.82890445963E+03  0.00000000000E+00 0. -1.
          2   -1    0    0  502    0 -0.00000000000E+00 -0.00000000000E+00 -0.90528044261E+03  0.90528044261E+03  0.00000000000E+00 0. -1.
         24    2    1    2    0    0 -0.21940431377E+02 -0.22551067592E+03 -0.39726529335E+03  0.46430378994E+03  0.80136437173E+02 0.  0.
         24    2    1    2    0    0  0.18998148989E+03  0.11580500441E+03  0.96081015601E+02  0.25658382982E+03  0.84261109776E+02 0.  0.
         25    2    1    2    0    0 -0.21096567159E+03  0.17193464562E+03  0.40236196252E+03  0.50158645434E+03  0.12500314133E+03 0.  0.
        -13    1    3    3    0    0  0.60004367200E+01  0.48827175808E+01 -0.81744129410E+01  0.11254652315E+02  0.00000000000E+00 0.  1.
         14    1    3    3    0    0 -0.27940868097E+02 -0.23039339350E+03 -0.38909088041E+03  0.45304913762E+03  0.00000000000E+00 0. -1.
        -13    1    4    4    0    0  0.19289715473E+03  0.95669123667E+02  0.97127582675E+02  0.23621105148E+03  0.00000000000E+00 0.  1.
         14    1    4    4    0    0 -0.29156648369E+01  0.20135880746E+02 -0.10465670742E+01  0.20372778345E+02  0.00000000000E+00 0. -1.
          5    1    5    5  501    0 -0.16750576971E+03  0.15092924514E+03  0.22834723184E+03  0.32093982024E+03  0.47000000000E+01 0.  1.
         -5    1    5    5    0  501 -0.43459901879E+02  0.21005400485E+02  0.17401473068E+03  0.18064663411E+03  0.47000000000E+01 0.  1.
          1    1    1    2  502    0  0.32206086007E+02 -0.33607423238E+02 -0.34164305146E+03  0.34479945691E+03  0.00000000000E+00 0. -1.
          1    1    1    2  503    0  0.10718527070E+02 -0.28621550873E+02  0.16408938371E+03  0.16691137123E+03  0.00000000000E+00 0. -1.
<mgrwt>
<rscale>  0 0.37744764E+02</rscale>
<asrwt>0</asrwt>
<pdfrwt beam="1">  1        2 0.12189772E+00 0.30562722E+02</pdfrwt>
<pdfrwt beam="2">  1        2 0.13312948E+00 0.46614538E+02</pdfrwt>
<totfact> 0.20937920E+02</totfact>
</mgrwt>
</event>
<event>
13    1  0.1942437E-008  0.6708943E+02  0.7546771E-02  0.1401789E+00
         -1   -1    0    0    0  501 -0.00000000000E+00  0.00000000000E+00  0.64523692048E+03  0.64523692048E+03  0.00000000000E+00 0.  1.
          2   -1    0    0  503    0  0.00000000000E+00 -0.00000000000E+00 -0.14626083610E+04  0.14626083610E+04  0.00000000000E+00 0. -1.
         24    2    1    2    0    0 -0.31789894159E+02 -0.59261619988E+00  0.24684131784E+03  0.26028550634E+03  0.76203412342E+02 0.  0.
         24    2    1    2    0    0  0.81984230158E+02 -0.16727253574E+02  0.32635563572E+02  0.12175665120E+03  0.82209410016E+02 0.  0.
         25    2    1    2    0    0 -0.12532482235E+03 -0.63470646039E+02 -0.17008111044E+03  0.25355245105E+03  0.12500570906E+03 0.  0.
        -11    1    3    3    0    0 -0.27082644641E+02  0.36198973415E+02  0.12504264049E+03  0.13296427061E+03  0.00000000000E+00 0.  1.
         12    1    3    3    0    0 -0.47072495178E+01 -0.36791589615E+02  0.12179867735E+03  0.12732123573E+03  0.00000000000E+00 0. -1.
        -13    1    4    4    0    0  0.14482173810E+02  0.26140556397E+02  0.29104831649E+02  0.41715144400E+02  0.00000000000E+00 0.  1.
         14    1    4    4    0    0  0.67502056348E+02 -0.42867809971E+02  0.35307319225E+01  0.80041506800E+02  0.00000000000E+00 0. -1.
          5    1    5    5  502    0 -0.14843925573E+03 -0.43112681503E+02 -0.12549518524E+03  0.19915834772E+03  0.47000000000E+01 0. -1.
         -5    1    5    5    0  502  0.23114433382E+02 -0.20357964536E+02 -0.44585925201E+02  0.54394103326E+02  0.47000000000E+01 0. -1.
          1    1    1    2  503    0  0.59250600281E+02  0.31270467688E+02 -0.11960840594E+04  0.11979589112E+04  0.00000000000E+00 0. -1.
         -2    1    1    2    0  501  0.15879886071E+02  0.49520048125E+02  0.26931684792E+03  0.27429176167E+03  0.00000000000E+00 0.  1.
<mgrwt>
<rscale>  0 0.59067013E+02</rscale>
<asrwt>0</asrwt>
<pdfrwt beam="2">  1        2 0.21508946E+00 0.67089426E+02</pdfrwt>
<pdfrwt beam="1">  1       -1 0.94887784E-01 0.52003903E+02</pdfrwt>
<totfact> 0.24019952E+01</totfact>
</mgrwt>
</event>
<event>
13    1  0.1942437E-008  0.7222021E+02  0.7546771E-02  0.1478185E+00
          2   -1    0    0  503    0  0.00000000000E+00  0.00000000000E+00  0.11259933043E+04  0.11259933043E+04  0.00000000000E+00 0. -1.
          2   -1    0    0  502    0 -0.00000000000E+00 -0.00000000000E+00 -0.87408418593E+03  0.87408418593E+03  0.00000000000E+00 0. -1.
         24    2    1    2    0    0  0.28079265100E+02 -0.47820882552E+02  0.36524115949E+02  0.10157791737E+03  0.76868591209E+02 0.  0.
         24    2    1    2    0    0 -0.28335846224E+02  0.66211647003E+02 -0.23638370371E+02  0.10917227996E+03  0.78567880064E+02 0.  0.
         25    2    1    2    0    0 -0.90082978480E+02 -0.38315371674E+02  0.21796784850E+03  0.26967919730E+03  0.12503549801E+03 0.  0.
        -13    1    4    4    0    0  0.67780270781E+01  0.42760450957E+02 -0.44490709576E+02  0.62079151538E+02  0.00000000000E+00 0.  1.
         14    1    4    4    0    0 -0.35113873302E+02  0.23451196046E+02  0.20852339205E+02  0.47093128422E+02  0.00000000000E+00 0. -1.
        -13    1    3    3    0    0  0.46586742194E+02 -0.36091921682E+02  0.48754107238E+02  0.76484732669E+02  0.00000000000E+00 0.  1.
         14    1    3    3    0    0 -0.18507477094E+02 -0.11728960871E+02 -0.12229991289E+02  0.25093184700E+02  0.00000000000E+00 0. -1.
          5    1    5    5  501    0 -0.17616763895E+02 -0.23608187907E+02 -0.88110476492E+01  0.31103399606E+02  0.47000000000E+01 0. -1.
         -5    1    5    5    0  501 -0.72466214585E+02 -0.14707183767E+02  0.22677889614E+03  0.23857579770E+03  0.47000000000E+01 0. -1.
          1    1    1    2  502    0  0.65273023263E+02  0.30699964711E+02 -0.74731760723E+03  0.75079069086E+03  0.00000000000E+00 0. -1.
          1    1    1    2  503    0  0.25066536341E+02 -0.10775357487E+02  0.76837313154E+03  0.76885740475E+03  0.00000000000E+00 0. -1.
<mgrwt>
<rscale>  0 0.44390163E+02</rscale>
<asrwt>0</asrwt>
<pdfrwt beam="1">  1        2 0.16558725E+00 0.27284420E+02</pdfrwt>
<pdfrwt beam="2">  1        2 0.12854179E+00 0.72220211E+02</pdfrwt>
<totfact> 0.14837516E+02</totfact>
</mgrwt>
</event>
<event>
13    1  0.1942437E-008  0.5733987E+03  0.7546771E-02  0.1172672E+00
          2   -1    0    0  503    0  0.00000000000E+00  0.00000000000E+00  0.83913060959E+03  0.83913060959E+03  0.00000000000E+00 0. -1.
          2   -1    0    0  502    0 -0.00000000000E+00 -0.00000000000E+00 -0.22921775765E+04  0.22921775765E+04  0.00000000000E+00 0. -1.
         24    2    1    2    0    0 -0.10292419155E+03 -0.19893119782E+02 -0.58875809317E+03  0.60343938934E+03  0.80708604988E+02 0.  0.
         24    2    1    2    0    0  0.89004095119E+02 -0.89436216159E+02 -0.22623361672E+03  0.27133898585E+03  0.80762802058E+02 0.  0.
         25    2    1    2    0    0  0.52831250482E+03 -0.60164537036E+02 -0.15350253680E+03  0.56738311297E+03  0.12500677506E+03 0.  0.
        -11    1    4    4    0    0  0.61888648179E+02 -0.86316958670E+02 -0.21853759976E+03  0.24298046143E+03  0.00000000000E+00 0.  1.
         12    1    4    4    0    0  0.27115446940E+02 -0.31192574891E+01 -0.76960169620E+01  0.28358524417E+02  0.00000000000E+00 0. -1.
        -11    1    3    3    0    0 -0.89931255811E+02 -0.70774445273E+01 -0.28065896603E+03  0.29480023102E+03  0.00000000000E+00 0.  1.
         12    1    3    3    0    0 -0.12992935743E+02 -0.12815675254E+02 -0.30809912713E+03  0.30863915833E+03  0.00000000000E+00 0. -1.
          5    1    5    5  501    0  0.98091210386E+02 -0.35429103147E+02  0.13357937105E+02  0.10525032726E+03  0.47000000000E+01 0.  1.
         -5    1    5    5    0  501  0.43022129443E+03 -0.24735433889E+02 -0.16686047391E+03  0.46213278571E+03  0.47000000000E+01 0.  1.
          1    1    1    2  502    0  0.53442313423E+02 -0.63921215754E+00 -0.94005600995E+03  0.94157410292E+03  0.00000000000E+00 0. -1.
          1    1    1    2  503    0 -0.56783472181E+03  0.17013308513E+03  0.45550328970E+03  0.74757259505E+03  0.00000000000E+00 0. -1.
<mgrwt>
<rscale>  0 0.17505984E+03</rscale>
<asrwt>0</asrwt>
<pdfrwt beam="1">  1        2 0.12340156E+00 0.57339872E+03</pdfrwt>
<pdfrwt beam="2">  1        2 0.33708493E+00 0.53446136E+02</pdfrwt>
<totfact> 0.38357486E+01</totfact>
</mgrwt>
</event>
<event>
13    1  0.1942437E-008  0.1177473E+03  0.7546771E-02  0.1292394E+00
          4   -1    0    0  503    0 -0.00000000000E+00  0.00000000000E+00  0.71180373966E+03  0.71180373966E+03  0.00000000000E+00 0. -1.
          2   -1    0    0  502    0  0.00000000000E+00 -0.00000000000E+00 -0.11952067406E+04  0.11952067406E+04  0.00000000000E+00 0. -1.
         24    2    1    2    0    0 -0.39291838063E+02  0.69352423399E+02  0.70528945436E+02  0.13154630964E+03  0.77307776232E+02 0.  0.
         24    2    1    2    0    0 -0.95401239160E+01  0.31278922373E+02  0.60957305799E+02  0.10731924815E+03  0.82050246465E+02 0.  0.
         25    2    1    2    0    0  0.89426482587E+02 -0.14049624608E+03 -0.50224156173E+03  0.54369805864E+03  0.12499880677E+03 0.  0.
        -11    1    3    3    0    0  0.15607209871E+02  0.70794956039E+01 -0.64695315658E+01  0.18318272207E+02  0.00000000000E+00 0.  1.
         12    1    3    3    0    0 -0.54899047934E+02  0.62272927796E+02  0.76998477002E+02  0.11322803743E+03  0.00000000000E+00 0. -1.
        -13    1    4    4    0    0  0.30218047483E+02  0.11094571796E+02  0.53024432559E+02  0.62030721140E+02  0.00000000000E+00 0.  1.
         14    1    4    4    0    0 -0.39758171399E+02  0.20184350577E+02  0.79328732407E+01  0.45288527014E+02  0.00000000000E+00 0. -1.
          5    1    5    5  501    0 -0.17419649216E+02  0.12201023944E+02 -0.49942637635E+02  0.54485467953E+02  0.47000000000E+01 0.  1.
         -5    1    5    5    0  501  0.10684613180E+03 -0.15269727002E+03 -0.45229892409E+03  0.48921259069E+03  0.47000000000E+01 0.  1.
          1    1    1    2  502    0 -0.11592411678E+03  0.31614045656E+02 -0.60981357881E+03  0.62153877564E+03  0.00000000000E+00 0. -1.
          3    1    1    2  503    0  0.75329596167E+02  0.82508546462E+01  0.49716588833E+03  0.50290808821E+03  0.00000000000E+00 0. -1.
<mgrwt>
<rscale>  0 0.94461134E+02</rscale>
<asrwt>0</asrwt>
<pdfrwt beam="2">  1        2 0.17576569E+00 0.11774734E+03</pdfrwt>
<pdfrwt beam="1">  1        4 0.10467702E+00 0.75780107E+02</pdfrwt>
<totfact> 0.88657014E+00</totfact>
</mgrwt>
</event>
<event>
13    1  0.1942437E-008  0.2664129E+02  0.7546771E-02  0.1664590E+00
          2   -1    0    0  502    0  0.00000000000E+00  0.00000000000E+00  0.90057178868E+03  0.90057178868E+03  0.00000000000E+00 0. -1.
          2   -1    0    0  503    0 -0.00000000000E+00 -0.00000000000E+00 -0.25858554971E+04  0.25858554971E+04  0.00000000000E+00 0. -1.
         24    2    1    2    0    0 -0.11443858921E+03 -0.82773001678E+02 -0.12291537556E+04  0.12398223405E+04  0.79955741682E+02 0.  0.
         24    2    1    2    0    0 -0.74420470018E+02 -0.10716096271E+01 -0.86123565403E+02  0.14002684291E+03  0.81551784247E+02 0.  0.
         25    2    1    2    0    0  0.23252954930E+03  0.10674521121E+03  0.62244764896E+03  0.68449368062E+03  0.12500396675E+03 0.  0.
        -11    1    4    4    0    0  0.12895526996E+02  0.15969706190E+02 -0.95153209239E+01  0.22624488162E+02  0.00000000000E+00 0.  1.
         12    1    4    4    0    0 -0.87315997014E+02 -0.17041315817E+02 -0.76608244479E+02  0.11740235475E+03  0.00000000000E+00 0. -1.
        -11    1    3    3    0    0 -0.67263055634E+02 -0.79854904749E+02 -0.10232662480E+04  0.10285790872E+04  0.00000000000E+00 0.  1.
         12    1    3    3    0    0 -0.47175533576E+02 -0.29180969288E+01 -0.20588750765E+03  0.21124325330E+03  0.00000000000E+00 0. -1.
          5    1    5    5  501    0  0.49441553324E+02 -0.81696923092E+01  0.43624934905E+02  0.66606576350E+02  0.47000000000E+01 0.  1.
         -5    1    5    5    0  501  0.18308799598E+03  0.11491490352E+03  0.57882271405E+03  0.61788710427E+03  0.47000000000E+01 0.  1.
          1    1    1    2  502    0 -0.18905095753E+02 -0.13093566577E+02  0.21405230912E+03  0.21528408016E+03  0.00000000000E+00 0. -1.
          1    1    1    2  503    0 -0.24765394320E+02 -0.98070333325E+01 -0.12065063455E+04  0.12068003415E+04  0.00000000000E+00 0. -1.
<mgrwt>
<rscale>  0 0.24751958E+02</rscale>
<asrwt>0</asrwt>
<pdfrwt beam="1">  1        2 0.13243703E+00 0.22996611E+02</pdfrwt>
<pdfrwt beam="2">  1        2 0.38027286E+00 0.26641291E+02</pdfrwt>
<totfact> 0.32039613E+01</totfact>
</mgrwt>
</event>
<event>
13    1  0.1942437E-008  0.1304575E+03  0.7546771E-02  0.1240323E+00
         -1   -1    0    0    0  501 -0.00000000000E+00  0.00000000000E+00  0.49246633944E+03  0.49246633944E+03  0.00000000000E+00 0.  1.
          2   -1    0    0  503    0  0.00000000000E+00 -0.00000000000E+00 -0.16420144117E+04  0.16420144117E+04  0.00000000000E+00 0. -1.
         24    2    1    2    0    0 -0.14671169919E+02 -0.88593557465E+02  0.36320739587E+02  0.12530648416E+03  0.79488723719E+02 0.  0.
         24    2    1    2    0    0  0.17979762704E+03 -0.19262756867E+03 -0.45922619417E+02  0.27932152919E+03  0.80492625690E+02 0.  0.
         25    2    1    2    0    0 -0.20587784344E+03  0.11673036534E+02 -0.92671916377E+03  0.95757406576E+03  0.12497094348E+03 0.  0.
        -11    1    3    3    0    0 -0.40116680765E+02 -0.76735861165E+02  0.42658622256E+02  0.96527190558E+02  0.00000000000E+00 0.  1.
         12    1    3    3    0    0  0.25445510846E+02 -0.11857696300E+02 -0.63378826693E+01  0.28779293606E+02  0.00000000000E+00 0. -1.
        -13    1    4    4    0    0  0.16787716612E+03 -0.14430234392E+03 -0.56427681786E+02  0.22845129161E+03  0.00000000000E+00 0.  1.
         14    1    4    4    0    0  0.11920460921E+02 -0.48325224752E+02  0.10505062369E+02  0.50870237578E+02  0.00000000000E+00 0. -1.
          5    1    5    5  502    0 -0.84911765413E+02  0.64273084703E+02 -0.34624702779E+03  0.36228460025E+03  0.47000000000E+01 0. -1.
         -5    1    5    5    0  502 -0.12096607803E+03 -0.52600048169E+02 -0.58047213598E+03  0.59528946551E+03  0.47000000000E+01 0. -1.
          1    1    1    2  503    0  0.82892716424E+02  0.77568300840E+02 -0.45026235077E+03  0.46435355954E+03  0.00000000000E+00 0. -1.
         -2    1    1    2    0  501 -0.42141330107E+02  0.19197978876E+03  0.23703532209E+03  0.30792511251E+03  0.00000000000E+00 0.  1.
<mgrwt>
<rscale>  0 0.12169740E+03</rscale>
<asrwt>0</asrwt>
<pdfrwt beam="2">  1        2 0.24147270E+00 0.11352552E+03</pdfrwt>
<pdfrwt beam="1">  1       -1 0.72421522E-01 0.13045751E+03</pdfrwt>
<totfact> 0.31742740E+01</totfact>
</mgrwt>
</event>
<event>
13    1  0.1942437E-008  0.1267300E+03  0.7546771E-02  0.1250945E+00
          2   -1    0    0  503    0  0.00000000000E+00  0.00000000000E+00  0.11328143895E+04  0.11328143895E+04  0.00000000000E+00 0. -1.
         -1   -1    0    0    0  501 -0.00000000000E+00 -0.00000000000E+00 -0.15143684615E+04  0.15143684615E+04  0.00000000000E+00 0.  1.
         24    2    1    2    0    0  0.15049088358E+03  0.40236663255E+03  0.28160901871E+02  0.43797026446E+03  0.80489149133E+02 0.  0.
         24    2    1    2    0    0 -0.14916906056E+03 -0.26206565083E+03 -0.88627449610E+01  0.30823313234E+03  0.63240032019E+02 0.  0.
         25    2    1    2    0    0  0.37269145431E+02  0.87759343020E+02  0.51524328002E+03  0.53869352011E+03  0.12499751803E+03 0.  0.
        -11    1    4    4    0    0 -0.62537220355E+01 -0.58388913990E+02 -0.90612446397E+01  0.59417846398E+02  0.00000000000E+00 0.  1.
         12    1    4    4    0    0 -0.14291533852E+03 -0.20367673684E+03  0.19849967874E+00  0.24881528594E+03  0.00000000000E+00 0. -1.
        -13    1    3    3    0    0  0.91894654252E+02  0.15417158459E+03 -0.11670012058E+02  0.17986020727E+03  0.00000000000E+00 0.  1.
         14    1    3    3    0    0  0.58596229330E+02  0.24819504795E+03  0.39830913928E+02  0.25811005719E+03  0.00000000000E+00 0. -1.
          5    1    5    5  502    0 -0.42482686205E+02  0.45600349663E+02  0.27541174717E+03  0.28241439587E+03  0.47000000000E+01 0. -1.
         -5    1    5    5    0  502  0.79751831636E+02  0.42158993358E+02  0.23983153286E+03  0.25627912424E+03  0.47000000000E+01 0. -1.
          1    1    1    2  503    0 -0.15388781431E+02 -0.10388627539E+03  0.20699563323E+03  0.23211282814E+03  0.00000000000E+00 0. -1.
         -2    1    1    2    0  501 -0.23202187022E+02 -0.12417404935E+03 -0.11230911421E+04  0.11301731060E+04  0.00000000000E+00 0.  1.
<mgrwt>
<rscale>  0 0.11536539E+03</rscale>
<asrwt>0</asrwt>
<pdfrwt beam="1">  1        2 0.16659035E+00 0.10501987E+03</pdfrwt>
<pdfrwt beam="2">  1       -1 0.22270124E+00 0.12673005E+03</pdfrwt>
<totfact> 0.36256267E+00</totfact>
</mgrwt>
</event>
<event>
13    1  0.1942437E-008  0.1104216E+03  0.7546771E-02  0.1360557E+00
          2   -1    0    0  503    0  0.00000000000E+00  0.00000000000E+00  0.17251798304E+04  0.17251798304E+04  0.00000000000E+00 0. -1.
          2   -1    0    0  502    0 -0.00000000000E+00 -0.00000000000E+00 -0.35671753394E+03  0.35671753394E+03  0.00000000000E+00 0. -1.
         24    2    1    2    0    0  0.28643958477E+02  0.34577026840E+02 -0.65252630235E+02  0.11351097752E+03  0.81306759395E+02 0.  0.
         24    2    1    2    0    0 -0.18568041819E+02 -0.13730388470E+02  0.19166744275E+03  0.20753042908E+03  0.76152312096E+02 0.  0.
         25    2    1    2    0    0 -0.53600770520E+02 -0.52441544499E+02  0.55933358293E+03  0.57801681397E+03  0.12500488810E+03 0.  0.
        -11    1    3    3    0    0 -0.13148913190E+02 -0.18127430531E+02 -0.44347859626E+01  0.22829038137E+02  0.00000000000E+00 0.  1.
         12    1    3    3    0    0  0.41792871666E+02  0.52704457370E+02 -0.60817844273E+02  0.90681939386E+02  0.00000000000E+00 0. -1.
        -13    1    4    4    0    0 -0.43512533912E+02 -0.26785791292E+02  0.13233666195E+03  0.14185841998E+03  0.00000000000E+00 0.  1.
         14    1    4    4    0    0  0.24944492093E+02  0.13055402822E+02  0.59330780806E+02  0.65672009103E+02  0.00000000000E+00 0. -1.
          5    1    5    5  501    0 -0.33542361238E+02  0.29954906290E+02  0.86390177477E+02  0.97507636485E+02  0.47000000000E+01 0.  1.
         -5    1    5    5    0  501 -0.20058409282E+02 -0.82396450789E+02  0.47294340545E+03  0.48050917748E+03  0.47000000000E+01 0.  1.
          1    1    1    2  502    0  0.84169077633E+02  0.48970821958E+02 -0.24003326075E+03  0.25903386130E+03  0.00000000000E+00 0. -1.
          1    1    1    2  503    0 -0.40644223770E+02 -0.17375915828E+02  0.92274716174E+03  0.92380528245E+03  0.00000000000E+00 0. -1.
<mgrwt>
<rscale>  0 0.69863650E+02</rscale>
<asrwt>0</asrwt>
<pdfrwt beam="1">  1        2 0.25370291E+00 0.44202663E+02</pdfrwt>
<pdfrwt beam="2">  1        2 0.52458461E-01 0.11042162E+03</pdfrwt>
<totfact> 0.19794904E+02</totfact>
</mgrwt>
</event>
<event>
13    1  0.1942437E-008  0.6419787E+02  0.7546771E-02  0.1581733E+00
          2   -1    0    0  502    0  0.00000000000E+00  0.00000000000E+00  0.19370729892E+04  0.19370729892E+04  0.00000000000E+00 0. -1.
          2   -1    0    0  503    0 -0.00000000000E+00 -0.00000000000E+00 -0.17908497814E+04  0.17908497814E+04  0.00000000000E+00 0. -1.
         24    2    1    2    0    0  0.36249974357E+03  0.23932924178E+03 -0.56643726846E+03  0.71869913406E+03  0.83622461940E+02 0.  0.
         24    2    1    2    0    0 -0.44370098091E+03 -0.30068172491E+03  0.16213071005E+03  0.56308068077E+03  0.59105209171E+02 0.  0.
         25    2    1    2    0    0  0.13209445466E+03  0.53006956473E+00  0.13473025857E+03  0.22633194200E+03  0.12499871787E+03 0.  0.
        -11    1    4    4    0    0 -0.12926794603E+03 -0.12084272506E+03  0.49635430911E+02  0.18378477106E+03  0.00000000000E+00 0.  1.
         12    1    4    4    0    0 -0.31443303488E+03 -0.17983899985E+03  0.11249527914E+03  0.37929590971E+03  0.00000000000E+00 0. -1.
        -13    1    3    3    0    0  0.18088345861E+03  0.12097982920E+03 -0.21584695792E+03  0.30650424780E+03  0.00000000000E+00 0.  1.
         14    1    3    3    0    0  0.18161628495E+03  0.11834941258E+03 -0.35059031054E+03  0.41219488626E+03  0.00000000000E+00 0. -1.
          5    1    5    5  501    0  0.12083842310E+03 -0.34161770376E+00  0.15864003865E+03  0.19947629699E+03  0.47000000000E+01 0. -1.
         -5    1    5    5    0  501  0.11256031555E+02  0.87168726849E+00 -0.23909780080E+02  0.26855645003E+02  0.47000000000E+01 0. -1.
          1    1    1    2  502    0 -0.74900855840E+01  0.13557417814E+02  0.13166183583E+04  0.13167094617E+04  0.00000000000E+00 0. -1.
          1    1    1    2  503    0 -0.43403131729E+02  0.47264995760E+02 -0.90081885072E+03  0.90310155214E+03  0.00000000000E+00 0. -1.
<mgrwt>
<rscale>  0 0.31533350E+02</rscale>
<asrwt>0</asrwt>
<pdfrwt beam="1">  1        2 0.28486368E+00 0.15488866E+02</pdfrwt>
<pdfrwt beam="2">  1        2 0.26336026E+00 0.64197868E+02</pdfrwt>
<totfact> 0.22769507E+01</totfact>
</mgrwt>
</event>
<event>
13    1  0.1942437E-008  0.3689627E+02  0.7546771E-02  0.1694988E+00
          2   -1    0    0  503    0  0.00000000000E+00  0.00000000000E+00  0.17627621920E+04  0.17627621920E+04  0.00000000000E+00 0. -1.
         -3   -1    0    0    0  501 -0.00000000000E+00 -0.00000000000E+00 -0.13578290384E+03  0.13578290384E+03  0.00000000000E+00 0.  1.
         24    2    1    2    0    0 -0.38433959526E+02  0.50790551860E+02  0.16423062833E+02  0.82922310559E+02  0.50493001421E+02 0.  0.
         24    2    1    2    0    0  0.10131510059E+03  0.19941321438E+02  0.12866597341E+03  0.18369933404E+03  0.80796699846E+02 0.  0.
         25    2    1    2    0    0 -0.58122420195E+02 -0.25429222645E+02  0.82788489490E+03  0.83967041483E+03  0.12501258034E+03 0.  0.
        -13    1    4    4    0    0  0.80662663297E+02  0.36024465681E+02  0.51595762164E+02  0.10230518096E+03  0.00000000000E+00 0.  1.
         14    1    4    4    0    0  0.20652437295E+02 -0.16083144243E+02  0.77070211245E+02  0.81394153084E+02  0.00000000000E+00 0. -1.
        -13    1    3    3    0    0  0.10693409759E+02  0.51592072536E+01 -0.44790954903E+01  0.12689709539E+02  0.00000000000E+00 0.  1.
         14    1    3    3    0    0 -0.49127369285E+02  0.45631344606E+02  0.20902158323E+02  0.70232601020E+02  0.00000000000E+00 0. -1.
          5    1    5    5  502    0 -0.62992195801E+02  0.34380493446E+02  0.30658788867E+03  0.31490992131E+03  0.47000000000E+01 0. -1.
         -5    1    5    5    0  502  0.48697756058E+01 -0.59809716091E+02  0.52129700623E+03  0.52476049352E+03  0.47000000000E+01 0. -1.
          1    1    1    2  503    0 -0.10861851619E+02 -0.89482529598E+01  0.71814065579E+03  0.71827853410E+03  0.00000000000E+00 0. -1.
         -4    1    1    2    0  501  0.61031307488E+01 -0.36354397693E+02 -0.64135298800E+02  0.73974502287E+02  0.00000000000E+00 0.  1.
<mgrwt>
<rscale>  0 0.22786914E+02</rscale>
<asrwt>0</asrwt>
<pdfrwt beam="1">  1        2 0.25922972E+00 0.14073061E+02</pdfrwt>
<pdfrwt beam="2">  1       -3 0.19968075E-01 0.36896269E+02</pdfrwt>
<totfact> 0.17149104E+02</totfact>
</mgrwt>
</event>
<event>
13    1  0.1942437E-008  0.1393830E+03  0.7546771E-02  0.1294726E+00
          2   -1    0    0  503    0  0.00000000000E+00  0.00000000000E+00  0.63016825272E+03  0.63016825272E+03  0.00000000000E+00 0. -1.
          2   -1    0    0  502    0 -0.00000000000E+00 -0.00000000000E+00 -0.13818902952E+04  0.13818902952E+04  0.00000000000E+00 0. -1.
         24    2    1    2    0    0  0.11016396094E+03  0.21001712035E+02 -0.25209866895E+03  0.28679724927E+03  0.78241632812E+02 0.  0.
         24    2    1    2    0    0 -0.20216593415E+02 -0.38639509507E+02 -0.10280497816E+03  0.13713323735E+03  0.79592329449E+02 0.  0.
         25    2    1    2    0    0 -0.27288450643E+02  0.14370813046E+03  0.59621572226E+02  0.20142849291E+03  0.12498807776E+03 0.  0.
        -11    1    4    4    0    0 -0.30065275629E+02 -0.61743844371E+01 -0.19834773817E+01  0.30756755427E+02  0.00000000000E+00 0.  1.
         12    1    4    4    0    0  0.98486822142E+01 -0.32465125069E+02 -0.10082150078E+03  0.10637648192E+03  0.00000000000E+00 0. -1.
        -13    1    3    3    0    0 -0.45658318379E+01  0.18703664510E+02 -0.60217744836E+02  0.63220650737E+02  0.00000000000E+00 0.  1.
         14    1    3    3    0    0  0.11472979278E+03  0.22980475250E+01 -0.19188092411E+03  0.22357659854E+03  0.00000000000E+00 0. -1.
          5    1    5    5  501    0 -0.39668520717E+02  0.16021000697E+03  0.68136599789E+02  0.17862117484E+03  0.47000000000E+01 0. -1.
         -5    1    5    5    0  501  0.12380070075E+02 -0.16501876506E+02 -0.85150275633E+01  0.22807318073E+02  0.47000000000E+01 0. -1.
          1    1    1    2  502    0 -0.22618272194E+01 -0.14269023297E+03 -0.91389771652E+03  0.92497278593E+03  0.00000000000E+00 0. -1.
          1    1    1    2  503    0 -0.60397089666E+02  0.16619899983E+02  0.45745774897E+03  0.46172678242E+03  0.00000000000E+00 0. -1.
<mgrwt>
<rscale>  0 0.93441110E+02</rscale>
<asrwt>0</asrwt>
<pdfrwt beam="1">  1        2 0.92671804E-01 0.62642075E+02</pdfrwt>
<pdfrwt beam="2">  1        2 0.20321916E+00 0.13938301E+03</pdfrwt>
<totfact> 0.14492612E+02</totfact>
</mgrwt>
</event>
<event>
13    1  0.1942437E-008  0.8788298E+02  0.7546771E-02  0.1434293E+00
          2   -1    0    0  503    0  0.00000000000E+00  0.00000000000E+00  0.16296243102E+04  0.16296243102E+04  0.00000000000E+00 0. -1.
          2   -1    0    0  502    0 -0.00000000000E+00 -0.00000000000E+00 -0.12515130040E+04  0.12515130040E+04  0.00000000000E+00 0. -1.
         24    2    1    2    0    0  0.24130279080E+03 -0.60335125071E+02 -0.21331752872E+03  0.33743604176E+03  0.80568914948E+02 0.  0.
         24    2    1    2    0    0 -0.70827569350E+03 -0.17787496861E+03 -0.11043972333E+03  0.74551706990E+03  0.10151259316E+03 0.  0.
         25    2    1    2    0    0  0.52232877636E+03  0.27250700763E+03  0.10959671152E+02  0.60235499726E+03  0.12499603398E+03 0.  0.
        -11    1    4    4    0    0 -0.68977889036E+02 -0.43794108432E+02 -0.31456769434E+02  0.87552278397E+02  0.00000000000E+00 0.  1.
         12    1    4    4    0    0 -0.63929780446E+03 -0.13408086018E+03 -0.78982953894E+02  0.65796479151E+03  0.00000000000E+00 0. -1.
        -13    1    3    3    0    0  0.76184520879E+02 -0.46115232525E+02 -0.39973462544E+02  0.97614412871E+02  0.00000000000E+00 0.  1.
         14    1    3    3    0    0  0.16511826992E+03 -0.14219892546E+02 -0.17334406617E+03  0.23982162889E+03  0.00000000000E+00 0. -1.
          5    1    5    5  501    0  0.14443950631E+03  0.17124917510E+02 -0.89690965569E+01  0.14580318404E+03  0.47000000000E+01 0.  1.
         -5    1    5    5    0  501  0.37788927005E+03  0.25538209012E+03  0.19928767709E+02  0.45655181322E+03  0.47000000000E+01 0.  1.
          1    1    1    2  502    0  0.29190666321E+02 -0.10122379025E+02 -0.24945590975E+03  0.25136190735E+03  0.00000000000E+00 0. -1.
          1    1    1    2  503    0 -0.84546539983E+02 -0.24174534924E+02  0.94036479687E+03  0.94446729788E+03  0.00000000000E+00 0. -1.
<mgrwt>
<rscale>  0 0.52107822E+02</rscale>
<asrwt>0</asrwt>
<pdfrwt beam="1">  1        2 0.23965063E+00 0.87882983E+02</pdfrwt>
<pdfrwt beam="2">  1        2 0.18404603E+00 0.30895915E+02</pdfrwt>
<totfact> 0.50399405E+01</totfact>
</mgrwt>
</event>
<event>
13    1  0.1942437E-008  0.7336876E+02  0.7546771E-02  0.1392313E+00
          2   -1    0    0  502    0  0.00000000000E+00  0.00000000000E+00  0.11364237765E+04  0.11364237765E+04  0.00000000000E+00 0. -1.
          2   -1    0    0  503    0 -0.00000000000E+00 -0.00000000000E+00 -0.15139182867E+04  0.15139182867E+04  0.00000000000E+00 0. -1.
         24    2    1    2    0    0  0.12136748087E+03  0.17402600982E+03 -0.97692113777E+03  0.10053790970E+04  0.10675720978E+03 0.  0.
         24    2    1    2    0    0 -0.11917229982E+03  0.13323018569E+02  0.11998082306E+03  0.18768620933E+03  0.80319209405E+02 0.  0.
         25    2    1    2    0    0  0.19273597336E+02 -0.19339021893E+03  0.52278456918E+03  0.57157646165E+03  0.12499878962E+03 0.  0.
        -13    1    3    3    0    0  0.82204848693E+01  0.89971529442E+02 -0.27549392672E+03  0.28992991591E+03  0.00000000000E+00 0.  1.
         14    1    3    3    0    0  0.11314699601E+03  0.84054480379E+02 -0.70142721105E+03  0.71544918113E+03  0.00000000000E+00 0. -1.
        -13    1    4    4    0    0 -0.44144429005E+02  0.47625545598E+01 -0.17501334891E+01  0.44435070669E+02  0.00000000000E+00 0.  1.
         14    1    4    4    0    0 -0.75027870818E+02  0.85604640091E+01  0.12173095655E+03  0.14325113866E+03  0.00000000000E+00 0. -1.
          5    1    5    5  501    0  0.51855806331E+02 -0.18295689412E+03  0.38363418022E+03  0.42820500230E+03  0.47000000000E+01 0.  1.
         -5    1    5    5    0  501 -0.32582208995E+02 -0.10433324807E+02  0.13915038896E+03  0.14337145935E+03  0.47000000000E+01 0.  1.
          1    1    1    2  502    0  0.49394322607E+02 -0.13759509001E+02  0.41668582703E+03  0.41982877658E+03  0.00000000000E+00 0. -1.
          1    1    1    2  503    0 -0.70863100994E+02  0.19800699538E+02 -0.46002459172E+03  0.46587151852E+03  0.00000000000E+00 0. -1.
<mgrwt>
<rscale>  0 0.61334994E+02</rscale>
<asrwt>0</asrwt>
<pdfrwt beam="1">  1        2 0.16712114E+00 0.51274976E+02</pdfrwt>
<pdfrwt beam="2">  1        2 0.22263504E+00 0.73368762E+02</pdfrwt>
<totfact> 0.64439201E+01</totfact>
</mgrwt>
</event>
<event>
13    1  0.1942437E-008  0.1048377E+03  0.7546771E-02  0.1325492E+00
          2   -1    0    0  503    0  0.00000000000E+00  0.00000000000E+00  0.16193160774E+04  0.16193160774E+04  0.00000000000E+00 0. -1.
          2   -1    0    0  502    0 -0.00000000000E+00 -0.00000000000E+00 -0.85433542574E+03  0.85433542574E+03  0.00000000000E+00 0. -1.
         24    2    1    2    0    0  0.55388430649E+03  0.31553147732E+03 -0.88216077970E+02  0.64861715445E+03  0.81081431120E+02 0.  0.
         24    2    1    2    0    0 -0.49613958340E+03 -0.29530249957E+03  0.22442854318E+03  0.62773307581E+03  0.10160015255E+03 0.  0.
         25    2    1    2    0    0 -0.23956166261E+02  0.11844091632E+03  0.45611738046E+03  0.48813152039E+03  0.12500867122E+03 0.  0.
        -11    1    4    4    0    0 -0.73770304699E+02 -0.32595048405E+02 -0.32084283058E+01  0.80714243155E+02  0.00000000000E+00 0.  1.
         12    1    4    4    0    0 -0.42236927870E+03 -0.26270745116E+03  0.22763697149E+03  0.54701883265E+03  0.00000000000E+00 0. -1.
        -11    1    3    3    0    0  0.33140409734E+03  0.23030725675E+03 -0.40069122202E+02  0.40555596753E+03  0.00000000000E+00 0.  1.
         12    1    3    3    0    0  0.22248020915E+03  0.85224220576E+02 -0.48146955768E+02  0.24306118692E+03  0.00000000000E+00 0. -1.
          5    1    5    5  501    0 -0.42882947215E+02  0.12932111740E+03  0.28913348396E+03  0.31966100812E+03  0.47000000000E+01 0. -1.
         -5    1    5    5    0  501  0.18926780954E+02 -0.10880201078E+02  0.16698389650E+03  0.16847051227E+03  0.47000000000E+01 0. -1.
          1    1    1    2  502    0  0.29672425101E+02 -0.55570724377E+02 -0.25822010352E+03  0.26579349142E+03  0.00000000000E+00 0. -1.
          1    1    1    2  503    0 -0.63460981931E+02 -0.83099169702E+02  0.43087090948E+03  0.44337626105E+03  0.00000000000E+00 0. -1.
<mgrwt>
<rscale>  0 0.81267516E+02</rscale>
<asrwt>0</asrwt>
<pdfrwt beam="1">  1        2 0.23813472E+00 0.10483773E+03</pdfrwt>
<pdfrwt beam="2">  1        2 0.12563756E+00 0.62996494E+02</pdfrwt>
<totfact> 0.79374611E+01</totfact>
</mgrwt>
</event>
<event>
13    1  0.1942437E-008  0.8003233E+02  0.7546771E-02  0.1352954E+00
          4   -1    0    0  503    0 -0.00000000000E+00  0.00000000000E+00  0.13299824760E+03  0.13299824760E+03  0.00000000000E+00 0. -1.
          2   -1    0    0  502    0  0.00000000000E+00 -0.00000000000E+00 -0.41612029354E+04  0.41612029354E+04  0.00000000000E+00 0. -1.
         24    2    1    2    0    0 -0.47779407166E+02 -0.64261028151E+02 -0.21283422001E+02  0.11570134341E+03  0.80755590065E+02 0.  0.
         24    2    1    2    0    0  0.98146448820E+02 -0.18274526991E+03 -0.89189147035E+03  0.91917228747E+03  0.79867015003E+02 0.  0.
         25    2    1    2    0    0 -0.85401138446E+02  0.36242929980E+03 -0.16662765143E+04  0.17119449313E+04  0.12501869419E+03 0.  0.
        -13    1    3    3    0    0 -0.81780499439E+01 -0.11698199387E+02 -0.43861011119E+02  0.46125011286E+02  0.00000000000E+00 0.  1.
         14    1    3    3    0    0 -0.39601357222E+02 -0.52562828764E+02  0.22577589118E+02  0.69576332124E+02  0.00000000000E+00 0. -1.
        -13    1    4    4    0    0  0.89682260043E+02 -0.18849772731E+03 -0.87379011404E+03  0.89837824125E+03  0.00000000000E+00 0.  1.
         14    1    4    4    0    0  0.84641887770E+01  0.57524574025E+01 -0.18101356309E+02  0.20794046216E+02  0.00000000000E+00 0. -1.
          5    1    5    5  501    0  0.11318577331E+02 -0.30591210929E+01 -0.29971558233E+02  0.32524647847E+02  0.47000000000E+01 0.  1.
         -5    1    5    5    0  501 -0.96719715777E+02  0.36548842089E+03 -0.16363049561E+04  0.16794202835E+04  0.47000000000E+01 0.  1.
          1    1    1    2  502    0 -0.17918309275E+02 -0.77672801089E+02 -0.14750745146E+04  0.14772267779E+04  0.00000000000E+00 0. -1.
          3    1    1    2  503    0  0.52952406066E+02 -0.37750200648E+02  0.26321233471E+02  0.70155842869E+02  0.00000000000E+00 0. -1.
<mgrwt>
<rscale>  0 0.72142809E+02</rscale>
<asrwt>0</asrwt>
<pdfrwt beam="2">  1        2 0.61194157E+00 0.80032329E+02</pdfrwt>
<pdfrwt beam="1">  1        4 0.19558567E-01 0.65031031E+02</pdfrwt>
<totfact> 0.65547043E+00</totfact>
</mgrwt>
</event>
<event>
13    1  0.1942437E-008  0.5980314E+02  0.7546771E-02  0.1466543E+00
          2   -1    0    0  502    0  0.00000000000E+00  0.00000000000E+00  0.61812231050E+03  0.61812231050E+03  0.00000000000E+00 0. -1.
          2   -1    0    0  503    0 -0.00000000000E+00 -0.00000000000E+00 -0.19130285419E+04  0.19130285419E+04  0.00000000000E+00 0. -1.
         24    2    1    2    0    0  0.29295822269E+02  0.38792039604E+02 -0.47177103801E+03  0.48098583373E+03  0.80102387048E+02 0.  0.
         24    2    1    2    0    0 -0.18134168207E+00 -0.60698070819E+02 -0.48714092541E+02  0.11194199907E+03  0.80459055783E+02 0.  0.
         25    2    1    2    0    0 -0.12442017114E+03  0.27075000625E+02  0.12102657164E+03  0.21560603079E+03  0.12500037931E+03 0.  0.
        -11    1    3    3    0    0  0.11015250114E+02  0.35139932810E+02 -0.72844480845E+02  0.81623948707E+02  0.00000000000E+00 0.  1.
         12    1    3    3    0    0  0.18280572155E+02  0.36521067933E+01 -0.39892655716E+03  0.39936188503E+03  0.00000000000E+00 0. -1.
        -13    1    4    4    0    0  0.45279909821E+01  0.15672401946E+02  0.65255691555E+01  0.17570143366E+02  0.00000000000E+00 0.  1.
         14    1    4    4    0    0 -0.47093326641E+01 -0.76370472765E+02 -0.55239661696E+02  0.94371855703E+02  0.00000000000E+00 0. -1.
          5    1    5    5  501    0 -0.31808523061E+02 -0.43782816040E+02  0.11435038218E+02  0.55511865567E+02  0.47000000000E+01 0.  1.
         -5    1    5    5    0  501 -0.92611648078E+02  0.70857816665E+02  0.10959153342E+03  0.16009416523E+03  0.47000000000E+01 0.  1.
          1    1    1    2  502    0  0.35801268045E+02 -0.53478687855E+00  0.41212771312E+03  0.41368015267E+03  0.00000000000E+00 0. -1.
          1    1    1    2  503    0  0.59504422507E+02 -0.46341825307E+01 -0.13075753856E+04  0.13089368361E+04  0.00000000000E+00 0. -1.
<mgrwt>
<rscale>  0 0.46273827E+02</rscale>
<asrwt>0</asrwt>
<pdfrwt beam="1">  1        2 0.90900341E-01 0.35805262E+02</pdfrwt>
<pdfrwt beam="2">  1        2 0.28132772E+00 0.59803139E+02</pdfrwt>
<totfact> 0.88791334E+01</totfact>
</mgrwt>
</event>
<event>
13    1  0.1942437E-008  0.8731779E+02  0.7546771E-02  0.1447764E+00
          2   -1    0    0  502    0  0.00000000000E+00  0.00000000000E+00  0.10990050421E+04  0.10990050421E+04  0.00000000000E+00 0. -1.
          2   -1    0    0  503    0 -0.00000000000E+00 -0.00000000000E+00 -0.22197337028E+04  0.22197337028E+04  0.00000000000E+00 0. -1.
         24    2    1    2    0    0  0.15760673827E+02 -0.44769548777E+02 -0.29288324796E+03  0.30733418229E+03  0.80131088387E+02 0.  0.
         24    2    1    2    0    0 -0.15287038797E+02 -0.43142087425E+02  0.13876428046E+03  0.16664444415E+03  0.80124353168E+02 0.  0.
         25    2    1    2    0    0 -0.17187087977E+02  0.30942708623E+02  0.30886251190E+03  0.33507576206E+03  0.12500747120E+03 0.  0.
        -13    1    3    3    0    0  0.25117834043E+02  0.15779046120E+02 -0.66671663818E+02  0.72972560868E+02  0.00000000000E+00 0.  1.
         14    1    3    3    0    0 -0.93571602167E+01 -0.60548594897E+02 -0.22621158415E+03  0.23436162142E+03  0.00000000000E+00 0. -1.
        -13    1    4    4    0    0 -0.25334422081E+02 -0.56394642656E+02  0.13651578897E+03  0.14986243458E+03  0.00000000000E+00 0.  1.
         14    1    4    4    0    0  0.10047383284E+02  0.13252555231E+02  0.22484914974E+01  0.16782009564E+02  0.00000000000E+00 0. -1.
          5    1    5    5  501    0  0.53639762343E+02  0.16867169188E+02  0.11374949999E+03  0.12697544743E+03  0.47000000000E+01 0.  1.
         -5    1    5    5    0  501 -0.70826850320E+02  0.14075539435E+02  0.19511301191E+03  0.20810031464E+03  0.47000000000E+01 0.  1.
          1    1    1    2  502    0 -0.49028453331E+01 -0.27691367183E+02  0.61577649773E+03  0.61641831971E+03  0.00000000000E+00 0. -1.
          1    1    1    2  503    0  0.21616298281E+02  0.84660294763E+02 -0.18912487028E+04  0.18932660367E+04  0.00000000000E+00 0. -1.
<mgrwt>
<rscale>  0 0.49553561E+02</rscale>
<asrwt>0</asrwt>
<pdfrwt beam="1">  1        2 0.16161839E+00 0.28122050E+02</pdfrwt>
<pdfrwt beam="2">  1        2 0.32643142E+00 0.87317794E+02</pdfrwt>
<totfact> 0.31504086E+01</totfact>
</mgrwt>
</event>
<event>
13    1  0.1942437E-008  0.2327774E+03  0.7546771E-02  0.1138931E+00
          2   -1    0    0  503    0  0.00000000000E+00  0.00000000000E+00  0.25590990519E+04  0.25590990519E+04  0.00000000000E+00 0. -1.
          2   -1    0    0  502    0 -0.00000000000E+00 -0.00000000000E+00 -0.35103874098E+04  0.35103874098E+04  0.00000000000E+00 0. -1.
         24    2    1    2    0    0 -0.13566621793E+03 -0.80998882868E+02 -0.11454608320E+03  0.21058841083E+03  0.79123522952E+02 0.  0.
         24    2    1    2    0    0  0.23407106022E+02  0.58991675280E+02 -0.38706042912E+02  0.11020362080E+03  0.81355822864E+02 0.  0.
         25    2    1    2    0    0 -0.20367613511E+03 -0.43280791864E+03  0.13452399230E+04  0.14332137779E+04  0.12499848037E+03 0.  0.
        -11    1    4    4    0    0 -0.30880601979E+01 -0.12591406444E+02 -0.30859586034E+02  0.33472282298E+02  0.00000000000E+00 0.  1.
         12    1    4    4    0    0  0.26495166220E+02  0.71583081724E+02 -0.78464568782E+01  0.76731338498E+02  0.00000000000E+00 0. -1.
        -13    1    3    3    0    0 -0.52659858563E+01 -0.38650635025E+02 -0.32790038717E+02  0.50958697334E+02  0.00000000000E+00 0.  1.
         14    1    3    3    0    0 -0.13040023207E+03 -0.42348247843E+02 -0.81756044488E+02  0.15962971349E+03  0.00000000000E+00 0. -1.
          5    1    5    5  501    0 -0.19279160807E+03 -0.33238341467E+03  0.93925682627E+03  0.10148264946E+04  0.47000000000E+01 0. -1.
         -5    1    5    5    0  501 -0.10884527049E+02 -0.10042450398E+03  0.40598309674E+03  0.41838728323E+03  0.47000000000E+01 0. -1.
          1    1    1    2  502    0  0.44708758887E+02  0.46856854631E+03 -0.31948843422E+04  0.32293716595E+04  0.00000000000E+00 0. -1.
          1    1    1    2  503    0  0.27122648813E+03 -0.13753420076E+02  0.10516081873E+04  0.10861089927E+04  0.00000000000E+00 0. -1.
<mgrwt>
<rscale>  0 0.21336247E+03</rscale>
<asrwt>0</asrwt>
<pdfrwt beam="1">  1        2 0.37633810E+00 0.19556690E+03</pdfrwt>
<pdfrwt beam="2">  1        2 0.51623344E+00 0.23277736E+03</pdfrwt>
<totfact> 0.90607934E-01</totfact>
</mgrwt>
</event>
<event>
13    1  0.1942437E-008  0.6889701E+02  0.7546771E-02  0.1381573E+00
          2   -1    0    0  502    0  0.00000000000E+00  0.00000000000E+00  0.45947271631E+03  0.45947271631E+03  0.00000000000E+00 0. -1.
          2   -1    0    0  503    0 -0.00000000000E+00 -0.00000000000E+00 -0.35440127718E+04  0.35440127718E+04  0.00000000000E+00 0. -1.
         24    2    1    2    0    0  0.69794763346E+02  0.84121451553E+02 -0.38590661139E+03  0.40900594602E+03  0.80088847962E+02 0.  0.
         24    2    1    2    0    0  0.10974628041E+03 -0.12157700485E+03 -0.89822386371E+03  0.91661099373E+03  0.80897406212E+02 0.  0.
         25    2    1    2    0    0 -0.25372444364E+03  0.14169890809E+03 -0.24376485520E+02  0.31729203623E+03  0.12500139739E+03 0.  0.
        -11    1    4    4    0    0  0.10158093747E+03 -0.88488149868E+02 -0.53152353767E+03  0.54833029337E+03  0.00000000000E+00 0.  1.
         12    1    4    4    0    0  0.81653429360E+01 -0.33088854980E+02 -0.36670032603E+03  0.36828070037E+03  0.00000000000E+00 0. -1.
        -11    1    3    3    0    0  0.69927093797E+02  0.74726971531E+02 -0.38627564032E+03  0.39960328956E+03  0.00000000000E+00 0.  1.
         12    1    3    3    0    0 -0.13233045087E+00  0.93944800217E+01  0.36902893349E+00  0.94026564640E+01  0.00000000000E+00 0. -1.
          5    1    5    5  501    0 -0.12928851469E+03  0.70746600003E+02  0.50155426863E+02  0.15575062853E+03  0.47000000000E+01 0.  1.
         -5    1    5    5    0  501 -0.12443592895E+03  0.70952308091E+02 -0.74531912382E+02  0.16154140770E+03  0.47000000000E+01 0.  1.
          1    1    1    2  502    0  0.35975390073E+02 -0.58569536916E+02  0.28779502539E+03  0.29588949961E+03  0.00000000000E+00 0. -1.
          1    1    1    2  503    0  0.38208009815E+02 -0.45673817882E+02 -0.20638281203E+04  0.20646870125E+04  0.00000000000E+00 0. -1.
<mgrwt>
<rscale>  0 0.64052093E+02</rscale>
<asrwt>0</asrwt>
<pdfrwt beam="1">  1        2 0.67569517E-01 0.68897010E+02</pdfrwt>
<pdfrwt beam="2">  1        2 0.52117835E+00 0.59547877E+02</pdfrwt>
<totfact> 0.17880163E+01</totfact>
</mgrwt>
</event>
<event>
13    1  0.1942437E-008  0.1723045E+03  0.7546771E-02  0.1209861E+00
         -1   -1    0    0    0  501  0.00000000000E+00  0.00000000000E+00  0.94760578803E+03  0.94760578803E+03  0.00000000000E+00 0.  1.
         -3   -1    0    0    0  502 -0.00000000000E+00 -0.00000000000E+00 -0.14040552191E+04  0.14040552191E+04  0.00000000000E+00 0.  1.
         24    2    1    2    0    0 -0.32008215690E+02  0.30269894673E+02  0.53159856984E+02  0.11154554767E+03  0.87610766548E+02 0.  0.
         24    2    1    2    0    0 -0.49843979150E+02  0.81842600066E+02  0.86916670739E+02  0.15303988850E+03  0.81756139687E+02 0.  0.
         25    2    1    2    0    0 -0.15154177825E+03 -0.22948513331E+03  0.21027700012E+03  0.36806135008E+03  0.12499761468E+03 0.  0.
        -11    1    4    4    0    0  0.19684476843E+02  0.40297879575E+02  0.27805833638E+02  0.52768950256E+02  0.00000000000E+00 0.  1.
         12    1    4    4    0    0 -0.69528455993E+02  0.41544720491E+02  0.59110837100E+02  0.10027093824E+03  0.00000000000E+00 0. -1.
        -13    1    3    3    0    0  0.29456288922E+02  0.20173358070E+02  0.21452108881E+02  0.41651294197E+02  0.00000000000E+00 0.  1.
         14    1    3    3    0    0 -0.61464504612E+02  0.10096536604E+02  0.31707748103E+02  0.69894253472E+02  0.00000000000E+00 0. -1.
          5    1    5    5  503    0 -0.10237785936E+01 -0.42755125656E+02  0.89900106200E+02  0.99665279748E+02  0.47000000000E+01 0. -1.
         -5    1    5    5    0  503 -0.15051799965E+03 -0.18673000766E+03  0.12037689392E+03  0.26839607033E+03  0.47000000000E+01 0. -1.
         -2    1    1    2    0  501  0.15970590698E+03 -0.23097149379E+02  0.43663501256E+03  0.46549929026E+03  0.00000000000E+00 0.  1.
         -4    1    1    2    0  502  0.73688066107E+02  0.14046978795E+03 -0.12434379715E+04  0.12535149306E+04  0.00000000000E+00 0.  1.
<mgrwt>
<rscale>  0 0.14260923E+03</rscale>
<asrwt>0</asrwt>
<pdfrwt beam="1">  1       -1 0.13935379E+00 0.11803170E+03</pdfrwt>
<pdfrwt beam="2">  1       -3 0.20647871E+00 0.17230449E+03</pdfrwt>
<totfact> 0.32424680E-01</totfact>
</mgrwt>
</event>
<event>
13    1  0.1942437E-008  0.6148381E+02  0.7546771E-02  0.1533772E+00
          2   -1    0    0  503    0  0.00000000000E+00  0.00000000000E+00  0.13399495810E+04  0.13399495810E+04  0.00000000000E+00 0. -1.
          2   -1    0    0  502    0 -0.00000000000E+00 -0.00000000000E+00 -0.10581292143E+04  0.10581292143E+04  0.00000000000E+00 0. -1.
         24    2    1    2    0    0  0.28761811200E+03 -0.42332448405E+03 -0.19510311741E+03  0.55557325689E+03  0.93105425161E+02 0.  0.
         24    2    1    2    0    0 -0.23152115945E+02  0.31717669453E+03  0.18157764049E+03  0.37600965951E+03  0.85297998185E+02 0.  0.
         25    2    1    2    0    0 -0.29843176170E+03  0.12935016131E+03  0.35381305148E+03  0.49659193828E+03  0.12500758833E+03 0.  0.
        -11    1    4    4    0    0  0.23673710432E+02  0.14898888441E+03  0.55847587784E+02  0.16086356114E+03  0.00000000000E+00 0.  1.
         12    1    4    4    0    0 -0.46825826377E+02  0.16818781013E+03  0.12573005270E+03  0.21514609837E+03  0.00000000000E+00 0. -1.
        -13    1    3    3    0    0  0.16598149436E+03 -0.16442132250E+03 -0.75577796679E+02  0.24555290900E+03  0.00000000000E+00 0.  1.
         14    1    3    3    0    0  0.12163661763E+03 -0.25890316155E+03 -0.11952532074E+03  0.31002034789E+03  0.00000000000E+00 0. -1.
          5    1    5    5  501    0 -0.28286629598E+03  0.76480856274E+02  0.29370487997E+03  0.41490638618E+03  0.47000000000E+01 0. -1.
         -5    1    5    5    0  501 -0.15565465722E+02  0.52869305038E+02  0.60108171512E+02  0.81685552093E+02  0.47000000000E+01 0. -1.
          1    1    1    2  502    0  0.55711573418E+02 -0.26111849769E+02 -0.51207891024E+03  0.51576197846E+03  0.00000000000E+00 0. -1.
          1    1    1    2  503    0 -0.21745807771E+02  0.29094779782E+01  0.45361170240E+03  0.45414196213E+03  0.00000000000E+00 0. -1.
<mgrwt>
<rscale>  0 0.36727769E+02</rscale>
<asrwt>0</asrwt>
<pdfrwt beam="1">  1        2 0.19705141E+00 0.21939581E+02</pdfrwt>
<pdfrwt beam="2">  1        2 0.15560724E+00 0.61483808E+02</pdfrwt>
<totfact> 0.93638794E+01</totfact>
</mgrwt>
</event>
<event>
13    1  0.1942437E-008  0.5792026E+02  0.7546771E-02  0.1428791E+00
          2   -1    0    0  502    0  0.00000000000E+00  0.00000000000E+00  0.29553070210E+04  0.29553070210E+04  0.00000000000E+00 0. -1.
          2   -1    0    0  503    0 -0.00000000000E+00 -0.00000000000E+00 -0.13426371312E+04  0.13426371312E+04  0.00000000000E+00 0. -1.
         24    2    1    2    0    0 -0.10245095907E+03 -0.17256691406E+03 -0.26235556668E+03  0.34219785172E+03  0.89405746535E+02 0.  0.
         24    2    1    2    0    0  0.21920690828E+02  0.15575884533E+03  0.55439309133E+03  0.58198718113E+03  0.81339072405E+02 0.  0.
         25    2    1    2    0    0  0.63655571638E+02  0.36686228969E+02  0.43621484272E+03  0.45967828731E+03  0.12499131016E+03 0.  0.
        -11    1    3    3    0    0 -0.68579386946E+02 -0.15500439269E+03 -0.25009786074E+03  0.30212320999E+03  0.00000000000E+00 0.  1.
         12    1    3    3    0    0 -0.33871572128E+02 -0.17562521369E+02 -0.12257705939E+02  0.40074641734E+02  0.00000000000E+00 0. -1.
        -11    1    4    4    0    0  0.10560579393E+02 -0.60231689892E+01  0.73093256915E+02  0.74097426461E+02  0.00000000000E+00 0.  1.
         12    1    4    4    0    0  0.11360111435E+02  0.16178201431E+03  0.48129983442E+03  0.50788975467E+03  0.00000000000E+00 0. -1.
          5    1    5    5  501    0 -0.33488670645E+02  0.12148361908E+02  0.56661630329E+02  0.67094739810E+02  0.47000000000E+01 0.  1.
         -5    1    5    5    0  501  0.97144242283E+02  0.24537867062E+02  0.37955321239E+03  0.39258354750E+03  0.47000000000E+01 0.  1.
          1    1    1    2  502    0 -0.40618658013E+02 -0.27174592982E+02  0.18981069959E+04  0.18987360274E+04  0.00000000000E+00 0. -1.
          1    1    1    2  503    0  0.57493354621E+02  0.72964327422E+01 -0.10136894734E+04  0.10153448046E+04  0.00000000000E+00 0. -1.
<mgrwt>
<rscale>  0 0.53203356E+02</rscale>
<asrwt>0</asrwt>
<pdfrwt beam="1">  1        2 0.43460397E+00 0.48870583E+02</pdfrwt>
<pdfrwt beam="2">  1        2 0.19744664E+00 0.57920264E+02</pdfrwt>
<totfact> 0.10650881E+01</totfact>
</mgrwt>
</event>
<event>
13    1  0.1942437E-008  0.7513037E+02  0.7546771E-02  0.1353855E+00
          2   -1    0    0  502    0  0.00000000000E+00  0.00000000000E+00  0.11931743008E+04  0.11931743008E+04  0.00000000000E+00 0. -1.
          2   -1    0    0  503    0 -0.00000000000E+00 -0.00000000000E+00 -0.26132531650E+04  0.26132531650E+04  0.00000000000E+00 0. -1.
         24    2    1    2    0    0 -0.11784282632E+02 -0.25400759465E+02 -0.69638417121E+03  0.70157885500E+03  0.80485451863E+02 0.  0.
         24    2    1    2    0    0  0.38453419920E+02  0.30779442636E+02 -0.59469653248E+03  0.60219223451E+03  0.80904152986E+02 0.  0.
         25    2    1    2    0    0  0.99504779205E+01  0.23285568366E+02 -0.87431836052E+02  0.15463037393E+03  0.12499998753E+03 0.  0.
        -11    1    4    4    0    0  0.62534110782E+02  0.32404206191E+02 -0.42759972085E+03  0.43336136060E+03  0.00000000000E+00 0.  1.
         12    1    4    4    0    0 -0.24080690861E+02 -0.16247635554E+01 -0.16709681163E+03  0.16883087391E+03  0.00000000000E+00 0. -1.
        -13    1    3    3    0    0  0.12754758158E+02 -0.10413117156E+01 -0.16816104142E+02  0.21131718915E+02  0.00000000000E+00 0.  1.
         14    1    3    3    0    0 -0.24539040790E+02 -0.24359447749E+02 -0.67956806707E+03  0.68044713608E+03  0.00000000000E+00 0. -1.
          5    1    5    5  501    0 -0.46302273304E+02  0.76680936115E+01 -0.83534833830E+02  0.95931530978E+02  0.47000000000E+01 0.  1.
         -5    1    5    5    0  501  0.56252751225E+02  0.15617474754E+02 -0.38970022227E+01  0.58698842956E+02  0.47000000000E+01 0.  1.
          1    1    1    2  502    0 -0.67719754398E+02  0.32645042660E+02  0.11510137071E+04  0.11534661755E+04  0.00000000000E+00 0. -1.
          1    1    1    2  503    0  0.31100139189E+02 -0.61309294197E+02 -0.11925800316E+04  0.11945598268E+04  0.00000000000E+00 0. -1.
<mgrwt>
<rscale>  0 0.71867459E+02</rscale>
<asrwt>0</asrwt>
<pdfrwt beam="1">  1        2 0.17546681E+00 0.75130365E+02</pdfrwt>
<pdfrwt beam="2">  1        2 0.38430193E+00 0.68746260E+02</pdfrwt>
<totfact> 0.17588888E+01</totfact>
</mgrwt>
</event>
<event>
13    1  0.1942437E-008  0.8654493E+02  0.7546771E-02  0.1360707E+00
         -1   -1    0    0    0  501 -0.00000000000E+00  0.00000000000E+00  0.23835492429E+03  0.23835492429E+03  0.00000000000E+00 0.  1.
          2   -1    0    0  503    0  0.00000000000E+00 -0.00000000000E+00 -0.25668792097E+04  0.25668792097E+04  0.00000000000E+00 0. -1.
         24    2    1    2    0    0 -0.57070263066E+02 -0.10086441653E+02 -0.90222996915E+00  0.98863161719E+02  0.80089696557E+02 0.  0.
         24    2    1    2    0    0  0.18581061807E+02  0.36088650275E+00 -0.29040512795E+01  0.78849343089E+02  0.76572836533E+02 0.  0.
         25    2    1    2    0    0 -0.93039976822E+02  0.39694611445E+02 -0.35247403224E+03  0.38741244435E+03  0.12497343386E+03 0.  0.
        -11    1    4    4    0    0  0.39244817143E+02  0.93231375536E+01  0.21442455741E+02  0.45682113290E+02  0.00000000000E+00 0.  1.
         12    1    4    4    0    0 -0.20663755336E+02 -0.89622510509E+01 -0.24346507020E+02  0.33167229799E+02  0.00000000000E+00 0. -1.
        -13    1    3    3    0    0 -0.88155132607E+01 -0.35684264014E+02  0.18173389764E+02  0.41004293284E+02  0.00000000000E+00 0.  1.
         14    1    3    3    0    0 -0.48254749805E+02  0.25597822360E+02 -0.19075619733E+02  0.57858868435E+02  0.00000000000E+00 0. -1.
          5    1    5    5  502    0  0.30798597979E+02  0.94206487106E+01 -0.86655906746E+02  0.92566940285E+02  0.47000000000E+01 0.  1.
         -5    1    5    5    0  502 -0.12383857480E+03  0.30273962734E+02 -0.26581812549E+03  0.29484550407E+03  0.47000000000E+01 0.  1.
          1    1    1    2  503    0  0.56318064521E+02  0.98949692726E+00 -0.20934148354E+04  0.20941724801E+04  0.00000000000E+00 0. -1.
         -2    1    1    2    0  501  0.75211113560E+02 -0.30958553222E+02  0.12117086347E+03  0.14593670469E+03  0.00000000000E+00 0.  1.
<mgrwt>
<rscale>  0 0.69819732E+02</rscale>
<asrwt>0</asrwt>
<pdfrwt beam="2">  1        2 0.37748226E+00 0.56326756E+02</pdfrwt>
<pdfrwt beam="1">  1       -1 0.35052193E-01 0.86544926E+02</pdfrwt>
<totfact> 0.46466051E+01</totfact>
</mgrwt>
</event>
<event>
13    1  0.1942437E-008  0.3832027E+02  0.7546771E-02  0.1535608E+00
          2   -1    0    0  502    0  0.00000000000E+00  0.00000000000E+00  0.32167688030E+04  0.32167688030E+04  0.00000000000E+00 0. -1.
          2   -1    0    0  503    0 -0.00000000000E+00 -0.00000000000E+00 -0.20257569615E+03  0.20257569615E+03  0.00000000000E+00 0. -1.
         24    2    1    2    0    0  0.17823592841E+02 -0.55733026269E+02  0.30748764105E+03  0.32320048609E+03  0.80536042440E+02 0.  0.
         24    2    1    2    0    0  0.47825048764E+02  0.62164755056E+02  0.38587600186E+03  0.40156314937E+03  0.78746314550E+02 0.  0.
         25    2    1    2    0    0 -0.45638030019E+02  0.14120882914E+02  0.63064843704E+03  0.64468995916E+03  0.12500185274E+03 0.  0.
        -11    1    4    4    0    0  0.32306890193E+02  0.80516106031E+02  0.31468885386E+03  0.32642863421E+03  0.00000000000E+00 0.  1.
         12    1    4    4    0    0  0.15518158571E+02 -0.18351350974E+02  0.71187148000E+02  0.75134515160E+02  0.00000000000E+00 0. -1.
        -13    1    3    3    0    0  0.13474573160E+02 -0.58544520592E+02  0.31112511960E+03  0.31687200106E+03  0.00000000000E+00 0.  1.
         14    1    3    3    0    0  0.43490196815E+01  0.28114943226E+01 -0.36374785499E+01  0.63284850255E+01  0.00000000000E+00 0. -1.
          5    1    5    5  501    0 -0.82607852641E+02  0.35918071923E+02  0.40118733085E+03  0.41120254090E+03  0.47000000000E+01 0. -1.
         -5    1    5    5    0  501  0.36969822622E+02 -0.21797189009E+02  0.22946110619E+03  0.23348741826E+03  0.47000000000E+01 0. -1.
          1    1    1    2  502    0  0.17089259951E+02 -0.30292214212E+02  0.18678271645E+04  0.18681509515E+04  0.00000000000E+00 0. -1.
          1    1    1    2  503    0 -0.37099871538E+02  0.97396025113E+01 -0.17764613761E+03  0.18173995305E+03  0.00000000000E+00 0. -1.
<mgrwt>
<rscale>  0 0.36507342E+02</rscale>
<asrwt>0</asrwt>
<pdfrwt beam="1">  1        2 0.47305420E+00 0.34780182E+02</pdfrwt>
<pdfrwt beam="2">  1        2 0.29790546E-01 0.38320272E+02</pdfrwt>
<totfact> 0.69530115E+01</totfact>
</mgrwt>
</event>
<event>
13    1  0.1942437E-008  0.1454161E+03  0.7546771E-02  0.1300877E+00
          2   -1    0    0  502    0  0.00000000000E+00  0.00000000000E+00  0.12350012328E+04  0.12350012328E+04  0.00000000000E+00 0. -1.
          2   -1    0    0  503    0 -0.00000000000E+00 -0.00000000000E+00 -0.12498625955E+04  0.12498625955E+04  0.00000000000E+00 0. -1.
         24    2    1    2    0    0 -0.19958117464E+02 -0.75119787343E+02 -0.27797397419E+03  0.29942210170E+03  0.79641419831E+02 0.  0.
         24    2    1    2    0    0  0.58199420555E+02 -0.75186302255E+02 -0.15554349044E+03  0.19971663921E+03  0.81564734795E+02 0.  0.
         25    2    1    2    0    0 -0.93836071493E+02  0.23217200598E+03  0.57529339515E+03  0.63975960339E+03  0.12498324270E+03 0.  0.
        -11    1    3    3    0    0  0.21989597623E+02 -0.17381092374E+02 -0.15264895654E+03  0.15520099455E+03  0.00000000000E+00 0.  1.
         12    1    3    3    0    0 -0.41947715087E+02 -0.57738694968E+02 -0.12532501766E+03  0.14422110715E+03  0.00000000000E+00 0. -1.
        -11    1    4    4    0    0 -0.15031702540E+02  0.54560497535E+01 -0.15237570836E+02  0.22088551902E+02  0.00000000000E+00 0.  1.
         12    1    4    4    0    0  0.73231123095E+02 -0.80642352008E+02 -0.14030591960E+03  0.17762808731E+03  0.00000000000E+00 0. -1.
          5    1    5    5  501    0 -0.39570159981E+02  0.15638393341E+03  0.22271713651E+03  0.27503953368E+03  0.47000000000E+01 0. -1.
         -5    1    5    5    0  501 -0.54265911511E+02  0.75788072564E+02  0.35257625863E+03  0.36472006971E+03  0.47000000000E+01 0. -1.
          1    1    1    2  502    0  0.29068168322E+02  0.48708054503E+02  0.58737961975E+03  0.59011206620E+03  0.00000000000E+00 0. -1.
          1    1    1    2  503    0  0.26526600079E+02 -0.13057397088E+03 -0.74401691299E+03  0.75585341780E+03  0.00000000000E+00 0. -1.
<mgrwt>
<rscale>  0 0.90820436E+02</rscale>
<asrwt>0</asrwt>
<pdfrwt beam="1">  1        2 0.18161783E+00 0.56722420E+02</pdfrwt>
<pdfrwt beam="2">  1        2 0.18380332E+00 0.14541607E+03</pdfrwt>
<totfact> 0.73888619E+01</totfact>
</mgrwt>
</event>
<event>
13    1  0.1942437E-008  0.6565124E+02  0.7546771E-02  0.1605047E+00
          2   -1    0    0  502    0  0.00000000000E+00  0.00000000000E+00  0.77515883596E+03  0.77515883596E+03  0.00000000000E+00 0. -1.
          2   -1    0    0  503    0 -0.00000000000E+00 -0.00000000000E+00 -0.19492599420E+04  0.19492599420E+04  0.00000000000E+00 0. -1.
         24    2    1    2    0    0 -0.24964204304E+02 -0.16652746199E+03 -0.31897622344E+03  0.36946360528E+03  0.80018231759E+02 0.  0.
         24    2    1    2    0    0  0.68314622077E+02  0.11135017193E+03  0.47229019870E+02  0.16118780858E+03  0.81762955791E+02 0.  0.
         25    2    1    2    0    0 -0.26812022902E+02 -0.21079487755E+02  0.41622533785E+03  0.43592871269E+03  0.12500832494E+03 0.  0.
        -13    1    4    4    0    0  0.85882870347E+02  0.77836853331E+02  0.40343368766E+02  0.12272746457E+03  0.00000000000E+00 0.  1.
         14    1    4    4    0    0 -0.17568248270E+02  0.33513318598E+02  0.68856511042E+01  0.38460344017E+02  0.00000000000E+00 0. -1.
        -13    1    3    3    0    0 -0.50250294803E+02 -0.88332336989E+02 -0.20661797303E+03  0.23025785690E+03  0.00000000000E+00 0.  1.
         14    1    3    3    0    0  0.25286090500E+02 -0.78195125001E+02 -0.11235825041E+03  0.13920574838E+03  0.00000000000E+00 0. -1.
          5    1    5    5  501    0  0.18057618625E+02 -0.48702217551E+02  0.33473633915E+03  0.33877498481E+03  0.47000000000E+01 0. -1.
         -5    1    5    5    0  501 -0.44869641527E+02  0.27622729796E+02  0.81488998696E+02  0.97153727878E+02  0.47000000000E+01 0. -1.
          1    1    1    2  502    0 -0.65849243568E+01  0.11380048239E+02  0.21873204066E+03  0.21912684075E+03  0.00000000000E+00 0. -1.
          1    1    1    2  503    0 -0.99534705152E+01  0.64876729576E+02 -0.15373112810E+04  0.15387118107E+04  0.00000000000E+00 0. -1.
<mgrwt>
<rscale>  0 0.29379834E+02</rscale>
<asrwt>0</asrwt>
<pdfrwt beam="1">  1        2 0.11399395E+00 0.13147879E+02</pdfrwt>
<pdfrwt beam="2">  1        2 0.28665587E+00 0.65651244E+02</pdfrwt>
<totfact> 0.68114076E+01</totfact>
</mgrwt>
</event>
<event>
13    1  0.1942437E-008  0.1167991E+03  0.7546771E-02  0.1394527E+00
          2   -1    0    0  502    0  0.00000000000E+00  0.00000000000E+00  0.14175740598E+04  0.14175740598E+04  0.00000000000E+00 0. -1.
          2   -1    0    0  503    0 -0.00000000000E+00 -0.00000000000E+00 -0.14917127461E+04  0.14917127461E+04  0.00000000000E+00 0. -1.
         24    2    1    2    0    0  0.20903658236E+02 -0.37557690882E+03  0.46182927140E+02  0.38729475483E+03  0.79808439359E+02 0.  0.
         24    2    1    2    0    0  0.20040786321E+03  0.27925006302E+03  0.11158252006E+03  0.36794298175E+03  0.69191543623E+02 0.  0.
         25    2    1    2    0    0 -0.75788751470E+02  0.78015283293E+02  0.66137060182E+03  0.68181067809E+03  0.12499763408E+03 0.  0.
        -11    1    3    3    0    0 -0.22708164380E+02 -0.19602343185E+03  0.21480433035E+01  0.19734604291E+03  0.00000000000E+00 0.  1.
         12    1    3    3    0    0  0.43611822616E+02 -0.17955347697E+03  0.44034883836E+02  0.18994871191E+03  0.00000000000E+00 0. -1.
        -13    1    4    4    0    0  0.61752157397E+02  0.56301851516E+02  0.52946993169E+02  0.98927304183E+02  0.00000000000E+00 0.  1.
         14    1    4    4    0    0  0.13865570581E+03  0.22294821150E+03  0.58635526894E+02  0.26901567757E+03  0.00000000000E+00 0. -1.
          5    1    5    5  501    0  0.13884205108E+02  0.40383656873E+02  0.40997498889E+03  0.41221983505E+03  0.47000000000E+01 0. -1.
         -5    1    5    5    0  501 -0.89672956578E+02  0.37631626421E+02  0.25139561293E+03  0.26959084303E+03  0.47000000000E+01 0. -1.
          1    1    1    2  502    0 -0.31203762486E+02 -0.52602287289E+01  0.28572641863E+03  0.28747335720E+03  0.00000000000E+00 0. -1.
          1    1    1    2  503    0 -0.11431900749E+03  0.23571791238E+02 -0.11790011540E+04  0.11847650341E+04  0.00000000000E+00 0. -1.
<mgrwt>
<rscale>  0 0.60794680E+02</rscale>
<asrwt>0</asrwt>
<pdfrwt beam="1">  1        2 0.20846677E+00 0.31644033E+02</pdfrwt>
<pdfrwt beam="2">  1        2 0.21936952E+00 0.11679905E+03</pdfrwt>
<totfact> 0.47855681E+01</totfact>
</mgrwt>
</event>
<event>
13    1  0.1942437E-008  0.1478829E+03  0.7546771E-02  0.1340152E+00
          2   -1    0    0  502    0  0.00000000000E+00  0.00000000000E+00  0.19756735532E+04  0.19756735532E+04  0.00000000000E+00 0. -1.
          2   -1    0    0  503    0 -0.00000000000E+00 -0.00000000000E+00 -0.22832608337E+04  0.22832608337E+04  0.00000000000E+00 0. -1.
         24    2    1    2    0    0  0.96305964888E+01  0.43793070387E+01 -0.12266532392E+03  0.14747296740E+03  0.81176152301E+02 0.  0.
         24    2    1    2    0    0  0.92075708862E+02  0.33244089985E+03 -0.81998941090E+03  0.89338959863E+03  0.82264529989E+02 0.  0.
         25    2    1    2    0    0  0.40867514510E+02 -0.45321817392E+03  0.46230160100E+03  0.66062523244E+03  0.12500424208E+03 0.  0.
        -11    1    4    4    0    0  0.15788556458E+02  0.15030034065E+02 -0.20938664417E+02  0.30225950879E+02  0.00000000000E+00 0.  1.
         12    1    4    4    0    0  0.76287152404E+02  0.31741086579E+03 -0.79905074649E+03  0.86316364775E+03  0.00000000000E+00 0. -1.
        -13    1    3    3    0    0 -0.21237136790E+02  0.16596885803E+02 -0.80246799457E+01  0.28122376955E+02  0.00000000000E+00 0.  1.
         14    1    3    3    0    0  0.30867733279E+02 -0.12217578764E+02 -0.11464064397E+03  0.11935059044E+03  0.00000000000E+00 0. -1.
          5    1    5    5  501    0  0.23487516452E+02 -0.42507735271E+03  0.46051926579E+03  0.62717023477E+03  0.47000000000E+01 0.  1.
         -5    1    5    5    0  501  0.17379998057E+02 -0.28140821210E+02  0.17823352178E+01  0.33454997678E+02  0.47000000000E+01 0.  1.
          1    1    1    2  502    0 -0.12248175489E+03  0.82647414147E+02  0.13607824094E+04  0.13687808960E+04  0.00000000000E+00 0. -1.
          1    1    1    2  503    0 -0.20092064969E+02  0.33750552884E+02 -0.11880165561E+04  0.11886656925E+04  0.00000000000E+00 0. -1.
<mgrwt>
<rscale>  0 0.76214163E+02</rscale>
<asrwt>0</asrwt>
<pdfrwt beam="1">  1        2 0.29054023E+00 0.14788286E+03</pdfrwt>
<pdfrwt beam="2">  1        2 0.33577365E+00 0.39278377E+02</pdfrwt>
<totfact> 0.10592488E+01</totfact>
</mgrwt>
</event>
<event>
13    1  0.1942437E-008  0.1073044E+03  0.7546771E-02  0.1303257E+00
          2   -1    0    0  502    0  0.00000000000E+00  0.00000000000E+00  0.31565895490E+04  0.31565895490E+04  0.00000000000E+00 0. -1.
          2   -1    0    0  503    0 -0.00000000000E+00 -0.00000000000E+00 -0.23720187421E+04  0.23720187421E+04  0.00000000000E+00 0. -1.
         24    2    1    2    0    0  0.11794837015E+02 -0.51646294256E+02 -0.80851560686E+02  0.12611344162E+03  0.81001033341E+02 0.  0.
         24    2    1    2    0    0 -0.40952302049E+00  0.14410603831E+01  0.63138190386E+01  0.80090725590E+02  0.79827411649E+02 0.  0.
         25    2    1    2    0    0 -0.77839659298E+02 -0.58647255330E+02  0.82861721327E+02  0.17885399270E+03  0.12499669086E+03 0.  0.
        -11    1    4    4    0    0 -0.31183723218E+02 -0.21808434200E+02  0.14393535075E+02  0.40684226033E+02  0.00000000000E+00 0.  1.
         12    1    4    4    0    0  0.30774200197E+02  0.23249494583E+02 -0.80797160361E+01  0.39406499557E+02  0.00000000000E+00 0. -1.
        -13    1    3    3    0    0 -0.32593258851E+02 -0.13281071852E+02 -0.45832206974E+02  0.57786664449E+02  0.00000000000E+00 0.  1.
         14    1    3    3    0    0  0.44388095865E+02 -0.38365222405E+02 -0.35019353711E+02  0.68326777174E+02  0.00000000000E+00 0. -1.
          5    1    5    5  501    0  0.29907732379E+02 -0.31837152622E+02  0.74750537665E+01  0.44565044283E+02  0.47000000000E+01 0.  1.
         -5    1    5    5    0  501 -0.10774739168E+03 -0.26810102708E+02  0.75386667560E+02  0.13428894841E+03  0.47000000000E+01 0.  1.
          1    1    1    2  502    0 -0.32780552430E+02  0.67686328794E+02  0.29580988218E+04  0.29590546874E+04  0.00000000000E+00 0. -1.
          1    1    1    2  503    0  0.99234897734E+02  0.41166160409E+02 -0.21818519946E+04  0.21844954438E+04  0.00000000000E+00 0. -1.
<mgrwt>
<rscale>  0 0.89833041E+02</rscale>
<asrwt>0</asrwt>
<pdfrwt beam="1">  1        2 0.46420435E+00 0.75206407E+02</pdfrwt>
<pdfrwt beam="2">  1        2 0.34882628E+00 0.10730436E+03</pdfrwt>
<totfact> 0.23298370E+00</totfact>
</mgrwt>
</event>
<event>
13    1  0.1942437E-008  0.1307897E+03  0.7546771E-02  0.1343590E+00
         -1   -1    0    0    0  501 -0.00000000000E+00  0.00000000000E+00  0.11307336390E+04  0.11307336390E+04  0.00000000000E+00 0.  1.
          2   -1    0    0  503    0  0.00000000000E+00 -0.00000000000E+00 -0.39947666699E+03  0.39947666699E+03  0.00000000000E+00 0. -1.
         24    2    1    2    0    0  0.39460969344E+02  0.41194144024E-01  0.17960045932E+03  0.20030972385E+03  0.79438596927E+02 0.  0.
         24    2    1    2    0    0  0.51073702931E+01 -0.35146082922E+02  0.15262399406E+03  0.17555812134E+03  0.79153256582E+02 0.  0.
         25    2    1    2    0    0 -0.19171942648E+03  0.47869138593E+02  0.26247783263E+03  0.35152338459E+03  0.12500513737E+03 0.  0.
        -13    1    4    4    0    0  0.40769598032E+02 -0.12491680088E+02  0.94755900581E+02  0.10390805017E+03  0.00000000000E+00 0.  1.
         14    1    4    4    0    0 -0.35662227739E+02 -0.22654402834E+02  0.57868093482E+02  0.71650071167E+02  0.00000000000E+00 0. -1.
        -13    1    3    3    0    0  0.41511724750E+02 -0.32398606141E+02  0.13665879157E+03  0.14645312658E+03  0.00000000000E+00 0.  1.
         14    1    3    3    0    0 -0.20507554060E+01  0.32439800285E+02  0.42941667753E+02  0.53856597272E+02  0.00000000000E+00 0. -1.
          5    1    5    5  502    0 -0.20094777164E+03  0.67062590185E+02  0.23458501708E+03  0.31611646299E+03  0.47000000000E+01 0.  1.
         -5    1    5    5    0  502  0.92283451567E+01 -0.19193451592E+02  0.27892815543E+02  0.35406921602E+02  0.47000000000E+01 0.  1.
          1    1    1    2  503    0  0.11963311115E+03 -0.45951809409E+02 -0.31975326546E+03  0.34447902816E+03  0.00000000000E+00 0. -1.
         -2    1    1    2    0  501  0.27517975698E+02  0.33187559594E+02  0.45630795148E+03  0.45834004809E+03  0.00000000000E+00 0.  1.
<mgrwt>
<rscale>  0 0.75090734E+02</rscale>
<asrwt>0</asrwt>
<pdfrwt beam="2">  1        2 0.58746569E-01 0.13078970E+03</pdfrwt>
<pdfrwt beam="1">  1       -1 0.16628436E+00 0.43112099E+02</pdfrwt>
<totfact> 0.31770283E+01</totfact>
</mgrwt>
</event>
<event>
13    1  0.1942437E-008  0.7761061E+02  0.7546771E-02  0.1442670E+00
         -3   -1    0    0    0  501 -0.00000000000E+00  0.00000000000E+00  0.53523679265E+03  0.53523679265E+03  0.00000000000E+00 0.  1.
          2   -1    0    0  503    0  0.00000000000E+00 -0.00000000000E+00 -0.44872590573E+03  0.44872590573E+03  0.00000000000E+00 0. -1.
         24    2    1    2    0    0  0.55985574430E+02  0.15741890580E+00  0.35323734321E+02  0.10408602276E+03  0.80322628213E+02 0.  0.
         24    2    1    2    0    0  0.22172503165E+02 -0.15631588800E+02 -0.61494629894E+02  0.10219891208E+03  0.76987412346E+02 0.  0.
         25    2    1    2    0    0 -0.52036065615E+02 -0.65311479167E+02 -0.12628948372E+03  0.19633377523E+03  0.12499830464E+03 0.  0.
        -11    1    3    3    0    0  0.69965262594E+02  0.18455819584E+02  0.36470687541E+02  0.81030033297E+02  0.00000000000E+00 0.  1.
         12    1    3    3    0    0 -0.13979688164E+02 -0.18298400678E+02 -0.11469532199E+01  0.23055989465E+02  0.00000000000E+00 0. -1.
        -13    1    4    4    0    0 -0.15922002549E+02  0.18167253753E+02 -0.40409591753E+02  0.47079659937E+02  0.00000000000E+00 0.  1.
         14    1    4    4    0    0  0.38094505714E+02 -0.33798842553E+02 -0.21085038141E+02  0.55119252144E+02  0.00000000000E+00 0. -1.
          5    1    5    5  502    0 -0.40067454165E+02 -0.84412060675E+02 -0.14085020903E+03  0.16909071014E+03  0.47000000000E+01 0.  1.
         -5    1    5    5    0  502 -0.11968611450E+02  0.19100581508E+02  0.14560725312E+02  0.27243065092E+02  0.47000000000E+01 0.  1.
          1    1    1    2  503    0  0.24461929315E+02  0.21937698610E+02 -0.16589005406E+03  0.16911285771E+03  0.00000000000E+00 0. -1.
         -4    1    1    2    0  501 -0.50583941295E+02  0.58847950451E+02  0.40486132026E+03  0.41223113060E+03  0.00000000000E+00 0.  1.
<mgrwt>
<rscale>  0 0.50498811E+02</rscale>
<asrwt>0</asrwt>
<pdfrwt beam="2">  1        2 0.65989103E-01 0.32858007E+02</pdfrwt>
<pdfrwt beam="1">  1       -3 0.78711294E-01 0.77610609E+02</pdfrwt>
<totfact> 0.69624990E+01</totfact>
</mgrwt>
</event>
<event>
13    1  0.1942437E-008  0.7923595E+02  0.7546771E-02  0.1353576E+00
          2   -1    0    0  502    0  0.00000000000E+00  0.00000000000E+00  0.32998863409E+04  0.32998863409E+04  0.00000000000E+00 0. -1.
          2   -1    0    0  503    0 -0.00000000000E+00 -0.00000000000E+00 -0.26260098145E+04  0.26260098145E+04  0.00000000000E+00 0. -1.
         24    2    1    2    0    0  0.11885705535E+02 -0.15524706839E+03 -0.49753534974E+03  0.52696036229E+03  0.76830182479E+02 0.  0.
         24    2    1    2    0    0  0.27425751089E+01  0.70219882731E+02  0.32049415756E+02  0.11165250803E+03  0.80627314548E+02 0.  0.
         25    2    1    2    0    0 -0.22172199585E+02  0.55749214474E+02  0.12134443143E+04  0.12213426357E+04  0.12502459177E+03 0.  0.
        -13    1    3    3    0    0 -0.24913687465E+02 -0.31324824216E+02 -0.73923703902E+02  0.84063371535E+02  0.00000000000E+00 0.  1.
         14    1    3    3    0    0  0.36799393001E+02 -0.12392224417E+03 -0.42361164584E+03  0.44289699075E+03  0.00000000000E+00 0. -1.
        -13    1    4    4    0    0  0.40968077268E+02  0.45038116812E+02  0.22388520594E+02  0.64869570488E+02  0.00000000000E+00 0.  1.
         14    1    4    4    0    0 -0.38225502159E+02  0.25181765919E+02  0.96608951619E+01  0.46782937546E+02  0.00000000000E+00 0. -1.
          5    1    5    5  501    0  0.45086843269E+02  0.64555459906E+01  0.66507622979E+03  0.66665056734E+03  0.47000000000E+01 0. -1.
         -5    1    5    5    0  501 -0.67259042854E+02  0.49293668483E+02  0.54836808451E+03  0.55469206836E+03  0.47000000000E+01 0. -1.
          1    1    1    2  502    0  0.72848642021E+02  0.31385683991E+02  0.19946253004E+04  0.19962019123E+04  0.00000000000E+00 0. -1.
          1    1    1    2  503    0 -0.65304723081E+02 -0.21077128105E+01 -0.20687071543E+04  0.20697387370E+04  0.00000000000E+00 0. -1.
<mgrwt>
<rscale>  0 0.71952597E+02</rscale>
<asrwt>0</asrwt>
<pdfrwt beam="1">  1        2 0.48527740E+00 0.79235951E+02</pdfrwt>
<pdfrwt beam="2">  1        2 0.38617791E+00 0.65338727E+02</pdfrwt>
<totfact> 0.15411765E+00</totfact>
</mgrwt>
</event>
<event>
13    1  0.1942437E-008  0.1124496E+03  0.7546771E-02  0.1500097E+00
          2   -1    0    0  503    0  0.00000000000E+00  0.00000000000E+00  0.13187828338E+04  0.13187828338E+04  0.00000000000E+00 0. -1.
          2   -1    0    0  502    0 -0.00000000000E+00 -0.00000000000E+00 -0.76626778739E+03  0.76626778739E+03  0.00000000000E+00 0. -1.
         24    2    1    2    0    0 -0.19522116967E+03  0.24714710281E+01 -0.58111170599E+03  0.61825337532E+03  0.80181095013E+02 0.  0.
         24    2    1    2    0    0  0.46410031287E+02  0.31435768335E+02  0.20360736385E+03  0.22580475189E+03  0.79935779397E+02 0.  0.
         25    2    1    2    0    0  0.33937928584E+02 -0.37181086305E+02  0.38374226020E+03  0.40671497247E+03  0.12499892158E+03 0.  0.
        -11    1    4    4    0    0  0.46314428501E+02  0.35908370573E+02  0.66554330767E+02  0.88678725230E+02  0.00000000000E+00 0.  1.
         12    1    4    4    0    0  0.95602786506E-01 -0.44726022376E+01  0.13705303308E+03  0.13712602666E+03  0.00000000000E+00 0. -1.
        -13    1    3    3    0    0 -0.68752506706E+02 -0.13252870405E+02 -0.11154561387E+03  0.13170030268E+03  0.00000000000E+00 0.  1.
         14    1    3    3    0    0 -0.12646866297E+03  0.15724341433E+02 -0.46956609212E+03  0.48655307264E+03  0.00000000000E+00 0. -1.
          5    1    5    5  501    0 -0.61520540838E+01 -0.28441451318E+02  0.35541200128E+03  0.35663222594E+03  0.47000000000E+01 0. -1.
         -5    1    5    5    0  501  0.40089982668E+02 -0.87396349870E+01  0.28330258914E+02  0.50082746532E+02  0.47000000000E+01 0. -1.
          1    1    1    2  502    0  0.10961544287E+03 -0.10816934381E+02 -0.12283989892E+03  0.16499149115E+03  0.00000000000E+00 0. -1.
          1    1    1    2  503    0  0.52577669333E+01  0.14090781323E+02  0.66911702724E+03  0.66928603031E+03  0.00000000000E+00 0. -1.
<mgrwt>
<rscale>  0 0.41124381E+02</rscale>
<asrwt>0</asrwt>
<pdfrwt beam="1">  1        2 0.19393865E+00 0.15039755E+02</pdfrwt>
<pdfrwt beam="2">  1        2 0.11268644E+00 0.11244962E+03</pdfrwt>
<totfact> 0.14429664E+02</totfact>
</mgrwt>
</event>
<event>
13    1  0.1942437E-008  0.1341074E+03  0.7546771E-02  0.1493639E+00
          2   -1    0    0  502    0  0.00000000000E+00  0.00000000000E+00  0.90313752747E+03  0.90313752747E+03  0.00000000000E+00 0. -1.
          2   -1    0    0  503    0 -0.00000000000E+00 -0.00000000000E+00 -0.24738570180E+04  0.24738570180E+04  0.00000000000E+00 0. -1.
         24    2    1    2    0    0 -0.28089169802E+02  0.19768616384E+02 -0.46627296987E+02  0.97528315939E+02  0.78472083772E+02 0.  0.
         24    2    1    2    0    0  0.68677325734E+01  0.18261476050E+02 -0.24109806949E+03  0.25494247145E+03  0.80540284206E+02 0.  0.
         25    2    1    2    0    0 -0.15824169534E+03  0.92863066627E+02  0.34707256833E+02  0.22470791902E+03  0.12500028761E+03 0.  0.
        -11    1    4    4    0    0 -0.21541866994E+02 -0.23717581202E+02 -0.86231902080E+02  0.91991937842E+02  0.00000000000E+00 0.  1.
         12    1    4    4    0    0  0.28409599567E+02  0.41979057252E+02 -0.15486616741E+03  0.16295053361E+03  0.00000000000E+00 0. -1.
        -13    1    3    3    0    0  0.25096823740E+02  0.16924258738E+02 -0.27617147259E+02  0.40975455073E+02  0.00000000000E+00 0.  1.
         14    1    3    3    0    0 -0.53185993542E+02  0.28443576457E+01 -0.19010149728E+02  0.56552860866E+02  0.00000000000E+00 0. -1.
          5    1    5    5  501    0 -0.11271246569E+03  0.47497137785E+02 -0.37411048554E+02  0.12799122850E+03  0.47000000000E+01 0.  1.
         -5    1    5    5    0  501 -0.45529229659E+02  0.45365928842E+02  0.72118305387E+02  0.96716690519E+02  0.47000000000E+01 0.  1.
          1    1    1    2  502    0 -0.86281244924E+01 -0.99707225107E+01  0.73492622988E+03  0.73504450424E+03  0.00000000000E+00 0. -1.
          1    1    1    2  503    0  0.18809125707E+03 -0.12092243655E+03 -0.20526276107E+04  0.20647713348E+04  0.00000000000E+00 0. -1.
<mgrwt>
<rscale>  0 0.42050992E+02</rscale>
<asrwt>0</asrwt>
<pdfrwt beam="1">  1        2 0.13281434E+00 0.13185592E+02</pdfrwt>
<pdfrwt beam="2">  1        2 0.36380250E+00 0.13410744E+03</pdfrwt>
<totfact> 0.29557321E+01</totfact>
</mgrwt>
</event>
<event>
13    1  0.1942437E-008  0.2007508E+03  0.7546771E-02  0.1282131E+00
          2   -1    0    0  503    0  0.00000000000E+00  0.00000000000E+00  0.17365520647E+04  0.17365520647E+04  0.00000000000E+00 0. -1.
          2   -1    0    0  502    0 -0.00000000000E+00 -0.00000000000E+00 -0.23090594053E+04  0.23090594053E+04  0.00000000000E+00 0. -1.
         24    2    1    2    0    0  0.75218287311E+01  0.76548545244E+01 -0.53038582752E+02  0.94335110465E+02  0.77271256629E+02 0.  0.
         24    2    1    2    0    0 -0.30594600868E+02  0.26856837279E+02  0.11637637926E+03  0.14734934970E+03  0.80691076920E+02 0.  0.
         25    2    1    2    0    0 -0.78246958343E+02  0.80021263905E+02  0.35804266175E+03  0.39538381074E+03  0.12493126509E+03 0.  0.
        -11    1    4    4    0    0 -0.50050212330E+02  0.31906203748E+02  0.11203346328E+03  0.12678535596E+03  0.00000000000E+00 0.  1.
         12    1    4    4    0    0  0.19455611462E+02 -0.50493664691E+01  0.43429159855E+01  0.20563993736E+02  0.00000000000E+00 0. -1.
        -13    1    3    3    0    0 -0.21944179919E+02 -0.22942707962E+02 -0.37426640849E+02  0.49078185848E+02  0.00000000000E+00 0.  1.
         14    1    3    3    0    0  0.29466008650E+02  0.30597562486E+02 -0.15611941903E+02  0.45256924617E+02  0.00000000000E+00 0. -1.
          5    1    5    5  501    0  0.18836342399E+02  0.56297198259E+02  0.78886963250E+02  0.98840403164E+02  0.47000000000E+01 0. -1.
         -5    1    5    5    0  501 -0.97083300742E+02  0.23724065646E+02  0.27915569850E+03  0.29654340758E+03  0.47000000000E+01 0. -1.
          1    1    1    2  502    0  0.13239661786E+03 -0.15235593780E+03 -0.21960892076E+04  0.22053455520E+04  0.00000000000E+00 0. -1.
          1    1    1    2  503    0 -0.31076887381E+02  0.37822982088E+02  0.12022014087E+04  0.12031976471E+04  0.00000000000E+00 0. -1.
<mgrwt>
<rscale>  0 0.99132537E+02</rscale>
<asrwt>0</asrwt>
<pdfrwt beam="1">  1        2 0.25537531E+00 0.48952537E+02</pdfrwt>
<pdfrwt beam="2">  1        2 0.33956756E+00 0.20075078E+03</pdfrwt>
<totfact> 0.12245207E+01</totfact>
</mgrwt>
</event>
<event>
13    1  0.1942437E-008  0.6447231E+02  0.7546771E-02  0.1443871E+00
          2   -1    0    0  503    0  0.00000000000E+00  0.00000000000E+00  0.36562466634E+03  0.36562466634E+03  0.00000000000E+00 0. -1.
          2   -1    0    0  502    0 -0.00000000000E+00 -0.00000000000E+00 -0.11861776616E+04  0.11861776616E+04  0.00000000000E+00 0. -1.
         24    2    1    2    0    0 -0.12053225060E+02  0.37923116554E+02 -0.47459576373E+03  0.48284433446E+03  0.79461118547E+02 0.  0.
         24    2    1    2    0    0  0.37776422170E+01  0.18357865458E+02 -0.70944072101E+00  0.81778813054E+02  0.79598926837E+02 0.  0.
         25    2    1    2    0    0 -0.13811389960E+02 -0.11708741430E+03 -0.14104137164E+02  0.17239033867E+03  0.12497713832E+03 0.  0.
        -11    1    3    3    0    0 -0.41157208513E+02  0.22037906082E+02 -0.16498537464E+03  0.17146357911E+03  0.00000000000E+00 0.  1.
         12    1    3    3    0    0  0.29103983453E+02  0.15885210472E+02 -0.30961038909E+03  0.31138075535E+03  0.00000000000E+00 0. -1.
        -13    1    4    4    0    0  0.36831551015E+02 -0.74735229279E+01  0.91619893398E+01  0.38682796484E+02  0.00000000000E+00 0.  1.
         14    1    4    4    0    0 -0.33053908798E+02  0.25831388386E+02 -0.98714300608E+01  0.43096016570E+02  0.00000000000E+00 0. -1.
          5    1    5    5  501    0 -0.20610028430E+02  0.12114425380E+02  0.27179691280E+02  0.36501482055E+02  0.47000000000E+01 0.  1.
         -5    1    5    5    0  501  0.67986384698E+01 -0.12920183968E+03 -0.41283828444E+02  0.13588885662E+03  0.47000000000E+01 0.  1.
          1    1    1    2  502    0  0.39175465584E+02 -0.14447730319E+01 -0.56797038826E+03  0.56932167218E+03  0.00000000000E+00 0. -1.
          1    1    1    2  503    0 -0.17088492781E+02  0.62251205319E+02  0.23682673457E+03  0.24546716961E+03  0.00000000000E+00 0. -1.
<mgrwt>
<rscale>  0 0.50273750E+02</rscale>
<asrwt>0</asrwt>
<pdfrwt beam="1">  1        2 0.53768333E-01 0.64472313E+02</pdfrwt>
<pdfrwt beam="2">  1        2 0.17443789E+00 0.39202098E+02</pdfrwt>
<totfact> 0.35258126E+02</totfact>
</mgrwt>
</event>
<event>
13    1  0.1942437E-008  0.7954170E+02  0.7546771E-02  0.1412045E+00
         -1   -1    0    0    0  501  0.00000000000E+00  0.00000000000E+00  0.21818205757E+03  0.21818205757E+03  0.00000000000E+00 0.  1.
         -1   -1    0    0    0  502 -0.00000000000E+00 -0.00000000000E+00 -0.18182153095E+04  0.18182153095E+04  0.00000000000E+00 0.  1.
         24    2    1    2    0    0  0.32877123272E+02  0.41355977034E+02 -0.82602002632E+03  0.83152928880E+03  0.79628212209E+02 0.  0.
         24    2    1    2    0    0 -0.12178051476E+02 -0.67454039688E+02 -0.15954222075E+03  0.19135940843E+03  0.80413621890E+02 0.  0.
         25    2    1    2    0    0 -0.57896996339E+02  0.43600311244E+02 -0.65676461271E+02  0.15872013612E+03  0.12500253885E+03 0.  0.
        -11    1    3    3    0    0  0.17132258399E+02  0.46246312172E+02 -0.79385152200E+03  0.79538196777E+03  0.00000000000E+00 0.  1.
         12    1    3    3    0    0  0.15744864874E+02 -0.48903351377E+01 -0.32168504317E+02  0.36147321030E+02  0.00000000000E+00 0. -1.
        -13    1    4    4    0    0 -0.58904723051E+01 -0.84983149114E+02 -0.14299955668E+03  0.16645031243E+03  0.00000000000E+00 0.  1.
         14    1    4    4    0    0 -0.62875791708E+01  0.17529109426E+02 -0.16542664067E+02  0.24909096000E+02  0.00000000000E+00 0. -1.
          5    1    5    5  503    0 -0.36916778206E+02 -0.10339351376E+02 -0.88318578684E+02  0.96395083074E+02  0.47000000000E+01 0. -1.
         -5    1    5    5    0  503 -0.20980218133E+02  0.53939662621E+02  0.22642117413E+02  0.62325053048E+02  0.47000000000E+01 0. -1.
         -2    1    1    2    0  501  0.64040945767E+02 -0.47795106275E+02  0.14192979730E+03  0.16287934884E+03  0.00000000000E+00 0.  1.
         -2    1    1    2    0  502 -0.26843021224E+02  0.30292857685E+02 -0.69072434087E+03  0.69190918486E+03  0.00000000000E+00 0.  1.
<mgrwt>
<rscale>  0 0.56740022E+02</rscale>
<asrwt>0</asrwt>
<pdfrwt beam="1">  1       -1 0.32085598E-01 0.79541702E+02</pdfrwt>
<pdfrwt beam="2">  1       -1 0.26738459E+00 0.40474745E+02</pdfrwt>
<totfact> 0.58439003E+00</totfact>
</mgrwt>
</event>
<event>
13    1  0.1942437E-008  0.5026074E+02  0.7546771E-02  0.1469171E+00
          2   -1    0    0  503    0  0.00000000000E+00  0.00000000000E+00  0.29133095065E+04  0.29133095065E+04  0.00000000000E+00 0. -1.
          2   -1    0    0  502    0 -0.00000000000E+00 -0.00000000000E+00 -0.33894109909E+04  0.33894109909E+04  0.00000000000E+00 0. -1.
         24    2    1    2    0    0  0.71364224243E+03  0.42649133418E+03 -0.63937640910E+03  0.10536077384E+04  0.10053340579E+03 0.  0.
         24    2    1    2    0    0 -0.50403274006E+03 -0.24181505319E+03  0.10232667604E+03  0.57389638934E+03  0.79767123947E+02 0.  0.
         25    2    1    2    0    0 -0.23323497792E+03 -0.21377664546E+03  0.46236532526E+03  0.57402682257E+03  0.12500435976E+03 0.  0.
        -13    1    3    3    0    0  0.46534288326E+02  0.20684627777E+02 -0.72910329788E+02  0.88933739413E+02  0.00000000000E+00 0.  1.
         14    1    3    3    0    0  0.66710795411E+03  0.40580670640E+03 -0.56646607932E+03  0.96467399903E+03  0.00000000000E+00 0. -1.
        -13    1    4    4    0    0 -0.22346903213E+03 -0.13552888250E+03  0.16665778144E+02  0.26188591882E+03  0.00000000000E+00 0.  1.
         14    1    4    4    0    0 -0.28056370793E+03 -0.10628617070E+03  0.85660897891E+02  0.31201047052E+03  0.00000000000E+00 0. -1.
          5    1    5    5  501    0 -0.14708137425E+03 -0.71427172248E+02  0.29887340236E+03  0.34070833894E+03  0.47000000000E+01 0.  1.
         -5    1    5    5    0  501 -0.86153603673E+02 -0.14234947321E+03  0.16349192290E+03  0.23331848363E+03  0.47000000000E+01 0.  1.
          1    1    1    2  502    0  0.50166283203E+02 -0.32004175977E+01 -0.22507864450E+04  0.22513477118E+04  0.00000000000E+00 0. -1.
          1    1    1    2  503    0 -0.26540807654E+02  0.32300782073E+02  0.18493693683E+04  0.18498418352E+04  0.00000000000E+00 0. -1.
<mgrwt>
<rscale>  0 0.45838940E+02</rscale>
<asrwt>0</asrwt>
<pdfrwt beam="1">  1        2 0.42842787E+00 0.41806160E+02</pdfrwt>
<pdfrwt beam="2">  1        2 0.49844279E+00 0.50260737E+02</pdfrwt>
<totfact> 0.11500119E+00</totfact>
</mgrwt>
</event>
<event>
13    1  0.1942437E-008  0.1593658E+03  0.7546771E-02  0.1239720E+00
          2   -1    0    0  502    0  0.00000000000E+00  0.00000000000E+00  0.12377539545E+04  0.12377539545E+04  0.00000000000E+00 0. -1.
          2   -1    0    0  503    0 -0.00000000000E+00 -0.00000000000E+00 -0.14418217211E+04  0.14418217211E+04  0.00000000000E+00 0. -1.
         24    2    1    2    0    0 -0.21736445573E+03 -0.15304409833E+03 -0.52430276268E+03  0.59333635743E+03  0.80528525611E+02 0.  0.
         24    2    1    2    0    0  0.13295138778E+03  0.30759352080E+03 -0.93547560073E+02  0.35820586394E+03  0.85266930380E+02 0.  0.
         25    2    1    2    0    0 -0.18428747268E+02 -0.71655925740E+02  0.27483718096E+03  0.31086197814E+03  0.12500201198E+03 0.  0.
        -11    1    4    4    0    0  0.70369501158E+02  0.25331333067E+03 -0.73033699893E+02  0.27286156107E+03  0.00000000000E+00 0.  1.
         12    1    4    4    0    0  0.62581886621E+02  0.54280190129E+02 -0.20513860179E+02  0.85344302873E+02  0.00000000000E+00 0. -1.
        -11    1    3    3    0    0 -0.15333414435E+03 -0.14102155826E+03 -0.43972018448E+03  0.48657196832E+03  0.00000000000E+00 0.  1.
         12    1    3    3    0    0 -0.64030311380E+02 -0.12022540075E+02 -0.84582578201E+02  0.10676438910E+03  0.00000000000E+00 0. -1.
          5    1    5    5  501    0 -0.20315912781E+01 -0.13439973576E+01  0.22003465093E+03  0.22009832190E+03  0.47000000000E+01 0.  1.
         -5    1    5    5    0  501 -0.16397155990E+02 -0.70311928383E+02  0.54802530029E+02  0.90763656245E+02  0.47000000000E+01 0.  1.
          1    1    1    2  502    0  0.61637810146E+02  0.70310695728E+02  0.76532365586E+03  0.77101433955E+03  0.00000000000E+00 0. -1.
          1    1    1    2  503    0  0.41204005068E+02 -0.15320419245E+03 -0.62637828062E+03  0.64615713650E+03  0.00000000000E+00 0. -1.
<mgrwt>
<rscale>  0 0.12207040E+03</rscale>
<asrwt>0</asrwt>
<pdfrwt beam="1">  1        2 0.18202264E+00 0.93503014E+02</pdfrwt>
<pdfrwt beam="2">  1        2 0.21203261E+00 0.15936580E+03</pdfrwt>
<totfact> 0.56337806E+01</totfact>
</mgrwt>
</event>
<event>
13    1  0.1942437E-008  0.1147584E+03  0.7546771E-02  0.1503774E+00
          2   -1    0    0  502    0  0.00000000000E+00  0.00000000000E+00  0.27842316635E+04  0.27842316635E+04  0.00000000000E+00 0. -1.
          2   -1    0    0  503    0 -0.00000000000E+00 -0.00000000000E+00 -0.99474215285E+03  0.99474215285E+03  0.00000000000E+00 0. -1.
         24    2    1    2    0    0  0.68580829920E+02 -0.66929973473E+02  0.27238076705E+03  0.30019776515E+03  0.82124687906E+02 0.  0.
         24    2    1    2    0    0 -0.18049205391E+03  0.42901028434E+02  0.34305012945E+03  0.39736774728E+03  0.76156782392E+02 0.  0.
         25    2    1    2    0    0  0.22756389127E+03  0.81414832575E+02  0.19388521489E+04  0.19578522004E+04  0.12499553504E+03 0.  0.
        -11    1    3    3    0    0  0.52171222327E+02 -0.81855817578E+02  0.25209950028E+03  0.27014138770E+03  0.00000000000E+00 0.  1.
         12    1    3    3    0    0  0.16409607593E+02  0.14925844104E+02  0.20281266772E+02  0.30056377451E+02  0.00000000000E+00 0. -1.
        -13    1    4    4    0    0 -0.12177156329E+03  0.42459014831E+02  0.29331720490E+03  0.32041545571E+03  0.00000000000E+00 0.  1.
         14    1    4    4    0    0 -0.58720490623E+02  0.44201360312E+00  0.49732924542E+02  0.76952291574E+02  0.00000000000E+00 0. -1.
          5    1    5    5  501    0  0.37014996838E+01  0.82548127237E+01  0.87683803039E+01  0.13446840750E+02  0.47000000000E+01 0. -1.
         -5    1    5    5    0  501  0.22386239159E+03  0.73160019851E+02  0.19300837686E+04  0.19444053596E+04  0.47000000000E+01 0. -1.
          1    1    1    2  502    0 -0.12760863025E+02 -0.66082471295E+01  0.17560081568E+03  0.17618784017E+03  0.00000000000E+00 0. -1.
          1    1    1    2  503    0 -0.10289180426E+03 -0.50777640406E+02 -0.94039435041E+03  0.94736826336E+03  0.00000000000E+00 0. -1.
<mgrwt>
<rscale>  0 0.40609425E+02</rscale>
<asrwt>0</asrwt>
<pdfrwt beam="1">  1        2 0.40944583E+00 0.14370406E+02</pdfrwt>
<pdfrwt beam="2">  1        2 0.14628561E+00 0.11475844E+03</pdfrwt>
<totfact> 0.23667809E+01</totfact>
</mgrwt>
</event>
<event>
13    1  0.1942437E-008  0.1228403E+03  0.7546771E-02  0.1338140E+00
          2   -1    0    0  503    0  0.00000000000E+00  0.00000000000E+00  0.19904372117E+04  0.19904372117E+04  0.00000000000E+00 0. -1.
          2   -1    0    0  502    0 -0.00000000000E+00 -0.00000000000E+00 -0.27267357539E+03  0.27267357539E+03  0.00000000000E+00 0. -1.
         24    2    1    2    0    0  0.35965188883E+02 -0.40556622056E+02  0.10404185705E+03  0.14406773674E+03  0.83620992274E+02 0.  0.
         24    2    1    2    0    0 -0.16291824388E+03  0.16493674970E+03  0.12467507420E+03  0.27541836477E+03  0.81024168823E+02 0.  0.
         25    2    1    2    0    0 -0.19273076451E+02 -0.22697660103E+03  0.14850336378E+04  0.15075942857E+04  0.12500318378E+03 0.  0.
        -11    1    3    3    0    0  0.60253903806E+02 -0.13242033696E+02  0.76642330960E+02  0.98386641752E+02  0.00000000000E+00 0.  1.
         12    1    3    3    0    0 -0.24288714923E+02 -0.27314588360E+02  0.27399526085E+02  0.45681094991E+02  0.00000000000E+00 0. -1.
        -11    1    4    4    0    0 -0.16808055742E+03  0.16937798861E+03  0.11953795104E+03  0.26688817611E+03  0.00000000000E+00 0.  1.
         12    1    4    4    0    0  0.51623135406E+01 -0.44412389111E+01  0.51371231554E+01  0.85301886539E+01  0.00000000000E+00 0. -1.
          5    1    5    5  501    0  0.43923852424E+02 -0.31662947004E+02  0.29043621265E+03  0.29547780060E+03  0.47000000000E+01 0. -1.
         -5    1    5    5    0  501 -0.63196928875E+02 -0.19531365403E+03  0.11945974252E+04  0.12121164851E+04  0.47000000000E+01 0. -1.
          1    1    1    2  502    0  0.12314116434E+03  0.60377557868E+02 -0.13285881785E+03  0.19094674999E+03  0.00000000000E+00 0. -1.
          1    1    1    2  503    0  0.23084967114E+02  0.42218915521E+02  0.13687188508E+03  0.14508364987E+03  0.00000000000E+00 0. -1.
<mgrwt>
<rscale>  0 0.76881999E+02</rscale>
<asrwt>0</asrwt>
<pdfrwt beam="1">  1        2 0.29271135E+00 0.48118110E+02</pdfrwt>
<pdfrwt beam="2">  1        2 0.40099056E-01 0.12284027E+03</pdfrwt>
<totfact> 0.19641031E+02</totfact>
</mgrwt>
</event>
<event>
13    1  0.1942437E-008  0.2001381E+03  0.7546771E-02  0.1217789E+00
          2   -1    0    0  502    0  0.00000000000E+00  0.00000000000E+00  0.31974920657E+04  0.31974920657E+04  0.00000000000E+00 0. -1.
          4   -1    0    0  503    0 -0.00000000000E+00 -0.00000000000E+00 -0.20898252392E+04  0.20898252392E+04  0.00000000000E+00 0. -1.
         24    2    1    2    0    0  0.65202319677E+02 -0.20268150621E+03 -0.58894242398E+03  0.63145751373E+03  0.80958492006E+02 0.  0.
         24    2    1    2    0    0  0.11844396016E+03 -0.18736388852E+03 -0.32448952240E+03  0.40121591950E+03  0.80910849050E+02 0.  0.
         25    2    1    2    0    0  0.51738195200E+02  0.36698674666E+03  0.33380192215E+03  0.51420272976E+03  0.12499844399E+03 0.  0.
        -11    1    4    4    0    0  0.10436517941E+03 -0.19366733620E+03 -0.30936514994E+03  0.37961286041E+03  0.00000000000E+00 0.  1.
         12    1    4    4    0    0  0.14078780747E+02  0.63034476855E+01 -0.15124372462E+02  0.21603059099E+02  0.00000000000E+00 0. -1.
        -13    1    3    3    0    0  0.41156785987E+02 -0.17958898449E+03 -0.41083997428E+03  0.45026166709E+03  0.00000000000E+00 0.  1.
         14    1    3    3    0    0  0.24045533691E+02 -0.23092521721E+02 -0.17810244970E+03  0.18119584664E+03  0.00000000000E+00 0. -1.
          5    1    5    5  501    0  0.67126758151E+02  0.20571546952E+03  0.12521463081E+03  0.25005129439E+03  0.47000000000E+01 0.  1.
         -5    1    5    5    0  501 -0.15388562951E+02  0.16127127714E+03  0.20858729134E+03  0.26415143537E+03  0.47000000000E+01 0.  1.
          1    1    1    2  502    0 -0.44543899590E+02  0.82115981748E+02  0.27033357903E+04  0.27049494613E+04  0.00000000000E+00 0. -1.
          3    1    1    2  503    0 -0.19084057545E+03 -0.59057333676E+02 -0.10160389395E+04  0.10354916806E+04  0.00000000000E+00 0. -1.
<mgrwt>
<rscale>  0 0.13673621E+03</rscale>
<asrwt>0</asrwt>
<pdfrwt beam="1">  1        2 0.47021942E+00 0.93419449E+02</pdfrwt>
<pdfrwt beam="2">  1        4 0.30732724E+00 0.20013809E+03</pdfrwt>
<totfact> 0.40154734E-02</totfact>
</mgrwt>
</event>
<event>
13    1  0.1942437E-008  0.3042279E+02  0.7546771E-02  0.1617907E+00
          2   -1    0    0  503    0  0.00000000000E+00  0.00000000000E+00  0.30306389069E+04  0.30306389069E+04  0.00000000000E+00 0. -1.
          2   -1    0    0  502    0 -0.00000000000E+00 -0.00000000000E+00 -0.12319461730E+04  0.12319461730E+04  0.00000000000E+00 0. -1.
         24    2    1    2    0    0 -0.44207436358E+03 -0.11890765519E+03 -0.13375049241E+03  0.48018372246E+03  0.55842991562E+02 0.  0.
         24    2    1    2    0    0  0.24507313714E+03  0.31593953878E+03 -0.20530736667E+03  0.45685605354E+03  0.81778384256E+02 0.  0.
         25    2    1    2    0    0  0.15089531897E+03 -0.22137519883E+03  0.20384670298E+04  0.20597938569E+04  0.12500610133E+03 0.  0.
        -11    1    4    4    0    0  0.81831704859E+02  0.17197709734E+03 -0.97987367045E+02  0.21418233827E+03  0.00000000000E+00 0.  1.
         12    1    4    4    0    0  0.16324143228E+03  0.14396244145E+03 -0.10731999962E+03  0.24267371526E+03  0.00000000000E+00 0. -1.
        -11    1    3    3    0    0 -0.42170751597E+03 -0.10008275326E+03 -0.12688965013E+03  0.45161351822E+03  0.00000000000E+00 0.  1.
         12    1    3    3    0    0 -0.20366847606E+02 -0.18824901927E+02 -0.68608422783E+01  0.28570204248E+02  0.00000000000E+00 0. -1.
          5    1    5    5  501    0  0.61329383186E+02 -0.19077782822E+03  0.14347178129E+04  0.14486527416E+04  0.47000000000E+01 0. -1.
         -5    1    5    5    0  501  0.89565935785E+02 -0.30597370609E+02  0.60374921693E+03  0.61114111536E+03  0.47000000000E+01 0. -1.
          1    1    1    2  502    0  0.15882484443E+02  0.20949926875E+02 -0.58259855537E+03  0.58319141752E+03  0.00000000000E+00 0. -1.
          1    1    1    2  503    0  0.30223423022E+02  0.33933883601E+01  0.68188211847E+03  0.68256002950E+03  0.00000000000E+00 0. -1.
<mgrwt>
<rscale>  0 0.28280888E+02</rscale>
<asrwt>0</asrwt>
<pdfrwt beam="1">  1        2 0.44568219E+00 0.30422791E+02</pdfrwt>
<pdfrwt beam="2">  1        2 0.18116856E+00 0.26289784E+02</pdfrwt>
<totfact> 0.12701225E+01</totfact>
</mgrwt>
</event>
<event>
13    1  0.1942437E-008  0.7243811E+02  0.7546771E-02  0.1371446E+00
         -1   -1    0    0    0  501 -0.00000000000E+00  0.00000000000E+00  0.82616660998E+03  0.82616660998E+03  0.00000000000E+00 0.  1.
          4   -1    0    0  503    0  0.00000000000E+00 -0.00000000000E+00 -0.11199847788E+04  0.11199847788E+04  0.00000000000E+00 0. -1.
         24    2    1    2    0    0 -0.36762023351E+02 -0.41385043367E+02  0.31001297090E+03  0.32578679864E+03  0.83455544259E+02 0.  0.
         24    2    1    2    0    0  0.68363204105E+02  0.45946149141E+02 -0.13065338384E+03  0.17233840553E+03  0.76456804901E+02 0.  0.
         25    2    1    2    0    0  0.56791336791E+02 -0.27853239081E+02 -0.67501949322E+03  0.68940381899E+03  0.12500100219E+03 0.  0.
        -13    1    3    3    0    0 -0.24803005421E+02 -0.35279698528E+02  0.30935161084E+03  0.31234318519E+03  0.00000000000E+00 0.  1.
         14    1    3    3    0    0 -0.11959017930E+02 -0.61053448388E+01  0.66136005874E+00  0.13443613449E+02  0.00000000000E+00 0. -1.
        -13    1    4    4    0    0  0.18387366793E+02  0.57946191549E+02 -0.75827211129E+02  0.97188591512E+02  0.00000000000E+00 0.  1.
         14    1    4    4    0    0  0.49975837312E+02 -0.12000042408E+02 -0.54826172710E+02  0.75149814017E+02  0.00000000000E+00 0. -1.
          5    1    5    5  502    0  0.61019390511E+02 -0.51649994048E+02 -0.64767620148E+03  0.65260833573E+03  0.47000000000E+01 0. -1.
         -5    1    5    5    0  502 -0.42280537199E+01  0.23796754966E+02 -0.27343291748E+02  0.36795483266E+02  0.47000000000E+01 0. -1.
          3    1    1    2  503    0 -0.24068788317E+02  0.56637550996E+02 -0.27220298682E+03  0.27907272312E+03  0.00000000000E+00 0. -1.
         -2    1    1    2    0  501 -0.64323729227E+02 -0.33345417689E+02  0.47404472422E+03  0.47954964246E+03  0.00000000000E+00 0.  1.
<mgrwt>
<rscale>  0 0.66766835E+02</rscale>
<asrwt>0</asrwt>
<pdfrwt beam="2">  1        4 0.16470364E+00 0.61539571E+02</pdfrwt>
<pdfrwt beam="1">  1       -1 0.12149509E+00 0.72438111E+02</pdfrwt>
<totfact> 0.66329700E-01</totfact>
</mgrwt>
</event>
<event>
13    1  0.1942437E-008  0.7636791E+02  0.7546771E-02  0.1462011E+00
          2   -1    0    0  502    0  0.00000000000E+00  0.00000000000E+00  0.32651915726E+04  0.32651915726E+04  0.00000000000E+00 0. -1.
          4   -1    0    0  503    0 -0.00000000000E+00 -0.00000000000E+00 -0.31002340705E+03  0.31002340705E+03  0.00000000000E+00 0. -1.
         24    2    1    2    0    0  0.85652559096E+01 -0.10847412051E+03  0.52400348263E+02  0.14814453655E+03  0.85796321503E+02 0.  0.
         24    2    1    2    0    0  0.27454909190E+02  0.33544897690E+02  0.17017732817E+03  0.19256405096E+03  0.79003534717E+02 0.  0.
         25    2    1    2    0    0 -0.95327930753E+01  0.11611489167E+03  0.14994490285E+04  0.15091550598E+04  0.12501225263E+03 0.  0.
        -11    1    3    3    0    0  0.31537660367E+02 -0.57814310451E+02 -0.76384615496E+01  0.66298300198E+02  0.00000000000E+00 0.  1.
         12    1    3    3    0    0 -0.22972404458E+02 -0.50659810058E+02  0.60038809813E+02  0.81846236354E+02  0.00000000000E+00 0. -1.
        -11    1    4    4    0    0 -0.10510447048E+02  0.45786304029E+02  0.11707297196E+03  0.12614648587E+03  0.00000000000E+00 0.  1.
         12    1    4    4    0    0  0.37965356238E+02 -0.12241406339E+02  0.53104356211E+02  0.66417565086E+02  0.00000000000E+00 0. -1.
          5    1    5    5  501    0 -0.56357536523E+02  0.89072496497E+02  0.70469213816E+03  0.71254696767E+03  0.47000000000E+01 0. -1.
         -5    1    5    5    0  501  0.46824743448E+02  0.27042395174E+02  0.79475689034E+03  0.79660809215E+03  0.47000000000E+01 0. -1.
          1    1    1    2  502    0  0.23985937994E+02  0.16248746081E+02  0.14731617367E+04  0.14734465886E+04  0.00000000000E+00 0. -1.
          3    1    1    2  503    0 -0.50473310018E+02 -0.57434414933E+02 -0.24002027602E+03  0.25190474379E+03  0.00000000000E+00 0. -1.
<mgrwt>
<rscale>  0 0.47037131E+02</rscale>
<asrwt>0</asrwt>
<pdfrwt beam="1">  1        2 0.48017521E+00 0.28971485E+02</pdfrwt>
<pdfrwt beam="2">  1        4 0.45591679E-01 0.76367907E+02</pdfrwt>
<totfact> 0.59643261E+00</totfact>
</mgrwt>
</event>
<event>
13    1  0.1942437E-008  0.1277987E+03  0.7546771E-02  0.1488096E+00
          2   -1    0    0  502    0  0.00000000000E+00  0.00000000000E+00  0.39927795641E+04  0.39927795641E+04  0.00000000000E+00 0. -1.
          2   -1    0    0  503    0 -0.00000000000E+00 -0.00000000000E+00 -0.16733621385E+04  0.16733621385E+04  0.00000000000E+00 0. -1.
         24    2    1    2    0    0 -0.42759489193E+03 -0.18679378135E+03  0.59387954023E+01  0.47644451766E+03  0.96097870729E+02 0.  0.
         24    2    1    2    0    0  0.37251774696E+03  0.19329849638E+03  0.95322138620E+03  0.10453342530E+04  0.89212716629E+02 0.  0.
         25    2    1    2    0    0  0.12937539022E+03 -0.10216772656E+03  0.48816913124E+03  0.53018375312E+03  0.12493788629E+03 0.  0.
        -13    1    3    3    0    0 -0.37294571964E+03 -0.18647203069E+03  0.27088581620E+02  0.41784461140E+03  0.00000000000E+00 0.  1.
         14    1    3    3    0    0 -0.54649172294E+02 -0.32175066085E+00 -0.21149786218E+02  0.58599906254E+02  0.00000000000E+00 0. -1.
        -13    1    4    4    0    0  0.30255194984E+03  0.11624668840E+03  0.74904648788E+03  0.81616273862E+03  0.00000000000E+00 0.  1.
         14    1    4    4    0    0  0.69965797122E+02  0.77051807988E+02  0.20417489833E+03  0.22917151435E+03  0.00000000000E+00 0. -1.
          5    1    5    5  501    0  0.93753228108E+02 -0.11132074306E+03  0.25138538438E+03  0.29051450411E+03  0.47000000000E+01 0. -1.
         -5    1    5    5    0  501  0.35622162117E+02  0.91530165077E+01  0.23678374686E+03  0.23966924901E+03  0.47000000000E+01 0. -1.
          1    1    1    2  502    0 -0.88312364186E+02  0.92437402164E+02  0.22412743258E+04  0.22449174485E+04  0.00000000000E+00 0. -1.
          1    1    1    2  503    0  0.14014118927E+02  0.32256093578E+01 -0.13691862131E+04  0.13692617303E+04  0.00000000000E+00 0. -1.
<mgrwt>
<rscale>  0 0.42869740E+02</rscale>
<asrwt>0</asrwt>
<pdfrwt beam="1">  1        2 0.58717347E+00 0.12779867E+03</pdfrwt>
<pdfrwt beam="2">  1        2 0.24608267E+00 0.14380545E+02</pdfrwt>
<totfact> 0.17589064E+00</totfact>
</mgrwt>
</event>
<event>
13    1  0.1942437E-008  0.4821731E+02  0.7546771E-02  0.1520079E+00
         -3   -1    0    0    0  502 -0.00000000000E+00  0.00000000000E+00  0.86026297827E+03  0.86026297827E+03  0.00000000000E+00 0.  1.
         -1   -1    0    0    0  501  0.00000000000E+00 -0.00000000000E+00 -0.62130503092E+03  0.62130503092E+03  0.00000000000E+00 0.  1.
         24    2    1    2    0    0  0.48704299940E+02 -0.32819115458E+02  0.12424467823E+03  0.15919535604E+03  0.80356817646E+02 0.  0.
         24    2    1    2    0    0 -0.71488956348E+02 -0.16468685651E+03  0.35970798166E+03  0.40988473765E+03  0.79895146910E+02 0.  0.
         25    2    1    2    0    0  0.28200890146E+02  0.21506061947E+03 -0.28396778141E+03  0.37856205835E+03  0.12500068355E+03 0.  0.
        -11    1    4    4    0    0 -0.85480971652E+02 -0.10657449162E+03  0.25660597402E+03  0.29070903784E+03  0.00000000000E+00 0.  1.
         12    1    4    4    0    0  0.13992015304E+02 -0.58112364892E+02  0.10310200764E+03  0.11917569981E+03  0.00000000000E+00 0. -1.
        -11    1    3    3    0    0  0.67750102265E+02 -0.86870406773E+01  0.78194153972E+02  0.10382613711E+03  0.00000000000E+00 0.  1.
         12    1    3    3    0    0 -0.19045802324E+02 -0.24132074781E+02  0.46050524261E+02  0.55369218923E+02  0.00000000000E+00 0. -1.
          5    1    5    5  503    0 -0.13776037961E+02 -0.95460614602E+01 -0.43303590309E+02  0.46671162884E+02  0.47000000000E+01 0.  1.
         -5    1    5    5    0  503  0.41976928106E+02  0.22460668093E+03 -0.24066419111E+03  0.33189089547E+03  0.47000000000E+01 0.  1.
         -2    1    1    2    0  501 -0.91571485818E+00  0.30618683988E+02 -0.24447067383E+03  0.24638233034E+03  0.00000000000E+00 0.  1.
         -4    1    1    2    0  502 -0.45005188799E+01 -0.48173331494E+02  0.28344374270E+03  0.28754352681E+03  0.00000000000E+00 0.  1.
<mgrwt>
<rscale>  0 0.38431898E+02</rscale>
<asrwt>0</asrwt>
<pdfrwt beam="2">  1       -1 0.91368387E-01 0.30632374E+02</pdfrwt>
<pdfrwt beam="1">  1       -3 0.12650926E+00 0.48217313E+02</pdfrwt>
<totfact> 0.31551990E+00</totfact>
</mgrwt>
</event>
<event>
13    1  0.1942437E-008  0.8164110E+02  0.7546771E-02  0.1395403E+00
          2   -1    0    0  503    0  0.00000000000E+00  0.00000000000E+00  0.44376126373E+04  0.44376126373E+04  0.00000000000E+00 0. -1.
          2   -1    0    0  502    0 -0.00000000000E+00 -0.00000000000E+00 -0.15420333413E+04  0.15420333413E+04  0.00000000000E+00 0. -1.
         24    2    1    2    0    0 -0.11582746774E+03  0.40977338317E+02 -0.19983417056E+03  0.25425154681E+03  0.98056151226E+02 0.  0.
         24    2    1    2    0    0  0.48001611030E+02  0.38731001376E+02 -0.47657882074E+02  0.11320743777E+03  0.82099970240E+02 0.  0.
         25    2    1    2    0    0 -0.39574243896E+02 -0.50911182178E+02  0.15970314051E+03  0.21281580784E+03  0.12500962253E+03 0.  0.
        -11    1    4    4    0    0  0.71008630605E+02  0.22667123673E+02 -0.32512841666E+02  0.81321024275E+02  0.00000000000E+00 0.  1.
         12    1    4    4    0    0 -0.23007019574E+02  0.16063877702E+02 -0.15145040408E+02  0.31886413494E+02  0.00000000000E+00 0. -1.
        -13    1    3    3    0    0 -0.27967624767E+02  0.33308226123E+02 -0.14266976777E+03  0.14915189774E+03  0.00000000000E+00 0.  1.
         14    1    3    3    0    0 -0.87859842971E+02  0.76691121938E+01 -0.57164402787E+02  0.10509964907E+03  0.00000000000E+00 0. -1.
          5    1    5    5  501    0  0.90301872671E+01 -0.24484799567E+02  0.15482422808E+03  0.15707858317E+03  0.47000000000E+01 0. -1.
         -5    1    5    5    0  501 -0.48604431163E+02 -0.26426382611E+02  0.48789124353E+01  0.55737224663E+02  0.47000000000E+01 0. -1.
          1    1    1    2  502    0  0.40939837193E+02  0.18572929147E+02 -0.12071857560E+04  0.12080225468E+04  0.00000000000E+00 0. -1.
          1    1    1    2  503    0  0.66460263412E+02 -0.47370086662E+02  0.41905539641E+04  0.41913486395E+04  0.00000000000E+00 0. -1.
<mgrwt>
<rscale>  0 0.60582514E+02</rscale>
<asrwt>0</asrwt>
<pdfrwt beam="1">  1        2 0.65259009E+00 0.81641101E+02</pdfrwt>
<pdfrwt beam="2">  1        2 0.22676961E+00 0.44955800E+02</pdfrwt>
<totfact> 0.95392672E-01</totfact>
</mgrwt>
</event>
<event>
13    1  0.1942437E-008  0.7536195E+02  0.7546771E-02  0.1496372E+00
          2   -1    0    0  503    0  0.00000000000E+00  0.00000000000E+00  0.10266185697E+04  0.10266185697E+04  0.00000000000E+00 0. -1.
         -1   -1    0    0    0  501 -0.00000000000E+00 -0.00000000000E+00 -0.97709635790E+03  0.97709635790E+03  0.00000000000E+00 0.  1.
         24    2    1    2    0    0 -0.11640888805E+03 -0.30299991006E+03 -0.17444676875E+03  0.37445735153E+03  0.66533136624E+02 0.  0.
         24    2    1    2    0    0  0.36222436205E+03  0.42514860703E+03 -0.17403802133E+03  0.59045660921E+03  0.79949658969E+02 0.  0.
         25    2    1    2    0    0 -0.29934695863E+03 -0.73232392679E+02  0.17580190640E+03  0.37616875905E+03  0.12500016006E+03 0.  0.
        -11    1    4    4    0    0  0.57792000707E+02  0.35126900745E+02 -0.36863333569E+02  0.77024151170E+02  0.00000000000E+00 0.  1.
         12    1    4    4    0    0  0.30443236134E+03  0.39002170629E+03 -0.13717468776E+03  0.51343245804E+03  0.00000000000E+00 0. -1.
        -13    1    3    3    0    0  0.29047966374E+01 -0.69977723750E+01  0.42530408934E+01  0.86887869440E+01  0.00000000000E+00 0.  1.
         14    1    3    3    0    0 -0.11931368468E+03 -0.29600213769E+03 -0.17869980964E+03  0.36576856458E+03  0.00000000000E+00 0. -1.
          5    1    5    5  502    0 -0.34897887690E+02 -0.38266236011E+02  0.74365044529E+02  0.90743689761E+02  0.47000000000E+01 0. -1.
         -5    1    5    5    0  502 -0.26444907094E+03 -0.34966156668E+02  0.10143686187E+03  0.28542506929E+03  0.47000000000E+01 0. -1.
          1    1    1    2  503    0  0.68520376915E+02 -0.31439043010E+02  0.43859188370E+03  0.44502392737E+03  0.00000000000E+00 0. -1.
         -2    1    1    2    0  501 -0.14988892286E+02 -0.17477261282E+02 -0.21638678828E+03  0.21760828039E+03  0.00000000000E+00 0.  1.
<mgrwt>
<rscale>  0 0.41655268E+02</rscale>
<asrwt>0</asrwt>
<pdfrwt beam="1">  1        2 0.15097332E+00 0.75361951E+02</pdfrwt>
<pdfrwt beam="2">  1       -1 0.14369064E+00 0.23024369E+02</pdfrwt>
<totfact> 0.16446140E+01</totfact>
</mgrwt>
</event>
<event>
13    1  0.1942437E-008  0.1159191E+03  0.7546771E-02  0.1421602E+00
          2   -1    0    0  503    0  0.00000000000E+00  0.00000000000E+00  0.39852398891E+04  0.39852398891E+04  0.00000000000E+00 0. -1.
          2   -1    0    0  502    0 -0.00000000000E+00 -0.00000000000E+00 -0.28418633374E+04  0.28418633374E+04  0.00000000000E+00 0. -1.
         24    2    1    2    0    0 -0.23074591354E+02  0.54142723036E+02 -0.83939552118E+02  0.12964368684E+03  0.79358464608E+02 0.  0.
         24    2    1    2    0    0  0.19266013509E+02  0.31490646143E+01 -0.36049063835E+02  0.91449902557E+02  0.81746276917E+02 0.  0.
         25    2    1    2    0    0  0.20352945976E+03 -0.91821505901E+02  0.25380105332E+04  0.25508779516E+04  0.12500170921E+03 0.  0.
        -11    1    4    4    0    0  0.36664366265E+02 -0.24643091502E+01 -0.54333901881E+02  0.65593608430E+02  0.00000000000E+00 0.  1.
         12    1    4    4    0    0 -0.17398352757E+02  0.56133737644E+01  0.18284838045E+02  0.25856294128E+02  0.00000000000E+00 0. -1.
        -13    1    3    3    0    0  0.82527213577E+01  0.56983664262E+02 -0.79070773309E+02  0.97813253673E+02  0.00000000000E+00 0.  1.
         14    1    3    3    0    0 -0.31327312712E+02 -0.28409412253E+01 -0.48687788091E+01  0.31830433172E+02  0.00000000000E+00 0. -1.
          5    1    5    5  501    0  0.21759291743E+03 -0.98821877409E+02  0.23330961566E+04  0.23453085526E+04  0.47000000000E+01 0. -1.
         -5    1    5    5    0  501 -0.14063457664E+02  0.70003715077E+01  0.20491437662E+03  0.20556939896E+03  0.47000000000E+01 0. -1.
          1    1    1    2  502    0 -0.17477064516E+03  0.27977484244E+02 -0.26618295616E+04  0.26677076551E+04  0.00000000000E+00 0. -1.
          1    1    1    2  503    0 -0.24950236756E+02  0.65522340066E+01  0.13871841961E+04  0.13874240304E+04  0.00000000000E+00 0. -1.
<mgrwt>
<rscale>  0 0.54683429E+02</rscale>
<asrwt>0</asrwt>
<pdfrwt beam="1">  1        2 0.58606469E+00 0.25796242E+02</pdfrwt>
<pdfrwt beam="2">  1        2 0.41792108E+00 0.11591911E+03</pdfrwt>
<totfact> 0.54965346E-01</totfact>
</mgrwt>
</event>
<event>
13    1  0.1942437E-008  0.1297267E+03  0.7546771E-02  0.1332380E+00
          2   -1    0    0  502    0  0.00000000000E+00  0.00000000000E+00  0.14456094521E+04  0.14456094521E+04  0.00000000000E+00 0. -1.
          4   -1    0    0  503    0 -0.00000000000E+00 -0.00000000000E+00 -0.11589719800E+04  0.11589719800E+04  0.00000000000E+00 0. -1.
         24    2    1    2    0    0  0.20054822839E+03 -0.37021890871E+02 -0.22671042358E+03  0.31405533965E+03  0.75119424169E+02 0.  0.
         24    2    1    2    0    0 -0.30400359435E+03  0.14840673378E+03  0.27399155236E+02  0.34890261505E+03  0.80867651585E+02 0.  0.
         25    2    1    2    0    0 -0.40392557604E+02 -0.10307336534E+03  0.49657840953E+03  0.52389964812E+03  0.12500018855E+03 0.  0.
        -11    1    3    3    0    0  0.22492645518E+02 -0.30760025330E+02 -0.28816510358E+02  0.47775407167E+02  0.00000000000E+00 0.  1.
         12    1    3    3    0    0  0.17805558287E+03 -0.62618655410E+01 -0.19789391323E+03  0.26627993248E+03  0.00000000000E+00 0. -1.
        -11    1    4    4    0    0 -0.12822506674E+03  0.19895510552E+02  0.17474934973E+02  0.13093079253E+03  0.00000000000E+00 0.  1.
         12    1    4    4    0    0 -0.17577852760E+03  0.12851122323E+03  0.99242202630E+01  0.21797182251E+03  0.00000000000E+00 0. -1.
          5    1    5    5  501    0 -0.72403486324E+02 -0.35105355139E+02  0.34953728291E+03  0.35871026321E+03  0.47000000000E+01 0. -1.
         -5    1    5    5    0  501  0.32010928720E+02 -0.67968010196E+02  0.14704112662E+03  0.16518938491E+03  0.47000000000E+01 0. -1.
          1    1    1    2  502    0  0.24086293195E+02  0.41417981325E+02  0.69683122681E+03  0.69847645440E+03  0.00000000000E+00 0. -1.
          3    1    1    2  503    0  0.11976163036E+03 -0.49729458900E+02 -0.70746089589E+03  0.71924737497E+03  0.00000000000E+00 0. -1.
<mgrwt>
<rscale>  0 0.78838550E+02</rscale>
<asrwt>0</asrwt>
<pdfrwt beam="1">  1        2 0.21258963E+00 0.47912407E+02</pdfrwt>
<pdfrwt beam="2">  1        4 0.17043706E+00 0.12972667E+03</pdfrwt>
<totfact> 0.21547996E+00</totfact>
</mgrwt>
</event>
<event>
13    1  0.1942437E-008  0.1043001E+03  0.7546771E-02  0.1302250E+00
          2   -1    0    0  503    0  0.00000000000E+00  0.00000000000E+00  0.80324564984E+03  0.80324564984E+03  0.00000000000E+00 0. -1.
          2   -1    0    0  502    0 -0.00000000000E+00 -0.00000000000E+00 -0.18614489660E+04  0.18614489660E+04  0.00000000000E+00 0. -1.
         24    2    1    2    0    0 -0.53709004399E+02 -0.62287330826E+02 -0.22325583754E+03  0.24806210471E+03  0.70194515907E+02 0.  0.
         24    2    1    2    0    0 -0.37753921839E+01 -0.65329609551E+02 -0.61899610385E+02  0.12065718981E+03  0.80276922065E+02 0.  0.
         25    2    1    2    0    0 -0.42346383332E+02 -0.69107786904E+02  0.12624724324E+02  0.14951045570E+03  0.12499956123E+03 0.  0.
        -11    1    4    4    0    0 -0.34181169078E+02 -0.61059109166E+02 -0.55452250829E+02  0.89283364932E+02  0.00000000000E+00 0.  1.
         12    1    4    4    0    0  0.30405776894E+02 -0.42705003843E+01 -0.64473595562E+01  0.31373824875E+02  0.00000000000E+00 0. -1.
        -13    1    3    3    0    0 -0.49996970725E+02 -0.66235429946E+02 -0.12734697550E+03  0.15200026786E+03  0.00000000000E+00 0.  1.
         14    1    3    3    0    0 -0.37120336741E+01  0.39480991198E+01 -0.95908862042E+02  0.96061836849E+02  0.00000000000E+00 0. -1.
          5    1    5    5  501    0 -0.48699356227E+02 -0.95875245559E+02  0.35588343948E+02  0.11336803003E+03  0.47000000000E+01 0. -1.
         -5    1    5    5    0  501  0.63529728957E+01  0.26767458655E+02 -0.22963619623E+02  0.36142425675E+02  0.47000000000E+01 0. -1.
          1    1    1    2  502    0  0.12581064322E+03  0.12308232138E+03 -0.14585199341E+04  0.14691010768E+04  0.00000000000E+00 0. -1.
          1    1    1    2  503    0 -0.25979863310E+02  0.73642405906E+02  0.67284734157E+03  0.67736378875E+03  0.00000000000E+00 0. -1.
<mgrwt>
<rscale>  0 0.90248923E+02</rscale>
<asrwt>0</asrwt>
<pdfrwt beam="1">  1        2 0.11812436E+00 0.78090699E+02</pdfrwt>
<pdfrwt beam="2">  1        2 0.27374249E+00 0.10430011E+03</pdfrwt>
<totfact> 0.64736489E+01</totfact>
</mgrwt>
</event>
<event>
13    1  0.1942437E-008  0.1454674E+03  0.7546771E-02  0.1464268E+00
          2   -1    0    0  503    0  0.00000000000E+00  0.00000000000E+00  0.23585631068E+04  0.23585631068E+04  0.00000000000E+00 0. -1.
          2   -1    0    0  502    0 -0.00000000000E+00 -0.00000000000E+00 -0.26173552354E+04  0.26173552354E+04  0.00000000000E+00 0. -1.
         24    2    1    2    0    0 -0.76423858260E+02 -0.11578124663E+02 -0.49862529741E+03  0.51094990670E+03  0.80423633657E+02 0.  0.
         24    2    1    2    0    0  0.90791880995E+02 -0.73092769726E+02  0.65684733218E+02  0.16368750645E+03  0.94304808719E+02 0.  0.
         25    2    1    2    0    0  0.39130753949E+02 -0.77070191701E+02  0.68241266983E+03  0.69912978401E+03  0.12499749038E+03 0.  0.
        -11    1    3    3    0    0  0.10997600069E+02  0.15657912531E+02 -0.64763247902E+02  0.67530701987E+02  0.00000000000E+00 0.  1.
         12    1    3    3    0    0 -0.87421458329E+02 -0.27236037194E+02 -0.43386204951E+03  0.44341920471E+03  0.00000000000E+00 0. -1.
        -13    1    4    4    0    0  0.67681798406E+02 -0.51452163071E+01  0.61826112005E+02  0.91813763740E+02  0.00000000000E+00 0.  1.
         14    1    4    4    0    0  0.23110082589E+02 -0.67947553419E+02  0.38586212127E+01  0.71873742706E+02  0.00000000000E+00 0. -1.
          5    1    5    5  501    0  0.75970980734E+02 -0.70540112966E+02  0.36439473349E+03  0.37888403140E+03  0.47000000000E+01 0.  1.
         -5    1    5    5    0  501 -0.36840226785E+02 -0.65300787349E+01  0.31801793633E+03  0.32024575261E+03  0.47000000000E+01 0.  1.
          1    1    1    2  502    0 -0.38970881053E+02  0.16532417882E+03 -0.20516618848E+04  0.20586809619E+04  0.00000000000E+00 0. -1.
          1    1    1    2  503    0 -0.14527895631E+02 -0.35830927262E+01  0.15433976506E+04  0.15434701831E+04  0.00000000000E+00 0. -1.
<mgrwt>
<rscale>  0 0.46654717E+02</rscale>
<asrwt>0</asrwt>
<pdfrwt beam="1">  1        2 0.34684752E+00 0.14963232E+02</pdfrwt>
<pdfrwt beam="2">  1        2 0.38490518E+00 0.14546742E+03</pdfrwt>
<totfact> 0.54122261E+00</totfact>
</mgrwt>
</event>
<event>
13    1  0.1942437E-008  0.1111478E+03  0.7546771E-02  0.1535871E+00
          4   -1    0    0  503    0 -0.00000000000E+00  0.00000000000E+00  0.17184198507E+04  0.17184198507E+04  0.00000000000E+00 0. -1.
          2   -1    0    0  502    0  0.00000000000E+00 -0.00000000000E+00 -0.18808217756E+04  0.18808217756E+04  0.00000000000E+00 0. -1.
         24    2    1    2    0    0 -0.86430836159E+02 -0.56866472110E+02  0.75660219539E+02  0.15119767696E+03  0.80200895307E+02 0.  0.
         24    2    1    2    0    0 -0.15742028636E+02  0.98791396638E+02 -0.15410244296E+03  0.20087477714E+03  0.81213063293E+02 0.  0.
         25    2    1    2    0    0 -0.33618966650E+02 -0.15860409716E+03 -0.59984993186E+03  0.63382208046E+03  0.12499997749E+03 0.  0.
        -11    1    3    3    0    0 -0.97852582596E+02 -0.64285345493E+02  0.70278309196E+02  0.13655319223E+03  0.00000000000E+00 0.  1.
         12    1    3    3    0    0  0.11421746437E+02  0.74188733834E+01  0.53819103434E+01  0.14644484726E+02  0.00000000000E+00 0. -1.
        -13    1    4    4    0    0  0.26825283848E+02  0.64653168557E+02 -0.60455424522E+02  0.92490466601E+02  0.00000000000E+00 0.  1.
         14    1    4    4    0    0 -0.42567312483E+02  0.34138228081E+02 -0.93647018441E+02  0.10838431054E+03  0.00000000000E+00 0. -1.
          5    1    5    5  501    0 -0.92891749622E+01 -0.17479712059E+03 -0.51064499185E+03  0.53983397433E+03  0.47000000000E+01 0.  1.
         -5    1    5    5    0  501 -0.24329791688E+02  0.16193023436E+02 -0.89204940011E+02  0.93988106130E+02  0.47000000000E+01 0.  1.
          1    1    1    2  502    0 -0.73161147326E+01 -0.94745958725E+01 -0.10428786936E+04  0.10429473923E+04  0.00000000000E+00 0. -1.
          3    1    1    2  503    0  0.14310794618E+03  0.12615376850E+03  0.15587689240E+04  0.15703996994E+04  0.00000000000E+00 0. -1.
<mgrwt>
<rscale>  0 0.36475982E+02</rscale>
<asrwt>0</asrwt>
<pdfrwt beam="2">  1        2 0.27659144E+00 0.11970526E+02</pdfrwt>
<pdfrwt beam="1">  1        4 0.25270880E+00 0.11114777E+03</pdfrwt>
<totfact> 0.50069763E-01</totfact>
</mgrwt>
</event>
<event>
13    1  0.1942437E-008  0.6903509E+02  0.7546771E-02  0.1405085E+00
          2   -1    0    0  502    0  0.00000000000E+00  0.00000000000E+00  0.30472611604E+04  0.30472611604E+04  0.00000000000E+00 0. -1.
          2   -1    0    0  503    0 -0.00000000000E+00 -0.00000000000E+00 -0.11053804525E+04  0.11053804525E+04  0.00000000000E+00 0. -1.
         24    2    1    2    0    0 -0.41960988394E+02  0.70679223044E+02  0.14628587852E+03  0.18354895501E+03  0.74393437301E+02 0.  0.
         24    2    1    2    0    0 -0.23814122370E+01  0.45102603451E+02  0.17064444746E+03  0.19434941843E+03  0.81315761287E+02 0.  0.
         25    2    1    2    0    0  0.29148637708E+02 -0.97916991030E+02  0.68704243071E+03  0.70575430685E+03  0.12499783930E+03 0.  0.
        -11    1    4    4    0    0  0.29551118112E+02  0.20210646082E+02  0.13732145706E+03  0.14191166747E+03  0.00000000000E+00 0.  1.
         12    1    4    4    0    0 -0.31932530349E+02  0.24891957369E+02  0.33322990398E+02  0.52437750955E+02  0.00000000000E+00 0. -1.
        -13    1    3    3    0    0  0.18808296658E+02  0.17434682762E+01  0.27589231487E+02  0.33435869943E+02  0.00000000000E+00 0.  1.
         14    1    3    3    0    0 -0.60769285052E+02  0.68935754768E+02  0.11869664704E+03  0.15011308507E+03  0.00000000000E+00 0. -1.
          5    1    5    5  501    0  0.66002394372E+02 -0.13300938349E+02  0.24309995210E+03  0.25229527886E+03  0.47000000000E+01 0.  1.
         -5    1    5    5    0  501 -0.36853756665E+02 -0.84616052681E+02  0.44394247860E+03  0.45345902798E+03  0.47000000000E+01 0.  1.
          1    1    1    2  502    0 -0.48380059823E+02  0.91783876616E+01  0.20020255206E+04  0.20026310339E+04  0.00000000000E+00 0. -1.
          1    1    1    2  503    0  0.63573822746E+02 -0.27043223127E+02 -0.10641175693E+04  0.10663578987E+04  0.00000000000E+00 0. -1.
<mgrwt>
<rscale>  0 0.58305186E+02</rscale>
<asrwt>0</asrwt>
<pdfrwt beam="1">  1        2 0.44812664E+00 0.49242999E+02</pdfrwt>
<pdfrwt beam="2">  1        2 0.16255595E+00 0.69035087E+02</pdfrwt>
<totfact> 0.12493130E+01</totfact>
</mgrwt>
</event>
<event>
13    1  0.1942437E-008  0.9786371E+02  0.7546771E-02  0.1510910E+00
          2   -1    0    0  503    0  0.00000000000E+00  0.00000000000E+00  0.56533180650E+03  0.56533180650E+03  0.00000000000E+00 0. -1.
         -1   -1    0    0    0  501 -0.00000000000E+00 -0.00000000000E+00 -0.12327924383E+04  0.12327924383E+04  0.00000000000E+00 0.  1.
         24    2    1    2    0    0 -0.13942000143E+02 -0.15914240466E+03 -0.83198590918E+02  0.21084782623E+03  0.10960892285E+03 0.  0.
         24    2    1    2    0    0 -0.37799636389E+02  0.21845947921E+03 -0.30725191953E+03  0.38791500172E+03  0.83192246886E+02 0.  0.
         25    2    1    2    0    0 -0.74936718731E+01 -0.26411531391E+00 -0.75160252343E+02  0.14604861675E+03  0.12499964018E+03 0.  0.
        -11    1    4    4    0    0  0.19411739265E+02  0.10331565746E+03 -0.10747006336E+03  0.15033547558E+03  0.00000000000E+00 0.  1.
         12    1    4    4    0    0 -0.57211375654E+02  0.11514382174E+03 -0.19978185617E+03  0.23757952615E+03  0.00000000000E+00 0. -1.
        -13    1    3    3    0    0 -0.35712007954E+02 -0.31773349938E+01 -0.20867799028E+02  0.41483828247E+02  0.00000000000E+00 0.  1.
         14    1    3    3    0    0  0.21770007812E+02 -0.15596506967E+03 -0.62330791890E+02  0.16936399799E+03  0.00000000000E+00 0. -1.
          5    1    5    5  502    0 -0.65752630685E+02  0.68483473440E+01 -0.37365314586E+02  0.76082619812E+02  0.47000000000E+01 0. -1.
         -5    1    5    5    0  502  0.58258958812E+02 -0.71124626579E+01 -0.37794937756E+02  0.69965996933E+02  0.47000000000E+01 0. -1.
          1    1    1    2  503    0  0.63699041644E+02 -0.74472647883E+02  0.41998695481E+03  0.43126880875E+03  0.00000000000E+00 0. -1.
         -2    1    1    2    0  501 -0.44637332391E+01  0.15419688652E+02 -0.62183682377E+03  0.62204399130E+03  0.00000000000E+00 0.  1.
<mgrwt>
<rscale>  0 0.39635646E+02</rscale>
<asrwt>0</asrwt>
<pdfrwt beam="1">  1        2 0.83137030E-01 0.97863706E+02</pdfrwt>
<pdfrwt beam="2">  1       -1 0.18129301E+00 0.16052779E+02</pdfrwt>
<totfact> 0.18871620E+01</totfact>
</mgrwt>
</event>
<event>
13    1  0.1942437E-008  0.1343247E+03  0.7546771E-02  0.1329494E+00
          2   -1    0    0  503    0  0.00000000000E+00  0.00000000000E+00  0.46919001395E+03  0.46919001395E+03  0.00000000000E+00 0. -1.
         -3   -1    0    0    0  501 -0.00000000000E+00 -0.00000000000E+00 -0.94177716476E+03  0.94177716476E+03  0.00000000000E+00 0.  1.
         24    2    1    2    0    0 -0.82372873323E+02 -0.52225610918E+02 -0.13579552309E+03  0.18531825872E+03  0.79935150154E+02 0.  0.
         24    2    1    2    0    0  0.75134330715E+02 -0.38767219637E+02 -0.10009950275E+02  0.11736798280E+03  0.80789722811E+02 0.  0.
         25    2    1    2    0    0 -0.99080378110E+01 -0.68765580266E+02  0.20971031158E+03  0.25383077407E+03  0.12499909137E+03 0.  0.
        -11    1    3    3    0    0 -0.40143183616E+02  0.18109819756E+02 -0.45626247703E+02  0.63412894918E+02  0.00000000000E+00 0.  1.
         12    1    3    3    0    0 -0.42229689707E+02 -0.70335430674E+02 -0.90169275387E+02  0.12190536381E+03  0.00000000000E+00 0. -1.
        -13    1    4    4    0    0 -0.55272793494E+01  0.28230587743E+01  0.20660637754E+02  0.21572724220E+02  0.00000000000E+00 0.  1.
         14    1    4    4    0    0  0.80661610065E+02 -0.41590278411E+02 -0.30670588029E+02  0.95795258581E+02  0.00000000000E+00 0. -1.
          5    1    5    5  502    0 -0.13488897678E+02 -0.41451909867E+02  0.21979201671E+03  0.22412235900E+03  0.47000000000E+01 0. -1.
         -5    1    5    5    0  502  0.35808598671E+01 -0.27313670399E+02 -0.10081705133E+02  0.29708415078E+02  0.47000000000E+01 0. -1.
          1    1    1    2  503    0  0.45376812152E+02 -0.13908000547E+02  0.14397943502E+03  0.15160001738E+03  0.00000000000E+00 0. -1.
         -4    1    1    2    0  501 -0.28230231733E+02  0.17366641137E+03 -0.68047142404E+03  0.70285014574E+03  0.00000000000E+00 0.  1.
<mgrwt>
<rscale>  0 0.79844240E+02</rscale>
<asrwt>0</asrwt>
<pdfrwt beam="1">  1        2 0.68998531E-01 0.47460379E+02</pdfrwt>
<pdfrwt beam="2">  1       -3 0.13849664E+00 0.13432473E+03</pdfrwt>
<totfact> 0.18470779E+01</totfact>
</mgrwt>
</event>
<event>
13    1  0.1942437E-008  0.1087037E+03  0.7546771E-02  0.1355230E+00
          2   -1    0    0  503    0  0.00000000000E+00  0.00000000000E+00  0.12639739088E+04  0.12639739088E+04  0.00000000000E+00 0. -1.
          2   -1    0    0  502    0 -0.00000000000E+00 -0.00000000000E+00 -0.27319104940E+04  0.27319104940E+04  0.00000000000E+00 0. -1.
         24    2    1    2    0    0  0.21109485261E+02  0.78085124504E+02 -0.32310928578E+03  0.34322821060E+03  0.82843810611E+02 0.  0.
         24    2    1    2    0    0 -0.14725632755E+03 -0.11121518312E+03 -0.27327671732E+03  0.33971949487E+03  0.81706352272E+02 0.  0.
         25    2    1    2    0    0  0.71800555750E+01  0.14985679947E+03  0.95531686921E+02  0.21738728058E+03  0.12498925156E+03 0.  0.
        -13    1    4    4    0    0 -0.10857771690E+03 -0.39794236213E+02 -0.12251855913E+03  0.16847403115E+03  0.00000000000E+00 0.  1.
         14    1    4    4    0    0 -0.38678610647E+02 -0.71420946910E+02 -0.15075815820E+03  0.17124546371E+03  0.00000000000E+00 0. -1.
        -13    1    3    3    0    0  0.16268533349E+02  0.95562413072E+02 -0.25691300741E+03  0.27459266805E+03  0.00000000000E+00 0.  1.
         14    1    3    3    0    0  0.48409519125E+01 -0.17477288568E+02 -0.66196278368E+02  0.68635542549E+02  0.00000000000E+00 0. -1.
          5    1    5    5  501    0  0.62316128641E+02  0.11109583604E+03  0.67571725986E+02  0.14426923729E+03  0.47000000000E+01 0. -1.
         -5    1    5    5    0  501 -0.55136073066E+02  0.38760963425E+02  0.27959960936E+02  0.73118043289E+02  0.47000000000E+01 0. -1.
          1    1    1    2  502    0  0.78641605942E+02 -0.92654755165E+02 -0.20289786628E+04  0.20326150201E+04  0.00000000000E+00 0. -1.
          1    1    1    2  503    0  0.40325180767E+02 -0.24071985684E+02  0.10618963938E+04  0.10629343968E+04  0.00000000000E+00 0. -1.
<mgrwt>
<rscale>  0 0.71450109E+02</rscale>
<asrwt>0</asrwt>
<pdfrwt beam="1">  1        2 0.18587852E+00 0.46963610E+02</pdfrwt>
<pdfrwt beam="2">  1        2 0.40175154E+00 0.10870370E+03</pdfrwt>
<totfact> 0.13624539E+01</totfact>
</mgrwt>
</event>
<event>
13    1  0.1942437E-008  0.9926426E+02  0.7546771E-02  0.1407243E+00
          2   -1    0    0  503    0  0.00000000000E+00  0.00000000000E+00  0.65549666515E+03  0.65549666515E+03  0.00000000000E+00 0. -1.
          2   -1    0    0  502    0 -0.00000000000E+00 -0.00000000000E+00 -0.22010255407E+04  0.22010255407E+04  0.00000000000E+00 0. -1.
         24    2    1    2    0    0 -0.30796974969E+02 -0.64168055531E+02 -0.44878129581E+03  0.46123738191E+03  0.79178772298E+02 0.  0.
         24    2    1    2    0    0  0.20770415757E+03  0.87830568925E+02 -0.24640688859E+02  0.24066346322E+03  0.80352430418E+02 0.  0.
         25    2    1    2    0    0 -0.11788545507E+03 -0.91396454646E+02  0.58157073073E+02  0.20311938565E+03  0.12499978896E+03 0.  0.
        -11    1    3    3    0    0 -0.56116111098E+02 -0.42594387034E+02 -0.34956022247E+03  0.35658890738E+03  0.00000000000E+00 0.  1.
         12    1    3    3    0    0  0.25319136129E+02 -0.21573668497E+02 -0.99221073340E+02  0.10464847453E+03  0.00000000000E+00 0. -1.
        -13    1    4    4    0    0  0.65607672663E+02  0.36934416892E+01  0.21605725101E+02  0.69172361395E+02  0.00000000000E+00 0.  1.
         14    1    4    4    0    0  0.14209648490E+03  0.84137127235E+02 -0.46246413961E+02  0.17149110183E+03  0.00000000000E+00 0. -1.
          5    1    5    5  501    0 -0.14433635728E+03 -0.71243276991E+02  0.47821419152E+02  0.16798085212E+03  0.47000000000E+01 0.  1.
         -5    1    5    5    0  501  0.26450902206E+02 -0.20153177656E+02  0.10335653921E+02  0.35138533537E+02  0.47000000000E+01 0.  1.
          1    1    1    2  502    0 -0.86692421913E+02  0.48547395430E+02 -0.15385875025E+04  0.15417924402E+04  0.00000000000E+00 0. -1.
          1    1    1    2  503    0  0.27670694386E+02  0.19186545823E+02  0.40832353855E+03  0.40970953492E+03  0.00000000000E+00 0. -1.
<mgrwt>
<rscale>  0 0.57813558E+02</rscale>
<asrwt>0</asrwt>
<pdfrwt beam="1">  1        2 0.96396567E-01 0.33671811E+02</pdfrwt>
<pdfrwt beam="2">  1        2 0.32368023E+00 0.99264261E+02</pdfrwt>
<totfact> 0.57570959E+01</totfact>
</mgrwt>
</event>
<event>
13    1  0.1942437E-008  0.6319223E+02  0.7546771E-02  0.1564261E+00
          2   -1    0    0  502    0  0.00000000000E+00  0.00000000000E+00  0.11156716134E+04  0.11156716134E+04  0.00000000000E+00 0. -1.
          2   -1    0    0  503    0 -0.00000000000E+00 -0.00000000000E+00 -0.44143793706E+04  0.44143793706E+04  0.00000000000E+00 0. -1.
         24    2    1    2    0    0  0.24730541163E+03  0.20617643732E+01 -0.78452195895E+03  0.82634756221E+03  0.78812257855E+02 0.  0.
         24    2    1    2    0    0  0.73958241826E+03 -0.73698295464E+03 -0.17356530026E+04  0.20277776605E+04  0.96254175172E+02 0.  0.
         25    2    1    2    0    0 -0.92832036524E+03  0.72212479829E+03 -0.97113459982E+02  0.11867174806E+04  0.12499771886E+03 0.  0.
        -13    1    3    3    0    0  0.10721786698E+03  0.16951750206E+01 -0.22053472182E+03  0.24522256859E+03  0.00000000000E+00 0.  1.
         14    1    3    3    0    0  0.14008754465E+03  0.36658935260E+00 -0.56398723713E+03  0.58112499361E+03  0.00000000000E+00 0. -1.
        -13    1    4    4    0    0  0.69001968836E+03 -0.71018426239E+03 -0.16109833925E+04  0.18909670403E+04  0.00000000000E+00 0.  1.
         14    1    4    4    0    0  0.49562729903E+02 -0.26798692254E+02 -0.12466961015E+03  0.13681062019E+03  0.00000000000E+00 0. -1.
          5    1    5    5  501    0 -0.20163652842E+03  0.14309380839E+03 -0.70546895729E+02  0.25716158751E+03  0.47000000000E+01 0.  1.
         -5    1    5    5    0  501 -0.72668383682E+03  0.57903098991E+03 -0.26566564253E+02  0.92955589305E+03  0.47000000000E+01 0.  1.
          1    1    1    2  502    0  0.44947134219E+01  0.16959737675E+02  0.40278328372E+03  0.40316523758E+03  0.00000000000E+00 0. -1.
          1    1    1    2  503    0 -0.63062178074E+02 -0.41633457018E+01 -0.10842026194E+04  0.10860430432E+04  0.00000000000E+00 0. -1.
<mgrwt>
<rscale>  0 0.33297482E+02</rscale>
<asrwt>0</asrwt>
<pdfrwt beam="1">  1        2 0.16406936E+00 0.17545232E+02</pdfrwt>
<pdfrwt beam="2">  1        2 0.64917342E+00 0.63192230E+02</pdfrwt>
<totfact> 0.18147916E+00</totfact>
</mgrwt>
</event>
<event>
13    1  0.1942437E-008  0.1535123E+03  0.7546771E-02  0.1474137E+00
          2   -1    0    0  503    0  0.00000000000E+00  0.00000000000E+00  0.17536758183E+04  0.17536758183E+04  0.00000000000E+00 0. -1.
          2   -1    0    0  502    0 -0.00000000000E+00 -0.00000000000E+00 -0.20194275196E+04  0.20194275196E+04  0.00000000000E+00 0. -1.
         24    2    1    2    0    0  0.26476807060E+03  0.45858808704E+02 -0.47153304297E+03  0.54877151591E+03  0.81250258561E+02 0.  0.
         24    2    1    2    0    0 -0.12504912554E+03 -0.12122352724E+03 -0.21766375574E+03  0.29080077518E+03  0.82795850911E+02 0.  0.
         25    2    1    2    0    0 -0.43853630795E+02 -0.52815603512E+02  0.22731125303E+03  0.26833869632E+03  0.12499048474E+03 0.  0.
        -13    1    3    3    0    0  0.83883771543E+02 -0.20881066174E+02 -0.12088878961E+03  0.14861563009E+03  0.00000000000E+00 0.  1.
         14    1    3    3    0    0  0.18088429905E+03  0.66739874877E+02 -0.35064425336E+03  0.40015588582E+03  0.00000000000E+00 0. -1.
        -13    1    4    4    0    0  0.70753011392E+01 -0.19499467964E+02 -0.64999405531E+01  0.21737947563E+02  0.00000000000E+00 0.  1.
         14    1    4    4    0    0 -0.13212442668E+03 -0.10172405927E+03 -0.21116381518E+03  0.26906282761E+03  0.00000000000E+00 0. -1.
          5    1    5    5  501    0 -0.47706849692E+02  0.20619558972E+02  0.16086624659E+03  0.16911874234E+03  0.47000000000E+01 0. -1.
         -5    1    5    5    0  501  0.38532188971E+01 -0.73435162485E+02  0.66445006443E+02  0.99219953972E+02  0.47000000000E+01 0. -1.
          1    1    1    2  502    0 -0.10097207907E+03  0.11599692703E+03 -0.12297091304E+04  0.12392881801E+04  0.00000000000E+00 0. -1.
          1    1    1    2  503    0  0.51067648094E+01  0.12183395011E+02  0.14258429749E+04  0.14259041704E+04  0.00000000000E+00 0. -1.
<mgrwt>
<rscale>  0 0.45032835E+02</rscale>
<asrwt>0</asrwt>
<pdfrwt beam="1">  1        2 0.25789351E+00 0.13210381E+02</pdfrwt>
<pdfrwt beam="2">  1        2 0.29697463E+00 0.15351232E+03</pdfrwt>
<totfact> 0.19812110E+01</totfact>
</mgrwt>
</event>
<event>
13    1  0.1942437E-008  0.9496190E+02  0.7546771E-02  0.1314898E+00
          2   -1    0    0  502    0  0.00000000000E+00  0.00000000000E+00  0.15054032687E+04  0.15054032687E+04  0.00000000000E+00 0. -1.
          2   -1    0    0  503    0 -0.00000000000E+00 -0.00000000000E+00 -0.17315625143E+04  0.17315625143E+04  0.00000000000E+00 0. -1.
         24    2    1    2    0    0  0.87336283511E+02 -0.68971956036E+02 -0.62180454622E+03  0.63679354835E+03  0.80500760167E+02 0.  0.
         24    2    1    2    0    0 -0.45746359781E+02 -0.61453950762E+01  0.23521935056E+02  0.96169373835E+02  0.81023278885E+02 0.  0.
         25    2    1    2    0    0 -0.43529724914E+02  0.12544456984E+03  0.55831479823E+03  0.58734222180E+03  0.12499717808E+03 0.  0.
        -11    1    3    3    0    0  0.74211664421E+02 -0.71475488170E+02 -0.61095449666E+03  0.61958172466E+03  0.00000000000E+00 0.  1.
         12    1    3    3    0    0  0.13124619090E+02  0.25035321331E+01 -0.10850049565E+02  0.17211823697E+02  0.00000000000E+00 0. -1.
        -13    1    4    4    0    0 -0.50908515198E+02  0.18954871382E+02 -0.86839252155E+01  0.55012495180E+02  0.00000000000E+00 0.  1.
         14    1    4    4    0    0  0.51621554172E+01 -0.25100266458E+02  0.32205860272E+02  0.41156878655E+02  0.00000000000E+00 0. -1.
          5    1    5    5  501    0  0.39479996293E+02  0.30357488693E+02  0.98226326443E+02  0.11023043334E+03  0.47000000000E+01 0. -1.
         -5    1    5    5    0  501 -0.83009721208E+02  0.95087081146E+02  0.46008847179E+03  0.47711178846E+03  0.47000000000E+01 0. -1.
          1    1    1    2  502    0  0.75866590177E+02  0.94262771883E+01  0.86138976934E+03  0.86477565237E+03  0.00000000000E+00 0. -1.
          1    1    1    2  503    0 -0.73926788993E+02 -0.59753495914E+02 -0.10475812020E+04  0.10518849867E+04  0.00000000000E+00 0. -1.
<mgrwt>
<rscale>  0 0.85204647E+02</rscale>
<asrwt>0</asrwt>
<pdfrwt beam="1">  1        2 0.22138283E+00 0.76449946E+02</pdfrwt>
<pdfrwt beam="2">  1        2 0.25464155E+00 0.94961897E+02</pdfrwt>
<totfact> 0.31391339E+01</totfact>
</mgrwt>
</event>
<event>
13    1  0.1942437E-008  0.9468466E+02  0.7546771E-02  0.1375140E+00
          2   -1    0    0  503    0  0.00000000000E+00  0.00000000000E+00  0.32794785123E+04  0.32794785123E+04  0.00000000000E+00 0. -1.
          2   -1    0    0  502    0 -0.00000000000E+00 -0.00000000000E+00 -0.57932505797E+03  0.57932505797E+03  0.00000000000E+00 0. -1.
         24    2    1    2    0    0  0.40346595937E+02 -0.88712555608E+02 -0.36582120578E+03  0.38582649279E+03  0.74425550799E+02 0.  0.
         24    2    1    2    0    0 -0.73005038834E+02 -0.63215553475E+02 -0.62426336110E+02  0.14630214272E+03  0.90450691690E+02 0.  0.
         25    2    1    2    0    0  0.31463133181E+02  0.12872678020E+02  0.18456701043E+04  0.18502110707E+04  0.12500894940E+03 0.  0.
        -13    1    4    4    0    0  0.96273423753E+01  0.11674317421E+02 -0.23953596153E+02  0.28332846258E+02  0.00000000000E+00 0.  1.
         14    1    4    4    0    0 -0.82632381210E+02 -0.74889870896E+02 -0.38472739957E+02  0.11796929646E+03  0.00000000000E+00 0. -1.
        -13    1    3    3    0    0  0.23117749423E+02 -0.15469442718E+02 -0.27049476296E+02  0.38799589744E+02  0.00000000000E+00 0.  1.
         14    1    3    3    0    0  0.17228846514E+02 -0.73243112890E+02 -0.33877172949E+03  0.34702690304E+03  0.00000000000E+00 0. -1.
          5    1    5    5  501    0  0.50920827506E+02  0.13593802509E+02  0.17942106897E+04  0.17949907552E+04  0.47000000000E+01 0. -1.
         -5    1    5    5    0  501 -0.19457694325E+02 -0.72112448919E+00  0.51459414603E+02  0.55220315467E+02  0.47000000000E+01 0. -1.
          1    1    1    2  502    0  0.87603194496E+01  0.44821658665E+02 -0.89765608736E+02  0.10071538509E+03  0.00000000000E+00 0. -1.
          1    1    1    2  503    0 -0.75650097334E+01  0.94233772398E+02  0.13724965006E+04  0.13757484790E+04  0.00000000000E+00 0. -1.
<mgrwt>
<rscale>  0 0.65758825E+02</rscale>
<asrwt>0</asrwt>
<pdfrwt beam="1">  1        2 0.48227624E+00 0.94684664E+02</pdfrwt>
<pdfrwt beam="2">  1        2 0.85194863E-01 0.45669730E+02</pdfrwt>
<totfact> 0.18297381E+01</totfact>
</mgrwt>
</event>
<event>
13    1  0.1942437E-008  0.1701625E+03  0.7546771E-02  0.1284562E+00
          2   -1    0    0  503    0  0.00000000000E+00  0.00000000000E+00  0.17248087860E+04  0.17248087860E+04  0.00000000000E+00 0. -1.
          2   -1    0    0  502    0 -0.00000000000E+00 -0.00000000000E+00 -0.34995596255E+04  0.34995596255E+04  0.00000000000E+00 0. -1.
         24    2    1    2    0    0 -0.66210625140E+02  0.95705045701E+02 -0.45873964694E+03  0.47970925906E+03  0.78330114917E+02 0.  0.
         24    2    1    2    0    0  0.10854598020E+03 -0.38969125082E+02  0.87366376979E+02  0.16546324041E+03  0.80276880695E+02 0.  0.
         25    2    1    2    0    0  0.13291243510E+03  0.82222059431E+02  0.12133849412E+04  0.12297781936E+04  0.12500083064E+03 0.  0.
        -13    1    4    4    0    0  0.46198004247E+02 -0.12948084533E+02 -0.79494201294E+01  0.48632311994E+02  0.00000000000E+00 0.  1.
         14    1    4    4    0    0  0.62347975951E+02 -0.26021040549E+02  0.95315797109E+02  0.11683092842E+03  0.00000000000E+00 0. -1.
        -13    1    3    3    0    0 -0.36956248374E+02  0.45570084478E+02 -0.97166634911E+02  0.11350661581E+03  0.00000000000E+00 0.  1.
         14    1    3    3    0    0 -0.29254376766E+02  0.50134961223E+02 -0.36157301203E+03  0.36620264325E+03  0.00000000000E+00 0. -1.
          5    1    5    5  501    0  0.14931920557E+03  0.96118776234E+02  0.10507245075E+04  0.10656355497E+04  0.47000000000E+01 0. -1.
         -5    1    5    5    0  501 -0.16406770465E+02 -0.13896716803E+02  0.16266043371E+03  0.16414264391E+03  0.47000000000E+01 0. -1.
          1    1    1    2  502    0 -0.12804049990E+03 -0.16988960598E+03 -0.29770979770E+04  0.29846891317E+04  0.00000000000E+00 0. -1.
          1    1    1    2  503    0 -0.47207290254E+02  0.30931625929E+02  0.36033546630E+03  0.36472858677E+03  0.00000000000E+00 0. -1.
<mgrwt>
<rscale>  0 0.97998475E+02</rscale>
<asrwt>0</asrwt>
<pdfrwt beam="1">  1        2 0.25364835E+00 0.56438407E+02</pdfrwt>
<pdfrwt beam="2">  1        2 0.51464112E+00 0.17016251E+03</pdfrwt>
<totfact> 0.28318030E+00</totfact>
</mgrwt>
</event>
<event>
13    1  0.1942437E-008  0.1990862E+03  0.7546771E-02  0.1267592E+00
          2   -1    0    0  503    0  0.00000000000E+00  0.00000000000E+00  0.15030514745E+04  0.15030514745E+04  0.00000000000E+00 0. -1.
          2   -1    0    0  502    0 -0.00000000000E+00 -0.00000000000E+00 -0.23982708465E+04  0.23982708465E+04  0.00000000000E+00 0. -1.
         24    2    1    2    0    0  0.83824268264E+02  0.59132532544E+01 -0.14580803917E+04  0.14626764065E+04  0.79764448071E+02 0.  0.
         24    2    1    2    0    0 -0.20821919691E+02 -0.26392692506E+02 -0.61375722616E+02  0.10717316309E+03  0.81172538477E+02 0.  0.
         25    2    1    2    0    0 -0.20559696218E+03  0.89493118572E+02  0.67389599737E+03  0.72113805757E+03  0.12500061471E+03 0.  0.
        -11    1    3    3    0    0  0.90115391693E+02  0.24473300447E+02 -0.10567059407E+04  0.10608238173E+04  0.00000000000E+00 0.  1.
         12    1    3    3    0    0 -0.62911234289E+01 -0.18560047192E+02 -0.40137445095E+03  0.40185258922E+03  0.00000000000E+00 0. -1.
        -13    1    4    4    0    0 -0.10054985148E+02 -0.51123083804E+02 -0.16208927113E+02  0.54565572866E+02  0.00000000000E+00 0.  1.
         14    1    4    4    0    0 -0.10766934543E+02  0.24730391298E+02 -0.45166795503E+02  0.52607590224E+02  0.00000000000E+00 0. -1.
          5    1    5    5  501    0 -0.12365085648E+02  0.26788153605E+02  0.24187292381E+03  0.24371110313E+03  0.47000000000E+01 0. -1.
         -5    1    5    5    0  501 -0.19323187653E+03  0.62704964967E+02  0.43202307356E+03  0.47742695444E+03  0.47000000000E+01 0. -1.
          1    1    1    2  502    0 -0.43440575873E+02 -0.36518343353E+02 -0.81757275409E+03  0.81954004250E+03  0.00000000000E+00 0. -1.
          1    1    1    2  503    0  0.18603518948E+03 -0.32495335968E+02  0.76791349897E+03  0.79079465128E+03  0.00000000000E+00 0. -1.
<mgrwt>
<rscale>  0 0.10629363E+03</rscale>
<asrwt>0</asrwt>
<pdfrwt beam="1">  1        2 0.22103698E+00 0.19908621E+03</pdfrwt>
<pdfrwt beam="2">  1        2 0.35268689E+00 0.56750974E+02</pdfrwt>
<totfact> 0.14904540E+01</totfact>
</mgrwt>
</event>
<event>
13    1  0.1942437E-008  0.9148266E+02  0.7546771E-02  0.1305416E+00
          2   -1    0    0  502    0  0.00000000000E+00  0.00000000000E+00  0.69223118748E+03  0.69223118748E+03  0.00000000000E+00 0. -1.
          2   -1    0    0  503    0 -0.00000000000E+00 -0.00000000000E+00 -0.81667444718E+03  0.81667444718E+03  0.00000000000E+00 0. -1.
         24    2    1    2    0    0  0.29175471290E+01  0.49530737733E+02 -0.12566129803E+03  0.15732445052E+03  0.80612746180E+02 0.  0.
         24    2    1    2    0    0  0.13881781546E+02 -0.14193550757E+02  0.17073442811E+02  0.86659879294E+02  0.82609148935E+02 0.  0.
         25    2    1    2    0    0 -0.54842174656E+02 -0.26190345664E+01  0.35302252364E+03  0.37850264530E+03  0.12499930736E+03 0.  0.
        -13    1    3    3    0    0 -0.33513365386E+02  0.46541800115E+02 -0.86185618017E+02  0.10352413038E+03  0.00000000000E+00 0.  1.
         14    1    3    3    0    0  0.36430912515E+02  0.29889376187E+01 -0.39475680012E+02  0.53800320140E+02  0.00000000000E+00 0. -1.
        -13    1    4    4    0    0  0.18884557411E+02 -0.47577671108E+02  0.94652844791E+01  0.52056247531E+02  0.00000000000E+00 0.  1.
         14    1    4    4    0    0 -0.50027758655E+01  0.33384120351E+02  0.76081583319E+01  0.34603631763E+02  0.00000000000E+00 0. -1.
          5    1    5    5  501    0  0.12399635468E+02 -0.24985988144E+02  0.12979760393E+02  0.31122576100E+02  0.47000000000E+01 0.  1.
         -5    1    5    5    0  501 -0.67241810124E+02  0.22366953578E+02  0.34004276325E+03  0.34738006920E+03  0.47000000000E+01 0.  1.
          1    1    1    2  502    0  0.10843171027E+03  0.25728750152E+02  0.24321215158E+03  0.26752860604E+03  0.00000000000E+00 0. -1.
          1    1    1    2  503    0 -0.70388864287E+02 -0.58446902563E+02 -0.61209007971E+03  0.61889005350E+03  0.00000000000E+00 0. -1.
<mgrwt>
<rscale>  0 0.88949550E+02</rscale>
<asrwt>0</asrwt>
<pdfrwt beam="1">  1        2 0.10179870E+00 0.86486582E+02</pdfrwt>
<pdfrwt beam="2">  1        2 0.12009918E+00 0.91482659E+02</pdfrwt>
<totfact> 0.27479021E+02</totfact>
</mgrwt>
</event>
<event>
13    1  0.1942437E-008  0.3035193E+02  0.7546771E-02  0.1618975E+00
          2   -1    0    0  502    0  0.00000000000E+00  0.00000000000E+00  0.34141506766E+04  0.34141506766E+04  0.00000000000E+00 0. -1.
          2   -1    0    0  503    0 -0.00000000000E+00 -0.00000000000E+00 -0.51623121146E+03  0.51623121146E+03  0.00000000000E+00 0. -1.
         24    2    1    2    0    0 -0.73724486887E+02  0.48443853649E+01 -0.51115919415E+02  0.12013267829E+03  0.79751207765E+02 0.  0.
         24    2    1    2    0    0 -0.34032381660E+02  0.26513643083E+02 -0.54328875361E+01  0.89094988613E+02  0.77763902023E+02 0.  0.
         25    2    1    2    0    0  0.95942318628E+02 -0.47182093332E+02  0.97777948254E+03  0.99151836039E+03  0.12499945632E+03 0.  0.
        -11    1    3    3    0    0 -0.98921914397E+01 -0.22718528019E+02  0.10801163242E+02  0.27030577023E+02  0.00000000000E+00 0.  1.
         12    1    3    3    0    0 -0.63832295447E+02  0.27562913384E+02 -0.61917082657E+02  0.93102101270E+02  0.00000000000E+00 0. -1.
        -13    1    4    4    0    0 -0.26500224813E+02  0.52533210025E+02 -0.14375063822E+02  0.60569320044E+02  0.00000000000E+00 0.  1.
         14    1    4    4    0    0 -0.75321568469E+01 -0.26019566942E+02  0.89421762855E+01  0.28525668569E+02  0.00000000000E+00 0. -1.
          5    1    5    5  501    0  0.47568704679E+02  0.30772996072E+02  0.18781234088E+03  0.19622773591E+03  0.47000000000E+01 0.  1.
         -5    1    5    5    0  501  0.48373613950E+02 -0.77955089404E+02  0.78996714166E+03  0.79529062448E+03  0.47000000000E+01 0.  1.
          1    1    1    2  502    0  0.30237973934E+02 -0.27852582734E+01  0.23526088608E+04  0.23528048250E+04  0.00000000000E+00 0. -1.
          1    1    1    2  503    0 -0.18423424015E+02  0.18609323157E+02 -0.37592007130E+03  0.37683103570E+03  0.00000000000E+00 0. -1.
<mgrwt>
<rscale>  0 0.28192357E+02</rscale>
<asrwt>0</asrwt>
<pdfrwt beam="1">  1        2 0.50208097E+00 0.30351933E+02</pdfrwt>
<pdfrwt beam="2">  1        2 0.75916356E-01 0.26186437E+02</pdfrwt>
<totfact> 0.21661161E+01</totfact>
</mgrwt>
</event>
<event>
13    1  0.1942437E-008  0.1233089E+03  0.7546771E-02  0.1257130E+00
          2   -1    0    0  503    0  0.00000000000E+00  0.00000000000E+00  0.34307050941E+04  0.34307050941E+04  0.00000000000E+00 0. -1.
          2   -1    0    0  502    0 -0.00000000000E+00 -0.00000000000E+00 -0.12649865042E+04  0.12649865042E+04  0.00000000000E+00 0. -1.
         24    2    1    2    0    0  0.12513124934E+03  0.29723934318E+02 -0.79303607542E+02  0.17105468136E+03  0.80182915952E+02 0.  0.
         24    2    1    2    0    0 -0.80639218553E+02 -0.14943785725E+03  0.18515498082E+03  0.26889895596E+03  0.95864095700E+02 0.  0.
         25    2    1    2    0    0 -0.15996849375E+02 -0.67999626774E+02  0.17438249928E+04  0.17496941626E+04  0.12499683507E+03 0.  0.
        -11    1    4    4    0    0 -0.74622056274E+02 -0.41936672430E+02  0.99947036795E+02  0.13159234758E+03  0.00000000000E+00 0.  1.
         12    1    4    4    0    0 -0.60171622797E+01 -0.10750118482E+03  0.85207944029E+02  0.13730660839E+03  0.00000000000E+00 0. -1.
        -13    1    3    3    0    0  0.29264171079E+02  0.18965055721E+01  0.15686835790E+02  0.33257559433E+02  0.00000000000E+00 0.  1.
         14    1    3    3    0    0  0.95867078265E+02  0.27827428746E+02 -0.94990443332E+02  0.13779712192E+03  0.00000000000E+00 0. -1.
          5    1    5    5  501    0  0.87016435968E+01  0.88337117758E+01  0.20134559938E+02  0.24108993528E+02  0.47000000000E+01 0. -1.
         -5    1    5    5    0  501 -0.24698492972E+02 -0.76833338550E+02  0.17236904328E+04  0.17255851691E+04  0.47000000000E+01 0. -1.
          1    1    1    2  502    0 -0.75232975092E+02  0.97606053757E+02 -0.10896975808E+04  0.10966438620E+04  0.00000000000E+00 0. -1.
          1    1    1    2  503    0  0.46737793677E+02  0.90107495954E+02  0.14057398047E+04  0.14093999364E+04  0.00000000000E+00 0. -1.
<mgrwt>
<rscale>  0 0.11187846E+03</rscale>
<asrwt>0</asrwt>
<pdfrwt beam="1">  1        2 0.50451545E+00 0.10150755E+03</pdfrwt>
<pdfrwt beam="2">  1        2 0.18602743E+00 0.12330895E+03</pdfrwt>
<totfact> 0.53879835E+00</totfact>
</mgrwt>
</event>
<event>
13    1  0.1942437E-008  0.1284847E+03  0.7546771E-02  0.1408059E+00
          2   -1    0    0  502    0  0.00000000000E+00  0.00000000000E+00  0.21571173949E+04  0.21571173949E+04  0.00000000000E+00 0. -1.
          2   -1    0    0  503    0 -0.00000000000E+00 -0.00000000000E+00 -0.92319626655E+03  0.92319626655E+03  0.00000000000E+00 0. -1.
         24    2    1    2    0    0 -0.40376203014E+02  0.80793460029E+02 -0.51489380376E+02  0.13130969655E+03  0.80207600411E+02 0.  0.
         24    2    1    2    0    0 -0.28699306535E+03 -0.13788098484E+03  0.22278551694E+03  0.39723205637E+03  0.82363429471E+02 0.  0.
         25    2    1    2    0    0  0.14088018644E+03  0.10558890172E+03  0.51858673177E+03  0.56174080941E+03  0.12499718196E+03 0.  0.
        -13    1    3    3    0    0  0.18770219275E+02  0.18251240817E+01 -0.20590955045E+02  0.27922027849E+02  0.00000000000E+00 0.  1.
         14    1    3    3    0    0 -0.59146422289E+02  0.78968335947E+02 -0.30898425331E+02  0.10338766870E+03  0.00000000000E+00 0. -1.
        -13    1    4    4    0    0 -0.14998799522E+03 -0.78142969849E+02  0.16705196274E+03  0.23771638711E+03  0.00000000000E+00 0.  1.
         14    1    4    4    0    0 -0.13700507013E+03 -0.59738014991E+02  0.55733554199E+02  0.15951566926E+03  0.00000000000E+00 0. -1.
          5    1    5    5  501    0  0.40260203671E+02 -0.49014453164E+01  0.29662543617E+02  0.50466470648E+02  0.47000000000E+01 0. -1.
         -5    1    5    5    0  501  0.10061998277E+03  0.11049034704E+03  0.48892418815E+03  0.51127433876E+03  0.47000000000E+01 0. -1.
          1    1    1    2  502    0  0.15938308165E+02  0.20349761435E+02  0.12552022968E+04  0.12554684179E+04  0.00000000000E+00 0. -1.
          1    1    1    2  503    0  0.17055077376E+03 -0.68851138343E+02 -0.71116403668E+03  0.73456268130E+03  0.00000000000E+00 0. -1.
<mgrwt>
<rscale>  0 0.57629243E+02</rscale>
<asrwt>0</asrwt>
<pdfrwt beam="1">  1        2 0.31722315E+00 0.25848452E+02</pdfrwt>
<pdfrwt beam="2">  1        2 0.13576416E+00 0.12848466E+03</pdfrwt>
<totfact> 0.45566831E+01</totfact>
</mgrwt>
</event>
<event>
13    1  0.1942437E-008  0.1196659E+03  0.7546771E-02  0.1269871E+00
          2   -1    0    0  503    0  0.00000000000E+00  0.00000000000E+00  0.34069760109E+04  0.34069760109E+04  0.00000000000E+00 0. -1.
          2   -1    0    0  502    0 -0.00000000000E+00 -0.00000000000E+00 -0.29321157495E+04  0.29321157495E+04  0.00000000000E+00 0. -1.
         24    2    1    2    0    0 -0.23655754612E+02  0.42073202291E+02 -0.13259587944E+03  0.16277160017E+03  0.81136782644E+02 0.  0.
         24    2    1    2    0    0 -0.66749193809E+00  0.21826155080E+02  0.23392842968E+02  0.88407907084E+02  0.82413022889E+02 0.  0.
         25    2    1    2    0    0  0.17429279163E+03  0.13480069861E+03  0.32660161708E+03  0.41333219519E+03  0.12500272693E+03 0.  0.
        -11    1    3    3    0    0 -0.17615288897E+02  0.63976785890E+02 -0.71306166806E+02  0.97405836377E+02  0.00000000000E+00 0.  1.
         12    1    3    3    0    0 -0.60404657149E+01 -0.21903583599E+02 -0.61289712637E+02  0.65365763788E+02  0.00000000000E+00 0. -1.
        -13    1    4    4    0    0 -0.25006755726E+02 -0.23161206653E+02  0.10352370230E+02  0.35622337023E+02  0.00000000000E+00 0.  1.
         14    1    4    4    0    0  0.24339263788E+02  0.44987361733E+02  0.13040472738E+02  0.52785570061E+02  0.00000000000E+00 0. -1.
          5    1    5    5  501    0  0.12122481399E+02  0.22736920336E+02 -0.58196547886E+01  0.26830588579E+02  0.47000000000E+01 0. -1.
         -5    1    5    5    0  501  0.16217031023E+03  0.11206377828E+03  0.33242127187E+03  0.38650160661E+03  0.47000000000E+01 0. -1.
          1    1    1    2  502    0 -0.50284072907E+02 -0.93761873232E+02 -0.27057473011E+04  0.27078382954E+04  0.00000000000E+00 0. -1.
          1    1    1    2  503    0 -0.99685472169E+02 -0.10493818275E+03  0.29632089818E+04  0.29667417625E+04  0.00000000000E+00 0. -1.
<mgrwt>
<rscale>  0 0.10512607E+03</rscale>
<asrwt>0</asrwt>
<pdfrwt beam="1">  1        2 0.50102589E+00 0.11966589E+03</pdfrwt>
<pdfrwt beam="2">  1        2 0.43119349E+00 0.92352895E+02</pdfrwt>
<totfact> 0.82732107E-01</totfact>
</mgrwt>
</event>
<event>
13    1  0.1942437E-008  0.1424585E+03  0.7546771E-02  0.1293400E+00
          2   -1    0    0  502    0  0.00000000000E+00  0.00000000000E+00  0.20676684075E+04  0.20676684075E+04  0.00000000000E+00 0. -1.
          2   -1    0    0  503    0 -0.00000000000E+00 -0.00000000000E+00 -0.14439234502E+04  0.14439234502E+04  0.00000000000E+00 0. -1.
         24    2    1    2    0    0  0.33154894878E+02 -0.10603643436E+02  0.11838490838E+03  0.14716560817E+03  0.80193798926E+02 0.  0.
         24    2    1    2    0    0  0.38691242599E+01  0.23189745860E+03  0.12316210898E+03  0.27458618910E+03  0.80232591431E+02 0.  0.
         25    2    1    2    0    0  0.10094900935E+03 -0.33919998759E+03  0.10402381834E+04  0.11058793973E+04  0.12500571648E+03 0.  0.
        -13    1    3    3    0    0 -0.14964338407E+02 -0.18573276150E+02  0.84433408629E+02  0.87737668669E+02  0.00000000000E+00 0.  1.
         14    1    3    3    0    0  0.48119233285E+02  0.79696327134E+01  0.33951499754E+02  0.59427939499E+02  0.00000000000E+00 0. -1.
        -13    1    4    4    0    0  0.29509952585E+02  0.74159312854E+02  0.70013909133E+02  0.10617150492E+03  0.00000000000E+00 0.  1.
         14    1    4    4    0    0 -0.25640828325E+02  0.15773814574E+03  0.53148199845E+02  0.16841468418E+03  0.00000000000E+00 0. -1.
          5    1    5    5  501    0  0.21179108616E+02 -0.33510837040E+02  0.38373325772E+02  0.55372673510E+02  0.47000000000E+01 0.  1.
         -5    1    5    5    0  501  0.79769900730E+02 -0.30568915055E+03  0.10018648576E+04  0.10505067238E+04  0.47000000000E+01 0.  1.
          1    1    1    2  502    0 -0.61996594072E+02 -0.25860518157E+01  0.65765552676E+03  0.66057630688E+03  0.00000000000E+00 0. -1.
          1    1    1    2  503    0 -0.75976434412E+02  0.12049222424E+03 -0.13156957702E+04  0.13233843562E+04  0.00000000000E+00 0. -1.
<mgrwt>
<rscale>  0 0.94019273E+02</rscale>
<asrwt>0</asrwt>
<pdfrwt beam="1">  1        2 0.30406888E+00 0.62050506E+02</pdfrwt>
<pdfrwt beam="2">  1        2 0.21234168E+00 0.14245853E+03</pdfrwt>
<totfact> 0.23223058E+01</totfact>
</mgrwt>
</event>
<event>
13    1  0.1942437E-008  0.3350581E+02  0.7546771E-02  0.1633092E+00
          2   -1    0    0  502    0  0.00000000000E+00  0.00000000000E+00  0.71918853676E+03  0.71918853676E+03  0.00000000000E+00 0. -1.
          2   -1    0    0  503    0 -0.00000000000E+00 -0.00000000000E+00 -0.53809122629E+03  0.53809122629E+03  0.00000000000E+00 0. -1.
         24    2    1    2    0    0 -0.45939340563E+01  0.57464987159E+02 -0.25617956490E+03  0.27440640368E+03  0.79671675821E+02 0.  0.
         24    2    1    2    0    0 -0.61805342705E+02 -0.82664924506E+02  0.14637827552E+03  0.19584307269E+03  0.79211864301E+02 0.  0.
         25    2    1    2    0    0  0.65877584615E+02  0.41485917386E+02  0.11233075071E+03  0.18521520603E+03  0.12500214996E+03 0.  0.
        -11    1    4    4    0    0  0.18493738059E+02 -0.12930410750E+02  0.36592474065E+02  0.42990964489E+02  0.00000000000E+00 0.  1.
         12    1    4    4    0    0 -0.80299080763E+02 -0.69734513756E+02  0.10978580145E+03  0.15285210820E+03  0.00000000000E+00 0. -1.
        -13    1    3    3    0    0 -0.33018253570E+00  0.61932169077E+02 -0.25991315595E+03  0.26719010315E+03  0.00000000000E+00 0.  1.
         14    1    3    3    0    0 -0.42637515206E+01 -0.44671819173E+01  0.37335910422E+01  0.72163005330E+01  0.00000000000E+00 0. -1.
          5    1    5    5  501    0  0.41859590907E+02  0.13288932606E+02  0.13465462298E+03  0.14171372048E+03  0.47000000000E+01 0.  1.
         -5    1    5    5    0  501  0.24017993708E+02  0.28196984780E+02 -0.22323872270E+02  0.43501485556E+02  0.47000000000E+01 0.  1.
          1    1    1    2  502    0  0.19315898368E+02 -0.27431468888E+02  0.38890328315E+03  0.39034773351E+03  0.00000000000E+00 0. -1.
          1    1    1    2  503    0 -0.18794206221E+02  0.11145488848E+02 -0.21033543400E+03  0.21146734714E+03  0.00000000000E+00 0. -1.
<mgrwt>
<rscale>  0 0.27057689E+02</rscale>
<asrwt>0</asrwt>
<pdfrwt beam="1">  1        2 0.10576302E+00 0.33505811E+02</pdfrwt>
<pdfrwt beam="2">  1        2 0.79131063E-01 0.21850494E+02</pdfrwt>
<totfact> 0.44244627E+02</totfact>
</mgrwt>
</event>
<event>
13    1  0.1942437E-008  0.5479016E+02  0.7546771E-02  0.1560321E+00
          4   -1    0    0  503    0 -0.00000000000E+00  0.00000000000E+00  0.28352987597E+04  0.28352987597E+04  0.00000000000E+00 0. -1.
          2   -1    0    0  502    0  0.00000000000E+00 -0.00000000000E+00 -0.10760502217E+04  0.10760502217E+04  0.00000000000E+00 0. -1.
         24    2    1    2    0    0 -0.15621301621E+02 -0.17334648331E+02  0.77943787302E+03  0.78352972767E+03  0.76491314234E+02 0.  0.
         24    2    1    2    0    0  0.14267509272E+02 -0.94167298191E+01  0.94357252265E+03  0.94720565670E+03  0.81100024479E+02 0.  0.
         25    2    1    2    0    0 -0.32564468080E+02  0.22568984948E+02 -0.65428634518E+02  0.14654491271E+03  0.12499880625E+03 0.  0.
        -11    1    3    3    0    0  0.11517767378E+01  0.23422038891E+02  0.50767064623E+03  0.50821196714E+03  0.00000000000E+00 0.  1.
         12    1    3    3    0    0 -0.16773078359E+02 -0.40756687222E+02  0.27176722679E+03  0.27531776054E+03  0.00000000000E+00 0. -1.
        -13    1    4    4    0    0  0.11188840287E+02  0.32461947387E+02  0.24785602237E+03  0.25022305249E+03  0.00000000000E+00 0.  1.
         14    1    4    4    0    0  0.30786689854E+01 -0.41878677206E+02  0.69571650028E+03  0.69698260421E+03  0.00000000000E+00 0. -1.
          5    1    5    5  501    0  0.49822270814E+01  0.61424379310E+02 -0.68450518989E+02  0.92224403008E+02  0.47000000000E+01 0. -1.
         -5    1    5    5    0  501 -0.37546695162E+02 -0.38855394362E+02  0.30218844711E+01  0.54320509703E+02  0.47000000000E+01 0. -1.
          1    1    1    2  502    0  0.54661979618E+02  0.38762708875E+01 -0.96532303743E+03  0.96687720217E+03  0.00000000000E+00 0. -1.
          3    1    1    2  503    0 -0.20743719189E+02  0.30612231436E+00  0.10669898143E+04  0.10671914820E+04  0.00000000000E+00 0. -1.
<mgrwt>
<rscale>  0 0.33714619E+02</rscale>
<asrwt>0</asrwt>
<pdfrwt beam="2">  1        2 0.15824268E+00 0.54790163E+02</pdfrwt>
<pdfrwt beam="1">  1        4 0.41695570E+00 0.20745978E+02</pdfrwt>
<totfact> 0.13421015E-01</totfact>
</mgrwt>
</event>
<event>
13    1  0.1942437E-008  0.1473173E+03  0.7546771E-02  0.1489180E+00
          2   -1    0    0  503    0  0.00000000000E+00  0.00000000000E+00  0.22501875122E+04  0.22501875122E+04  0.00000000000E+00 0. -1.
          2   -1    0    0  502    0 -0.00000000000E+00 -0.00000000000E+00 -0.15628268671E+04  0.15628268671E+04  0.00000000000E+00 0. -1.
         24    2    1    2    0    0  0.18944078972E+03 -0.12047158307E+03 -0.22198762920E+03  0.32581412628E+03  0.80468144150E+02 0.  0.
         24    2    1    2    0    0 -0.97490956837E+02  0.12708459197E+03 -0.12993289043E+03  0.22163778873E+03  0.81152776875E+02 0.  0.
         25    2    1    2    0    0  0.42478889594E+02 -0.38954408660E+02  0.11374198182E+04  0.11457180504E+04  0.12499642477E+03 0.  0.
        -13    1    4    4    0    0  0.35843393925E+01  0.54167139451E+02 -0.31007980498E+02  0.62517368305E+02  0.00000000000E+00 0.  1.
         14    1    4    4    0    0 -0.10107529623E+03  0.72917452517E+02 -0.98924909936E+02  0.15912042042E+03  0.00000000000E+00 0. -1.
        -13    1    3    3    0    0  0.30790088578E+02 -0.54703377519E+02 -0.87459209610E+02  0.10765501573E+03  0.00000000000E+00 0.  1.
         14    1    3    3    0    0  0.15865070114E+03 -0.65768205555E+02 -0.13452841959E+03  0.21815911054E+03  0.00000000000E+00 0. -1.
          5    1    5    5  501    0 -0.38770653652E+02 -0.36985633235E+02  0.56196609516E+03  0.56453439466E+03  0.47000000000E+01 0.  1.
         -5    1    5    5    0  501  0.81249543246E+02 -0.19687754253E+01  0.57545372307E+03  0.58118365578E+03  0.47000000000E+01 0.  1.
          1    1    1    2  502    0 -0.14569218912E+03  0.37482189888E+02 -0.11038515181E+04  0.11140553409E+04  0.00000000000E+00 0. -1.
          1    1    1    2  503    0  0.11263466646E+02 -0.51407901212E+01  0.10057128646E+04  0.10057890730E+04  0.00000000000E+00 0. -1.
<mgrwt>
<rscale>  0 0.42707859E+02</rscale>
<asrwt>0</asrwt>
<pdfrwt beam="1">  1        2 0.33090993E+00 0.12381171E+02</pdfrwt>
<pdfrwt beam="2">  1        2 0.22982748E+00 0.14731734E+03</pdfrwt>
<totfact> 0.20693301E+01</totfact>
</mgrwt>
</event>
<event>
13    1  0.1942437E-008  0.1249698E+03  0.7546771E-02  0.1301782E+00
          2   -1    0    0  503    0  0.00000000000E+00  0.00000000000E+00  0.77525520875E+03  0.77525520875E+03  0.00000000000E+00 0. -1.
          2   -1    0    0  502    0 -0.00000000000E+00 -0.00000000000E+00 -0.17436096241E+04  0.17436096241E+04  0.00000000000E+00 0. -1.
         24    2    1    2    0    0  0.61390942228E+01 -0.73091300261E+02 -0.22218769133E+03  0.25005696710E+03  0.88210486709E+02 0.  0.
         24    2    1    2    0    0  0.41579418847E+02  0.12658911745E+02 -0.76838274301E+01  0.91681604107E+02  0.80357819840E+02 0.  0.
         25    2    1    2    0    0  0.45108208227E+02  0.54046076452E+02  0.28274887932E+03  0.31705998501E+03  0.12499750601E+03 0.  0.
        -11    1    4    4    0    0  0.25914994583E+02  0.80319730040E+01  0.35979976463E+02  0.45062825487E+02  0.00000000000E+00 0.  1.
         12    1    4    4    0    0  0.15664424264E+02  0.46269387411E+01 -0.43663803893E+02  0.46618778620E+02  0.00000000000E+00 0. -1.
        -11    1    3    3    0    0 -0.25543536924E+01 -0.59196639777E+02 -0.51267035045E+02  0.78352254377E+02  0.00000000000E+00 0.  1.
         12    1    3    3    0    0  0.86934479152E+01 -0.13894660484E+02 -0.17092065629E+03  0.17170471273E+03  0.00000000000E+00 0. -1.
          5    1    5    5  501    0  0.26528802822E+01  0.19807923389E+02  0.25474337032E+03  0.25556929847E+03  0.47000000000E+01 0. -1.
         -5    1    5    5    0  501  0.42455327945E+02  0.34238153064E+02  0.28005509007E+02  0.61490686538E+02  0.47000000000E+01 0. -1.
          1    1    1    2  502    0 -0.14367015302E+03  0.47609604418E+02 -0.14340883736E+04  0.14420531373E+04  0.00000000000E+00 0. -1.
          1    1    1    2  503    0  0.50843431728E+02 -0.41223292354E+02  0.41285659774E+03  0.41801313936E+03  0.00000000000E+00 0. -1.
<mgrwt>
<rscale>  0 0.90443101E+02</rscale>
<asrwt>0</asrwt>
<pdfrwt beam="1">  1        2 0.11400812E+00 0.65455438E+02</pdfrwt>
<pdfrwt beam="2">  1        2 0.25641318E+00 0.12496982E+03</pdfrwt>
<totfact> 0.76199767E+01</totfact>
</mgrwt>
</event>
<event>
13    1  0.1942437E-008  0.1518957E+03  0.7546771E-02  0.1298026E+00
          2   -1    0    0  502    0  0.00000000000E+00  0.00000000000E+00  0.12728112061E+04  0.12728112061E+04  0.00000000000E+00 0. -1.
          2   -1    0    0  503    0 -0.00000000000E+00 -0.00000000000E+00 -0.79829755714E+03  0.79829755714E+03  0.00000000000E+00 0. -1.
         24    2    1    2    0    0 -0.12930461291E+03  0.10319623600E+03 -0.29908348905E+03  0.35147275987E+03  0.81933030359E+02 0.  0.
         24    2    1    2    0    0  0.77562774585E+02 -0.80632295612E+02  0.10848269611E+03  0.16822131953E+03  0.63343238713E+02 0.  0.
         25    2    1    2    0    0 -0.14343046168E+02 -0.12675937529E+03  0.15846364058E+03  0.23876513890E+03  0.12499761586E+03 0.  0.
        -13    1    3    3    0    0 -0.11667205841E+02  0.42518006539E+02 -0.35819092484E+02  0.56805914820E+02  0.00000000000E+00 0.  1.
         14    1    3    3    0    0 -0.11763740707E+03  0.60678229463E+02 -0.26326439656E+03  0.29466684505E+03  0.00000000000E+00 0. -1.
        -13    1    4    4    0    0  0.28655656025E+02  0.46931976955E+01  0.15680440239E+02  0.33000741400E+02  0.00000000000E+00 0.  1.
         14    1    4    4    0    0  0.48907118560E+02 -0.85325493308E+02  0.92802255872E+02  0.13522057813E+03  0.00000000000E+00 0. -1.
          5    1    5    5  501    0  0.22216771339E+02 -0.25931003697E+02  0.11980014046E+03  0.12466020029E+03  0.47000000000E+01 0. -1.
         -5    1    5    5    0  501 -0.36559817507E+02 -0.10082837159E+03  0.38663500118E+02  0.11410493861E+03  0.47000000000E+01 0. -1.
          1    1    1    2  502    0  0.12181498450E+03  0.10270387798E+03  0.90069583531E+03  0.91468025274E+03  0.00000000000E+00 0. -1.
          1    1    1    2  503    0 -0.55730100007E+02  0.14915569272E+01 -0.39404503395E+03  0.39796929225E+03  0.00000000000E+00 0. -1.
<mgrwt>
<rscale>  0 0.92022791E+02</rscale>
<asrwt>0</asrwt>
<pdfrwt beam="1">  1        2 0.18717812E+00 0.15189570E+03</pdfrwt>
<pdfrwt beam="2">  1        2 0.11739670E+00 0.55750056E+02</pdfrwt>
<totfact> 0.12604331E+02</totfact>
</mgrwt>
</event>
<event>
13    1  0.1942437E-008  0.1508230E+03  0.7546771E-02  0.1221882E+00
          2   -1    0    0  502    0  0.00000000000E+00  0.00000000000E+00  0.10330483177E+04  0.10330483177E+04  0.00000000000E+00 0. -1.
          2   -1    0    0  503    0 -0.00000000000E+00 -0.00000000000E+00 -0.31496665289E+04  0.31496665289E+04  0.00000000000E+00 0. -1.
         24    2    1    2    0    0  0.12975593450E+03  0.24469482691E+02 -0.78440844458E+03  0.79937743446E+03  0.79197958766E+02 0.  0.
         24    2    1    2    0    0  0.21754177533E+02 -0.10383477265E+02 -0.35195143103E+03  0.36189447310E+03  0.80726321738E+02 0.  0.
         25    2    1    2    0    0 -0.28449111685E+03  0.14385171293E+03  0.50430916984E+02  0.34611885196E+03  0.12500588552E+03 0.  0.
        -13    1    3    3    0    0  0.11918112314E+03  0.17234812272E+02 -0.77267952788E+03  0.78200692559E+03  0.00000000000E+00 0.  1.
         14    1    3    3    0    0  0.10574811357E+02  0.72346704190E+01 -0.11728916694E+02  0.17370508862E+02  0.00000000000E+00 0. -1.
        -13    1    4    4    0    0  0.37719095544E+02 -0.31961963300E+02 -0.29270546596E+03  0.29685145623E+03  0.00000000000E+00 0.  1.
         14    1    4    4    0    0 -0.15964918011E+02  0.21578486035E+02 -0.59245965071E+02  0.65043016872E+02  0.00000000000E+00 0. -1.
          5    1    5    5  501    0 -0.48824144328E+02  0.83861326979E+02 -0.25562702635E+01  0.97186129410E+02  0.47000000000E+01 0. -1.
         -5    1    5    5    0  501 -0.23566697252E+03  0.59990385955E+02  0.52987187247E+02  0.24893272255E+03  0.47000000000E+01 0. -1.
          1    1    1    2  502    0 -0.14759784360E+02 -0.15007857632E+03  0.81241429255E+03  0.82629196598E+03  0.00000000000E+00 0. -1.
          1    1    1    2  503    0  0.14774078917E+03 -0.78591420411E+01 -0.18431035451E+04  0.18490321211E+04  0.00000000000E+00 0. -1.
<mgrwt>
<rscale>  0 0.13382936E+03</rscale>
<asrwt>0</asrwt>
<pdfrwt beam="1">  1        2 0.15191887E+00 0.15082302E+03</pdfrwt>
<pdfrwt beam="2">  1        2 0.46318626E+00 0.11875042E+03</pdfrwt>
<totfact> 0.10029042E+01</totfact>
</mgrwt>
</event>
<event>
13    1  0.1942437E-008  0.1015197E+03  0.7546771E-02  0.1398516E+00
          2   -1    0    0  502    0  0.00000000000E+00  0.00000000000E+00  0.15358585070E+04  0.15358585070E+04  0.00000000000E+00 0. -1.
          2   -1    0    0  503    0 -0.00000000000E+00 -0.00000000000E+00 -0.39111338762E+04  0.39111338762E+04  0.00000000000E+00 0. -1.
         24    2    1    2    0    0  0.14439976174E+03  0.74366803649E+02 -0.26632597966E+03  0.32317716130E+03  0.84452575243E+02 0.  0.
         24    2    1    2    0    0  0.22141521883E+02 -0.54266922202E+02  0.14838010933E+03  0.17802828336E+03  0.79008018552E+02 0.  0.
         25    2    1    2    0    0 -0.99127424131E+02  0.28329406911E+02  0.30913793401E+03  0.34902668981E+03  0.12499826576E+03 0.  0.
        -13    1    3    3    0    0  0.44805503707E+02  0.32475507397E+02 -0.29138653822E+02  0.62540010311E+02  0.00000000000E+00 0.  1.
         14    1    3    3    0    0  0.99594258034E+02  0.41891296252E+02 -0.23718732584E+03  0.26063715098E+03  0.00000000000E+00 0. -1.
        -13    1    4    4    0    0  0.74868620059E+00 -0.70767688787E+02  0.11567347746E+03  0.13560597220E+03  0.00000000000E+00 0.  1.
         14    1    4    4    0    0  0.21392835683E+02  0.16500766585E+02  0.32706631869E+02  0.42422311166E+02  0.00000000000E+00 0. -1.
          5    1    5    5  501    0  0.12084672567E+02 -0.31722176976E+01  0.15866238119E+03  0.15922293641E+03  0.47000000000E+01 0. -1.
         -5    1    5    5    0  501 -0.11121209670E+03  0.31501624608E+02  0.15047555283E+03  0.18980375340E+03  0.47000000000E+01 0. -1.
          1    1    1    2  502    0 -0.85029714515E+01  0.34228628515E+02  0.10141206474E+04  0.10147337518E+04  0.00000000000E+00 0. -1.
          1    1    1    2  503    0 -0.58910888042E+02 -0.82657916874E+02 -0.35805880803E+04  0.35820264969E+04  0.00000000000E+00 0. -1.
<mgrwt>
<rscale>  0 0.59837233E+02</rscale>
<asrwt>0</asrwt>
<pdfrwt beam="1">  1        2 0.22586155E+00 0.35268960E+02</pdfrwt>
<pdfrwt beam="2">  1        2 0.57516673E+00 0.10151971E+03</pdfrwt>
<totfact> 0.22026966E+00</totfact>
</mgrwt>
</event>
<event>
13    1  0.1942437E-008  0.8570922E+02  0.7546771E-02  0.1330999E+00
         -3   -1    0    0    0  501 -0.00000000000E+00  0.00000000000E+00  0.12834630124E+04  0.12834630124E+04  0.00000000000E+00 0.  1.
          2   -1    0    0  503    0  0.00000000000E+00 -0.00000000000E+00 -0.31847196001E+04  0.31847196001E+04  0.00000000000E+00 0. -1.
         24    2    1    2    0    0  0.64283274193E+02 -0.26044986153E+02  0.34883101293E+03  0.36435440735E+03  0.79122550068E+02 0.  0.
         24    2    1    2    0    0  0.48808210061E+02  0.49743647114E+02  0.29162656337E+03  0.30975946796E+03  0.77770198214E+02 0.  0.
         25    2    1    2    0    0 -0.17515887326E+03  0.68284469778E+02 -0.14067862605E+04  0.14247861599E+04  0.12499847659E+03 0.  0.
        -11    1    4    4    0    0  0.69454832410E+02  0.30080719835E+02  0.22062692532E+03  0.23324893060E+03  0.00000000000E+00 0.  1.
         12    1    4    4    0    0 -0.20646622348E+02  0.19662927280E+02  0.70999638054E+02  0.76510537362E+02  0.00000000000E+00 0. -1.
        -13    1    3    3    0    0  0.80984220575E+02 -0.11026802194E+02  0.29268866268E+03  0.30388597798E+03  0.00000000000E+00 0.  1.
         14    1    3    3    0    0 -0.16700946382E+02 -0.15018183959E+02  0.56142350248E+02  0.60468429373E+02  0.00000000000E+00 0. -1.
          5    1    5    5  502    0 -0.21882602009E+02  0.15701302942E+02 -0.66184734396E+03  0.66241178725E+03  0.47000000000E+01 0. -1.
         -5    1    5    5    0  502 -0.15327627126E+03  0.52583166836E+02 -0.74493891649E+03  0.76237437265E+03  0.47000000000E+01 0. -1.
          1    1    1    2  503    0 -0.11002552603E+02 -0.85003902402E+02 -0.17488694556E+04  0.17509686155E+04  0.00000000000E+00 0. -1.
         -4    1    1    2    0  501  0.73069941613E+02 -0.69792283371E+01  0.61394155205E+03  0.61831396177E+03  0.00000000000E+00 0.  1.
<mgrwt>
<rscale>  0 0.79317529E+02</rscale>
<asrwt>0</asrwt>
<pdfrwt beam="2">  1        2 0.46834111E+00 0.85709219E+02</pdfrwt>
<pdfrwt beam="1">  1       -3 0.18874456E+00 0.73402493E+02</pdfrwt>
<totfact> 0.28178187E-01</totfact>
</mgrwt>
</event>
<event>
13    1  0.1942437E-008  0.1722412E+03  0.7546771E-02  0.1359166E+00
          2   -1    0    0  503    0  0.00000000000E+00  0.00000000000E+00  0.30515590222E+04  0.30515590222E+04  0.00000000000E+00 0. -1.
         -1   -1    0    0    0  501 -0.00000000000E+00 -0.00000000000E+00 -0.54517019367E+03  0.54517019367E+03  0.00000000000E+00 0.  1.
         24    2    1    2    0    0 -0.98147550821E+01  0.13718255062E+02  0.17217902723E+03  0.19075270857E+03  0.80352090635E+02 0.  0.
         24    2    1    2    0    0  0.19679186518E+02 -0.53623738969E+02  0.30707119582E+03  0.32285355754E+03  0.81724687503E+02 0.  0.
         25    2    1    2    0    0 -0.19567429493E+03 -0.35928040947E+02  0.14829542383E+04  0.15014516259E+04  0.12499783335E+03 0.  0.
        -13    1    3    3    0    0  0.56452513955E+01 -0.29687453148E+02  0.36069318086E+02  0.47055386992E+02  0.00000000000E+00 0.  1.
         14    1    3    3    0    0 -0.15460006478E+02  0.43405708210E+02  0.13610970914E+03  0.14369732157E+03  0.00000000000E+00 0. -1.
        -13    1    4    4    0    0 -0.26555887236E+02  0.26728294812E+01  0.74251707464E+02  0.78902948143E+02  0.00000000000E+00 0.  1.
         14    1    4    4    0    0  0.46235073754E+02 -0.56296568450E+02  0.23281948836E+03  0.24395060939E+03  0.00000000000E+00 0. -1.
          5    1    5    5  502    0 -0.72692297350E+02 -0.32165596975E+02  0.25026069309E+03  0.26262387597E+03  0.47000000000E+01 0.  1.
         -5    1    5    5    0  502 -0.12298199758E+03 -0.37624439716E+01  0.12326935452E+04  0.12388277500E+04  0.47000000000E+01 0.  1.
          1    1    1    2  503    0  0.26792243950E+02  0.10207900694E+02  0.10484644622E+04  0.10488564029E+04  0.00000000000E+00 0. -1.
         -2    1    1    2    0  501  0.15901761954E+03  0.65625624160E+02 -0.50428009491E+03  0.53281492095E+03  0.00000000000E+00 0.  1.
<mgrwt>
<rscale>  0 0.70273214E+02</rscale>
<asrwt>0</asrwt>
<pdfrwt beam="1">  1        2 0.44875867E+00 0.28670988E+02</pdfrwt>
<pdfrwt beam="2">  1       -1 0.80172089E-01 0.17224117E+03</pdfrwt>
<totfact> 0.63905165E+00</totfact>
</mgrwt>
</event>
<event>
13    1  0.1942437E-008  0.1100793E+03  0.7546771E-02  0.1275012E+00
          2   -1    0    0  502    0  0.00000000000E+00  0.00000000000E+00  0.13931432745E+04  0.13931432745E+04  0.00000000000E+00 0. -1.
          2   -1    0    0  503    0 -0.00000000000E+00 -0.00000000000E+00 -0.37121914483E+04  0.37121914483E+04  0.00000000000E+00 0. -1.
         24    2    1    2    0    0  0.97687526824E+02 -0.11087069760E+03 -0.22079947241E+03  0.27744587807E+03  0.79928991989E+02 0.  0.
         24    2    1    2    0    0 -0.49028504243E+02  0.14288815354E+03 -0.56934478583E+02  0.17982657781E+03  0.79216441393E+02 0.  0.
         25    2    1    2    0    0  0.12946584118E+03 -0.53476143227E+02  0.33088226733E+03  0.38043275417E+03  0.12499961474E+03 0.  0.
        -13    1    3    3    0    0  0.56519113345E+02 -0.10564049455E+03 -0.19410207564E+03  0.22810072343E+03  0.00000000000E+00 0.  1.
         14    1    3    3    0    0  0.41168413479E+02 -0.52302030522E+01 -0.26697396765E+02  0.49345154639E+02  0.00000000000E+00 0. -1.
        -13    1    4    4    0    0  0.13695843091E+02  0.25052795021E+02  0.10309916524E+02  0.30356433175E+02  0.00000000000E+00 0.  1.
         14    1    4    4    0    0 -0.62724347334E+02  0.11783535852E+03 -0.67244395107E+02  0.14947014464E+03  0.00000000000E+00 0. -1.
          5    1    5    5  501    0  0.13528230160E+03 -0.12927464249E+02  0.19003753722E+03  0.23367664841E+03  0.47000000000E+01 0. -1.
         -5    1    5    5    0  501 -0.58164604225E+01 -0.40548678978E+02  0.14084473011E+03  0.14675610577E+03  0.47000000000E+01 0. -1.
          1    1    1    2  502    0 -0.86831889819E+02 -0.39865177730E+02  0.94439457822E+03  0.94921553340E+03  0.00000000000E+00 0. -1.
          1    1    1    2  503    0 -0.91292973942E+02  0.61323865022E+02 -0.33165910683E+04  0.33184139793E+04  0.00000000000E+00 0. -1.
<mgrwt>
<rscale>  0 0.10255545E+03</rscale>
<asrwt>0</asrwt>
<pdfrwt beam="1">  1        2 0.20487401E+00 0.95545850E+02</pdfrwt>
<pdfrwt beam="2">  1        2 0.54591050E+00 0.11007930E+03</pdfrwt>
<totfact> 0.31443296E+00</totfact>
</mgrwt>
</event>
<event>
13    1  0.1942437E-008  0.2489712E+02  0.7546771E-02  0.1689428E+00
          2   -1    0    0  502    0  0.00000000000E+00  0.00000000000E+00  0.25597022396E+03  0.25597022396E+03  0.00000000000E+00 0. -1.
          2   -1    0    0  503    0 -0.00000000000E+00 -0.00000000000E+00 -0.20854106746E+04  0.20854106746E+04  0.00000000000E+00 0. -1.
         24    2    1    2    0    0 -0.12722492746E+03  0.29065936988E+02 -0.26589500565E+03  0.30420961419E+03  0.69370919538E+02 0.  0.
         24    2    1    2    0    0  0.15350665674E+03 -0.79723385300E+02 -0.15739095608E+03  0.24726655007E+03  0.80303934518E+02 0.  0.
         25    2    1    2    0    0 -0.62208384174E+02  0.32568681350E+02 -0.18562433437E+03  0.23455891017E+03  0.12502354483E+03 0.  0.
        -11    1    4    4    0    0  0.50418041635E+02 -0.51277550866E+02 -0.10731536972E+03  0.12918186685E+03  0.00000000000E+00 0.  1.
         12    1    4    4    0    0  0.10308861510E+03 -0.28445834434E+02 -0.50075586361E+02  0.11808468321E+03  0.00000000000E+00 0. -1.
        -11    1    3    3    0    0 -0.49230295028E+02  0.43108323635E+02 -0.89882765172E+02  0.11117940902E+03  0.00000000000E+00 0.  1.
         12    1    3    3    0    0 -0.77994632430E+02 -0.14042386647E+02 -0.17601224048E+03  0.19303020517E+03  0.00000000000E+00 0. -1.
          5    1    5    5  501    0 -0.95695362201E+02  0.43314493612E+02 -0.15706574040E+03  0.18901186341E+03  0.47000000000E+01 0.  1.
         -5    1    5    5    0  501  0.33486978026E+02 -0.10745812262E+02 -0.28558593974E+02  0.45547046757E+02  0.47000000000E+01 0.  1.
          1    1    1    2  502    0  0.11045463501E+02  0.18429967779E+02  0.16660635586E+03  0.16798614166E+03  0.00000000000E+00 0. -1.
          1    1    1    2  503    0  0.24881191395E+02 -0.34120081600E+00 -0.13871365104E+04  0.13873596825E+04  0.00000000000E+00 0. -1.
<mgrwt>
<rscale>  0 0.23128983E+02</rscale>
<asrwt>0</asrwt>
<pdfrwt beam="1">  1        2 0.37642680E-01 0.21486414E+02</pdfrwt>
<pdfrwt beam="2">  1        2 0.30667804E+00 0.24897122E+02</pdfrwt>
<totfact> 0.19862116E+02</totfact>
</mgrwt>
</event>
<event>
13    1  0.1942437E-008  0.2629846E+03  0.7546771E-02  0.1301670E+00
          4   -1    0    0  503    0 -0.00000000000E+00  0.00000000000E+00  0.11415644962E+04  0.11415644962E+04  0.00000000000E+00 0. -1.
          2   -1    0    0  502    0  0.00000000000E+00 -0.00000000000E+00 -0.19823216930E+04  0.19823216930E+04  0.00000000000E+00 0. -1.
         24    2    1    2    0    0 -0.76595910126E+02 -0.87447122407E+02  0.44802847689E+03  0.47000491806E+03  0.81616017007E+02 0.  0.
         24    2    1    2    0    0 -0.48619157957E+01 -0.95487296609E+02 -0.29782197118E+02  0.12487570673E+03  0.74602284332E+02 0.  0.
         25    2    1    2    0    0  0.33653538688E+03  0.27870730022E+03 -0.17020210380E+03  0.48531349049E+03  0.12500640823E+03 0.  0.
        -13    1    4    4    0    0 -0.23066538890E+02 -0.69897495508E+02 -0.48658463903E+02  0.88234750547E+02  0.00000000000E+00 0.  1.
         14    1    4    4    0    0  0.18204623094E+02 -0.25589801101E+02  0.18876266784E+02  0.36640956184E+02  0.00000000000E+00 0. -1.
        -13    1    3    3    0    0 -0.26698173167E+02 -0.85212180757E+02  0.32942321581E+03  0.34131153410E+03  0.00000000000E+00 0.  1.
         14    1    3    3    0    0 -0.49897736959E+02 -0.22349416501E+01  0.11860526108E+03  0.12869338396E+03  0.00000000000E+00 0. -1.
          5    1    5    5  501    0 -0.94230996441E+01  0.93821963468E+01 -0.13973706147E+02  0.19853837883E+02  0.47000000000E+01 0. -1.
         -5    1    5    5    0  501  0.34595848652E+03  0.26932510388E+03 -0.15622839765E+03  0.46545965261E+03  0.47000000000E+01 0. -1.
          1    1    1    2  502    0 -0.22731956165E+03 -0.10987851173E+03 -0.15555494616E+04  0.15759065956E+04  0.00000000000E+00 0. -1.
          3    1    1    2  503    0 -0.27757999305E+02  0.14105630519E+02  0.46674808884E+03  0.46778547837E+03  0.00000000000E+00 0. -1.
<mgrwt>
<rscale>  0 0.90489738E+02</rscale>
<asrwt>0</asrwt>
<pdfrwt beam="2">  1        2 0.29151789E+00 0.26298458E+03</pdfrwt>
<pdfrwt beam="1">  1        4 0.16787713E+00 0.31136399E+02</pdfrwt>
<totfact> 0.10285298E+00</totfact>
</mgrwt>
</event>
<event>
13    1  0.1942437E-008  0.1349951E+03  0.7546771E-02  0.1312935E+00
          2   -1    0    0  503    0  0.00000000000E+00  0.00000000000E+00  0.14499467764E+04  0.14499467764E+04  0.00000000000E+00 0. -1.
          2   -1    0    0  502    0 -0.00000000000E+00 -0.00000000000E+00 -0.24476174357E+04  0.24476174357E+04  0.00000000000E+00 0. -1.
         24    2    1    2    0    0 -0.20913378151E+02  0.33504661263E+02 -0.42960291268E+03  0.43910434850E+03  0.81817079981E+02 0.  0.
         24    2    1    2    0    0  0.58918404255E+02 -0.10794126708E+03 -0.86955965798E+03  0.88191681818E+03  0.80750107712E+02 0.  0.
         25    2    1    2    0    0  0.12397684050E+03  0.17181111943E+03 -0.26799298599E+03  0.36377958898E+03  0.12500412426E+03 0.  0.
        -11    1    3    3    0    0  0.16898690175E+02  0.47586797783E+02 -0.23676934305E+03  0.24209459074E+03  0.00000000000E+00 0.  1.
         12    1    3    3    0    0 -0.37812068326E+02 -0.14082136520E+02 -0.19283356962E+03  0.19700975776E+03  0.00000000000E+00 0. -1.
        -13    1    4    4    0    0  0.43868662531E+02 -0.97796745385E+02 -0.84276603125E+03  0.84955473419E+03  0.00000000000E+00 0.  1.
         14    1    4    4    0    0  0.15049741725E+02 -0.10144521691E+02 -0.26793626729E+02  0.32362083981E+02  0.00000000000E+00 0. -1.
          5    1    5    5  501    0  0.53503476385E+01  0.98730728309E+02 -0.15691608604E+03  0.18552932650E+03  0.47000000000E+01 0. -1.
         -5    1    5    5    0  501  0.11862649286E+03  0.73080391119E+02 -0.11107689995E+03  0.17825026249E+03  0.47000000000E+01 0. -1.
          1    1    1    2  502    0 -0.45122158501E+02 -0.30989903818E+02 -0.81747567971E+03  0.81930633480E+03  0.00000000000E+00 0. -1.
          1    1    1    2  503    0 -0.11685970810E+03 -0.66384609797E+02  0.13869605770E+04  0.13934571217E+04  0.00000000000E+00 0. -1.
<mgrwt>
<rscale>  0 0.85962350E+02</rscale>
<asrwt>0</asrwt>
<pdfrwt beam="1">  1        2 0.21322747E+00 0.13499506E+03</pdfrwt>
<pdfrwt beam="2">  1        2 0.35994374E+00 0.54739230E+02</pdfrwt>
<totfact> 0.15521975E+01</totfact>
</mgrwt>
</event>
<event>
13    1  0.1942437E-008  0.6622768E+02  0.7546771E-02  0.1452493E+00
          2   -1    0    0  503    0  0.00000000000E+00  0.00000000000E+00  0.26480908462E+04  0.26480908462E+04  0.00000000000E+00 0. -1.
          2   -1    0    0  502    0 -0.00000000000E+00 -0.00000000000E+00 -0.74411918175E+03  0.74411918175E+03  0.00000000000E+00 0. -1.
         24    2    1    2    0    0  0.83686933242E+02  0.44786530521E+02 -0.44517361439E+02  0.13298113765E+03  0.81809848973E+02 0.  0.
         24    2    1    2    0    0  0.10521253064E+02  0.26660307444E+02  0.42737691581E+03  0.43582544304E+03  0.80444514301E+02 0.  0.
         25    2    1    2    0    0 -0.19639592700E+02 -0.13045309409E+03  0.13012907383E+04  0.13139188873E+04  0.12498613296E+03 0.  0.
        -11    1    4    4    0    0 -0.29823635678E+02  0.22157154463E+02  0.11577968929E+03  0.12159492256E+03  0.00000000000E+00 0.  1.
         12    1    4    4    0    0  0.40344888742E+02  0.45031529813E+01  0.31159722651E+03  0.31423052049E+03  0.00000000000E+00 0. -1.
        -13    1    3    3    0    0  0.16433442075E+01  0.25292346661E+02  0.15287656706E+02  0.29599253831E+02  0.00000000000E+00 0.  1.
         14    1    3    3    0    0  0.82043589034E+02  0.19494183861E+02 -0.59805018146E+02  0.10338188382E+03  0.00000000000E+00 0. -1.
          5    1    5    5  501    0  0.84693636307E+01 -0.62047416146E+02  0.18895249193E+03  0.19911490697E+03  0.47000000000E+01 0. -1.
         -5    1    5    5    0  501 -0.28108956331E+02 -0.68405677947E+02  0.11123382463E+04  0.11148039803E+04  0.47000000000E+01 0. -1.
          1    1    1    2  502    0 -0.39211090762E+02  0.53342093584E+02 -0.64275990942E+03  0.64616034368E+03  0.00000000000E+00 0. -1.
          1    1    1    2  503    0 -0.35357502844E+02  0.56641625434E+01  0.86258128118E+03  0.86332421627E+03  0.00000000000E+00 0. -1.
<mgrwt>
<rscale>  0 0.48698071E+02</rscale>
<asrwt>0</asrwt>
<pdfrwt beam="1">  1        2 0.38942512E+00 0.35808319E+02</pdfrwt>
<pdfrwt beam="2">  1        2 0.10942929E+00 0.66227684E+02</pdfrwt>
<totfact> 0.34263402E+01</totfact>
</mgrwt>
</event>
<event>
13    1  0.1942437E-008  0.6704228E+02  0.7546771E-02  0.1391418E+00
          2   -1    0    0  503    0  0.00000000000E+00  0.00000000000E+00  0.15979083382E+04  0.15979083382E+04  0.00000000000E+00 0. -1.
          2   -1    0    0  502    0 -0.00000000000E+00 -0.00000000000E+00 -0.96332676018E+03  0.96332676018E+03  0.00000000000E+00 0. -1.
         24    2    1    2    0    0  0.33495433678E+02  0.10883087007E+03 -0.37310724963E+03  0.39841755015E+03  0.81002606072E+02 0.  0.
         24    2    1    2    0    0 -0.53340849553E+02 -0.11700635609E+03 -0.84714337892E+02  0.17375164750E+03  0.80482186649E+02 0.  0.
         25    2    1    2    0    0  0.11871585239E+03 -0.55513772096E+02  0.33136763374E+03  0.37763003859E+03  0.12499881942E+03 0.  0.
        -11    1    3    3    0    0  0.58309356648E+02  0.56285730917E+02 -0.23504580783E+03  0.24862541374E+03  0.00000000000E+00 0.  1.
         12    1    3    3    0    0 -0.24813922970E+02  0.52545139153E+02 -0.13806144180E+03  0.14979213642E+03  0.00000000000E+00 0. -1.
        -11    1    4    4    0    0 -0.14751350542E+02 -0.85612037072E+02 -0.15079472099E+02  0.88172635853E+02  0.00000000000E+00 0.  1.
         12    1    4    4    0    0 -0.38589499011E+02 -0.31394319020E+02 -0.69634865793E+02  0.85579011648E+02  0.00000000000E+00 0. -1.
          5    1    5    5  501    0  0.38927337773E+02 -0.98487414955E+01  0.25453771238E+03  0.25772829173E+03  0.47000000000E+01 0. -1.
         -5    1    5    5    0  501  0.79788514617E+02 -0.45665030600E+02  0.76829921361E+02  0.11990174686E+03  0.47000000000E+01 0. -1.
          1    1    1    2  502    0 -0.54972855061E+02  0.13123891285E+02 -0.42237141128E+03  0.42613596467E+03  0.00000000000E+00 0. -1.
          1    1    1    2  503    0 -0.43897581454E+02  0.50565366834E+02  0.11834069431E+04  0.11852998974E+04  0.00000000000E+00 0. -1.
<mgrwt>
<rscale>  0 0.61555473E+02</rscale>
<asrwt>0</asrwt>
<pdfrwt beam="1">  1        2 0.23498652E+00 0.67042285E+02</pdfrwt>
<pdfrwt beam="2">  1        2 0.14166570E+00 0.56517708E+02</pdfrwt>
<totfact> 0.73121127E+01</totfact>
</mgrwt>
</event>
<event>
13    1  0.1942437E-008  0.3975635E+02  0.7546771E-02  0.1652669E+00
          2   -1    0    0  503    0  0.00000000000E+00  0.00000000000E+00  0.21752042947E+04  0.21752042947E+04  0.00000000000E+00 0. -1.
          2   -1    0    0  502    0 -0.00000000000E+00 -0.00000000000E+00 -0.42228903370E+04  0.42228903370E+04  0.00000000000E+00 0. -1.
         24    2    1    2    0    0 -0.58184316868E+01  0.16242931156E+03 -0.41811545116E+03  0.45903847218E+03  0.97358374287E+02 0.  0.
         24    2    1    2    0    0 -0.86886329885E+01 -0.60780310430E+02  0.25112475361E+03  0.27071399277E+03  0.80328609642E+02 0.  0.
         25    2    1    2    0    0 -0.11031866779E+02 -0.14588027034E+03  0.14727259380E+04  0.14852437288E+04  0.12499796061E+03 0.  0.
        -11    1    4    4    0    0 -0.51910578018E+01 -0.70982647151E+02  0.12278029776E+03  0.14191717583E+03  0.00000000000E+00 0.  1.
         12    1    4    4    0    0 -0.34975751867E+01  0.10202336720E+02  0.12834445584E+03  0.12879681694E+03  0.00000000000E+00 0. -1.
        -13    1    3    3    0    0 -0.34057918270E+02  0.10963851169E+03 -0.17987479154E+03  0.21339045357E+03  0.00000000000E+00 0.  1.
         14    1    3    3    0    0  0.28239486583E+02  0.52790799873E+02 -0.23824065962E+03  0.24564801862E+03  0.00000000000E+00 0. -1.
          5    1    5    5  501    0 -0.75116783629E+01 -0.16015189455E+03  0.10448628656E+04  0.10571024324E+04  0.47000000000E+01 0. -1.
         -5    1    5    5    0  501 -0.35201884157E+01  0.14271624210E+02  0.42786307236E+03  0.42814129639E+03  0.47000000000E+01 0. -1.
          1    1    1    2  502    0  0.10116377871E+02  0.38447126651E+02 -0.37679914526E+04  0.37682011769E+04  0.00000000000E+00 0. -1.
          1    1    1    2  503    0  0.15422553583E+02  0.57841425628E+01  0.41457016993E+03  0.41489726109E+03  0.00000000000E+00 0. -1.
<mgrwt>
<rscale>  0 0.25590002E+02</rscale>
<asrwt>0</asrwt>
<pdfrwt beam="1">  1        2 0.31988299E+00 0.16471535E+02</pdfrwt>
<pdfrwt beam="2">  1        2 0.62101328E+00 0.39756355E+02</pdfrwt>
<totfact> 0.94886489E-01</totfact>
</mgrwt>
</event>
<event>
13    1  0.1942437E-008  0.1222492E+04  0.7546771E-02  0.1187622E+00
          2   -1    0    0  502    0  0.00000000000E+00  0.00000000000E+00  0.54852599412E+04  0.54852599412E+04  0.00000000000E+00 0. -1.
          2   -1    0    0  503    0 -0.00000000000E+00 -0.00000000000E+00 -0.34685384615E+04  0.34685384615E+04  0.00000000000E+00 0. -1.
         24    2    1    2    0    0  0.11687640843E+04 -0.95946342712E+02 -0.23526103932E+03  0.11988841229E+04  0.82220423348E+02 0.  0.
         24    2    1    2    0    0  0.36293405190E+02 -0.59706838981E+02  0.18972937144E+03  0.21763895224E+03  0.80544157223E+02 0.  0.
         25    2    1    2    0    0  0.12199874730E+02  0.17228044687E+03  0.30370752348E+04  0.30445492798E+04  0.12499978304E+03 0.  0.
        -11    1    3    3    0    0  0.94540992767E+03 -0.82030972463E+02 -0.22270850816E+03  0.97474514176E+03  0.00000000000E+00 0.  1.
         12    1    3    3    0    0  0.22335415664E+03 -0.13915370249E+02 -0.12552531156E+02  0.22413898112E+03  0.00000000000E+00 0. -1.
        -13    1    4    4    0    0 -0.15691176330E+02 -0.50993036514E+02  0.84243285622E+02  0.99716768700E+02  0.00000000000E+00 0.  1.
         14    1    4    4    0    0  0.51984581520E+02 -0.87138024675E+01  0.10548608582E+03  0.11792218354E+03  0.00000000000E+00 0. -1.
          5    1    5    5  501    0 -0.68145324508E+01  0.11106174509E+03  0.26364025147E+04  0.26387537700E+04  0.47000000000E+01 0.  1.
         -5    1    5    5    0  501  0.19014407180E+02  0.61218701776E+02  0.40067272012E+03  0.40579550980E+03  0.47000000000E+01 0.  1.
          1    1    1    2  502    0  0.20853915172E+02  0.37683841424E+01  0.16186575719E+04  0.16187962879E+04  0.00000000000E+00 0. -1.
          1    1    1    2  503    0 -0.12381112794E+04 -0.20395649317E+02 -0.25934796591E+04  0.28739297599E+04  0.00000000000E+00 0. -1.
<mgrwt>
<rscale>  0 0.16095541E+03</rscale>
<asrwt>0</asrwt>
<pdfrwt beam="1">  1        2 0.80665587E+00 0.21191661E+02</pdfrwt>
<pdfrwt beam="2">  1        2 0.51007919E+00 0.12224923E+04</pdfrwt>
<totfact> 0.95005734E-03</totfact>
</mgrwt>
</event>
<event>
13    1  0.1942437E-008  0.9175614E+02  0.7546771E-02  0.1417455E+00
          2   -1    0    0  502    0  0.00000000000E+00  0.00000000000E+00  0.21957632617E+04  0.21957632617E+04  0.00000000000E+00 0. -1.
          2   -1    0    0  503    0 -0.00000000000E+00 -0.00000000000E+00 -0.25060378437E+04  0.25060378437E+04  0.00000000000E+00 0. -1.
         24    2    1    2    0    0 -0.14161993458E+03 -0.88184314669E+01 -0.13539860883E+04  0.13637934282E+04  0.80747860007E+02 0.  0.
         24    2    1    2    0    0  0.80214642582E+01  0.33462167776E+02 -0.71055518318E+02  0.11157492198E+03  0.78841714663E+02 0.  0.
         25    2    1    2    0    0  0.10818769858E+03  0.65864290153E+02  0.11413181342E+04  0.11551083817E+04  0.12500242911E+03 0.  0.
        -13    1    3    3    0    0 -0.15225655499E+03 -0.69478488683E+01 -0.12559844220E+04  0.12651984822E+04  0.00000000000E+00 0.  1.
         14    1    3    3    0    0  0.10636620409E+02 -0.18705825986E+01 -0.98001666323E+02  0.98594945992E+02  0.00000000000E+00 0. -1.
        -13    1    4    4    0    0  0.24407102646E+02  0.10755020752E+01 -0.71204189915E+02  0.75278815252E+02  0.00000000000E+00 0.  1.
         14    1    4    4    0    0 -0.16385638388E+02  0.32386665701E+02  0.14867159633E+00  0.36296106731E+02  0.00000000000E+00 0. -1.
          5    1    5    5  501    0  0.36611313083E+02 -0.24004276493E+02  0.60511931616E+03  0.60671910332E+03  0.47000000000E+01 0.  1.
         -5    1    5    5    0  501  0.71576385495E+02  0.89868566646E+02  0.53619881801E+03  0.54838927841E+03  0.47000000000E+01 0.  1.
          1    1    1    2  502    0 -0.33644461874E+02 -0.35242862178E+00  0.10193399175E+04  0.10198950639E+04  0.00000000000E+00 0. -1.
          1    1    1    2  503    0  0.59055233620E+02 -0.90155597841E+02 -0.10458910271E+04  0.10514293095E+04  0.00000000000E+00 0. -1.
<mgrwt>
<rscale>  0 0.55563075E+02</rscale>
<asrwt>0</asrwt>
<pdfrwt beam="1">  1        2 0.32290637E+00 0.33646308E+02</pdfrwt>
<pdfrwt beam="2">  1        2 0.36853497E+00 0.91756141E+02</pdfrwt>
<totfact> 0.68815715E+00</totfact>
</mgrwt>
</event>
<event>
13    1  0.1942437E-008  0.1923920E+03  0.7546771E-02  0.1312499E+00
          2   -1    0    0  503    0  0.00000000000E+00  0.00000000000E+00  0.22656777164E+04  0.22656777164E+04  0.00000000000E+00 0. -1.
          2   -1    0    0  502    0 -0.00000000000E+00 -0.00000000000E+00 -0.28418973826E+04  0.28418973826E+04  0.00000000000E+00 0. -1.
         24    2    1    2    0    0  0.34011876480E+02  0.56698572920E+02 -0.58680196462E+03  0.59601254296E+03  0.80764285221E+02 0.  0.
         24    2    1    2    0    0 -0.47649291293E+02 -0.56699659090E+02 -0.26135489196E+03  0.28384205712E+03  0.82308125600E+02 0.  0.
         25    2    1    2    0    0  0.85004850728E+02  0.21854406736E+03 -0.49065794394E+03  0.55799559960E+03  0.12500614867E+03 0.  0.
        -11    1    4    4    0    0 -0.32958184520E+02  0.15854952015E+02 -0.92844551760E+02  0.99788437315E+02  0.00000000000E+00 0.  1.
         12    1    4    4    0    0 -0.14691106773E+02 -0.72554611105E+02 -0.16851034020E+03  0.18405361981E+03  0.00000000000E+00 0. -1.
        -13    1    3    3    0    0  0.40782099656E+02  0.31283570810E+01 -0.38303667379E+03  0.38521430365E+03  0.00000000000E+00 0.  1.
         14    1    3    3    0    0 -0.67702231754E+01  0.53570215839E+02 -0.20376529083E+03  0.21079823931E+03  0.00000000000E+00 0. -1.
          5    1    5    5  501    0  0.86215806138E+02  0.75223769430E+02 -0.15268026215E+03  0.19085369571E+03  0.47000000000E+01 0. -1.
         -5    1    5    5    0  501 -0.12109554100E+01  0.14332029793E+03 -0.33797768179E+03  0.36714190390E+03  0.47000000000E+01 0. -1.
          1    1    1    2  502    0 -0.53513153546E+01 -0.38187191875E+02 -0.14491468691E+04  0.14496598037E+04  0.00000000000E+00 0. -1.
          1    1    1    2  503    0 -0.66016120560E+02 -0.18035578931E+03  0.22117420035E+04  0.22200650956E+04  0.00000000000E+00 0. -1.
<mgrwt>
<rscale>  0 0.86131847E+02</rscale>
<asrwt>0</asrwt>
<pdfrwt beam="1">  1        2 0.33318790E+00 0.19239195E+03</pdfrwt>
<pdfrwt beam="2">  1        2 0.41792608E+00 0.38560319E+02</pdfrwt>
<totfact> 0.40091109E+00</totfact>
</mgrwt>
</event>
<event>
13    1  0.1942437E-008  0.7532296E+02  0.7546771E-02  0.1377543E+00
          2   -1    0    0  502    0  0.00000000000E+00  0.00000000000E+00  0.25570130341E+04  0.25570130341E+04  0.00000000000E+00 0. -1.
          2   -1    0    0  503    0 -0.00000000000E+00 -0.00000000000E+00 -0.20658099594E+04  0.20658099594E+04  0.00000000000E+00 0. -1.
         24    2    1    2    0    0 -0.13813448725E+03  0.15440035996E+03 -0.60381407896E+03  0.64345696105E+03  0.80776302543E+02 0.  0.
         24    2    1    2    0    0  0.34812732201E+03 -0.78150871311E+03  0.33908550532E+02  0.86177007073E+03  0.97720847384E+02 0.  0.
         25    2    1    2    0    0 -0.25865545171E+03  0.64310996563E+03  0.15545126008E+03  0.72130706597E+03  0.12500287424E+03 0.  0.
        -11    1    3    3    0    0 -0.86193035404E+02  0.14354304977E+03 -0.49155514974E+03  0.51928827420E+03  0.00000000000E+00 0.  1.
         12    1    3    3    0    0 -0.51941451843E+02  0.10857310195E+02 -0.11225892922E+03  0.12416868685E+03  0.00000000000E+00 0. -1.
        -13    1    4    4    0    0  0.22486585753E+03 -0.38716702825E+03  0.27249440662E+02  0.44855935355E+03  0.00000000000E+00 0.  1.
         14    1    4    4    0    0  0.12326146448E+03 -0.39434168486E+03  0.66591098694E+01  0.41321071717E+03  0.00000000000E+00 0. -1.
          5    1    5    5  501    0 -0.23408517988E+03  0.61056252128E+03  0.17338429873E+03  0.67651065689E+03  0.47000000000E+01 0. -1.
         -5    1    5    5    0  501 -0.24570271826E+02  0.32547444344E+02 -0.17933038656E+02  0.44796409079E+02  0.47000000000E+01 0. -1.
          1    1    1    2  502    0  0.65176635593E+02  0.37810098477E+02  0.16490488265E+04  0.16507694053E+04  0.00000000000E+00 0. -1.
          1    1    1    2  503    0 -0.16514018643E+02 -0.53811710962E+02 -0.74339148341E+03  0.74551949046E+03  0.00000000000E+00 0. -1.
<mgrwt>
<rscale>  0 0.65113963E+02</rscale>
<asrwt>0</asrwt>
<pdfrwt beam="1">  1        2 0.37603133E+00 0.75322957E+02</pdfrwt>
<pdfrwt beam="2">  1        2 0.30379558E+00 0.56288658E+02</pdfrwt>
<totfact> 0.71900764E+00</totfact>
</mgrwt>
</event>
<event>
13    1  0.1942437E-008  0.1575010E+03  0.7546771E-02  0.1287668E+00
          2   -1    0    0  503    0  0.00000000000E+00  0.00000000000E+00  0.19538132212E+04  0.19538132212E+04  0.00000000000E+00 0. -1.
          2   -1    0    0  502    0 -0.00000000000E+00 -0.00000000000E+00 -0.15191227435E+04  0.15191227435E+04  0.00000000000E+00 0. -1.
         24    2    1    2    0    0 -0.70568255889E+02  0.21683194429E+02  0.19866962030E-01  0.11250573756E+03  0.84897001890E+02 0.  0.
         24    2    1    2    0    0  0.49044202888E+03  0.24590631544E+02 -0.79057755421E+02  0.50479937879E+03  0.86221814423E+02 0.  0.
         25    2    1    2    0    0 -0.48151334332E+03 -0.12702088025E+03  0.66321462591E+03  0.83872984296E+03  0.12499882255E+03 0.  0.
        -11    1    4    4    0    0  0.31952226977E+03 -0.57552520098E+01 -0.15542571918E+02  0.31995183286E+03  0.00000000000E+00 0.  1.
         12    1    4    4    0    0  0.17091975911E+03  0.30345883554E+02 -0.63515183503E+02  0.18484754593E+03  0.00000000000E+00 0. -1.
        -11    1    3    3    0    0 -0.41013850915E+02  0.44245007159E+02 -0.27445419855E+02  0.66279768379E+02  0.00000000000E+00 0.  1.
         12    1    3    3    0    0 -0.29554404974E+02 -0.22561812730E+02  0.27465286817E+02  0.46225969183E+02  0.00000000000E+00 0. -1.
          5    1    5    5  501    0 -0.48756006876E+03 -0.13035419592E+03  0.64785571468E+03  0.82124670720E+03  0.47000000000E+01 0.  1.
         -5    1    5    5    0  501  0.60467254415E+01  0.33333156648E+01  0.15358911234E+02  0.17483135765E+02  0.47000000000E+01 0.  1.
          1    1    1    2  502    0  0.11259380006E+03  0.11091772477E+03 -0.10764784857E+04  0.10880193176E+04  0.00000000000E+00 0. -1.
          1    1    1    2  503    0 -0.50954229740E+02 -0.30170670487E+02  0.92699222596E+03  0.92888168777E+03  0.00000000000E+00 0. -1.
<mgrwt>
<rscale>  0 0.96574689E+02</rscale>
<asrwt>0</asrwt>
<pdfrwt beam="1">  1        2 0.28732547E+00 0.59216576E+02</pdfrwt>
<pdfrwt beam="2">  1        2 0.22340040E+00 0.15750101E+03</pdfrwt>
<totfact> 0.24012549E+01</totfact>
</mgrwt>
</event>
<event>
13    1  0.1942437E-008  0.1376692E+03  0.7546771E-02  0.1421865E+00
          2   -1    0    0  503    0  0.00000000000E+00  0.00000000000E+00  0.81788168339E+03  0.81788168339E+03  0.00000000000E+00 0. -1.
          2   -1    0    0  502    0 -0.00000000000E+00 -0.00000000000E+00 -0.44156598635E+04  0.44156598635E+04  0.00000000000E+00 0. -1.
         24    2    1    2    0    0 -0.69672189160E+02 -0.54437102232E+02 -0.18844741001E+03  0.21953812743E+03  0.69763536445E+02 0.  0.
         24    2    1    2    0    0 -0.53619753680E+02  0.21768689819E+02 -0.15460958690E+03  0.18392669310E+03  0.81092232887E+02 0.  0.
         25    2    1    2    0    0  0.23026270464E+03 -0.82484032785E+02 -0.10629243412E+02  0.27488536796E+03  0.12499782354E+03 0.  0.
        -11    1    3    3    0    0  0.52331541016E+01 -0.19232719018E+02 -0.88920431674E+01  0.21825485432E+02  0.00000000000E+00 0.  1.
         12    1    3    3    0    0 -0.74905343262E+02 -0.35204383215E+02 -0.17955536684E+03  0.19771264200E+03  0.00000000000E+00 0. -1.
        -11    1    4    4    0    0 -0.60218027967E+02 -0.64681190142E+01 -0.61125966958E+02  0.86049005179E+02  0.00000000000E+00 0.  1.
         12    1    4    4    0    0  0.65982742865E+01  0.28236808833E+02 -0.93483619938E+02  0.97877687924E+02  0.00000000000E+00 0. -1.
          5    1    5    5  501    0  0.19792154465E+03 -0.65896292486E+02  0.39927584401E+02  0.21244190076E+03  0.47000000000E+01 0. -1.
         -5    1    5    5    0  501  0.32341159981E+02 -0.16587740299E+02 -0.50556827813E+02  0.62443467198E+02  0.47000000000E+01 0. -1.
          1    1    1    2  502    0 -0.98277529767E+02  0.95295050428E+02 -0.38982607004E+04  0.39006635471E+04  0.00000000000E+00 0. -1.
          1    1    1    2  503    0 -0.86932320291E+01  0.19857394770E+02  0.65416876060E+03  0.65452781129E+03  0.00000000000E+00 0. -1.
<mgrwt>
<rscale>  0 0.54628225E+02</rscale>
<asrwt>0</asrwt>
<pdfrwt beam="1">  1        2 0.12027672E+00 0.21676910E+02</pdfrwt>
<pdfrwt beam="2">  1        2 0.64936174E+00 0.13766921E+03</pdfrwt>
<totfact> 0.21601757E+00</totfact>
</mgrwt>
</event>
<event>
13    1  0.1942437E-008  0.6390186E+02  0.7546771E-02  0.1549965E+00
          2   -1    0    0  503    0  0.00000000000E+00  0.00000000000E+00  0.13923296611E+04  0.13923296611E+04  0.00000000000E+00 0. -1.
          2   -1    0    0  502    0 -0.00000000000E+00 -0.00000000000E+00 -0.29204644754E+04  0.29204644754E+04  0.00000000000E+00 0. -1.
         24    2    1    2    0    0 -0.27136153201E+03 -0.37205930505E+03  0.13037826502E+03  0.48521632822E+03  0.79819707182E+02 0.  0.
         24    2    1    2    0    0 -0.76787479484E+03  0.49670660111E+03 -0.76352976257E+03  0.11939421970E+04  0.78556496970E+02 0.  0.
         25    2    1    2    0    0  0.99093012203E+03 -0.12197675675E+03  0.27660103723E+03  0.10435291631E+04  0.12499657837E+03 0.  0.
        -11    1    4    4    0    0 -0.44620075933E+03  0.30741427042E+03 -0.40583990328E+03  0.67698203697E+03  0.00000000000E+00 0.  1.
         12    1    4    4    0    0 -0.32167403552E+03  0.18929233069E+03 -0.35768985929E+03  0.51696016000E+03  0.00000000000E+00 0. -1.
        -13    1    3    3    0    0 -0.16468525630E+03 -0.24718991704E+03  0.45966543710E+02  0.30056116161E+03  0.00000000000E+00 0.  1.
         14    1    3    3    0    0 -0.10667627572E+03 -0.12486938801E+03  0.84411721308E+02  0.18465516661E+03  0.00000000000E+00 0. -1.
          5    1    5    5  501    0  0.44649963882E+03 -0.23259927614E+02  0.17915579710E+03  0.48168645542E+03  0.47000000000E+01 0. -1.
         -5    1    5    5    0  501  0.54443048321E+03 -0.98716829139E+02  0.97445240135E+02  0.56184270772E+03  0.47000000000E+01 0. -1.
          1    1    1    2  502    0  0.63269156400E+02  0.90430643192E+01 -0.13796727013E+04  0.13811522458E+04  0.00000000000E+00 0. -1.
          1    1    1    2  503    0 -0.14962951570E+02 -0.11713603627E+02  0.20808834728E+03  0.20895420240E+03  0.00000000000E+00 0. -1.
<mgrwt>
<rscale>  0 0.34846820E+02</rscale>
<asrwt>0</asrwt>
<pdfrwt beam="1">  1        2 0.20475437E+00 0.19002590E+02</pdfrwt>
<pdfrwt beam="2">  1        2 0.42948006E+00 0.63901860E+02</pdfrwt>
<totfact> 0.10966565E+01</totfact>
</mgrwt>
</event>
<event>
13    1  0.1942437E-008  0.6736678E+02  0.7546771E-02  0.1501763E+00
          2   -1    0    0  502    0  0.00000000000E+00  0.00000000000E+00  0.24470251450E+04  0.24470251450E+04  0.00000000000E+00 0. -1.
          2   -1    0    0  503    0 -0.00000000000E+00 -0.00000000000E+00 -0.98379520866E+03  0.98379520866E+03  0.00000000000E+00 0. -1.
         24    2    1    2    0    0  0.38957395095E+03 -0.33538834431E+03 -0.21346118965E+03  0.56237938230E+03  0.80322384075E+02 0.  0.
         24    2    1    2    0    0 -0.97378213229E+01  0.47945501043E+03 -0.31014838831E+02  0.48755522253E+03  0.82317936092E+02 0.  0.
         25    2    1    2    0    0 -0.46200973787E+03 -0.16245667863E+03  0.78055116838E+03  0.92990685012E+03  0.12498581168E+03 0.  0.
        -11    1    3    3    0    0  0.93860195153E+02 -0.10846546833E+03 -0.91716284460E+02  0.17025384251E+03  0.00000000000E+00 0.  1.
         12    1    3    3    0    0  0.29571375580E+03 -0.22692287598E+03 -0.12174490519E+03  0.39212553979E+03  0.00000000000E+00 0. -1.
        -11    1    4    4    0    0  0.23272808214E+02  0.57208860673E+02  0.77711219425E+01  0.62248435144E+02  0.00000000000E+00 0.  1.
         12    1    4    4    0    0 -0.33010629537E+02  0.42224614976E+03 -0.38785960773E+02  0.42530678739E+03  0.00000000000E+00 0. -1.
          5    1    5    5  501    0 -0.38982330320E+02 -0.44959091482E+01  0.14479451195E+03  0.15009122548E+03  0.47000000000E+01 0.  1.
         -5    1    5    5    0  501 -0.42302740755E+03 -0.15796076948E+03  0.63575665644E+03  0.77981562464E+03  0.47000000000E+01 0.  1.
          1    1    1    2  502    0  0.60268103845E+02  0.30057909487E+02  0.11875226187E+04  0.11894308270E+04  0.00000000000E+00 0. -1.
          1    1    1    2  503    0  0.21905504393E+02 -0.11667896974E+02 -0.26036782226E+03  0.26154807171E+03  0.00000000000E+00 0. -1.
<mgrwt>
<rscale>  0 0.40889939E+02</rscale>
<asrwt>0</asrwt>
<pdfrwt beam="1">  1        2 0.35985664E+00 0.67366777E+02</pdfrwt>
<pdfrwt beam="2">  1        2 0.14467577E+00 0.24819165E+02</pdfrwt>
<totfact> 0.29233519E+01</totfact>
</mgrwt>
</event>
<event>
13    1  0.1942437E-008  0.1046300E+03  0.7546771E-02  0.1389600E+00
          2   -1    0    0  502    0  0.00000000000E+00  0.00000000000E+00  0.23702740575E+04  0.23702740575E+04  0.00000000000E+00 0. -1.
          2   -1    0    0  503    0 -0.00000000000E+00 -0.00000000000E+00 -0.21405799045E+04  0.21405799045E+04  0.00000000000E+00 0. -1.
         24    2    1    2    0    0 -0.12314142655E+03 -0.14937147095E+02 -0.63100887576E+02  0.16141288349E+03  0.81764709068E+02 0.  0.
         24    2    1    2    0    0  0.26431788634E+02 -0.61097391033E+02  0.24437053753E+03  0.26564460688E+03  0.80115959166E+02 0.  0.
         25    2    1    2    0    0  0.42204521555E+02  0.11729900020E+03  0.11786852690E+04  0.11918305523E+04  0.12498329921E+03 0.  0.
        -11    1    4    4    0    0  0.41065992462E+02 -0.71422710471E+02  0.16685087028E+03  0.18608286386E+03  0.00000000000E+00 0.  1.
         12    1    4    4    0    0 -0.14634203828E+02  0.10325319439E+02  0.77519667247E+02  0.79561743026E+02  0.00000000000E+00 0. -1.
        -13    1    3    3    0    0 -0.56463010545E+02  0.33035634358E+02 -0.18697164800E+02  0.68036818479E+02  0.00000000000E+00 0.  1.
         14    1    3    3    0    0 -0.66678416001E+02 -0.47972781453E+02 -0.44403722776E+02  0.93376065012E+02  0.00000000000E+00 0. -1.
          5    1    5    5  501    0  0.76245842885E+02  0.68591251956E+02  0.94895690600E+03  0.95449436240E+03  0.47000000000E+01 0.  1.
         -5    1    5    5    0  501 -0.34041321331E+02  0.48707748239E+02  0.22972836296E+03  0.23733618992E+03  0.47000000000E+01 0.  1.
          1    1    1    2  502    0 -0.24142876430E+02  0.27702568294E+02  0.87910829789E+03  0.87987596296E+03  0.00000000000E+00 0. -1.
          1    1    1    2  503    0  0.78647992787E+02 -0.68967030361E+02 -0.20093690637E+04  0.20120899563E+04  0.00000000000E+00 0. -1.
<mgrwt>
<rscale>  0 0.62006390E+02</rscale>
<asrwt>0</asrwt>
<pdfrwt beam="1">  1        2 0.34856972E+00 0.36746575E+02</pdfrwt>
<pdfrwt beam="2">  1        2 0.31479116E+00 0.10462995E+03</pdfrwt>
<totfact> 0.83887819E+00</totfact>
</mgrwt>
</event>
<event>
13    1  0.1942437E-008  0.1299691E+03  0.7546771E-02  0.1297056E+00
          2   -1    0    0  502    0  0.00000000000E+00  0.00000000000E+00  0.37236994923E+04  0.37236994923E+04  0.00000000000E+00 0. -1.
          2   -1    0    0  503    0 -0.00000000000E+00 -0.00000000000E+00 -0.21864710396E+04  0.21864710396E+04  0.00000000000E+00 0. -1.
         24    2    1    2    0    0  0.11558281768E+03 -0.15176368203E+02 -0.26972079859E+03  0.30441443085E+03  0.79555808244E+02 0.  0.
         24    2    1    2    0    0 -0.13628850710E+03 -0.84372773463E+01 -0.40058349949E+02  0.16302669090E+03  0.79544237549E+02 0.  0.
         25    2    1    2    0    0  0.19278129542E+03  0.57773770407E+01 -0.16633574252E+03  0.28370968477E+03  0.12500240016E+03 0.  0.
        -11    1    3    3    0    0  0.35100554473E+02  0.29483719752E+02 -0.12241818695E+03  0.13071936027E+03  0.00000000000E+00 0.  1.
         12    1    3    3    0    0  0.80482263212E+02 -0.44660087956E+02 -0.14730261164E+03  0.17369507058E+03  0.00000000000E+00 0. -1.
        -13    1    4    4    0    0 -0.14143618495E+03 -0.13844416680E+02 -0.22415243296E+02  0.14386905651E+03  0.00000000000E+00 0.  1.
         14    1    4    4    0    0  0.51476778545E+01  0.54071393340E+01 -0.17643106653E+02  0.19157634390E+02  0.00000000000E+00 0. -1.
          5    1    5    5  501    0  0.13229615943E+03 -0.55545799105E+02 -0.10527066759E+03  0.17802138369E+03  0.47000000000E+01 0. -1.
         -5    1    5    5    0  501  0.60485135988E+02  0.61323176146E+02 -0.61065074928E+02  0.10568830107E+03  0.47000000000E+01 0. -1.
          1    1    1    2  502    0 -0.11797807824E+03  0.55193733040E+02  0.35843111197E+04  0.35866769269E+04  0.00000000000E+00 0. -1.
          1    1    1    2  503    0 -0.54097527759E+02 -0.37357464531E+02 -0.15709677760E+04  0.15723427985E+04  0.00000000000E+00 0. -1.
<mgrwt>
<rscale>  0 0.92436680E+02</rscale>
<asrwt>0</asrwt>
<pdfrwt beam="1">  1        2 0.54760287E+00 0.12996911E+03</pdfrwt>
<pdfrwt beam="2">  1        2 0.32153986E+00 0.65742853E+02</pdfrwt>
<totfact> 0.12904764E+00</totfact>
</mgrwt>
</event>
<event>
13    1  0.1942437E-008  0.6946257E+02  0.7546771E-02  0.1487037E+00
          2   -1    0    0  503    0  0.00000000000E+00  0.00000000000E+00  0.11750109327E+04  0.11750109327E+04  0.00000000000E+00 0. -1.
          2   -1    0    0  502    0 -0.00000000000E+00 -0.00000000000E+00 -0.16666573410E+04  0.16666573410E+04  0.00000000000E+00 0. -1.
         24    2    1    2    0    0  0.35713090114E+01 -0.27253739027E+02 -0.11451392409E+03  0.14147828294E+03  0.78403732024E+02 0.  0.
         24    2    1    2    0    0 -0.25431873041E+02  0.20302530097E+02  0.14589917392E+03  0.16778880304E+03  0.76207221316E+02 0.  0.
         25    2    1    2    0    0  0.65171686927E+02  0.40052409481E+02  0.82340083193E+03  0.83633861125E+03  0.12498719276E+03 0.  0.
        -11    1    3    3    0    0 -0.32887319849E+02  0.34300814608E+01 -0.63986370387E+02  0.72024973869E+02  0.00000000000E+00 0.  1.
         12    1    3    3    0    0  0.36458628860E+02 -0.30683820487E+02 -0.50527553700E+02  0.69453309071E+02  0.00000000000E+00 0. -1.
        -13    1    4    4    0    0  0.25303428827E+02 -0.55717106098E+01  0.46247586576E+02  0.53010817138E+02  0.00000000000E+00 0.  1.
         14    1    4    4    0    0 -0.50735301868E+02  0.25874240707E+02  0.99651587340E+02  0.11477798590E+03  0.00000000000E+00 0. -1.
          5    1    5    5  501    0  0.32374887116E+02  0.81341299913E+02  0.39098193113E+03  0.40069127874E+03  0.47000000000E+01 0. -1.
         -5    1    5    5    0  501  0.32796799811E+02 -0.41288890432E+02  0.43241890080E+03  0.43564733251E+03  0.47000000000E+01 0. -1.
          1    1    1    2  502    0 -0.36780460162E+02 -0.58943035177E+02 -0.15194330866E+04  0.15210207061E+04  0.00000000000E+00 0. -1.
          1    1    1    2  503    0 -0.65306627359E+01  0.25841834625E+02  0.17300059652E+03  0.17504187033E+03  0.00000000000E+00 0. -1.
<mgrwt>
<rscale>  0 0.43028758E+02</rscale>
<asrwt>0</asrwt>
<pdfrwt beam="1">  1        2 0.17279573E+00 0.26654267E+02</pdfrwt>
<pdfrwt beam="2">  1        2 0.24509667E+00 0.69462574E+02</pdfrwt>
<totfact> 0.54397829E+01</totfact>
</mgrwt>
</event>
<event>
13    1  0.1942437E-008  0.9875680E+02  0.7546771E-02  0.1429318E+00
          2   -1    0    0  503    0  0.00000000000E+00  0.00000000000E+00  0.28729045273E+04  0.28729045273E+04  0.00000000000E+00 0. -1.
         -3   -1    0    0    0  501 -0.00000000000E+00 -0.00000000000E+00 -0.39719441938E+03  0.39719441938E+03  0.00000000000E+00 0.  1.
         24    2    1    2    0    0 -0.30687024308E+02  0.14393942485E+01 -0.53360408875E+02  0.10103309032E+03  0.80103600348E+02 0.  0.
         24    2    1    2    0    0  0.36669053833E+01  0.33380755728E+02 -0.98994502269E+01  0.83906554084E+02  0.76253456678E+02 0.  0.
         25    2    1    2    0    0  0.15199910765E+02 -0.10316214848E+03  0.25746316984E+03  0.30461302232E+03  0.12501337279E+03 0.  0.
        -11    1    4    4    0    0  0.35550199399E+02  0.32241818324E+02  0.58123102875E+01  0.48343918718E+02  0.00000000000E+00 0.  1.
         12    1    4    4    0    0 -0.31883294016E+02  0.11389374042E+01 -0.15711760514E+02  0.35562635366E+02  0.00000000000E+00 0. -1.
        -11    1    3    3    0    0 -0.23136064078E+02  0.29965141177E+02  0.24134289729E+01  0.37934308827E+02  0.00000000000E+00 0.  1.
         12    1    3    3    0    0 -0.75509602297E+01 -0.28525746929E+02 -0.55773837848E+02  0.63098781498E+02  0.00000000000E+00 0. -1.
          5    1    5    5  502    0 -0.16190560215E+02 -0.10380805987E+03  0.25110040171E+03  0.27223473194E+03  0.47000000000E+01 0. -1.
         -5    1    5    5    0  502  0.31390470980E+02  0.64591138866E+00  0.63627681324E+01  0.32378290384E+02  0.47000000000E+01 0. -1.
          1    1    1    2  503    0 -0.30317739377E+01 -0.28386451035E+02  0.25213472171E+04  0.25215088284E+04  0.00000000000E+00 0. -1.
         -4    1    1    2    0  501  0.14851982098E+02  0.96728449535E+02 -0.23984041990E+03  0.25903745162E+03  0.00000000000E+00 0.  1.
<mgrwt>
<rscale>  0 0.53097068E+02</rscale>
<asrwt>0</asrwt>
<pdfrwt beam="1">  1        2 0.42248595E+00 0.28547894E+02</pdfrwt>
<pdfrwt beam="2">  1       -3 0.58410945E-01 0.98756798E+02</pdfrwt>
<totfact> 0.72370463E+00</totfact>
</mgrwt>
</event>
<event>
13    1  0.1942437E-008  0.1965280E+03  0.7546771E-02  0.1248342E+00
          2   -1    0    0  502    0  0.00000000000E+00  0.00000000000E+00  0.14689155266E+04  0.14689155266E+04  0.00000000000E+00 0. -1.
          2   -1    0    0  503    0 -0.00000000000E+00 -0.00000000000E+00 -0.25838953917E+04  0.25838953917E+04  0.00000000000E+00 0. -1.
         24    2    1    2    0    0 -0.63156229053E+02  0.23068758359E+03 -0.66262529280E+03  0.70890586129E+03  0.79181885729E+02 0.  0.
         24    2    1    2    0    0  0.30893497138E+03 -0.10216700471E+02 -0.19638677048E+03  0.37480564829E+03  0.79789177605E+02 0.  0.
         25    2    1    2    0    0 -0.24325153951E+03 -0.80583769514E+01  0.63137743666E+03  0.68812094962E+03  0.12504689068E+03 0.  0.
        -11    1    4    4    0    0  0.31104866773E+03 -0.17410596825E+02 -0.18961910853E+03  0.36470509853E+03  0.00000000000E+00 0.  1.
         12    1    4    4    0    0 -0.21136963552E+01  0.71938963539E+01 -0.67676619539E+01  0.10100549755E+02  0.00000000000E+00 0. -1.
        -13    1    3    3    0    0 -0.76887548117E+02  0.19674968663E+03 -0.51135861605E+03  0.55327187571E+03  0.00000000000E+00 0.  1.
         14    1    3    3    0    0  0.13731319064E+02  0.33937896960E+02 -0.15126667675E+03  0.15563398558E+03  0.00000000000E+00 0. -1.
          5    1    5    5  501    0 -0.24630961840E+03 -0.29924896588E+02  0.54498141085E+03  0.59882447823E+03  0.47000000000E+01 0. -1.
         -5    1    5    5    0  501  0.30580788882E+01  0.21866519637E+02  0.86396025807E+02  0.89296471390E+02  0.47000000000E+01 0. -1.
          1    1    1    2  502    0 -0.64483571854E+02 -0.25942182895E+02  0.68896819352E+03  0.69246537789E+03  0.00000000000E+00 0. -1.
          1    1    1    2  503    0  0.61956369045E+02 -0.18647032327E+03 -0.15763134320E+04  0.15885130812E+04  0.00000000000E+00 0. -1.
<mgrwt>
<rscale>  0 0.11687575E+03</rscale>
<asrwt>0</asrwt>
<pdfrwt beam="1">  1        2 0.21601699E+00 0.69506315E+02</pdfrwt>
<pdfrwt beam="2">  1        2 0.37998461E+00 0.19652805E+03</pdfrwt>
<totfact> 0.11567152E+01</totfact>
</mgrwt>
</event>
<event>
13    1  0.1942437E-008  0.5957007E+02  0.7546771E-02  0.1456752E+00
          2   -1    0    0  502    0  0.00000000000E+00  0.00000000000E+00  0.14019858718E+04  0.14019858718E+04  0.00000000000E+00 0. -1.
          2   -1    0    0  503    0 -0.00000000000E+00 -0.00000000000E+00 -0.16946035942E+04  0.16946035942E+04  0.00000000000E+00 0. -1.
         24    2    1    2    0    0  0.30352761267E+03  0.23134539911E+03 -0.10273519641E+03  0.40005967595E+03  0.61996115980E+02 0.  0.
         24    2    1    2    0    0 -0.19774426193E+03 -0.69576998287E+03  0.65962385378E+03  0.98231639137E+03  0.81505840878E+02 0.  0.
         25    2    1    2    0    0 -0.11560537254E+03  0.36915082763E+03  0.22462184382E+03  0.46445364584E+03  0.12500112283E+03 0.  0.
        -11    1    3    3    0    0  0.72268520226E+02  0.26746418632E+02 -0.31008446057E+02  0.83064033445E+02  0.00000000000E+00 0.  1.
         12    1    3    3    0    0  0.23125909245E+03  0.20459898048E+03 -0.71726750356E+02  0.31699564251E+03  0.00000000000E+00 0. -1.
        -13    1    4    4    0    0 -0.17180835711E+02 -0.20745250503E+02  0.41052287910E+02  0.49100273694E+02  0.00000000000E+00 0.  1.
         14    1    4    4    0    0 -0.18056342622E+03 -0.67502473237E+03  0.61857156587E+03  0.93321611768E+03  0.00000000000E+00 0. -1.
          5    1    5    5  501    0 -0.10899037926E+03  0.14125402675E+03  0.99999537649E+02  0.20458152501E+03  0.47000000000E+01 0. -1.
         -5    1    5    5    0  501 -0.66149932755E+01  0.22789680089E+03  0.12462230617E+03  0.25987212083E+03  0.47000000000E+01 0. -1.
          1    1    1    2  502    0  0.14848613064E+02  0.57013979444E+02  0.77574427496E+02  0.97410815433E+02  0.00000000000E+00 0. -1.
          1    1    1    2  503    0 -0.50265912659E+01  0.38259776685E+02 -0.11517026511E+04  0.11523489374E+04  0.00000000000E+00 0. -1.
<mgrwt>
<rscale>  0 0.47945002E+02</rscale>
<asrwt>0</asrwt>
<pdfrwt beam="1">  1        2 0.20617439E+00 0.59570067E+02</pdfrwt>
<pdfrwt beam="2">  1        2 0.24920641E+00 0.38588562E+02</pdfrwt>
<totfact> 0.40733239E+01</totfact>
</mgrwt>
</event>
<event>
13    1  0.1942437E-008  0.7771274E+02  0.7546771E-02  0.1445869E+00
          2   -1    0    0  502    0  0.00000000000E+00  0.00000000000E+00  0.20423686661E+04  0.20423686661E+04  0.00000000000E+00 0. -1.
          2   -1    0    0  503    0 -0.00000000000E+00 -0.00000000000E+00 -0.14125777483E+04  0.14125777483E+04  0.00000000000E+00 0. -1.
         24    2    1    2    0    0 -0.12559118102E+02  0.26449225890E+01 -0.29056709948E+03  0.30210157486E+03  0.81678609004E+02 0.  0.
         24    2    1    2    0    0 -0.30845077278E+02 -0.26492579433E+02 -0.28206258158E+03  0.29589905708E+03  0.79647200208E+02 0.  0.
         25    2    1    2    0    0 -0.58656357616E+02  0.60642366722E+02  0.53046008407E+03  0.55147508256E+03  0.12497520138E+03 0.  0.
        -11    1    4    4    0    0 -0.48856105731E+02 -0.34180689053E+02 -0.25836940588E+03  0.26516030711E+03  0.00000000000E+00 0.  1.
         12    1    4    4    0    0  0.18011028453E+02  0.76881096196E+01 -0.23693175692E+02  0.30738749972E+02  0.00000000000E+00 0. -1.
        -13    1    3    3    0    0  0.37163997938E+01  0.40628150013E+02 -0.12682010674E+03  0.13322086051E+03  0.00000000000E+00 0.  1.
         14    1    3    3    0    0 -0.16275517896E+02 -0.37983227424E+02 -0.16374699274E+03  0.16888071435E+03  0.00000000000E+00 0. -1.
          5    1    5    5  501    0  0.50258673555E+01  0.64892850166E+02  0.12512935316E+03  0.14112330200E+03  0.47000000000E+01 0. -1.
         -5    1    5    5    0  501 -0.63682224972E+02 -0.42504834446E+01  0.40533073091E+03  0.41035178055E+03  0.47000000000E+01 0. -1.
          1    1    1    2  502    0  0.31820382083E+02 -0.37809537638E+01  0.14866988113E+04  0.14870441109E+04  0.00000000000E+00 0. -1.
          1    1    1    2  503    0  0.70240170912E+02 -0.33013756114E+02 -0.81473829649E+03  0.81842658893E+03  0.00000000000E+00 0. -1.
<mgrwt>
<rscale>  0 0.49902349E+02</rscale>
<asrwt>0</asrwt>
<pdfrwt beam="1">  1        2 0.30034833E+00 0.32044225E+02</pdfrwt>
<pdfrwt beam="2">  1        2 0.20773202E+00 0.77712739E+02</pdfrwt>
<totfact> 0.27949942E+01</totfact>
</mgrwt>
</event>
<event>
13    1  0.1942437E-008  0.8831423E+02  0.7546771E-02  0.1308910E+00
          2   -1    0    0  502    0  0.00000000000E+00  0.00000000000E+00  0.11407691192E+04  0.11407691192E+04  0.00000000000E+00 0. -1.
          2   -1    0    0  503    0 -0.00000000000E+00 -0.00000000000E+00 -0.10735822516E+04  0.10735822516E+04  0.00000000000E+00 0. -1.
         24    2    1    2    0    0 -0.34612966420E+02  0.19559603806E+02 -0.43404273102E+02  0.99563431166E+02  0.80301372071E+02 0.  0.
         24    2    1    2    0    0  0.86588460025E+01  0.57154294984E+02 -0.11969182651E+02  0.99780644012E+02  0.80444555669E+02 0.  0.
         25    2    1    2    0    0 -0.15721266305E+02 -0.65307889850E+02  0.54848397864E+03  0.56654413384E+03  0.12500120825E+03 0.  0.
        -11    1    4    4    0    0  0.29551982982E+02  0.68653438883E+02 -0.13200260411E+02  0.75900337572E+02  0.00000000000E+00 0.  1.
         12    1    4    4    0    0 -0.20893136980E+02 -0.11499143898E+02  0.12310777594E+01  0.23880306440E+02  0.00000000000E+00 0. -1.
        -11    1    3    3    0    0 -0.25106721073E+02  0.39121033775E+02  0.47489694870E+01  0.46726389095E+02  0.00000000000E+00 0.  1.
         12    1    3    3    0    0 -0.95062453470E+01 -0.19561429968E+02 -0.48153242589E+02  0.52837042071E+02  0.00000000000E+00 0. -1.
          5    1    5    5  501    0 -0.13839408385E+02  0.87429306636E+01  0.46308489339E+01  0.17649442566E+02  0.47000000000E+01 0.  1.
         -5    1    5    5    0  501 -0.18818579202E+01 -0.74050820514E+02  0.54385312971E+03  0.54889469127E+03  0.47000000000E+01 0.  1.
          1    1    1    2  502    0 -0.35558801286E+02  0.80839190924E+02  0.50354989851E+03  0.51123566330E+03  0.00000000000E+00 0. -1.
          1    1    1    2  503    0  0.77234188009E+02 -0.92245199864E+02 -0.92947355385E+03  0.93722749853E+03  0.00000000000E+00 0. -1.
<mgrwt>
<rscale>  0 0.87544260E+02</rscale>
<asrwt>0</asrwt>
<pdfrwt beam="1">  1        2 0.16776017E+00 0.88314230E+02</pdfrwt>
<pdfrwt beam="2">  1        2 0.15787974E+00 0.86781004E+02</pdfrwt>
<totfact> 0.10334820E+02</totfact>
</mgrwt>
</event>
<event>
13    1  0.1942437E-008  0.9024187E+02  0.7546771E-02  0.1499864E+00
          2   -1    0    0  503    0  0.00000000000E+00  0.00000000000E+00  0.24217342538E+04  0.24217342538E+04  0.00000000000E+00 0. -1.
          2   -1    0    0  502    0 -0.00000000000E+00 -0.00000000000E+00 -0.48212970730E+03  0.48212970730E+03  0.00000000000E+00 0. -1.
         24    2    1    2    0    0 -0.22235268925E+02 -0.12560230350E+02 -0.85671926426E+02  0.11341250883E+03  0.69789337366E+02 0.  0.
         24    2    1    2    0    0  0.33158512526E+02  0.68314220232E+01  0.40152016004E+03  0.41064889712E+03  0.79170212208E+02 0.  0.
         25    2    1    2    0    0  0.41605290001E+02  0.57746982287E+02  0.14031598503E+04  0.14105135504E+04  0.12500078569E+03 0.  0.
        -11    1    4    4    0    0 -0.13182803968E+02  0.14942384905E+02  0.27406135406E+03  0.27478480121E+03  0.00000000000E+00 0.  1.
         12    1    4    4    0    0  0.46341316494E+02 -0.81109628816E+01  0.12745880598E+03  0.13586409590E+03  0.00000000000E+00 0. -1.
        -13    1    3    3    0    0 -0.44638940224E+02 -0.20026992039E+02 -0.45496349971E+02  0.66810427743E+02  0.00000000000E+00 0.  1.
         14    1    3    3    0    0  0.22403671299E+02  0.74667616887E+01 -0.40175576455E+02  0.46602081083E+02  0.00000000000E+00 0. -1.
          5    1    5    5  501    0  0.66439173471E+02  0.15794305127E+02  0.37557174462E+03  0.38175888883E+03  0.47000000000E+01 0.  1.
         -5    1    5    5    0  501 -0.24833883469E+02  0.41952677160E+02  0.10275881056E+04  0.10287546616E+04  0.47000000000E+01 0.  1.
          1    1    1    2  502    0 -0.50787185131E+02 -0.70708065730E+02 -0.36913345282E+03  0.37926043126E+03  0.00000000000E+00 0. -1.
          1    1    1    2  503    0 -0.17413484714E+01  0.18689891770E+02  0.58972991545E+03  0.59002857349E+03  0.00000000000E+00 0. -1.
<mgrwt>
<rscale>  0 0.41157206E+02</rscale>
<asrwt>0</asrwt>
<pdfrwt beam="1">  1        2 0.35613738E+00 0.18770838E+02</pdfrwt>
<pdfrwt beam="2">  1        2 0.70901429E-01 0.90241874E+02</pdfrwt>
<totfact> 0.77628304E+01</totfact>
</mgrwt>
</event>
<event>
13    1  0.1942437E-008  0.4517142E+02  0.7546771E-02  0.1552373E+00
          2   -1    0    0  503    0  0.00000000000E+00  0.00000000000E+00  0.42097139630E+04  0.42097139630E+04  0.00000000000E+00 0. -1.
          2   -1    0    0  502    0 -0.00000000000E+00 -0.00000000000E+00 -0.26490841126E+04  0.26490841126E+04  0.00000000000E+00 0. -1.
         24    2    1    2    0    0  0.16466874463E+02  0.47420273899E+02 -0.13556311100E+04  0.13590218437E+04  0.81760778990E+02 0.  0.
         24    2    1    2    0    0 -0.75339199129E+03 -0.36079175141E+02  0.14951941542E+02  0.75875562844E+03  0.81150130753E+02 0.  0.
         25    2    1    2    0    0  0.75776248564E+03  0.26495390079E+02  0.31457586424E+04  0.32382593945E+04  0.12498191524E+03 0.  0.
        -11    1    4    4    0    0 -0.19587808776E+03  0.77283691039E+01  0.35158021281E+02  0.19915832750E+03  0.00000000000E+00 0.  1.
         12    1    4    4    0    0 -0.55751390353E+03 -0.43807544245E+02 -0.20206079739E+02  0.55959730094E+03  0.00000000000E+00 0. -1.
        -11    1    3    3    0    0  0.25046059808E+02 -0.11559508402E+02 -0.73961575137E+03  0.74012997982E+03  0.00000000000E+00 0.  1.
         12    1    3    3    0    0 -0.85791853449E+01  0.58979782301E+02 -0.61601535861E+03  0.61889186388E+03  0.00000000000E+00 0. -1.
          5    1    5    5  501    0  0.24600169845E+02 -0.21773243949E+02  0.16181258964E+03  0.16518064860E+03  0.47000000000E+01 0.  1.
         -5    1    5    5    0  501  0.73316231579E+03  0.48268634029E+02  0.29839460528E+04  0.30730787459E+04  0.47000000000E+01 0.  1.
          1    1    1    2  502    0 -0.40466001251E+02 -0.20077427870E+02 -0.87274259613E+03  0.87391088760E+03  0.00000000000E+00 0. -1.
          1    1    1    2  503    0  0.19628632439E+02 -0.17759060968E+02  0.62829297251E+03  0.62885032143E+03  0.00000000000E+00 0. -1.
<mgrwt>
<rscale>  0 0.34578797E+02</rscale>
<asrwt>0</asrwt>
<pdfrwt beam="1">  1        2 0.61907559E+00 0.26470124E+02</pdfrwt>
<pdfrwt beam="2">  1        2 0.38957119E+00 0.45171424E+02</pdfrwt>
<totfact> 0.56024965E-01</totfact>
</mgrwt>
</event>
<event>
13    1  0.1942437E-008  0.9474239E+02  0.7546771E-02  0.1387633E+00
          2   -1    0    0  503    0  0.00000000000E+00  0.00000000000E+00  0.12928997785E+04  0.12928997785E+04  0.00000000000E+00 0. -1.
          2   -1    0    0  502    0 -0.00000000000E+00 -0.00000000000E+00 -0.91411426617E+03  0.91411426617E+03  0.00000000000E+00 0. -1.
         24    2    1    2    0    0 -0.57398024276E+02  0.11938519036E+03 -0.21209263414E+03  0.26262645281E+03  0.80262141686E+02 0.  0.
         24    2    1    2    0    0  0.52111823083E+02 -0.15148282053E+02 -0.68623459915E+02  0.11867488830E+03  0.80183772094E+02 0.  0.
         25    2    1    2    0    0 -0.91924009740E+02 -0.17227261280E+03  0.15611945289E+03  0.27950497250E+03  0.12498747695E+03 0.  0.
        -13    1    3    3    0    0  0.17282092216E+02  0.47345536399E+02 -0.57803131271E+02  0.76690758980E+02  0.00000000000E+00 0.  1.
         14    1    3    3    0    0 -0.74680116493E+02  0.72039653965E+02 -0.15428950287E+03  0.18593569383E+03  0.00000000000E+00 0. -1.
        -13    1    4    4    0    0 -0.76309636645E+01  0.22011929266E+02 -0.50232088055E+01  0.23832525321E+02  0.00000000000E+00 0.  1.
         14    1    4    4    0    0  0.59742786748E+02 -0.37160211319E+02 -0.63600251109E+02  0.94842362976E+02  0.00000000000E+00 0. -1.
          5    1    5    5  501    0 -0.20497638418E+02 -0.17416252445E+02  0.94100182458E+02  0.97981699151E+02  0.47000000000E+01 0.  1.
         -5    1    5    5    0  501 -0.71426371322E+02 -0.15485636036E+03  0.62019270432E+02  0.18152327335E+03  0.47000000000E+01 0.  1.
          1    1    1    2  502    0  0.90399621680E+02  0.27372814770E+02 -0.51671545357E+03  0.52527728158E+03  0.00000000000E+00 0. -1.
          1    1    1    2  503    0  0.68105892534E+01  0.40662889722E+02  0.10200976071E+04  0.10209304495E+04  0.00000000000E+00 0. -1.
<mgrwt>
<rscale>  0 0.62499297E+02</rscale>
<asrwt>0</asrwt>
<pdfrwt beam="1">  1        2 0.19013232E+00 0.41229295E+02</pdfrwt>
<pdfrwt beam="2">  1        2 0.13442857E+00 0.94742394E+02</pdfrwt>
<totfact> 0.11146077E+02</totfact>
</mgrwt>
</event>
<event>
13    1  0.1942437E-008  0.4077228E+02  0.7546771E-02  0.1539000E+00
          2   -1    0    0  503    0  0.00000000000E+00  0.00000000000E+00  0.28465845213E+04  0.28465845213E+04  0.00000000000E+00 0. -1.
          2   -1    0    0  502    0 -0.00000000000E+00 -0.00000000000E+00 -0.18144202376E+03  0.18144202376E+03  0.00000000000E+00 0. -1.
         24    2    1    2    0    0 -0.56274484052E+02 -0.64149295004E+02  0.19805795453E+01  0.11732231512E+03  0.80490082156E+02 0.  0.
         24    2    1    2    0    0  0.97154837992E+02 -0.78772839339E+01 -0.16933984723E+02  0.12778439732E+03  0.80876314291E+02 0.  0.
         25    2    1    2    0    0 -0.71940801192E+02  0.32854598697E+02  0.91621323140E+03  0.92807718309E+03  0.12500267537E+03 0.  0.
        -11    1    3    3    0    0 -0.40323418764E+02 -0.67289219831E+02 -0.27937475405E+02  0.83272562938E+02  0.00000000000E+00 0.  1.
         12    1    3    3    0    0 -0.15951065288E+02  0.31399248274E+01  0.29918054951E+02  0.34049752184E+02  0.00000000000E+00 0. -1.
        -13    1    4    4    0    0  0.95028460087E+01  0.19545667252E+01  0.27400385693E+02  0.29067259063E+02  0.00000000000E+00 0.  1.
         14    1    4    4    0    0  0.87651991984E+02 -0.98318506591E+01 -0.44334370416E+02  0.98717138260E+02  0.00000000000E+00 0. -1.
          5    1    5    5  501    0 -0.89403699965E+02  0.47426955196E+02  0.44905834223E+03  0.46034532948E+03  0.47000000000E+01 0. -1.
         -5    1    5    5    0  501  0.17462898773E+02 -0.14572356499E+02  0.46715488917E+03  0.46773185361E+03  0.47000000000E+01 0. -1.
          1    1    1    2  502    0  0.31932407709E+02 -0.15947928224E+01 -0.39601842072E+02  0.50897229018E+02  0.00000000000E+00 0. -1.
          1    1    1    2  503    0 -0.87196045717E+00  0.40766773063E+02  0.18034845134E+04  0.18039454205E+04  0.00000000000E+00 0. -1.
<mgrwt>
<rscale>  0 0.36105121E+02</rscale>
<asrwt>0</asrwt>
<pdfrwt beam="1">  1        2 0.41861534E+00 0.40772279E+02</pdfrwt>
<pdfrwt beam="2">  1        2 0.26682652E-01 0.31972207E+02</pdfrwt>
<totfact> 0.11656981E+02</totfact>
</mgrwt>
</event>
<event>
13    1  0.1942437E-008  0.2954436E+03  0.7546771E-02  0.1245465E+00
          2   -1    0    0  503    0  0.00000000000E+00  0.00000000000E+00  0.17724456619E+04  0.17724456619E+04  0.00000000000E+00 0. -1.
         -1   -1    0    0    0  501 -0.00000000000E+00 -0.00000000000E+00 -0.26214670441E+04  0.26214670441E+04  0.00000000000E+00 0.  1.
         24    2    1    2    0    0 -0.23905389370E+03  0.32625767143E+03 -0.77644813714E+03  0.87919116423E+03  0.80712832467E+02 0.  0.
         24    2    1    2    0    0  0.20542916797E+03  0.51351414658E+02 -0.12321793152E+03  0.25762173670E+03  0.79675527797E+02 0.  0.
         25    2    1    2    0    0  0.34560286532E+02 -0.12475489740E+03  0.62041507229E+03  0.64598627950E+03  0.12500085418E+03 0.  0.
        -11    1    3    3    0    0 -0.16761292105E+03  0.25960062751E+03 -0.64702045753E+03  0.71702304675E+03  0.00000000000E+00 0.  1.
         12    1    3    3    0    0 -0.71440972646E+02  0.66657043918E+02 -0.12942767962E+03  0.16216811748E+03  0.00000000000E+00 0. -1.
        -11    1    4    4    0    0  0.19581211082E+03  0.33854705407E+02 -0.12890138491E+03  0.23686302129E+03  0.00000000000E+00 0.  1.
         12    1    4    4    0    0  0.96170571544E+01  0.17496709251E+02  0.56834533943E+01  0.20758715409E+02  0.00000000000E+00 0. -1.
          5    1    5    5  502    0  0.15406222887E+02 -0.12098350397E+02  0.60030340285E+01  0.21020185620E+02  0.47000000000E+01 0. -1.
         -5    1    5    5    0  502  0.19154063645E+02 -0.11265654700E+03  0.61441203826E+03  0.62496609388E+03  0.47000000000E+01 0. -1.
          1    1    1    2  503    0  0.33524119410E+02  0.33778215434E+02  0.10070039690E+04  0.10081278828E+04  0.00000000000E+00 0. -1.
         -2    1    1    2    0  501 -0.34459680217E+02 -0.28663240413E+03 -0.15767743549E+04  0.16029856428E+04  0.00000000000E+00 0.  1.
<mgrwt>
<rscale>  0 0.11857589E+03</rscale>
<asrwt>0</asrwt>
<pdfrwt beam="1">  1        2 0.26065377E+00 0.47590277E+02</pdfrwt>
<pdfrwt beam="2">  1       -1 0.38550986E+00 0.29544356E+03</pdfrwt>
<totfact> 0.15850540E-01</totfact>
</mgrwt>
</event>
<event>
13    1  0.1942437E-008  0.1139956E+03  0.7546771E-02  0.1388068E+00
          2   -1    0    0  502    0  0.00000000000E+00  0.00000000000E+00  0.11766146146E+04  0.11766146146E+04  0.00000000000E+00 0. -1.
          2   -1    0    0  503    0 -0.00000000000E+00 -0.00000000000E+00 -0.73089172367E+03  0.73089172367E+03  0.00000000000E+00 0. -1.
         24    2    1    2    0    0 -0.30493340281E+02 -0.32517687236E+02 -0.57071531393E+02  0.10858469594E+03  0.80908792555E+02 0.  0.
         24    2    1    2    0    0 -0.20211088883E+03 -0.29652912362E+02  0.12185982290E+03  0.25115502341E+03  0.80628299920E+02 0.  0.
         25    2    1    2    0    0  0.19583743795E+03  0.16841702937E+03  0.18159227659E+03  0.33958425474E+03  0.12500045307E+03 0.  0.
        -11    1    4    4    0    0 -0.19610632648E+03 -0.46639809783E+02  0.11273513471E+03  0.23095924693E+03  0.00000000000E+00 0.  1.
         12    1    4    4    0    0 -0.60045623518E+01  0.16986897421E+02  0.91246881913E+01  0.20195776480E+02  0.00000000000E+00 0. -1.
        -11    1    3    3    0    0 -0.51710227376E+02 -0.64873605865E+00 -0.20470400696E+02  0.55618394245E+02  0.00000000000E+00 0.  1.
         12    1    3    3    0    0  0.21216887095E+02 -0.31868951177E+02 -0.36601130697E+02  0.52966301697E+02  0.00000000000E+00 0. -1.
          5    1    5    5  501    0  0.82074327289E+02  0.85649159936E+02  0.12208407031E+02  0.11934449715E+03  0.47000000000E+01 0.  1.
         -5    1    5    5    0  501  0.11376311066E+03  0.82767869434E+02  0.16938386956E+03  0.22023975759E+03  0.47000000000E+01 0.  1.
          1    1    1    2  502    0 -0.34136034255E+02  0.82251240418E+00  0.69516326138E+03  0.69600136878E+03  0.00000000000E+00 0. -1.
          1    1    1    2  503    0  0.70902825424E+02 -0.10706894218E+03 -0.49582093850E+03  0.51218099544E+03  0.00000000000E+00 0. -1.
<mgrwt>
<rscale>  0 0.62389810E+02</rscale>
<asrwt>0</asrwt>
<pdfrwt beam="1">  1        2 0.17303156E+00 0.34145942E+02</pdfrwt>
<pdfrwt beam="2">  1        2 0.10748408E+00 0.11399563E+03</pdfrwt>
<totfact> 0.16831803E+02</totfact>
</mgrwt>
</event>
<event>
13    1  0.1942437E-008  0.2005474E+03  0.7546771E-02  0.1454534E+00
          2   -1    0    0  502    0  0.00000000000E+00  0.00000000000E+00  0.25465048171E+03  0.25465048171E+03  0.00000000000E+00 0. -1.
          2   -1    0    0  503    0 -0.00000000000E+00 -0.00000000000E+00 -0.40628407835E+04  0.40628407835E+04  0.00000000000E+00 0. -1.
         24    2    1    2    0    0 -0.10093686493E+01 -0.38981043271E+02 -0.20245872444E+04  0.20267601723E+04  0.85339001397E+02 0.  0.
         24    2    1    2    0    0 -0.14437174042E+03  0.25907934846E+02 -0.53922685315E+03  0.56466496695E+03  0.81033975671E+02 0.  0.
         25    2    1    2    0    0  0.12400237892E+03 -0.19583801348E+03 -0.21725714721E+03  0.34141454325E+03  0.12503641399E+03 0.  0.
        -13    1    3    3    0    0 -0.60139303203E+00  0.11975580135E+02 -0.46642144589E+02  0.48158756680E+02  0.00000000000E+00 0.  1.
         14    1    3    3    0    0 -0.40797561727E+00 -0.50956623406E+02 -0.19779450998E+04  0.19786014156E+04  0.00000000000E+00 0. -1.
        -13    1    4    4    0    0 -0.10334778260E+03  0.78410549664E+01 -0.47604239449E+03  0.48719463016E+03  0.00000000000E+00 0.  1.
         14    1    4    4    0    0 -0.41023957824E+02  0.18066879880E+02 -0.63184458667E+02  0.77470336782E+02  0.00000000000E+00 0. -1.
          5    1    5    5  501    0  0.86737779569E+02 -0.27877112926E+02 -0.72777767939E+02  0.11670162525E+03  0.47000000000E+01 0.  1.
         -5    1    5    5    0  501  0.37264599353E+02 -0.16796090056E+03 -0.14447937927E+03  0.22471291800E+03  0.47000000000E+01 0.  1.
          1    1    1    2  502    0  0.30353042710E+02  0.20148320802E+03  0.12066694366E+03  0.23680646446E+03  0.00000000000E+00 0. -1.
          1    1    1    2  503    0 -0.89743125625E+01  0.74279138874E+01 -0.11477860007E+04  0.11478451183E+04  0.00000000000E+00 0. -1.
<mgrwt>
<rscale>  0 0.48335168E+02</rscale>
<asrwt>0</asrwt>
<pdfrwt beam="1">  1        2 0.37448603E-01 0.20054740E+03</pdfrwt>
<pdfrwt beam="2">  1        2 0.59747655E+00 0.11649558E+02</pdfrwt>
<totfact> 0.24268951E+01</totfact>
</mgrwt>
</event>
<event>
13    1  0.1942437E-008  0.1056965E+03  0.7546771E-02  0.1314027E+00
          2   -1    0    0  502    0  0.00000000000E+00  0.00000000000E+00  0.27113559477E+04  0.27113559477E+04  0.00000000000E+00 0. -1.
          2   -1    0    0  503    0 -0.00000000000E+00 -0.00000000000E+00 -0.12741046302E+04  0.12741046302E+04  0.00000000000E+00 0. -1.
         24    2    1    2    0    0 -0.42403971336E+02  0.24966027307E+02 -0.77325095377E+02  0.12064323383E+03  0.78448838038E+02 0.  0.
         24    2    1    2    0    0 -0.91154835562E+02 -0.11989034555E+03  0.10462105741E+03  0.20028280453E+03  0.80527865584E+02 0.  0.
         25    2    1    2    0    0  0.55298255525E+02  0.30317684773E+02  0.43859557723E+03  0.46039862692E+03  0.12499502484E+03 0.  0.
        -11    1    3    3    0    0 -0.63173451846E+02  0.27480796172E+02 -0.45512942666E+02  0.82568196822E+02  0.00000000000E+00 0.  1.
         12    1    3    3    0    0  0.20769480510E+02 -0.25147688650E+01 -0.31812152711E+02  0.38075037009E+02  0.00000000000E+00 0. -1.
        -13    1    4    4    0    0 -0.75596463419E+02 -0.47763761593E+02  0.27511395301E+02  0.93557891567E+02  0.00000000000E+00 0.  1.
         14    1    4    4    0    0 -0.15558372143E+02 -0.72126583959E+02  0.77109662108E+02  0.10672491297E+03  0.00000000000E+00 0. -1.
          5    1    5    5  501    0  0.16956097076E+02  0.45963477769E+02  0.52129951178E+02  0.71692205480E+02  0.47000000000E+01 0. -1.
         -5    1    5    5    0  501  0.38342158448E+02 -0.15645792996E+02  0.38646562605E+03  0.38870642144E+03  0.47000000000E+01 0. -1.
          1    1    1    2  502    0  0.60520005939E+02 -0.33610831694E+02  0.20849414955E+04  0.20860904580E+04  0.00000000000E+00 0. -1.
          1    1    1    2  503    0  0.17740545434E+02  0.98217465165E+02 -0.11135817174E+04  0.11180454546E+04  0.00000000000E+00 0. -1.
<mgrwt>
<rscale>  0 0.85539678E+02</rscale>
<asrwt>0</asrwt>
<pdfrwt beam="1">  1        2 0.39872882E+00 0.69226867E+02</pdfrwt>
<pdfrwt beam="2">  1        2 0.18736833E+00 0.10569648E+03</pdfrwt>
<totfact> 0.13943996E+01</totfact>
</mgrwt>
</event>
<event>
13    1  0.1942437E-008  0.1093714E+03  0.7546771E-02  0.1375210E+00
          2   -1    0    0  503    0  0.00000000000E+00  0.00000000000E+00  0.91700899980E+03  0.91700899980E+03  0.00000000000E+00 0. -1.
          2   -1    0    0  502    0 -0.00000000000E+00 -0.00000000000E+00 -0.12097635257E+04  0.12097635257E+04  0.00000000000E+00 0. -1.
         24    2    1    2    0    0 -0.96811492264E+02 -0.60833839231E+02 -0.24106661529E+03  0.27955133691E+03  0.83442291024E+02 0.  0.
         24    2    1    2    0    0  0.30887467923E+02 -0.76911087005E+02 -0.28058454525E+02  0.11923915944E+03  0.81002156114E+02 0.  0.
         25    2    1    2    0    0  0.63933289354E+02  0.21008990340E+03  0.49347834226E+03  0.55441065185E+03  0.12500025443E+03 0.  0.
        -11    1    4    4    0    0  0.48895466615E+02 -0.51661756801E+02  0.81128524070E+01  0.71592752045E+02  0.00000000000E+00 0.  1.
         12    1    4    4    0    0 -0.18007998692E+02 -0.25249330203E+02 -0.36171306932E+02  0.47646407396E+02  0.00000000000E+00 0. -1.
        -13    1    3    3    0    0 -0.91511417921E+02 -0.68256539514E+02 -0.15240643316E+03  0.19042325400E+03  0.00000000000E+00 0.  1.
         14    1    3    3    0    0 -0.53000743427E+01  0.74227002823E+01 -0.88660182131E+02  0.89128082909E+02  0.00000000000E+00 0. -1.
          5    1    5    5  501    0  0.97991813753E+02  0.14952686272E+03  0.30616145396E+03  0.35456678374E+03  0.47000000000E+01 0.  1.
         -5    1    5    5    0  501 -0.34058524398E+02  0.60563040680E+02  0.18731688830E+03  0.19984386811E+03  0.47000000000E+01 0.  1.
          1    1    1    2  502    0  0.19232200698E+02 -0.10789922862E+03 -0.84057981290E+03  0.84769484069E+03  0.00000000000E+00 0. -1.
          1    1    1    2  503    0 -0.17241465712E+02  0.35554251452E+02  0.32347201453E+03  0.32587653662E+03  0.00000000000E+00 0. -1.
<mgrwt>
<rscale>  0 0.65739840E+02</rscale>
<asrwt>0</asrwt>
<pdfrwt beam="1">  1        2 0.13485427E+00 0.39514212E+02</pdfrwt>
<pdfrwt beam="2">  1        2 0.17790640E+00 0.10937145E+03</pdfrwt>
<totfact> 0.11933594E+02</totfact>
</mgrwt>
</event>
<event>
13    1  0.1942437E-008  0.9965758E+02  0.7546771E-02  0.1423691E+00
         -3   -1    0    0    0  502 -0.00000000000E+00  0.00000000000E+00  0.16831544154E+04  0.16831544154E+04  0.00000000000E+00 0.  1.
         -1   -1    0    0    0  501  0.00000000000E+00 -0.00000000000E+00 -0.80607486017E+03  0.80607486017E+03  0.00000000000E+00 0.  1.
         24    2    1    2    0    0 -0.26060402892E+02 -0.51992220836E+02 -0.36425702579E+02  0.97163544229E+02  0.68786531330E+02 0.  0.
         24    2    1    2    0    0 -0.27996718977E+02 -0.37755298464E+02 -0.21900551036E+02  0.95371462692E+02  0.80042506987E+02 0.  0.
         25    2    1    2    0    0 -0.17594459286E+02  0.49142299899E+02 -0.50871147188E+03  0.52645008201E+03  0.12505117590E+03 0.  0.
        -13    1    4    4    0    0 -0.42030877967E+02 -0.85641841729E+01 -0.39671197501E+02  0.58427252754E+02  0.00000000000E+00 0.  1.
         14    1    4    4    0    0  0.14034158990E+02 -0.29191114291E+02  0.17770646465E+02  0.36944209937E+02  0.00000000000E+00 0. -1.
        -13    1    3    3    0    0 -0.23481330262E+02 -0.68751108360E+02 -0.25516633180E+02  0.77001209994E+02  0.00000000000E+00 0.  1.
         14    1    3    3    0    0 -0.25790726298E+01  0.16758887524E+02 -0.10909069399E+02  0.20162334236E+02  0.00000000000E+00 0. -1.
          5    1    5    5  503    0  0.32635671186E+02  0.92159618243E+01 -0.38936032455E+03  0.39086260159E+03  0.47000000000E+01 0. -1.
         -5    1    5    5    0  503 -0.50230130472E+02  0.39926338074E+02 -0.11935114733E+03  0.13558748042E+03  0.47000000000E+01 0. -1.
         -2    1    1    2    0  501  0.33454065354E+00 -0.29527105650E+02 -0.16015616373E+03  0.16285563751E+03  0.00000000000E+00 0.  1.
         -4    1    1    2    0  502  0.71317040501E+02  0.70132325051E+02  0.16042734444E+04  0.16073885491E+04  0.00000000000E+00 0.  1.
<mgrwt>
<rscale>  0 0.54247476E+02</rscale>
<asrwt>0</asrwt>
<pdfrwt beam="2">  1       -1 0.11854042E+00 0.29529001E+02</pdfrwt>
<pdfrwt beam="1">  1       -3 0.24752271E+00 0.99657578E+02</pdfrwt>
<totfact> 0.31078561E-01</totfact>
</mgrwt>
</event>
<event>
13    1  0.1942437E-008  0.4124191E+02  0.7546771E-02  0.1642627E+00
          2   -1    0    0  502    0  0.00000000000E+00  0.00000000000E+00  0.64239441939E+03  0.64239441939E+03  0.00000000000E+00 0. -1.
          2   -1    0    0  503    0 -0.00000000000E+00 -0.00000000000E+00 -0.13650536071E+04  0.13650536071E+04  0.00000000000E+00 0. -1.
         24    2    1    2    0    0  0.44049448695E+02 -0.41845365973E+03 -0.60921877031E+03  0.74472417681E+03  0.80142187083E+02 0.  0.
         24    2    1    2    0    0  0.34740725402E+03  0.28908727065E+01  0.60657034205E+02  0.36382542541E+03  0.89384042643E+02 0.  0.
         25    2    1    2    0    0 -0.37392816243E+03  0.36046758189E+03  0.97363933564E+02  0.54301425639E+03  0.12500239528E+03 0.  0.
        -11    1    4    4    0    0  0.82000158036E+02  0.25133593412E+02  0.45425940691E+02  0.97052766696E+02  0.00000000000E+00 0.  1.
         12    1    4    4    0    0  0.26540709599E+03 -0.22242720705E+02  0.15231093514E+02  0.26677265871E+03  0.00000000000E+00 0. -1.
        -13    1    3    3    0    0  0.45338060211E+02 -0.16809676716E+03 -0.20174872522E+03  0.26648566746E+03  0.00000000000E+00 0.  1.
         14    1    3    3    0    0 -0.12886115161E+01 -0.25035689257E+03 -0.40747004509E+03  0.47823850934E+03  0.00000000000E+00 0. -1.
          5    1    5    5  501    0 -0.26570452809E+03  0.30517373921E+03  0.34564994822E+02  0.40613635176E+03  0.47000000000E+01 0. -1.
         -5    1    5    5    0  501 -0.10822363434E+03  0.55293842677E+02  0.62798938742E+02  0.13687790463E+03  0.47000000000E+01 0. -1.
          1    1    1    2  502    0 -0.29973683407E+01  0.16538017966E+02  0.39121925050E+02  0.42579517081E+02  0.00000000000E+00 0. -1.
          1    1    1    2  503    0 -0.14531171945E+02  0.38557187169E+02 -0.31058331021E+03  0.31330465081E+03  0.00000000000E+00 0. -1.
<mgrwt>
<rscale>  0 0.26328143E+02</rscale>
<asrwt>0</asrwt>
<pdfrwt beam="1">  1        2 0.94469768E-01 0.16807446E+02</pdfrwt>
<pdfrwt beam="2">  1        2 0.20074318E+00 0.41241907E+02</pdfrwt>
<totfact> 0.16233340E+02</totfact>
</mgrwt>
</event>
<event>
13    1  0.1942437E-008  0.6904273E+02  0.7546771E-02  0.1383662E+00
          2   -1    0    0  503    0  0.00000000000E+00  0.00000000000E+00  0.17285326523E+04  0.17285326523E+04  0.00000000000E+00 0. -1.
          2   -1    0    0  502    0 -0.00000000000E+00 -0.00000000000E+00 -0.20463582790E+04  0.20463582790E+04  0.00000000000E+00 0. -1.
         24    2    1    2    0    0  0.25905938937E+02 -0.11314321123E+03 -0.58737094842E+03  0.60403754820E+03  0.79901343362E+02 0.  0.
         24    2    1    2    0    0 -0.14064808750E+03  0.41923876716E+02 -0.47132928353E+03  0.50016361027E+03  0.80454009003E+02 0.  0.
         25    2    1    2    0    0  0.18241586142E+03 -0.19378801004E+02 -0.64545624259E+02  0.23117399528E+03  0.12499677619E+03 0.  0.
        -11    1    4    4    0    0 -0.32459978431E+01  0.26961837887E+02 -0.52332935812E+02  0.58959421427E+02  0.00000000000E+00 0.  1.
         12    1    4    4    0    0 -0.13740208965E+03  0.14962038829E+02 -0.41899634772E+03  0.44120418884E+03  0.00000000000E+00 0. -1.
        -13    1    3    3    0    0 -0.30439476184E+01 -0.10773070171E+03 -0.50971761804E+03  0.52098677512E+03  0.00000000000E+00 0.  1.
         14    1    3    3    0    0  0.28949886555E+02 -0.54125095240E+01 -0.77653330383E+02  0.83050773088E+02  0.00000000000E+00 0. -1.
          5    1    5    5  501    0  0.21874547621E+02 -0.29082459597E+02  0.27453704976E+02  0.45826642979E+02  0.47000000000E+01 0. -1.
         -5    1    5    5    0  501  0.16054131380E+03  0.97036585930E+01 -0.91999329235E+02  0.18534735230E+03  0.47000000000E+01 0. -1.
          1    1    1    2  502    0 -0.14185251923E+02  0.67100611211E+02 -0.81508121901E+03  0.81796155593E+03  0.00000000000E+00 0. -1.
          1    1    1    2  503    0 -0.53488460937E+02  0.23497524311E+02  0.16205014485E+04  0.16215542216E+04  0.00000000000E+00 0. -1.
<mgrwt>
<rscale>  0 0.63510831E+02</rscale>
<asrwt>0</asrwt>
<pdfrwt beam="1">  1        2 0.25419598E+00 0.58422163E+02</pdfrwt>
<pdfrwt beam="2">  1        2 0.30093504E+00 0.69042731E+02</pdfrwt>
<totfact> 0.18363010E+01</totfact>
</mgrwt>
</event>
<event>
13    1  0.1942437E-008  0.4101866E+03  0.7546771E-02  0.1328859E+00
          2   -1    0    0  503    0  0.00000000000E+00  0.00000000000E+00  0.14201678930E+04  0.14201678930E+04  0.00000000000E+00 0. -1.
          2   -1    0    0  502    0 -0.00000000000E+00 -0.00000000000E+00 -0.11987319573E+04  0.11987319573E+04  0.00000000000E+00 0. -1.
         24    2    1    2    0    0 -0.28424904072E+03  0.32165312570E+03 -0.12161573957E+03  0.45330301511E+03  0.80218358119E+02 0.  0.
         24    2    1    2    0    0 -0.14866420816E+02  0.45323799932E+02  0.85888033100E+02  0.12559063110E+03  0.78236788552E+02 0.  0.
         25    2    1    2    0    0  0.52823297252E+02 -0.25777706220E+02  0.41841318219E+03  0.44062403611E+03  0.12500063718E+03 0.  0.
        -11    1    4    4    0    0 -0.46308988463E+02  0.18801774777E+02  0.40441283972E+02  0.64292508090E+02  0.00000000000E+00 0.  1.
         12    1    4    4    0    0  0.31442567647E+02  0.26522025156E+02  0.45446749128E+02  0.61298123013E+02  0.00000000000E+00 0. -1.
        -11    1    3    3    0    0 -0.11669445304E+03  0.19172457217E+03 -0.55504709510E+02  0.23120700622E+03  0.00000000000E+00 0.  1.
         12    1    3    3    0    0 -0.16755458768E+03  0.12992855352E+03 -0.66111030061E+02  0.22209600890E+03  0.00000000000E+00 0. -1.
          5    1    5    5  501    0 -0.54596463855E+01  0.44993383844E+02  0.16134474700E+03  0.16765568798E+03  0.47000000000E+01 0. -1.
         -5    1    5    5    0  501  0.58282943638E+02 -0.70771090064E+02  0.25706843519E+03  0.27296834813E+03  0.47000000000E+01 0. -1.
          1    1    1    2  502    0  0.23834160616E+03 -0.32774336012E+03 -0.83358286421E+03  0.92686720884E+03  0.00000000000E+00 0. -1.
          1    1    1    2  503    0  0.79505581252E+01 -0.13455859289E+02  0.67233332412E+03  0.67251495912E+03  0.00000000000E+00 0. -1.
<mgrwt>
<rscale>  0 0.80067990E+02</rscale>
<asrwt>0</asrwt>
<pdfrwt beam="1">  1        2 0.20884822E+00 0.15629188E+02</pdfrwt>
<pdfrwt beam="2">  1        2 0.17628411E+00 0.41018657E+03</pdfrwt>
<totfact> 0.66760855E+01</totfact>
</mgrwt>
</event>
<event>
13    1  0.1942437E-008  0.3223652E+03  0.7546771E-02  0.1194842E+00
          2   -1    0    0  503    0  0.00000000000E+00  0.00000000000E+00  0.41856632350E+04  0.41856632350E+04  0.00000000000E+00 0. -1.
          2   -1    0    0  502    0 -0.00000000000E+00 -0.00000000000E+00 -0.13143622405E+04  0.13143622405E+04  0.00000000000E+00 0. -1.
         24    2    1    2    0    0 -0.22077988669E+03  0.16551446790E+03 -0.37653556820E+02  0.29017709561E+03  0.81523978214E+02 0.  0.
         24    2    1    2    0    0  0.42994416800E+02 -0.20721404076E+03  0.42650960944E+02  0.23090770775E+03  0.81933427039E+02 0.  0.
         25    2    1    2    0    0 -0.12745176323E+03  0.70376439295E+02  0.16852564905E+04  0.16961458381E+04  0.12499788144E+03 0.  0.
        -11    1    3    3    0    0 -0.18014788104E+03  0.10239903790E+03 -0.23596999071E+01  0.20723028299E+03  0.00000000000E+00 0.  1.
         12    1    3    3    0    0 -0.40632005652E+02  0.63115430001E+02 -0.35293856913E+02  0.82946812617E+02  0.00000000000E+00 0. -1.
        -13    1    4    4    0    0 -0.13816008737E+02 -0.12573815872E+02 -0.10318634388E+02  0.21341442281E+02  0.00000000000E+00 0.  1.
         14    1    4    4    0    0  0.56810425537E+02 -0.19464022489E+03  0.52969595332E+02  0.20956626547E+03  0.00000000000E+00 0. -1.
          5    1    5    5  501    0 -0.98486677687E+02  0.33674046168E+01  0.13172416334E+04  0.13209309505E+04  0.47000000000E+01 0. -1.
         -5    1    5    5    0  501 -0.28965085543E+02  0.67009034678E+02  0.36801485701E+03  0.37521488762E+03  0.47000000000E+01 0. -1.
          1    1    1    2  502    0  0.34541421206E+03  0.33724183575E+02 -0.10215775014E+04  0.10789202426E+04  0.00000000000E+00 0. -1.
          1    1    1    2  503    0 -0.40176978941E+02 -0.62401050011E+02  0.22026246013E+04  0.22038745915E+04  0.00000000000E+00 0. -1.
<mgrwt>
<rscale>  0 0.15467643E+03</rscale>
<asrwt>0</asrwt>
<pdfrwt beam="1">  1        2 0.61553871E+00 0.74216445E+02</pdfrwt>
<pdfrwt beam="2">  1        2 0.19328857E+00 0.32236518E+03</pdfrwt>
<totfact> 0.16870007E+00</totfact>
</mgrwt>
</event>
<event>
13    1  0.1942437E-008  0.9251393E+02  0.7546771E-02  0.1425476E+00
          2   -1    0    0  502    0  0.00000000000E+00  0.00000000000E+00  0.11419093569E+04  0.11419093569E+04  0.00000000000E+00 0. -1.
          2   -1    0    0  503    0 -0.00000000000E+00 -0.00000000000E+00 -0.50599644138E+03  0.50599644138E+03  0.00000000000E+00 0. -1.
         24    2    1    2    0    0  0.17908365434E+02  0.23539751776E+02 -0.35404724367E+03  0.36435748505E+03  0.80821387594E+02 0.  0.
         24    2    1    2    0    0  0.43925794950E+02 -0.40885882330E+02  0.87136461954E+02  0.13360502888E+03  0.81586824334E+02 0.  0.
         25    2    1    2    0    0 -0.13598742018E+03  0.85513763931E+02  0.19027846952E+03  0.27863281758E+03  0.12500067519E+03 0.  0.
        -11    1    4    4    0    0  0.18406998365E+02 -0.59379155189E+02  0.31569853245E+02  0.69723434322E+02  0.00000000000E+00 0.  1.
         12    1    4    4    0    0  0.25518796584E+02  0.18493272859E+02  0.55566608709E+02  0.63881594560E+02  0.00000000000E+00 0. -1.
        -13    1    3    3    0    0 -0.27750012162E+02 -0.83939840135E+01 -0.15351482030E+03  0.15622842953E+03  0.00000000000E+00 0.  1.
         14    1    3    3    0    0  0.45658377596E+02  0.31933735789E+02 -0.20053242337E+03  0.20812905551E+03  0.00000000000E+00 0. -1.
          5    1    5    5  501    0  0.65893633768E+01  0.17346932388E+02 -0.11468676483E+02  0.22314934758E+02  0.47000000000E+01 0. -1.
         -5    1    5    5    0  501 -0.14257678356E+03  0.68166831543E+02  0.20174714601E+03  0.25631788282E+03  0.47000000000E+01 0. -1.
          1    1    1    2  502    0  0.83783508185E+02 -0.38303645082E+02  0.78602820504E+03  0.79140835514E+03  0.00000000000E+00 0. -1.
          1    1    1    2  503    0 -0.96302483860E+01 -0.29863988294E+02 -0.73482977347E+02  0.79902111616E+02  0.00000000000E+00 0. -1.
<mgrwt>
<rscale>  0 0.53878868E+02</rscale>
<asrwt>0</asrwt>
<pdfrwt beam="1">  1        2 0.16792785E+00 0.92513928E+02</pdfrwt>
<pdfrwt beam="2">  1        2 0.74411241E-01 0.31378328E+02</pdfrwt>
<totfact> 0.25337467E+02</totfact>
</mgrwt>
</event>
<event>
13    1  0.1942437E-008  0.1291123E+03  0.7546771E-02  0.1315928E+00
         -1   -1    0    0    0  501 -0.00000000000E+00  0.00000000000E+00  0.14597860805E+04  0.14597860805E+04  0.00000000000E+00 0.  1.
          2   -1    0    0  503    0  0.00000000000E+00 -0.00000000000E+00 -0.17089389345E+04  0.17089389345E+04  0.00000000000E+00 0. -1.
         24    2    1    2    0    0  0.64556277523E+02 -0.55508672023E+02 -0.94503633976E+01  0.11698279327E+03  0.79667677990E+02 0.  0.
         24    2    1    2    0    0 -0.10168049904E+03  0.19650880405E+03 -0.76499661871E+02  0.25851430032E+03  0.10964858070E+03 0.  0.
         25    2    1    2    0    0  0.13019390702E+03 -0.27890797762E+03 -0.65808004701E+03  0.73718034733E+03  0.12500161125E+03 0.  0.
        -11    1    3    3    0    0  0.20591832787E+02  0.90273252507E+01  0.23232838805E+02  0.32330805397E+02  0.00000000000E+00 0.  1.
         12    1    3    3    0    0  0.43964444737E+02 -0.64535997274E+02 -0.32683202203E+02  0.84651987876E+02  0.00000000000E+00 0. -1.
        -13    1    4    4    0    0 -0.44796370085E+02  0.56126543398E+02 -0.79347180839E+02  0.10701812348E+03  0.00000000000E+00 0.  1.
         14    1    4    4    0    0 -0.56884128954E+02  0.14038226065E+03  0.28475189673E+01  0.15149617684E+03  0.00000000000E+00 0. -1.
          5    1    5    5  502    0 -0.20172565831E+02 -0.13812284265E+02 -0.29541910069E+02  0.38633224812E+02  0.47000000000E+01 0.  1.
         -5    1    5    5    0  502  0.15036647285E+03 -0.26509569336E+03 -0.62853813694E+03  0.69854712252E+03  0.47000000000E+01 0.  1.
          1    1    1    2  503    0  0.64550048380E+01  0.55335122184E+02 -0.77630649100E+03  0.77830290427E+03  0.00000000000E+00 0. -1.
         -2    1    1    2    0  501 -0.99524690339E+02  0.82572723413E+02  0.12711837093E+04  0.12777446698E+04  0.00000000000E+00 0.  1.
<mgrwt>
<rscale>  0 0.84810916E+02</rscale>
<asrwt>0</asrwt>
<pdfrwt beam="2">  1        2 0.25131455E+00 0.55710348E+02</pdfrwt>
<pdfrwt beam="1">  1       -1 0.21467442E+00 0.12911231E+03</pdfrwt>
<totfact> 0.22023595E+00</totfact>
</mgrwt>
</event>
<event>
13    1  0.1942437E-008  0.1710156E+03  0.7546771E-02  0.1300993E+00
          2   -1    0    0  503    0  0.00000000000E+00  0.00000000000E+00  0.21587857501E+04  0.21587857501E+04  0.00000000000E+00 0. -1.
          2   -1    0    0  502    0 -0.00000000000E+00 -0.00000000000E+00 -0.61456425589E+03  0.61456425589E+03  0.00000000000E+00 0. -1.
         24    2    1    2    0    0  0.90365994456E+02  0.38833215888E+02 -0.34918494759E+03  0.37157499012E+03  0.80397848544E+02 0.  0.
         24    2    1    2    0    0 -0.41656303530E+02 -0.62633803282E+02  0.42135046649E+02  0.11247952932E+03  0.72236011955E+02 0.  0.
         25    2    1    2    0    0  0.27134445043E+02 -0.17344556874E+03  0.21623677616E+03  0.30528888767E+03  0.12499327241E+03 0.  0.
        -11    1    3    3    0    0  0.75558653494E+02 -0.68638285239E+00 -0.28432007208E+03  0.29418953861E+03  0.00000000000E+00 0.  1.
         12    1    3    3    0    0  0.14807340962E+02  0.39519598740E+02 -0.64864875507E+02  0.77385451511E+02  0.00000000000E+00 0. -1.
        -13    1    4    4    0    0 -0.45374181133E+02 -0.67933327630E+02  0.54720721624E+02  0.98326551305E+02  0.00000000000E+00 0.  1.
         14    1    4    4    0    0  0.37178776030E+01  0.52995243486E+01 -0.12585674975E+02  0.14152978018E+02  0.00000000000E+00 0. -1.
          5    1    5    5  501    0  0.57223962822E+02 -0.13981599319E+03  0.21109710164E+03  0.25962890863E+03  0.47000000000E+01 0.  1.
         -5    1    5    5    0  501 -0.30089517778E+02 -0.33629575545E+02  0.51396745113E+01  0.45659979036E+02  0.47000000000E+01 0.  1.
          1    1    1    2  502    0  0.78499110247E+01  0.47536466149E+02 -0.16700859758E+03  0.17381947066E+03  0.00000000000E+00 0. -1.
          1    1    1    2  503    0 -0.83694046994E+02  0.14970968998E+03  0.18020432166E+04  0.18101871283E+04  0.00000000000E+00 0. -1.
<mgrwt>
<rscale>  0 0.90772093E+02</rscale>
<asrwt>0</asrwt>
<pdfrwt beam="1">  1        2 0.31746849E+00 0.17101556E+03</pdfrwt>
<pdfrwt beam="2">  1        2 0.90377097E-01 0.48180252E+02</pdfrwt>
<totfact> 0.60520195E+01</totfact>
</mgrwt>
</event>
<event>
13    1  0.1942437E-008  0.2468575E+03  0.7546771E-02  0.1301018E+00
          2   -1    0    0  503    0  0.00000000000E+00  0.00000000000E+00  0.72439922791E+03  0.72439922791E+03  0.00000000000E+00 0. -1.
          2   -1    0    0  502    0 -0.00000000000E+00 -0.00000000000E+00 -0.19286319614E+04  0.19286319614E+04  0.00000000000E+00 0. -1.
         24    2    1    2    0    0 -0.14979908905E+03 -0.55020620737E+01 -0.19790156487E+03  0.26362833880E+03  0.88683887327E+02 0.  0.
         24    2    1    2    0    0  0.31420732842E+03  0.97135694046E+02 -0.32321509431E+03  0.46807976727E+03  0.80430610092E+02 0.  0.
         25    2    1    2    0    0 -0.17822269012E+03 -0.41749182933E+03  0.23814005611E+03  0.52763338418E+03  0.12499418766E+03 0.  0.
        -11    1    3    3    0    0 -0.76659147179E+02 -0.42641255602E+02 -0.72612615362E+02  0.11387490257E+03  0.00000000000E+00 0.  1.
         12    1    3    3    0    0 -0.73139941869E+02  0.37139193528E+02 -0.12528894951E+03  0.14975343623E+03  0.00000000000E+00 0. -1.
        -13    1    4    4    0    0  0.50590136915E+02  0.34984747076E+02 -0.98614498325E+02  0.11622441121E+03  0.00000000000E+00 0.  1.
         14    1    4    4    0    0  0.26361719151E+03  0.62150946970E+02 -0.22460059599E+03  0.35185535606E+03  0.00000000000E+00 0. -1.
          5    1    5    5  501    0  0.59567206438E+01 -0.91884145074E+01  0.32738370095E+02  0.34839637749E+02  0.47000000000E+01 0. -1.
         -5    1    5    5    0  501 -0.18417941076E+03 -0.40830341482E+03  0.20540168601E+03  0.49279374643E+03  0.47000000000E+01 0. -1.
          1    1    1    2  502    0 -0.17544556164E+02  0.33726760604E+03 -0.11314939712E+04  0.11808199932E+04  0.00000000000E+00 0. -1.
          1    1    1    2  503    0  0.31359006910E+02 -0.11409408678E+02  0.21023784084E+03  0.21286970579E+03  0.00000000000E+00 0. -1.
<mgrwt>
<rscale>  0 0.90761525E+02</rscale>
<asrwt>0</asrwt>
<pdfrwt beam="1">  1        2 0.10652930E+00 0.33370075E+02</pdfrwt>
<pdfrwt beam="2">  1        2 0.28362235E+00 0.24685753E+03</pdfrwt>
<totfact> 0.64058758E+01</totfact>
</mgrwt>
</event>
<event>
13    1  0.1942437E-008  0.9526155E+02  0.7546771E-02  0.1309461E+00
          2   -1    0    0  503    0  0.00000000000E+00  0.00000000000E+00  0.48148594984E+03  0.48148594984E+03  0.00000000000E+00 0. -1.
          2   -1    0    0  502    0 -0.00000000000E+00 -0.00000000000E+00 -0.34306621181E+04  0.34306621181E+04  0.00000000000E+00 0. -1.
         24    2    1    2    0    0 -0.91304322126E+02  0.54475329285E+02 -0.12117438708E+04  0.12192041791E+04  0.82653378523E+02 0.  0.
         24    2    1    2    0    0  0.21671983112E+02 -0.66631052342E+02 -0.29733801465E+03  0.31624071352E+03  0.81785829717E+02 0.  0.
         25    2    1    2    0    0 -0.57453378737E+01  0.36408973100E+02  0.30922599972E+02  0.13394727022E+03  0.12500816686E+03 0.  0.
        -11    1    4    4    0    0 -0.27941256943E+02 -0.46056446564E+02 -0.15621826153E+03  0.16524543971E+03  0.00000000000E+00 0.  1.
         12    1    4    4    0    0  0.49613240055E+02 -0.20574605778E+02 -0.14111975312E+03  0.15099527381E+03  0.00000000000E+00 0. -1.
        -13    1    3    3    0    0 -0.10450416963E+02 -0.19190031259E+02 -0.11812474214E+03  0.12012877765E+03  0.00000000000E+00 0.  1.
         14    1    3    3    0    0 -0.80853905163E+02  0.73665360544E+02 -0.10936191287E+04  0.10990754014E+04  0.00000000000E+00 0. -1.
          5    1    5    5  501    0  0.23738162439E+02  0.12489602136E+02  0.72501315077E+02  0.77446892807E+02  0.47000000000E+01 0. -1.
         -5    1    5    5    0  501 -0.29483500313E+02  0.23919370964E+02 -0.41578715106E+02  0.56500377413E+02  0.47000000000E+01 0. -1.
          1    1    1    2  502    0  0.44979216901E+02  0.66219029861E+02 -0.18501058221E+04  0.18518368295E+04  0.00000000000E+00 0. -1.
          1    1    1    2  503    0  0.30398459987E+02 -0.90472279905E+02  0.37908893936E+03  0.39091907570E+03  0.00000000000E+00 0. -1.
<mgrwt>
<rscale>  0 0.87325479E+02</rscale>
<asrwt>0</asrwt>
<pdfrwt beam="1">  1        2 0.70806755E-01 0.95261552E+02</pdfrwt>
<pdfrwt beam="2">  1        2 0.50450915E+00 0.80050546E+02</pdfrwt>
<totfact> 0.18662355E+01</totfact>
</mgrwt>
</event>
<event>
13    1  0.1942437E-008  0.2183395E+03  0.7546771E-02  0.1140353E+00
          2   -1    0    0  503    0  0.00000000000E+00  0.00000000000E+00  0.24405981119E+04  0.24405981119E+04  0.00000000000E+00 0. -1.
         -1   -1    0    0    0  501 -0.00000000000E+00 -0.00000000000E+00 -0.12212442387E+04  0.12212442387E+04  0.00000000000E+00 0.  1.
         24    2    1    2    0    0 -0.21421195017E+03  0.59160832791E+02 -0.17368011015E+03  0.29322265003E+03  0.80174672407E+02 0.  0.
         24    2    1    2    0    0 -0.70781062173E+02 -0.11880799321E+03 -0.31632058697E+02  0.16363369944E+03  0.81548160267E+02 0.  0.
         25    2    1    2    0    0  0.66603627689E+00  0.17272172405E+03  0.10307314269E+03  0.23681569432E+03  0.12499745105E+03 0.  0.
        -11    1    3    3    0    0 -0.32989302026E+02  0.43016875430E+02 -0.36304921607E+02  0.65244102820E+02  0.00000000000E+00 0.  1.
         12    1    3    3    0    0 -0.18122264814E+03  0.16143957360E+02 -0.13737518854E+03  0.22797854720E+03  0.00000000000E+00 0. -1.
        -13    1    4    4    0    0 -0.12820210112E+02 -0.11327466722E+02  0.23977528365E+02  0.29454900376E+02  0.00000000000E+00 0.  1.
         14    1    4    4    0    0 -0.57960852060E+02 -0.10748052648E+03 -0.55609587062E+02  0.13417879906E+03  0.00000000000E+00 0. -1.
          5    1    5    5  502    0 -0.61483965451E+02  0.82510994717E+02  0.41417653270E+02  0.11102186388E+03  0.47000000000E+01 0.  1.
         -5    1    5    5    0  502  0.62150001728E+02  0.90210729331E+02  0.61655489421E+02  0.12579383044E+03  0.47000000000E+01 0.  1.
          1    1    1    2  503    0 -0.12595587676E+03 -0.16090683625E+03  0.20877671476E+04  0.20977434436E+04  0.00000000000E+00 0. -1.
         -2    1    1    2    0  501  0.41028285282E+03  0.47832272618E+02 -0.76617424823E+03  0.87042686325E+03  0.00000000000E+00 0.  1.
<mgrwt>
<rscale>  0 0.21153965E+03</rscale>
<asrwt>0</asrwt>
<pdfrwt beam="1">  1        2 0.35891149E+00 0.20495161E+03</pdfrwt>
<pdfrwt beam="2">  1       -1 0.17959474E+00 0.21833947E+03</pdfrwt>
<totfact> 0.13873856E+00</totfact>
</mgrwt>
</event>
<event>
13    1  0.1942437E-008  0.5541082E+02  0.7546771E-02  0.1447155E+00
          2   -1    0    0  503    0  0.00000000000E+00  0.00000000000E+00  0.21431880807E+04  0.21431880807E+04  0.00000000000E+00 0. -1.
         -1   -1    0    0    0  501 -0.00000000000E+00 -0.00000000000E+00 -0.41565331338E+03  0.41565331338E+03  0.00000000000E+00 0.  1.
         24    2    1    2    0    0 -0.32207884171E+01  0.33176648060E+02  0.80874971101E+02  0.11915684323E+03  0.80910622804E+02 0.  0.
         24    2    1    2    0    0  0.29241594523E+01 -0.21174042835E+03  0.75990634377E+03  0.79317313911E+03  0.82603980577E+02 0.  0.
         25    2    1    2    0    0  0.53437798451E+02  0.15545757525E+03  0.51989862364E+03  0.55941248014E+03  0.12500035228E+03 0.  0.
        -11    1    3    3    0    0 -0.38337507183E+02  0.44293950583E-01  0.44312284573E+02  0.58594752180E+02  0.00000000000E+00 0.  1.
         12    1    3    3    0    0  0.35116718766E+02  0.33132354109E+02  0.36562686529E+02  0.60562091047E+02  0.00000000000E+00 0. -1.
        -11    1    4    4    0    0  0.17183686158E+02 -0.15878037255E+03  0.42922753850E+03  0.45797681774E+03  0.00000000000E+00 0.  1.
         12    1    4    4    0    0 -0.14259526706E+02 -0.52960055804E+02  0.33067880527E+03  0.33519632138E+03  0.00000000000E+00 0. -1.
          5    1    5    5  502    0 -0.38010342246E+02  0.49756895786E+02  0.21480709435E+03  0.22379614067E+03  0.47000000000E+01 0. -1.
         -5    1    5    5    0  502  0.91448140698E+02  0.10570067947E+03  0.30509152929E+03  0.33561633947E+03  0.47000000000E+01 0. -1.
          1    1    1    2  503    0 -0.33880986120E+02 -0.28874146595E+02  0.72415610615E+03  0.72552305520E+03  0.00000000000E+00 0. -1.
         -2    1    1    2    0  501 -0.19260183366E+02  0.51980351633E+02 -0.35730127733E+03  0.36157587641E+03  0.00000000000E+00 0.  1.
<mgrwt>
<rscale>  0 0.49665334E+02</rscale>
<asrwt>0</asrwt>
<pdfrwt beam="1">  1        2 0.31517471E+00 0.44515588E+02</pdfrwt>
<pdfrwt beam="2">  1       -1 0.61125488E-01 0.55410824E+02</pdfrwt>
<totfact> 0.28470727E+01</totfact>
</mgrwt>
</event>
<event>
13    1  0.1942437E-008  0.7318008E+02  0.7546771E-02  0.1583018E+00
          2   -1    0    0  503    0  0.00000000000E+00  0.00000000000E+00  0.27330004182E+04  0.27330004182E+04  0.00000000000E+00 0. -1.
          2   -1    0    0  502    0 -0.00000000000E+00 -0.00000000000E+00 -0.57027329600E+03  0.57027329600E+03  0.00000000000E+00 0. -1.
         24    2    1    2    0    0  0.22841344777E+03 -0.51510236924E+01  0.29301629245E+02  0.24359809111E+03  0.79260383216E+02 0.  0.
         24    2    1    2    0    0 -0.22900157410E+03 -0.16359316518E+02  0.99775057720E+03  0.10282610149E+04  0.95420922117E+02 0.  0.
         25    2    1    2    0    0 -0.11108190587E+02  0.90249906701E+02  0.52396842947E+03  0.54629340524E+03  0.12500052786E+03 0.  0.
        -11    1    4    4    0    0 -0.19338463998E+03 -0.20023487027E+02  0.94306406216E+03  0.96289583256E+03  0.00000000000E+00 0.  1.
         12    1    4    4    0    0 -0.35616934125E+02  0.36641705088E+01  0.54686515039E+02  0.65365182392E+02  0.00000000000E+00 0. -1.
        -13    1    3    3    0    0  0.11434215204E+03 -0.33957587818E+02 -0.96441136550E+01  0.11966726550E+03  0.00000000000E+00 0.  1.
         14    1    3    3    0    0  0.11407129573E+03  0.28806564126E+02  0.38945742900E+02  0.12393082561E+03  0.00000000000E+00 0. -1.
          5    1    5    5  501    0 -0.49831230333E+02  0.59080260386E+02  0.14807801295E+03  0.16710121664E+03  0.47000000000E+01 0. -1.
         -5    1    5    5    0  501  0.38723039746E+02  0.31169646315E+02  0.37589041653E+03  0.37919218860E+03  0.47000000000E+01 0. -1.
          1    1    1    2  502    0  0.12715422759E+02  0.44774526261E+01 -0.43532434820E+03  0.43553302710E+03  0.00000000000E+00 0. -1.
          1    1    1    2  503    0 -0.10191058399E+01 -0.73217019117E+02  0.10470308344E+04  0.10495881758E+04  0.00000000000E+00 0. -1.
<mgrwt>
<rscale>  0 0.31408907E+02</rscale>
<asrwt>0</asrwt>
<pdfrwt beam="1">  1        2 0.40191182E+00 0.73180078E+02</pdfrwt>
<pdfrwt beam="2">  1        2 0.83863721E-01 0.13480711E+02</pdfrwt>
<totfact> 0.38372305E+01</totfact>
</mgrwt>
</event>
<event>
13    1  0.1942437E-008  0.1244136E+03  0.7546771E-02  0.1297559E+00
         -1   -1    0    0    0  501 -0.00000000000E+00  0.00000000000E+00  0.11884507647E+04  0.11884507647E+04  0.00000000000E+00 0.  1.
          2   -1    0    0  503    0  0.00000000000E+00 -0.00000000000E+00 -0.17837412322E+04  0.17837412322E+04  0.00000000000E+00 0. -1.
         24    2    1    2    0    0 -0.16180639587E+02  0.78912852194E+02  0.22782956792E+03  0.25468171807E+03  0.80420234787E+02 0.  0.
         24    2    1    2    0    0  0.12019188145E+02  0.30272820127E+02 -0.19534122926E+02  0.89219091708E+02  0.80731405566E+02 0.  0.
         25    2    1    2    0    0 -0.18962644094E+03 -0.10484623308E+02 -0.78917772329E+03  0.82127557455E+03  0.12499590387E+03 0.  0.
        -13    1    4    4    0    0 -0.12029321298E+01  0.52938767191E+02  0.51381957443E+01  0.53201138831E+02  0.00000000000E+00 0.  1.
         14    1    4    4    0    0  0.13222120274E+02 -0.22665947064E+02 -0.24672318670E+02  0.36017952877E+02  0.00000000000E+00 0. -1.
        -13    1    3    3    0    0 -0.34937437894E+02  0.84744143458E+02  0.20503287759E+03  0.22459001605E+03  0.00000000000E+00 0.  1.
         14    1    3    3    0    0  0.18756798307E+02 -0.58312912646E+01  0.22796690329E+02  0.30091702021E+02  0.00000000000E+00 0. -1.
          5    1    5    5  502    0 -0.54289796682E+02  0.37051829821E+01 -0.48435459283E+03  0.48742442696E+03  0.47000000000E+01 0. -1.
         -5    1    5    5    0  502 -0.13533664426E+03 -0.14189806290E+02 -0.30482313046E+03  0.33385114759E+03  0.47000000000E+01 0. -1.
          1    1    1    2  503    0  0.45948634494E+02 -0.50613966533E+02 -0.90266853925E+03  0.90525330288E+03  0.00000000000E+00 0. -1.
         -2    1    1    2    0  501  0.14783925789E+03 -0.48087082481E+02  0.88826035006E+03  0.90176230968E+03  0.00000000000E+00 0.  1.
<mgrwt>
<rscale>  0 0.92221901E+02</rscale>
<asrwt>0</asrwt>
<pdfrwt beam="2">  1        2 0.26231489E+00 0.68359715E+02</pdfrwt>
<pdfrwt beam="1">  1       -1 0.17477217E+00 0.12441361E+03</pdfrwt>
<totfact> 0.36796005E+00</totfact>
</mgrwt>
</event>
<event>
13    1  0.1942437E-008  0.4728412E+02  0.7546771E-02  0.1531195E+00
          2   -1    0    0  502    0  0.00000000000E+00  0.00000000000E+00  0.25484184170E+04  0.25484184170E+04  0.00000000000E+00 0. -1.
          2   -1    0    0  503    0 -0.00000000000E+00 -0.00000000000E+00 -0.29850899006E+04  0.29850899006E+04  0.00000000000E+00 0. -1.
         24    2    1    2    0    0 -0.38590648130E+02  0.55254877661E+02  0.50977442648E+02  0.11661329720E+03  0.80359329243E+02 0.  0.
         24    2    1    2    0    0 -0.30836961686E+02  0.38609808332E+02  0.35974337316E+02  0.94902747036E+02  0.72599882536E+02 0.  0.
         25    2    1    2    0    0  0.93781674076E+02 -0.15185816616E+03  0.32864474499E+03  0.39431956803E+03  0.12499859317E+03 0.  0.
        -13    1    4    4    0    0  0.54262514278E+01 -0.17800488300E+02  0.17010373205E+02  0.25212187229E+02  0.00000000000E+00 0.  1.
         14    1    4    4    0    0 -0.36263213114E+02  0.56410296632E+02  0.18963964110E+02  0.69690559807E+02  0.00000000000E+00 0. -1.
        -13    1    3    3    0    0  0.13098948967E+02 -0.41345615411E+01  0.33155471085E+02  0.35888192014E+02  0.00000000000E+00 0.  1.
         14    1    3    3    0    0 -0.51689597097E+02  0.59389439202E+02  0.17821971563E+02  0.80725105185E+02  0.00000000000E+00 0. -1.
          5    1    5    5  501    0  0.91094347712E+02 -0.14345751402E+03  0.33942596099E+03  0.37961863957E+03  0.47000000000E+01 0. -1.
         -5    1    5    5    0  501  0.26873263646E+01 -0.84006521392E+01 -0.10781215993E+02  0.14700928462E+02  0.47000000000E+01 0. -1.
          1    1    1    2  502    0 -0.26937409634E+02  0.10783505379E+02  0.20374056598E+04  0.20376122621E+04  0.00000000000E+00 0. -1.
          1    1    1    2  503    0  0.25833453734E+01  0.47209974792E+02 -0.28896736684E+04  0.28900604432E+04  0.00000000000E+00 0. -1.
<mgrwt>
<rscale>  0 0.37040243E+02</rscale>
<asrwt>0</asrwt>
<pdfrwt beam="1">  1        2 0.37476742E+00 0.29015651E+02</pdfrwt>
<pdfrwt beam="2">  1        2 0.43898380E+00 0.47284122E+02</pdfrwt>
<totfact> 0.30575032E+00</totfact>
</mgrwt>
</event>
<event>
13    1  0.1942437E-008  0.3491576E+02  0.7546771E-02  0.1725009E+00
          2   -1    0    0  502    0  0.00000000000E+00  0.00000000000E+00  0.21814385919E+04  0.21814385919E+04  0.00000000000E+00 0. -1.
          2   -1    0    0  503    0 -0.00000000000E+00 -0.00000000000E+00 -0.44804357922E+03  0.44804357922E+03  0.00000000000E+00 0. -1.
         24    2    1    2    0    0  0.35180556887E+02  0.91452849715E+02 -0.31159300434E+03  0.33634422520E+03  0.80224324025E+02 0.  0.
         24    2    1    2    0    0  0.20187769228E+02  0.28928919453E+02 -0.36755518587E+02  0.95082530108E+02  0.80282569578E+02 0.  0.
         25    2    1    2    0    0 -0.34333303868E+02 -0.14909496859E+03  0.75292445277E+03  0.77841493578E+03  0.12500598087E+03 0.  0.
        -13    1    3    3    0    0 -0.17568540477E+01  0.42352800932E+02 -0.41395933960E+02  0.59249216293E+02  0.00000000000E+00 0.  1.
         14    1    3    3    0    0  0.36937410934E+02  0.49100048783E+02 -0.27019707038E+03  0.27709500891E+03  0.00000000000E+00 0. -1.
        -13    1    4    4    0    0  0.32880219743E+02  0.13313227410E+02 -0.56614713060E+02  0.66810003812E+02  0.00000000000E+00 0.  1.
         14    1    4    4    0    0 -0.12692450515E+02  0.15615692043E+02  0.19859194473E+02  0.28272526296E+02  0.00000000000E+00 0. -1.
          5    1    5    5  501    0 -0.79929478946E+02 -0.11515285117E+03  0.55364959985E+03  0.57113822333E+03  0.47000000000E+01 0.  1.
         -5    1    5    5    0  501  0.45596175078E+02 -0.33942117422E+02  0.19927485291E+03  0.20727671244E+03  0.47000000000E+01 0.  1.
          1    1    1    2  502    0 -0.29269441982E+02  0.19038711095E+02  0.13731149164E+04  0.13735587888E+04  0.00000000000E+00 0. -1.
          1    1    1    2  503    0  0.82344197349E+01  0.96744883258E+01 -0.44295833557E+02  0.46081691194E+02  0.00000000000E+00 0. -1.
<mgrwt>
<rscale>  0 0.21061416E+02</rscale>
<asrwt>0</asrwt>
<pdfrwt beam="1">  1        2 0.32079979E+00 0.34915758E+02</pdfrwt>
<pdfrwt beam="2">  1        2 0.65888763E-01 0.12704385E+02</pdfrwt>
<totfact> 0.98912497E+01</totfact>
</mgrwt>
</event>
<event>
13    1  0.1942437E-008  0.1388956E+03  0.7546771E-02  0.1389209E+00
         -1   -1    0    0    0  501 -0.00000000000E+00  0.00000000000E+00  0.70320239957E+03  0.70320239957E+03  0.00000000000E+00 0.  1.
          2   -1    0    0  503    0  0.00000000000E+00 -0.00000000000E+00 -0.48589930084E+04  0.48589930084E+04  0.00000000000E+00 0. -1.
         24    2    1    2    0    0 -0.80016211797E+02  0.26423815741E+03  0.34815809260E+03  0.45604219973E+03  0.10264517771E+03 0.  0.
         24    2    1    2    0    0  0.61978423491E+02 -0.16718920944E+03  0.12580596930E+03  0.23183388993E+03  0.78270389526E+02 0.  0.
         25    2    1    2    0    0  0.59772294001E+02  0.66956462608E+01 -0.52553540936E+03  0.54353346422E+03  0.12499440560E+03 0.  0.
        -11    1    3    3    0    0 -0.25223077047E+01  0.17992834576E+03  0.20720398532E+03  0.27443407802E+03  0.00000000000E+00 0.  1.
         12    1    3    3    0    0 -0.77493904093E+02  0.84309811653E+02  0.14095410728E+03  0.18160812171E+03  0.00000000000E+00 0. -1.
        -13    1    4    4    0    0  0.19103280508E+02 -0.12460485439E+03  0.51795490180E+02  0.13628674868E+03  0.00000000000E+00 0.  1.
         14    1    4    4    0    0  0.42875142983E+02 -0.42584355055E+02  0.74010479123E+02  0.95547141251E+02  0.00000000000E+00 0. -1.
          5    1    5    5  502    0  0.85546967963E+02  0.35242643666E+02 -0.27917733645E+03  0.29414690692E+03  0.47000000000E+01 0. -1.
         -5    1    5    5    0  502 -0.25774673963E+02 -0.28546997405E+02 -0.24635807291E+03  0.24938655731E+03  0.47000000000E+01 0. -1.
          1    1    1    2  503    0 -0.57678209818E+02 -0.12647941516E+03 -0.42146375985E+04  0.42169294404E+04  0.00000000000E+00 0. -1.
         -2    1    1    2    0  501  0.15943704124E+02  0.22734820933E+02  0.11041833709E+03  0.11385641374E+03  0.00000000000E+00 0.  1.
<mgrwt>
<rscale>  0 0.62103811E+02</rscale>
<asrwt>0</asrwt>
<pdfrwt beam="2">  1        2 0.71455779E+00 0.13889562E+03</pdfrwt>
<pdfrwt beam="1">  1       -1 0.10341212E+00 0.27768215E+02</pdfrwt>
<totfact> 0.17339424E-01</totfact>
</mgrwt>
</event>
<event>
13    1  0.1942437E-008  0.1380380E+03  0.7546771E-02  0.1346645E+00
          2   -1    0    0  503    0  0.00000000000E+00  0.00000000000E+00  0.18440061231E+04  0.18440061231E+04  0.00000000000E+00 0. -1.
          2   -1    0    0  502    0 -0.00000000000E+00 -0.00000000000E+00 -0.21229826841E+03  0.21229826841E+03  0.00000000000E+00 0. -1.
         24    2    1    2    0    0 -0.19129963505E+03  0.32330377460E+02  0.87659489066E+02  0.23006079907E+03  0.87195077669E+02 0.  0.
         24    2    1    2    0    0  0.22460024110E+02 -0.64017157015E+02  0.75207539354E+02  0.12879179141E+03  0.79551885480E+02 0.  0.
         25    2    1    2    0    0 -0.22593343451E+02 -0.66588460009E+02  0.83364871926E+03  0.84589598561E+03  0.12500139672E+03 0.  0.
        -11    1    4    4    0    0  0.33341808711E+02 -0.41998998957E+02  0.43526133108E+01  0.53800904863E+02  0.00000000000E+00 0.  1.
         12    1    4    4    0    0 -0.10881784601E+02 -0.22018158059E+02  0.70854926043E+02  0.74990886546E+02  0.00000000000E+00 0. -1.
        -11    1    3    3    0    0 -0.14519191359E+03  0.27706146754E+02  0.21618749538E+02  0.14938437894E+03  0.00000000000E+00 0.  1.
         12    1    3    3    0    0 -0.46107721458E+02  0.46242307061E+01  0.66040739528E+02  0.80676420131E+02  0.00000000000E+00 0. -1.
          5    1    5    5  501    0  0.18316545777E+02 -0.84295504533E+02  0.36392680657E+03  0.37404015623E+03  0.47000000000E+01 0.  1.
         -5    1    5    5    0  501 -0.40909889228E+02  0.17707044525E+02  0.46972191268E+03  0.47185582938E+03  0.47000000000E+01 0.  1.
          1    1    1    2  502    0  0.17289715270E+03  0.63066653641E+02 -0.28880222407E+02  0.18629249974E+03  0.00000000000E+00 0. -1.
          1    1    1    2  503    0  0.18535801685E+02  0.35208585923E+02  0.66407232946E+03  0.66526331570E+03  0.00000000000E+00 0. -1.
<mgrwt>
<rscale>  0 0.74111337E+02</rscale>
<asrwt>0</asrwt>
<pdfrwt beam="1">  1        2 0.27117736E+00 0.39789703E+02</pdfrwt>
<pdfrwt beam="2">  1        2 0.31220334E-01 0.13803798E+03</pdfrwt>
<totfact> 0.30669869E+02</totfact>
</mgrwt>
</event>
<event>
13    1  0.1942437E-008  0.5740797E+02  0.7546771E-02  0.1534881E+00
          2   -1    0    0  502    0  0.00000000000E+00  0.00000000000E+00  0.15047592058E+04  0.15047592058E+04  0.00000000000E+00 0. -1.
          2   -1    0    0  503    0 -0.00000000000E+00 -0.00000000000E+00 -0.54424227323E+04  0.54424227323E+04  0.00000000000E+00 0. -1.
         24    2    1    2    0    0 -0.45289079402E+02 -0.19732081178E+03 -0.32995670311E+04  0.33068527124E+04  0.84532034012E+02 0.  0.
         24    2    1    2    0    0  0.53384640861E+02  0.10678034667E+03 -0.20720587920E+03  0.25200585328E+03  0.79502901829E+02 0.  0.
         25    2    1    2    0    0 -0.41145623206E+02  0.15021811544E+03 -0.12530189860E+03  0.23576066600E+03  0.12499632525E+03 0.  0.
        -11    1    3    3    0    0 -0.55564535700E+02 -0.98699606441E+02 -0.13399096648E+04  0.13446884174E+04  0.00000000000E+00 0.  1.
         12    1    3    3    0    0  0.10275456297E+02 -0.98621205337E+02 -0.19596573663E+04  0.19621642950E+04  0.00000000000E+00 0. -1.
        -13    1    4    4    0    0  0.54049809740E+01  0.87726822266E+02 -0.15737072330E+03  0.18025191737E+03  0.00000000000E+00 0.  1.
         14    1    4    4    0    0  0.47979659887E+02  0.19053524402E+02 -0.49835155897E+02  0.71753935908E+02  0.00000000000E+00 0. -1.
          5    1    5    5  501    0  0.30820649230E+02  0.11554178719E+03 -0.76181457584E+02  0.14186444757E+03  0.47000000000E+01 0. -1.
         -5    1    5    5    0  501 -0.71966272435E+02  0.34676328247E+02 -0.49120441013E+02  0.93896218423E+02  0.47000000000E+01 0. -1.
          1    1    1    2  502    0 -0.95661984541E+01 -0.21275235874E+02  0.14229155536E+04  0.14231067495E+04  0.00000000000E+00 0. -1.
          1    1    1    2  503    0  0.42616260201E+02 -0.38402414451E+02 -0.17285042712E+04  0.17294559569E+04  0.00000000000E+00 0. -1.
<mgrwt>
<rscale>  0 0.36594458E+02</rscale>
<asrwt>0</asrwt>
<pdfrwt beam="1">  1        2 0.22128812E+00 0.23326976E+02</pdfrwt>
<pdfrwt beam="2">  1        2 0.80035629E+00 0.57407970E+02</pdfrwt>
<totfact> 0.12492324E-01</totfact>
</mgrwt>
</event>
<event>
13    1  0.1942437E-008  0.1152821E+03  0.7546771E-02  0.1295232E+00
          2   -1    0    0  502    0  0.00000000000E+00  0.00000000000E+00  0.16953797127E+04  0.16953797127E+04  0.00000000000E+00 0. -1.
          2   -1    0    0  503    0 -0.00000000000E+00 -0.00000000000E+00 -0.10377462180E+04  0.10377462180E+04  0.00000000000E+00 0. -1.
         24    2    1    2    0    0 -0.59737564260E+02  0.27362386082E+02 -0.24808680970E+02  0.10678906983E+03  0.80443508302E+02 0.  0.
         24    2    1    2    0    0  0.25770994830E+02 -0.48549776511E+02 -0.87796341463E+02  0.13067638052E+03  0.79667395327E+02 0.  0.
         25    2    1    2    0    0  0.93510709184E+02  0.17408760954E+03  0.93961681304E+03  0.96827487651E+03  0.12500293045E+03 0.  0.
        -11    1    3    3    0    0 -0.12125651075E+01 -0.80059592977E+01 -0.36523997827E+02  0.37410802125E+02  0.00000000000E+00 0.  1.
         12    1    3    3    0    0 -0.58524999153E+02  0.35368345380E+02  0.11715316857E+02  0.69378267705E+02  0.00000000000E+00 0. -1.
        -13    1    4    4    0    0 -0.14708096979E+02 -0.37567776416E+02 -0.77678887691E+02  0.87530997564E+02  0.00000000000E+00 0.  1.
         14    1    4    4    0    0  0.40479091809E+02 -0.10982000095E+02 -0.10117453772E+02  0.43145382958E+02  0.00000000000E+00 0. -1.
          5    1    5    5  501    0 -0.26054575781E+02  0.30759416721E+02  0.27314964857E+03  0.27614815435E+03  0.47000000000E+01 0. -1.
         -5    1    5    5    0  501  0.11956528497E+03  0.14332819282E+03  0.66646716447E+03  0.69212672217E+03  0.47000000000E+01 0. -1.
          1    1    1    2  502    0  0.16733073302E+02 -0.73502659526E+02  0.67331926366E+03  0.67752599029E+03  0.00000000000E+00 0. -1.
          1    1    1    2  503    0 -0.76277213056E+02 -0.79397559582E+02 -0.84269755965E+03  0.84985961355E+03  0.00000000000E+00 0. -1.
<mgrwt>
<rscale>  0 0.93221982E+02</rscale>
<asrwt>0</asrwt>
<pdfrwt beam="1">  1        2 0.24932055E+00 0.75383265E+02</pdfrwt>
<pdfrwt beam="2">  1        2 0.15260974E+00 0.11528206E+03</pdfrwt>
<totfact> 0.56943735E+01</totfact>
</mgrwt>
</event>
<event>
13    1  0.1942437E-008  0.1205383E+03  0.7546771E-02  0.1438997E+00
          2   -1    0    0  502    0  0.00000000000E+00  0.00000000000E+00  0.31270677625E+04  0.31270677625E+04  0.00000000000E+00 0. -1.
          2   -1    0    0  503    0 -0.00000000000E+00 -0.00000000000E+00 -0.21902490295E+04  0.21902490295E+04  0.00000000000E+00 0. -1.
         24    2    1    2    0    0  0.92369914319E+02 -0.63029825252E+02 -0.20768317627E+03  0.24981859434E+03  0.82292578239E+02 0.  0.
         24    2    1    2    0    0 -0.96622379498E+02  0.62485572229E+02 -0.18612241615E+03  0.23433126639E+03  0.83840668292E+02 0.  0.
         25    2    1    2    0    0  0.13097724095E+03 -0.61804091112E+02  0.20610266133E+04  0.20698865247E+04  0.12499896430E+03 0.  0.
        -11    1    3    3    0    0  0.31307404569E+02  0.85918569875E+01 -0.15821364502E+02  0.36114943749E+02  0.00000000000E+00 0.  1.
         12    1    3    3    0    0  0.61062509751E+02 -0.71621682240E+02 -0.19186181176E+03  0.21370365059E+03  0.00000000000E+00 0. -1.
        -11    1    4    4    0    0  0.12262859202E+02  0.22326564654E+01 -0.28236710612E+01  0.12780281255E+02  0.00000000000E+00 0.  1.
         12    1    4    4    0    0 -0.10888523870E+03  0.60252915764E+02 -0.18329874509E+03  0.22155098514E+03  0.00000000000E+00 0. -1.
          5    1    5    5  501    0  0.89621819900E+01  0.29434502525E+02  0.17802252879E+03  0.18072305166E+03  0.47000000000E+01 0. -1.
         -5    1    5    5    0  501  0.12201505896E+03 -0.91238593637E+02  0.18830040845E+04  0.18891634731E+04  0.47000000000E+01 0. -1.
          1    1    1    2  502    0 -0.10538651482E+03  0.58166892740E+02  0.10128071774E+04  0.10199353330E+04  0.00000000000E+00 0. -1.
          1    1    1    2  503    0 -0.21338260950E+02  0.41814513950E+01 -0.17432094652E+04  0.17433450736E+04  0.00000000000E+00 0. -1.
<mgrwt>
<rscale>  0 0.51195668E+02</rscale>
<asrwt>0</asrwt>
<pdfrwt beam="1">  1        2 0.45986291E+00 0.12053828E+03</pdfrwt>
<pdfrwt beam="2">  1        2 0.32209544E+00 0.21744101E+02</pdfrwt>
<totfact> 0.33559068E+00</totfact>
</mgrwt>
</event>
<event>
13    1  0.1942437E-008  0.8529480E+02  0.7546771E-02  0.1503375E+00
          2   -1    0    0  502    0  0.00000000000E+00  0.00000000000E+00  0.17272266495E+04  0.17272266495E+04  0.00000000000E+00 0. -1.
          2   -1    0    0  503    0 -0.00000000000E+00 -0.00000000000E+00 -0.35341776225E+04  0.35341776225E+04  0.00000000000E+00 0. -1.
         24    2    1    2    0    0  0.28728076565E+03  0.34044318009E+03 -0.34683492526E+03  0.57102977593E+03  0.85724806432E+02 0.  0.
         24    2    1    2    0    0 -0.33891545179E+02  0.66516762475E+03 -0.17865769706E+03  0.69205350269E+03  0.58505316202E+02 0.  0.
         25    2    1    2    0    0 -0.18475313268E+03 -0.97082838617E+03  0.40303225918E+03  0.10745715671E+04  0.12501030118E+03 0.  0.
        -11    1    4    4    0    0  0.12153477014E+02  0.14149382338E+03 -0.52719655364E+02  0.15148455737E+03  0.00000000000E+00 0.  1.
         12    1    4    4    0    0 -0.46045022193E+02  0.52367380136E+03 -0.12593804170E+03  0.54056894533E+03  0.00000000000E+00 0. -1.
        -11    1    3    3    0    0  0.92875403313E+02  0.15092573055E+03 -0.17879033599E+03  0.25173478291E+03  0.00000000000E+00 0.  1.
         12    1    3    3    0    0  0.19440536234E+03  0.18951744954E+03 -0.16804458926E+03  0.31929499302E+03  0.00000000000E+00 0. -1.
          5    1    5    5  501    0 -0.18849977847E+03 -0.69676093556E+03  0.30092370786E+03  0.78203908839E+03  0.47000000000E+01 0. -1.
         -5    1    5    5    0  501  0.37466457903E+01 -0.27406745061E+03  0.10210855132E+03  0.29253247869E+03  0.47000000000E+01 0. -1.
          1    1    1    2  502    0 -0.25982402507E+01  0.19212391830E+02  0.61868801005E+03  0.61899169674E+03  0.00000000000E+00 0. -1.
          1    1    1    2  503    0 -0.66037847542E+02 -0.53994810491E+02 -0.23031786199E+04  0.23047577295E+04  0.00000000000E+00 0. -1.
<mgrwt>
<rscale>  0 0.40664908E+02</rscale>
<asrwt>0</asrwt>
<pdfrwt beam="1">  1        2 0.25400392E+00 0.19387286E+02</pdfrwt>
<pdfrwt beam="2">  1        2 0.51973200E+00 0.85294804E+02</pdfrwt>
<totfact> 0.33916351E+00</totfact>
</mgrwt>
</event>
<event>
13    1  0.1942437E-008  0.8793031E+02  0.7546771E-02  0.1364634E+00
          2   -1    0    0  502    0  0.00000000000E+00  0.00000000000E+00  0.16556963654E+04  0.16556963654E+04  0.00000000000E+00 0. -1.
          2   -1    0    0  503    0 -0.00000000000E+00 -0.00000000000E+00 -0.29589214892E+04  0.29589214892E+04  0.00000000000E+00 0. -1.
         24    2    1    2    0    0  0.29179332561E+02 -0.11562789158E+03 -0.44093175993E+03  0.46367072841E+03  0.79677378881E+02 0.  0.
         24    2    1    2    0    0  0.11770107955E+03 -0.25094330731E+03 -0.48959829435E+02  0.29265754059E+03  0.80157866489E+02 0.  0.
         25    2    1    2    0    0 -0.18079758539E+03  0.35914375025E+03  0.24868196498E+03  0.48902989083E+03  0.12504204970E+03 0.  0.
        -13    1    3    3    0    0 -0.62206541941E+01 -0.62429157747E+01 -0.89036276259E+00  0.88579502042E+01  0.00000000000E+00 0.  1.
         14    1    3    3    0    0  0.35399986755E+02 -0.10938497580E+03 -0.44004139717E+03  0.45481277820E+03  0.00000000000E+00 0. -1.
        -13    1    4    4    0    0  0.32062257333E+02 -0.31791354802E+02  0.17081109843E+02  0.48274661043E+02  0.00000000000E+00 0.  1.
         14    1    4    4    0    0  0.85638822213E+02 -0.21915195251E+03 -0.66040939278E+02  0.24438287955E+03  0.00000000000E+00 0. -1.
          5    1    5    5  501    0 -0.16015616375E+03  0.33276331213E+03  0.17654188342E+03  0.40935381431E+03  0.47000000000E+01 0.  1.
         -5    1    5    5    0  501 -0.20641421643E+02  0.26380438122E+02  0.72140081563E+02  0.79676076527E+02  0.47000000000E+01 0.  1.
          1    1    1    2  502    0  0.87516627191E+02  0.96865003358E+01  0.11516164996E+04  0.11549777272E+04  0.00000000000E+00 0. -1.
          1    1    1    2  503    0 -0.53599453909E+02 -0.22590517066E+01 -0.22136319990E+04  0.22142819675E+04  0.00000000000E+00 0. -1.
<mgrwt>
<rscale>  0 0.68681881E+02</rscale>
<asrwt>0</asrwt>
<pdfrwt beam="1">  1        2 0.24348476E+00 0.87930310E+02</pdfrwt>
<pdfrwt beam="2">  1        2 0.43513551E+00 0.53647039E+02</pdfrwt>
<totfact> 0.71053699E+00</totfact>
</mgrwt>
</event>
<event>
13    1  0.1942437E-008  0.1313358E+03  0.7546771E-02  0.1320584E+00
         -3   -1    0    0    0  501 -0.00000000000E+00  0.00000000000E+00  0.37549000114E+03  0.37549000114E+03  0.00000000000E+00 0.  1.
          2   -1    0    0  503    0  0.00000000000E+00 -0.00000000000E+00 -0.33738580550E+04  0.33738580550E+04  0.00000000000E+00 0. -1.
         24    2    1    2    0    0  0.32348549697E+02 -0.44543930711E+02 -0.13075592383E+02  0.97236299371E+02  0.79078039736E+02 0.  0.
         24    2    1    2    0    0  0.44980547833E+02  0.17257102863E+02 -0.16749248486E+03  0.19302165292E+03  0.82961248362E+02 0.  0.
         25    2    1    2    0    0 -0.20791194536E+03 -0.71830322260E+02 -0.95157572231E+03  0.98463631605E+03  0.12500138953E+03 0.  0.
        -11    1    4    4    0    0 -0.39437917428E+00 -0.30224078328E+02 -0.55156613921E+02  0.62895965728E+02  0.00000000000E+00 0.  1.
         12    1    4    4    0    0  0.45374927007E+02  0.47481181190E+02 -0.11233587094E+03  0.13012568719E+03  0.00000000000E+00 0. -1.
        -11    1    3    3    0    0  0.22940356056E+02  0.20409850067E+02 -0.49972879774E+01  0.31109400555E+02  0.00000000000E+00 0.  1.
         12    1    3    3    0    0  0.94081936409E+01 -0.64953780779E+02 -0.80783044052E+01  0.66126898816E+02  0.00000000000E+00 0. -1.
          5    1    5    5  502    0 -0.20425556362E+03 -0.28237333249E+02 -0.72197279273E+03  0.75085583550E+03  0.47000000000E+01 0.  1.
         -5    1    5    5    0  502 -0.36563817461E+01 -0.43592989011E+02 -0.22960292958E+03  0.23378048055E+03  0.47000000000E+01 0.  1.
          1    1    1    2  503    0 -0.18726923384E+02  0.49078450644E+02 -0.21496118173E+04  0.21502535564E+04  0.00000000000E+00 0. -1.
         -4    1    1    2    0  501  0.14930977122E+03  0.50038699464E+02  0.28338756292E+03  0.32420023140E+03  0.00000000000E+00 0.  1.
<mgrwt>
<rscale>  0 0.83060582E+02</rscale>
<asrwt>0</asrwt>
<pdfrwt beam="2">  1        2 0.49615558E+00 0.52529915E+02</pdfrwt>
<pdfrwt beam="1">  1       -3 0.55219120E-01 0.13133583E+03</pdfrwt>
<totfact> 0.40141133E+00</totfact>
</mgrwt>
</event>
<event>
13    1  0.1942437E-008  0.1255612E+03  0.7546771E-02  0.1320903E+00
          2   -1    0    0  503    0  0.00000000000E+00  0.00000000000E+00  0.35551107994E+04  0.35551107994E+04  0.00000000000E+00 0. -1.
          2   -1    0    0  502    0 -0.00000000000E+00 -0.00000000000E+00 -0.21630362982E+04  0.21630362982E+04  0.00000000000E+00 0. -1.
         24    2    1    2    0    0  0.48991838485E+02 -0.35076559908E+01 -0.52827646915E+03  0.53655978543E+03  0.80049182366E+02 0.  0.
         24    2    1    2    0    0  0.68442311461E+02 -0.32001114825E+02 -0.79105451871E+01  0.10888301302E+03  0.78003284879E+02 0.  0.
         25    2    1    2    0    0 -0.37368626802E+02 -0.12778272580E+03  0.36278135259E+03  0.40615112745E+03  0.12499435691E+03 0.  0.
        -11    1    3    3    0    0  0.14943688167E+02 -0.24465813336E+02 -0.59136396406E+02  0.65719123687E+02  0.00000000000E+00 0.  1.
         12    1    3    3    0    0  0.34048150318E+02  0.20958157346E+02 -0.46914007274E+03  0.47084066174E+03  0.00000000000E+00 0. -1.
        -13    1    4    4    0    0  0.60239910117E+02 -0.67747111199E+01 -0.35793126057E+02  0.70398091981E+02  0.00000000000E+00 0.  1.
         14    1    4    4    0    0  0.82024013439E+01 -0.25226403705E+02  0.27882580870E+02  0.38484921043E+02  0.00000000000E+00 0. -1.
          5    1    5    5  501    0 -0.63419168564E+02 -0.14263661934E+02  0.11150502218E+03  0.12915457005E+03  0.47000000000E+01 0. -1.
         -5    1    5    5    0  501  0.26050541762E+02 -0.11351906387E+03  0.25127633041E+03  0.27699655740E+03  0.47000000000E+01 0. -1.
          1    1    1    2  502    0 -0.24296607375E+02  0.49107788631E+02 -0.15487563166E+04  0.15497251460E+04  0.00000000000E+00 0. -1.
          1    1    1    2  503    0 -0.55768915768E+02  0.11418370798E+03  0.31142364795E+04  0.31168280257E+04  0.00000000000E+00 0. -1.
<mgrwt>
<rscale>  0 0.82942437E+02</rscale>
<asrwt>0</asrwt>
<pdfrwt beam="1">  1        2 0.52281041E+00 0.12556120E+03</pdfrwt>
<pdfrwt beam="2">  1        2 0.31809357E+00 0.54789598E+02</pdfrwt>
<totfact> 0.17283548E+00</totfact>
</mgrwt>
</event>
<event>
13    1  0.1942437E-008  0.9563632E+02  0.7546771E-02  0.1575737E+00
          2   -1    0    0  502    0  0.00000000000E+00  0.00000000000E+00  0.46388422978E+03  0.46388422978E+03  0.00000000000E+00 0. -1.
          2   -1    0    0  503    0 -0.00000000000E+00 -0.00000000000E+00 -0.10899587808E+04  0.10899587808E+04  0.00000000000E+00 0. -1.
         24    2    1    2    0    0 -0.63206480966E+02  0.63911768790E+02 -0.11454386397E+03  0.17219437989E+03  0.91928419249E+02 0.  0.
         24    2    1    2    0    0 -0.22114296677E+02 -0.60578194283E+00  0.38940083674E+02  0.89923215049E+02  0.77977210767E+02 0.  0.
         25    2    1    2    0    0 -0.35255750118E+02  0.22164407527E+02  0.29992848896E+03  0.32759279553E+03  0.12500284921E+03 0.  0.
        -11    1    4    4    0    0 -0.38920802023E+02  0.19833121380E+02  0.45065465189E+02  0.62762072038E+02  0.00000000000E+00 0.  1.
         12    1    4    4    0    0  0.16806505345E+02 -0.20438903323E+02 -0.61253815151E+01  0.27161143011E+02  0.00000000000E+00 0. -1.
        -13    1    3    3    0    0 -0.46475524973E+02  0.86438801435E+01 -0.39556292749E+01  0.47437728534E+02  0.00000000000E+00 0.  1.
         14    1    3    3    0    0 -0.16730955993E+02  0.55267888647E+02 -0.11058823470E+03  0.12475665135E+03  0.00000000000E+00 0. -1.
          5    1    5    5  501    0 -0.94219115579E+01  0.72992998114E+02  0.18653478101E+03  0.20058430826E+03  0.47000000000E+01 0. -1.
         -5    1    5    5    0  501 -0.25833838560E+02 -0.50828590587E+02  0.11339370795E+03  0.12700848727E+03  0.47000000000E+01 0. -1.
          1    1    1    2  502    0 -0.10267001434E+02 -0.33186207352E+01  0.49706498805E+02  0.50864138502E+02  0.00000000000E+00 0. -1.
          1    1    1    2  503    0  0.13084352920E+03 -0.82151773639E+02 -0.90010575852E+03  0.91326848165E+03  0.00000000000E+00 0. -1.
<mgrwt>
<rscale>  0 0.32123480E+02</rscale>
<asrwt>0</asrwt>
<pdfrwt beam="1">  1        2 0.68218270E-01 0.10790021E+02</pdfrwt>
<pdfrwt beam="2">  1        2 0.16028805E+00 0.95636324E+02</pdfrwt>
<totfact> 0.29431329E+02</totfact>
</mgrwt>
</event>
<event>
13    1  0.1942437E-008  0.9229922E+02  0.7546771E-02  0.1378575E+00
          2   -1    0    0  503    0  0.00000000000E+00  0.00000000000E+00  0.17140274191E+04  0.17140274191E+04  0.00000000000E+00 0. -1.
         -1   -1    0    0    0  501 -0.00000000000E+00 -0.00000000000E+00 -0.86283533084E+03  0.86283533084E+03  0.00000000000E+00 0.  1.
         24    2    1    2    0    0  0.36367756486E+02 -0.30721726898E+02 -0.38148589136E+03  0.39266166768E+03  0.79907832849E+02 0.  0.
         24    2    1    2    0    0 -0.14289043355E+02 -0.53660517579E+02 -0.53822489324E+02  0.11329715027E+03  0.82799492729E+02 0.  0.
         25    2    1    2    0    0 -0.57929765358E+02  0.20305248073E+01  0.46698299333E+03  0.48688217551E+03  0.12498462314E+03 0.  0.
        -13    1    3    3    0    0  0.58939947330E+02 -0.55763447038E+01 -0.23883907408E+03  0.24606730039E+03  0.00000000000E+00 0.  1.
         14    1    3    3    0    0 -0.22572190844E+02 -0.25145382194E+02 -0.14264681728E+03  0.14659436730E+03  0.00000000000E+00 0. -1.
        -13    1    4    4    0    0 -0.38608087741E+01  0.22481031291E+02 -0.11085968936E+02  0.25361413990E+02  0.00000000000E+00 0.  1.
         14    1    4    4    0    0 -0.10428234581E+02 -0.76141548871E+02 -0.42736520388E+02  0.87935736284E+02  0.00000000000E+00 0. -1.
          5    1    5    5  502    0  0.31399899912E+02 -0.27479029613E+02  0.11193583626E+03  0.11955238275E+03  0.47000000000E+01 0. -1.
         -5    1    5    5    0  502 -0.89329665270E+02  0.29509554421E+02  0.35504715707E+03  0.36732979275E+03  0.47000000000E+01 0. -1.
          1    1    1    2  503    0 -0.37417123643E+02  0.25975498569E+02  0.11957400698E+04  0.11966073217E+04  0.00000000000E+00 0. -1.
         -2    1    1    2    0  501  0.73268175870E+02  0.56376221101E+02 -0.37622259421E+03  0.38741443481E+03  0.00000000000E+00 0.  1.
<mgrwt>
<rscale>  0 0.64839757E+02</rscale>
<asrwt>0</asrwt>
<pdfrwt beam="1">  1        2 0.25206286E+00 0.45549618E+02</pdfrwt>
<pdfrwt beam="2">  1       -1 0.12688755E+00 0.92299219E+02</pdfrwt>
<totfact> 0.95869984E+00</totfact>
</mgrwt>
</event>
<event>
13    1  0.1942437E-008  0.1227083E+03  0.7546771E-02  0.1268051E+00
          2   -1    0    0  502    0  0.00000000000E+00  0.00000000000E+00  0.75446310878E+03  0.75446310878E+03  0.00000000000E+00 0. -1.
          4   -1    0    0  503    0 -0.00000000000E+00 -0.00000000000E+00 -0.13205755170E+04  0.13205755170E+04  0.00000000000E+00 0. -1.
         24    2    1    2    0    0  0.22901480541E+02  0.86513249768E+01 -0.18687251302E+03  0.20318890274E+03  0.75928063581E+02 0.  0.
         24    2    1    2    0    0 -0.42225693271E+02  0.31646483534E+01 -0.81305799587E+01  0.91291015548E+02  0.80466881498E+02 0.  0.
         25    2    1    2    0    0  0.12166138891E+03 -0.20592447898E+03  0.30986841061E+02  0.27164515574E+03  0.12499808688E+03 0.  0.
        -11    1    3    3    0    0  0.33746110671E+02  0.36537915666E+02 -0.12197568072E+03  0.13172655751E+03  0.00000000000E+00 0.  1.
         12    1    3    3    0    0 -0.10844630129E+02 -0.27886590689E+02 -0.64896832300E+02  0.71462345228E+02  0.00000000000E+00 0. -1.
        -11    1    4    4    0    0 -0.42466946213E+02 -0.30554663951E+02 -0.19309146049E+02  0.55766227512E+02  0.00000000000E+00 0.  1.
         12    1    4    4    0    0  0.24125294116E+00  0.33719312304E+02  0.11178566090E+02  0.35524788037E+02  0.00000000000E+00 0. -1.
          5    1    5    5  501    0  0.58183098709E+02 -0.17335490993E+03 -0.19735483835E+02  0.18398037149E+03  0.47000000000E+01 0. -1.
         -5    1    5    5    0  501  0.63478290197E+02 -0.32569569051E+02  0.50722324896E+02  0.87664784249E+02  0.47000000000E+01 0. -1.
          1    1    1    2  502    0 -0.66564538010E+02  0.97514187049E+02  0.54428489929E+03  0.55694335977E+03  0.00000000000E+00 0. -1.
          3    1    1    2  503    0 -0.35772638166E+02  0.96594318601E+02 -0.94638105562E+03  0.95197019201E+03  0.00000000000E+00 0. -1.
<mgrwt>
<rscale>  0 0.10605719E+03</rscale>
<asrwt>0</asrwt>
<pdfrwt beam="1">  1        2 0.11095046E+00 0.12270827E+03</pdfrwt>
<pdfrwt beam="2">  1        4 0.19420228E+00 0.91665598E+02</pdfrwt>
<totfact> 0.34850743E+00</totfact>
</mgrwt>
</event>
<event>
13    1  0.1942437E-008  0.6467520E+02  0.7546771E-02  0.1435733E+00
          2   -1    0    0  502    0  0.00000000000E+00  0.00000000000E+00  0.34037422192E+04  0.34037422192E+04  0.00000000000E+00 0. -1.
          2   -1    0    0  503    0 -0.00000000000E+00 -0.00000000000E+00 -0.55199118939E+03  0.55199118939E+03  0.00000000000E+00 0. -1.
         24    2    1    2    0    0 -0.41379268788E+01  0.55195180300E+01 -0.47473055167E+02  0.91262012381E+02  0.77636823858E+02 0.  0.
         24    2    1    2    0    0  0.93993122765E+02 -0.97020199048E+02  0.27696627429E+03  0.31846579768E+03  0.80389806885E+02 0.  0.
         25    2    1    2    0    0 -0.80843221385E+02  0.14070381450E+03  0.24234774879E+04  0.24321190663E+04  0.12500731229E+03 0.  0.
        -11    1    3    3    0    0  0.19973428063E+02  0.19097793675E+02  0.84244754576E+01  0.28890056050E+02  0.00000000000E+00 0.  1.
         12    1    3    3    0    0 -0.24111354941E+02 -0.13578275645E+02 -0.55897530625E+02  0.62371956331E+02  0.00000000000E+00 0. -1.
        -13    1    4    4    0    0  0.17938846117E+02 -0.61278440673E+02  0.17529442129E+03  0.18656093811E+03  0.00000000000E+00 0.  1.
         14    1    4    4    0    0  0.76054276649E+02 -0.35741758375E+02  0.10167185299E+03  0.13190485958E+03  0.00000000000E+00 0. -1.
          5    1    5    5  501    0 -0.47133282388E+02  0.24029109851E+02  0.14655670515E+04  0.14665291736E+04  0.47000000000E+01 0. -1.
         -5    1    5    5    0  501 -0.33709938997E+02  0.11667470465E+03  0.95791043640E+03  0.96558989268E+03  0.47000000000E+01 0. -1.
          1    1    1    2  502    0 -0.40922541637E+02  0.70768372245E+01  0.65338385533E+03  0.65470237394E+03  0.00000000000E+00 0. -1.
          1    1    1    2  503    0  0.31910567136E+02 -0.56279970707E+02 -0.45460353259E+03  0.45918415830E+03  0.00000000000E+00 0. -1.
<mgrwt>
<rscale>  0 0.51826223E+02</rscale>
<asrwt>0</asrwt>
<pdfrwt beam="1">  1        2 0.50055032E+00 0.41529941E+02</pdfrwt>
<pdfrwt beam="2">  1        2 0.81175176E-01 0.64675202E+02</pdfrwt>
<totfact> 0.18997758E+01</totfact>
</mgrwt>
</event>
<event>
13    1  0.1942437E-008  0.3401021E+02  0.7546771E-02  0.1614777E+00
          2   -1    0    0  502    0  0.00000000000E+00  0.00000000000E+00  0.37309886990E+03  0.37309886990E+03  0.00000000000E+00 0. -1.
          2   -1    0    0  503    0 -0.00000000000E+00 -0.00000000000E+00 -0.11217016774E+04  0.11217016774E+04  0.00000000000E+00 0. -1.
         24    2    1    2    0    0  0.21587992637E+02 -0.12297455975E+02 -0.38759753985E+03  0.39683345183E+03  0.81410483013E+02 0.  0.
         24    2    1    2    0    0  0.19308124249E+03  0.75588389204E+02 -0.27411844982E+03  0.35492537418E+03  0.88527543301E+02 0.  0.
         25    2    1    2    0    0 -0.21116456652E+03 -0.10682445042E+02 -0.14976265957E+03  0.28768309154E+03  0.12501247206E+03 0.  0.
        -11    1    4    4    0    0  0.13787687216E+03  0.49484149878E+02 -0.24900407230E+03  0.28889745757E+03  0.00000000000E+00 0.  1.
         12    1    4    4    0    0  0.55204370327E+02  0.26104239326E+02 -0.25114377514E+02  0.66027916611E+02  0.00000000000E+00 0. -1.
        -13    1    3    3    0    0 -0.11500560660E+02 -0.25581413224E+02 -0.49765929462E+02  0.57125470092E+02  0.00000000000E+00 0.  1.
         14    1    3    3    0    0  0.33088553297E+02  0.13283957249E+02 -0.33783161039E+03  0.33970798174E+03  0.00000000000E+00 0. -1.
          5    1    5    5  501    0 -0.12070086674E+03 -0.24460040040E+02 -0.15242557555E+03  0.19601693517E+03  0.47000000000E+01 0.  1.
         -5    1    5    5    0  501 -0.90463699783E+02  0.13777594998E+02  0.26629159817E+01  0.91666156372E+02  0.47000000000E+01 0.  1.
          1    1    1    2  502    0 -0.12958828265E+02 -0.20146609355E+02  0.25710001533E+03  0.25821354531E+03  0.00000000000E+00 0. -1.
          1    1    1    2  503    0  0.94541596621E+01 -0.32461878832E+02 -0.19422417361E+03  0.19714508446E+03  0.00000000000E+00 0. -1.
<mgrwt>
<rscale>  0 0.28542894E+02</rscale>
<asrwt>0</asrwt>
<pdfrwt beam="1">  1        2 0.54867481E-01 0.23954480E+02</pdfrwt>
<pdfrwt beam="2">  1        2 0.16495613E+00 0.34010206E+02</pdfrwt>
<totfact> 0.37345234E+02</totfact>
</mgrwt>
</event>
<event>
13    1  0.1942437E-008  0.2762844E+03  0.7546771E-02  0.1285250E+00
          2   -1    0    0  502    0  0.00000000000E+00  0.00000000000E+00  0.11931363221E+04  0.11931363221E+04  0.00000000000E+00 0. -1.
          2   -1    0    0  503    0 -0.00000000000E+00 -0.00000000000E+00 -0.42699356360E+04  0.42699356360E+04  0.00000000000E+00 0. -1.
         24    2    1    2    0    0 -0.10003503465E+03 -0.28370158605E+03 -0.20483389809E+04  0.20729758312E+04  0.10508386160E+03 0.  0.
         24    2    1    2    0    0  0.48363896558E+02  0.19285747368E+03  0.15246087791E+02  0.21266093714E+03  0.73886124197E+02 0.  0.
         25    2    1    2    0    0  0.70420740740E+02 -0.14521937696E+03  0.57503286933E+03  0.61019184129E+03  0.12499413665E+03 0.  0.
        -11    1    3    3    0    0 -0.48509776720E+02 -0.20992889822E+03 -0.11393546013E+04  0.11595482949E+04  0.00000000000E+00 0.  1.
         12    1    3    3    0    0 -0.51525257925E+02 -0.73772687825E+02 -0.90898437960E+03  0.91342753628E+03  0.00000000000E+00 0. -1.
        -13    1    4    4    0    0 -0.95957424674E+01  0.70795596152E+02 -0.17649300200E+02  0.73590709370E+02  0.00000000000E+00 0.  1.
         14    1    4    4    0    0  0.57959639025E+02  0.12206187753E+03  0.32895387991E+02  0.13907022777E+03  0.00000000000E+00 0. -1.
          5    1    5    5  501    0  0.90471580637E+02 -0.10249251515E+03  0.28292958349E+03  0.31426272732E+03  0.47000000000E+01 0. -1.
         -5    1    5    5    0  501 -0.20050839897E+02 -0.42726861807E+02  0.29210328583E+03  0.29592911397E+03  0.47000000000E+01 0. -1.
          1    1    1    2  502    0 -0.16511424404E+02 -0.30332512972E+02  0.46513194680E+03  0.46641228159E+03  0.00000000000E+00 0. -1.
          1    1    1    2  503    0 -0.22381782497E+01  0.26639600230E+03 -0.20838712369E+04  0.21008310669E+04  0.00000000000E+00 0. -1.
<mgrwt>
<rscale>  0 0.97680962E+02</rscale>
<asrwt>0</asrwt>
<pdfrwt beam="1">  1        2 0.17546123E+00 0.34535322E+02</pdfrwt>
<pdfrwt beam="2">  1        2 0.62793169E+00 0.27628439E+03</pdfrwt>
<totfact> 0.14804299E+00</totfact>
</mgrwt>
</event>
<event>
13    1  0.1942437E-008  0.1220165E+03  0.7546771E-02  0.1524966E+00
          2   -1    0    0  502    0  0.00000000000E+00  0.00000000000E+00  0.16533681039E+04  0.16533681039E+04  0.00000000000E+00 0. -1.
          2   -1    0    0  503    0 -0.00000000000E+00 -0.00000000000E+00 -0.85617763076E+03  0.85617763076E+03  0.00000000000E+00 0. -1.
         24    2    1    2    0    0  0.20102995502E+03  0.10042393552E+03 -0.24979671702E+03  0.34609443863E+03  0.82975604713E+02 0.  0.
         24    2    1    2    0    0 -0.36836660511E+02 -0.43975543837E+02  0.47000461770E+02  0.11212761749E+03  0.84099769226E+02 0.  0.
         25    2    1    2    0    0 -0.15042296959E+03  0.62407123012E+02  0.42875339041E+03  0.47537195864E+03  0.12500924162E+03 0.  0.
        -11    1    4    4    0    0 -0.29923068265E+02  0.20587846123E+02  0.22504220741E+02  0.42728086471E+02  0.00000000000E+00 0.  1.
         12    1    4    4    0    0 -0.69135922465E+01 -0.64563389960E+02  0.24496241030E+02  0.69399531018E+02  0.00000000000E+00 0. -1.
        -13    1    3    3    0    0  0.43479033584E+01 -0.66147226001E+01  0.29275910050E+01  0.84397634910E+01  0.00000000000E+00 0.  1.
         14    1    3    3    0    0  0.19668205166E+03  0.10703865812E+03 -0.25272430803E+03  0.33765467514E+03  0.00000000000E+00 0. -1.
          5    1    5    5  501    0 -0.27142213608E+02 -0.10638537738E+02  0.22091016880E+03  0.22287501189E+03  0.47000000000E+01 0.  1.
         -5    1    5    5    0  501 -0.12328075598E+03  0.73045660750E+02  0.20784322161E+03  0.25249694675E+03  0.47000000000E+01 0.  1.
          1    1    1    2  502    0  0.11714532160E+02 -0.24633114477E+00  0.10662356204E+04  0.10662999996E+04  0.00000000000E+00 0. -1.
          1    1    1    2  503    0 -0.25484857085E+02 -0.11860918355E+03 -0.49500228243E+03  0.50965172027E+03  0.00000000000E+00 0. -1.
<mgrwt>
<rscale>  0 0.37811140E+02</rscale>
<asrwt>0</asrwt>
<pdfrwt beam="1">  1        2 0.24314237E+00 0.11717122E+02</pdfrwt>
<pdfrwt beam="2">  1        2 0.12590848E+00 0.12201651E+03</pdfrwt>
<totfact> 0.91774800E+01</totfact>
</mgrwt>
</event>
<event>
13    1  0.1942437E-008  0.8001255E+02  0.7546771E-02  0.1446527E+00
          2   -1    0    0  503    0  0.00000000000E+00  0.00000000000E+00  0.26119156993E+03  0.26119156993E+03  0.00000000000E+00 0. -1.
          2   -1    0    0  502    0 -0.00000000000E+00 -0.00000000000E+00 -0.11621467382E+04  0.11621467382E+04  0.00000000000E+00 0. -1.
         24    2    1    2    0    0 -0.21709365633E+02 -0.11741450176E+03 -0.81063202696E+02  0.16492059431E+03  0.79812892553E+02 0.  0.
         24    2    1    2    0    0 -0.44227755514E+02  0.40659622246E+02 -0.12167730831E+02  0.10127078006E+03  0.80612765627E+02 0.  0.
         25    2    1    2    0    0  0.87046742159E+01  0.57275607767E+02  0.84919861124E+02  0.16187397680E+03  0.12504213271E+03 0.  0.
        -11    1    4    4    0    0 -0.67533412019E+02  0.32136507194E+02 -0.31110802794E+01  0.74854496553E+02  0.00000000000E+00 0.  1.
         12    1    4    4    0    0  0.23305656505E+02  0.85231150515E+01 -0.90566505513E+01  0.26416283511E+02  0.00000000000E+00 0. -1.
        -11    1    3    3    0    0 -0.11133978977E+02 -0.12121130891E+03 -0.89319402614E+02  0.15097715913E+03  0.00000000000E+00 0.  1.
         12    1    3    3    0    0 -0.10575386656E+02  0.37968071561E+01  0.82561999183E+01  0.13943435179E+02  0.00000000000E+00 0. -1.
          5    1    5    5  501    0  0.55024275499E+02 -0.98484946590E+01  0.36087728502E+02  0.66701408453E+02  0.47000000000E+01 0.  1.
         -5    1    5    5    0  501 -0.46319601283E+02  0.67124102426E+02  0.48832132621E+02  0.95172568347E+02  0.47000000000E+01 0.  1.
          1    1    1    2  502    0  0.62741092799E+02  0.49957361295E+02 -0.93741147730E+03  0.94083604334E+03  0.00000000000E+00 0. -1.
          1    1    1    2  503    0 -0.55086458681E+01 -0.30478089552E+02  0.44767381440E+02  0.54436913607E+02  0.00000000000E+00 0. -1.
<mgrwt>
<rscale>  0 0.49780934E+02</rscale>
<asrwt>0</asrwt>
<pdfrwt beam="1">  1        2 0.38410524E-01 0.30971909E+02</pdfrwt>
<pdfrwt beam="2">  1        2 0.17090394E+00 0.80012551E+02</pdfrwt>
<totfact> 0.48419687E+02</totfact>
</mgrwt>
</event>
<event>
13    1  0.1942437E-008  0.8853150E+02  0.7546771E-02  0.1534201E+00
          2   -1    0    0  503    0  0.00000000000E+00  0.00000000000E+00  0.14954512010E+04  0.14954512010E+04  0.00000000000E+00 0. -1.
         -3   -1    0    0    0  501 -0.00000000000E+00 -0.00000000000E+00 -0.28447791868E+03  0.28447791868E+03  0.00000000000E+00 0.  1.
         24    2    1    2    0    0  0.29095286009E+02  0.23761755012E+02  0.96876734930E+01  0.87750808806E+02  0.78709572221E+02 0.  0.
         24    2    1    2    0    0  0.29278014310E+02 -0.80349721364E+02  0.40507532651E+02  0.12435912788E+03  0.80691093931E+02 0.  0.
         25    2    1    2    0    0 -0.14972140517E+03  0.36398415589E+02  0.14393797696E+03  0.24511268157E+03  0.12498296536E+03 0.  0.
        -11    1    3    3    0    0  0.32436065757E+02 -0.23351726800E+02  0.52547251766E+01  0.40311457962E+02  0.00000000000E+00 0.  1.
         12    1    3    3    0    0 -0.33407797485E+01  0.47113481811E+02  0.44329483164E+01  0.47439350844E+02  0.00000000000E+00 0. -1.
        -13    1    4    4    0    0 -0.16119090240E+02 -0.58251567101E+02  0.42406668865E+02  0.73833567597E+02  0.00000000000E+00 0.  1.
         14    1    4    4    0    0  0.45397104549E+02 -0.22098154264E+02 -0.18991362139E+01  0.50525560281E+02  0.00000000000E+00 0. -1.
          5    1    5    5  502    0 -0.98949083758E+02 -0.38212902457E+02  0.60990315402E+02  0.12244613372E+03  0.47000000000E+01 0.  1.
         -5    1    5    5    0  502 -0.50772321416E+02  0.74611318046E+02  0.82947661556E+02  0.12266654785E+03  0.47000000000E+01 0.  1.
          1    1    1    2  503    0  0.81787988211E+02  0.31998811100E+02  0.11677428324E+04  0.11710407856E+04  0.00000000000E+00 0. -1.
         -4    1    1    2    0  501  0.95601166439E+01 -0.11809260336E+02 -0.15090273321E+03  0.15166571580E+03  0.00000000000E+00 0.  1.
<mgrwt>
<rscale>  0 0.36676129E+02</rscale>
<asrwt>0</asrwt>
<pdfrwt beam="1">  1        2 0.21991929E+00 0.88531504E+02</pdfrwt>
<pdfrwt beam="2">  1       -3 0.41834988E-01 0.15193895E+02</pdfrwt>
<totfact> 0.45855690E+01</totfact>
</mgrwt>
</event>
<event>
13    1  0.1942437E-008  0.1925292E+03  0.7546771E-02  0.1285965E+00
          2   -1    0    0  503    0  0.00000000000E+00  0.00000000000E+00  0.19764523757E+04  0.19764523757E+04  0.00000000000E+00 0. -1.
          2   -1    0    0  502    0 -0.00000000000E+00 -0.00000000000E+00 -0.17728541074E+04  0.17728541074E+04  0.00000000000E+00 0. -1.
         24    2    1    2    0    0  0.16219776954E+03  0.84359270522E+02  0.20357026946E+02  0.20070564322E+03  0.80272932607E+02 0.  0.
         24    2    1    2    0    0  0.52711044600E+02 -0.18749753110E+02 -0.18814030186E+02  0.10063628887E+03  0.81508818181E+02 0.  0.
         25    2    1    2    0    0 -0.39378500282E+02  0.44763442918E+02  0.69582638014E+03  0.70947714383E+03  0.12501613579E+03 0.  0.
        -13    1    3    3    0    0  0.15304956043E+03  0.46359975994E+02  0.22850484897E+02  0.16154120212E+03  0.00000000000E+00 0.  1.
         14    1    3    3    0    0  0.91482091095E+01  0.37999294528E+02 -0.24934579512E+01  0.39164441105E+02  0.00000000000E+00 0. -1.
        -13    1    4    4    0    0 -0.99842726794E+01 -0.16784528520E+02  0.19120661463E+02  0.27331406721E+02  0.00000000000E+00 0.  1.
         14    1    4    4    0    0  0.62695317279E+02 -0.19652245902E+01 -0.37934691649E+02  0.73304882150E+02  0.00000000000E+00 0. -1.
          5    1    5    5  501    0  0.27149422229E+02  0.63336997428E+02  0.36666126351E+03  0.37311022303E+03  0.47000000000E+01 0. -1.
         -5    1    5    5    0  501 -0.66527922511E+02 -0.18573554509E+02  0.32916511663E+03  0.33636692079E+03  0.47000000000E+01 0. -1.
          1    1    1    2  502    0 -0.13512872368E+03 -0.13849591538E+03 -0.16097930045E+04  0.16213804020E+04  0.00000000000E+00 0. -1.
          1    1    1    2  503    0 -0.40401590179E+02  0.28122955046E+02  0.11160218959E+04  0.11171070053E+04  0.00000000000E+00 0. -1.
<mgrwt>
<rscale>  0 0.97352046E+02</rscale>
<asrwt>0</asrwt>
<pdfrwt beam="1">  1        2 0.29065476E+00 0.49225899E+02</pdfrwt>
<pdfrwt beam="2">  1        2 0.26071384E+00 0.19252916E+03</pdfrwt>
<totfact> 0.17571963E+01</totfact>
</mgrwt>
</event>
<event>
13    1  0.1942437E-008  0.1411734E+03  0.7546771E-02  0.1355284E+00
          2   -1    0    0  503    0  0.00000000000E+00  0.00000000000E+00  0.37201955927E+04  0.37201955927E+04  0.00000000000E+00 0. -1.
          2   -1    0    0  502    0 -0.00000000000E+00 -0.00000000000E+00 -0.21216135570E+04  0.21216135570E+04  0.00000000000E+00 0. -1.
         24    2    1    2    0    0  0.60024729992E+01 -0.21185808254E+02 -0.38404273778E+02  0.92605365469E+02  0.81338781131E+02 0.  0.
         24    2    1    2    0    0  0.81438320351E+02  0.14237967486E+03 -0.10818087111E+03  0.20683893805E+03  0.64614809343E+02 0.  0.
         25    2    1    2    0    0  0.40628570558E+02  0.74402081666E+02  0.10648487576E+04  0.10755068007E+04  0.12500260576E+03 0.  0.
        -11    1    4    4    0    0  0.56571925712E+02  0.12904648770E+03 -0.64797600388E+02  0.15508741981E+03  0.00000000000E+00 0.  1.
         12    1    4    4    0    0  0.24866394639E+02  0.13333187154E+02 -0.43383270717E+02  0.51751518240E+02  0.00000000000E+00 0. -1.
        -11    1    3    3    0    0 -0.10690556653E+02  0.73412469003E+01 -0.54372691453E+02  0.55897866538E+02  0.00000000000E+00 0.  1.
         12    1    3    3    0    0  0.16693029652E+02 -0.28527055154E+02  0.15968417676E+02  0.36707498931E+02  0.00000000000E+00 0. -1.
          5    1    5    5  501    0 -0.85079642075E+01  0.14602347247E+01  0.70388162562E+03  0.70395024726E+03  0.47000000000E+01 0. -1.
         -5    1    5    5    0  501  0.49136534766E+02  0.72941846942E+02  0.36096713193E+03  0.37155655346E+03  0.47000000000E+01 0. -1.
          1    1    1    2  502    0 -0.14845487786E+03 -0.22544438927E+03 -0.18835203208E+04  0.19027645209E+04  0.00000000000E+00 0. -1.
          1    1    1    2  503    0  0.20385513949E+02  0.29848441004E+02  0.25638387438E+04  0.25640935246E+04  0.00000000000E+00 0. -1.
<mgrwt>
<rscale>  0 0.71433777E+02</rscale>
<asrwt>0</asrwt>
<pdfrwt beam="1">  1        2 0.54708759E+00 0.36145520E+02</pdfrwt>
<pdfrwt beam="2">  1        2 0.31200199E+00 0.14117336E+03</pdfrwt>
<totfact> 0.16571507E+00</totfact>
</mgrwt>
</event>
<event>
13    1  0.1942437E-008  0.2437896E+02  0.7546771E-02  0.1713091E+00
          2   -1    0    0  502    0  0.00000000000E+00  0.00000000000E+00  0.32202148879E+04  0.32202148879E+04  0.00000000000E+00 0. -1.
          2   -1    0    0  503    0 -0.00000000000E+00 -0.00000000000E+00 -0.61679407477E+03  0.61679407477E+03  0.00000000000E+00 0. -1.
         24    2    1    2    0    0  0.18785240191E+03  0.14219327618E+02 -0.28991668330E+03  0.35544379610E+03  0.82449346563E+02 0.  0.
         24    2    1    2    0    0 -0.13609836865E+03 -0.13361980978E+03  0.11074687289E+03  0.22796848265E+03  0.57686564362E+02 0.  0.
         25    2    1    2    0    0 -0.84364424575E+02  0.13917479085E+03  0.11590086276E+04  0.11770355173E+04  0.12499852638E+03 0.  0.
        -11    1    3    3    0    0  0.23107870726E+01  0.34890946631E+01  0.52044963574E+01  0.66783456632E+01  0.00000000000E+00 0.  1.
         12    1    3    3    0    0  0.18554161484E+03  0.10730232955E+02 -0.29512117965E+03  0.34876545043E+03  0.00000000000E+00 0. -1.
        -13    1    4    4    0    0 -0.17376669742E+02 -0.12194552584E+02 -0.57945517626E+01  0.22005285597E+02  0.00000000000E+00 0.  1.
         14    1    4    4    0    0 -0.11872169891E+03 -0.12142525720E+03  0.11654142466E+03  0.20596319705E+03  0.00000000000E+00 0. -1.
          5    1    5    5  501    0 -0.58916708632E+02  0.13205648704E+03  0.11221615994E+04  0.11314498838E+04  0.47000000000E+01 0. -1.
         -5    1    5    5    0  501 -0.25447715943E+02  0.71183038059E+01  0.36847028133E+02  0.45585633461E+02  0.47000000000E+01 0. -1.
          1    1    1    2  502    0  0.19344313214E+02  0.67348203955E+00  0.18493650188E+04  0.18494663091E+04  0.00000000000E+00 0. -1.
          1    1    1    2  503    0  0.13266078099E+02 -0.20447790723E+02 -0.22578302275E+03  0.22709485757E+03  0.00000000000E+00 0. -1.
<mgrwt>
<rscale>  0 0.21722796E+02</rscale>
<asrwt>0</asrwt>
<pdfrwt beam="1">  1        2 0.47356101E+00 0.19356033E+02</pdfrwt>
<pdfrwt beam="2">  1        2 0.90705012E-01 0.24378955E+02</pdfrwt>
<totfact> 0.25155574E+01</totfact>
</mgrwt>
</event>
<event>
13    1  0.1942437E-008  0.2101825E+02  0.7546771E-02  0.1750496E+00
          4   -1    0    0  503    0 -0.00000000000E+00  0.00000000000E+00  0.43046640895E+03  0.43046640895E+03  0.00000000000E+00 0. -1.
          2   -1    0    0  502    0  0.00000000000E+00 -0.00000000000E+00 -0.13133930598E+04  0.13133930598E+04  0.00000000000E+00 0. -1.
         24    2    1    2    0    0  0.33048676673E+01 -0.19817840909E+02  0.21507791870E+03  0.23132364255E+03  0.82755347396E+02 0.  0.
         24    2    1    2    0    0 -0.11494442285E+02 -0.36319648155E+02 -0.82602652611E+02  0.12141941288E+03  0.80425347743E+02 0.  0.
         25    2    1    2    0    0 -0.21899909990E+02  0.77639526255E+02 -0.40583118982E+03  0.43224252329E+03  0.12500856856E+03 0.  0.
        -11    1    3    3    0    0  0.15411908621E+02  0.17522942913E+02  0.16981088514E+03  0.17140687608E+03  0.00000000000E+00 0.  1.
         12    1    3    3    0    0 -0.12107040953E+02 -0.37340783821E+02  0.45267033557E+02  0.59916766469E+02  0.00000000000E+00 0. -1.
        -13    1    4    4    0    0  0.11339206452E+02 -0.52150909314E+02 -0.28269876324E+02  0.60394377658E+02  0.00000000000E+00 0.  1.
         14    1    4    4    0    0 -0.22833648737E+02  0.15831261159E+02 -0.54332776287E+02  0.61025035220E+02  0.00000000000E+00 0. -1.
          5    1    5    5  501    0 -0.27308909784E+02  0.10115101344E+03 -0.20855209938E+03  0.23343815505E+03  0.47000000000E+01 0. -1.
         -5    1    5    5    0  501  0.54089997941E+01 -0.23511487188E+02 -0.19727909044E+03  0.19880436824E+03  0.47000000000E+01 0. -1.
          1    1    1    2  502    0  0.18038499096E+02 -0.43018865159E+01 -0.78348083537E+03  0.78370026992E+03  0.00000000000E+00 0. -1.
          3    1    1    2  503    0  0.12050985512E+02 -0.17200150675E+02  0.17391010825E+03  0.17517362012E+03  0.00000000000E+00 0. -1.
<mgrwt>
<rscale>  0 0.19742599E+02</rscale>
<asrwt>0</asrwt>
<pdfrwt beam="2">  1        2 0.19314604E+00 0.18544370E+02</pdfrwt>
<pdfrwt beam="1">  1        4 0.63303884E-01 0.21018250E+02</pdfrwt>
<totfact> 0.22780770E+01</totfact>
</mgrwt>
</event>
<event>
13    1  0.1942437E-008  0.1996657E+03  0.7546771E-02  0.1211449E+00
          2   -1    0    0  502    0  0.00000000000E+00  0.00000000000E+00  0.12530210571E+04  0.12530210571E+04  0.00000000000E+00 0. -1.
          2   -1    0    0  503    0 -0.00000000000E+00 -0.00000000000E+00 -0.11290538882E+04  0.11290538882E+04  0.00000000000E+00 0. -1.
         24    2    1    2    0    0 -0.20169186429E+03 -0.14640760197E+03 -0.11234001664E+02  0.27026078463E+03  0.10392254269E+03 0.  0.
         24    2    1    2    0    0  0.48762530332E+03  0.24636027898E+03  0.20954002062E+03  0.59070721364E+03  0.80970170446E+02 0.  0.
         25    2    1    2    0    0 -0.37370079883E+02 -0.21967436626E+03  0.21937119653E+03  0.33674792689E+03  0.12498837679E+03 0.  0.
        -13    1    3    3    0    0 -0.39878428321E+02 -0.89490658610E+02 -0.12168056315E+02  0.98726534520E+02  0.00000000000E+00 0.  1.
         14    1    3    3    0    0 -0.16181343597E+03 -0.56916943357E+02  0.93405465108E+00  0.17153425011E+03  0.00000000000E+00 0. -1.
        -13    1    4    4    0    0  0.14362596834E+03  0.10201159984E+03  0.96676396786E+02  0.20095051873E+03  0.00000000000E+00 0.  1.
         14    1    4    4    0    0  0.34399933498E+03  0.14434867914E+03  0.11286362384E+03  0.38975669490E+03  0.00000000000E+00 0. -1.
          5    1    5    5  501    0  0.36420313627E+02 -0.64027635898E+02  0.27273384500E+02  0.78688658048E+02  0.47000000000E+01 0.  1.
         -5    1    5    5    0  501 -0.73790393510E+02 -0.15564673037E+03  0.19209781203E+03  0.25805926884E+03  0.47000000000E+01 0.  1.
          1    1    1    2  502    0 -0.14872030680E+03  0.12751193711E+03  0.42011421167E+03  0.46354392954E+03  0.00000000000E+00 0. -1.
          1    1    1    2  503    0 -0.99843052346E+02 -0.77902478643E+01 -0.71382425829E+03  0.72081509057E+03  0.00000000000E+00 0. -1.
<mgrwt>
<rscale>  0 0.14140658E+03</rscale>
<asrwt>0</asrwt>
<pdfrwt beam="1">  1        2 0.18426780E+00 0.19966567E+03</pdfrwt>
<pdfrwt beam="2">  1        2 0.16603733E+00 0.10014651E+03</pdfrwt>
<totfact> 0.79326920E+01</totfact>
</mgrwt>
</event>
<event>
13    1  0.1942437E-008  0.5342843E+02  0.7546771E-02  0.1539493E+00
          2   -1    0    0  503    0  0.00000000000E+00  0.00000000000E+00  0.39229323862E+04  0.39229323862E+04  0.00000000000E+00 0. -1.
          2   -1    0    0  502    0 -0.00000000000E+00 -0.00000000000E+00 -0.30836657152E+03  0.30836657152E+03  0.00000000000E+00 0. -1.
         24    2    1    2    0    0  0.30605967894E+01 -0.47315469722E+02 -0.21416431410E+02  0.96048871179E+02  0.80737854769E+02 0.  0.
         24    2    1    2    0    0 -0.31283332231E+02 -0.33573735616E+02  0.13209803921E+03  0.16230294150E+03  0.82380278336E+02 0.  0.
         25    2    1    2    0    0 -0.42116869683E+02  0.60568501341E+02  0.18414195742E+04  0.18471310828E+04  0.12499925930E+03 0.  0.
        -11    1    3    3    0    0 -0.32845147026E+02 -0.47174812253E+02 -0.98117207771E+01  0.58314118864E+02  0.00000000000E+00 0.  1.
         12    1    3    3    0    0  0.35905743815E+02 -0.14065746912E+00 -0.11604710632E+02  0.37734752315E+02  0.00000000000E+00 0. -1.
        -13    1    4    4    0    0 -0.15423777119E+02  0.24016271889E+02  0.72528326200E+02  0.77942493657E+02  0.00000000000E+00 0.  1.
         14    1    4    4    0    0 -0.15859555112E+02 -0.57590007505E+02  0.59569713012E+02  0.84360447848E+02  0.00000000000E+00 0. -1.
          5    1    5    5  501    0 -0.52581520616E+02  0.80159262185E+02  0.84187111145E+03  0.84732483849E+03  0.47000000000E+01 0. -1.
         -5    1    5    5    0  501  0.10464650933E+02 -0.19590760844E+02  0.99954846276E+03  0.99980624435E+03  0.47000000000E+01 0. -1.
          1    1    1    2  502    0  0.53319781260E+02  0.29481733638E+01 -0.22851923776E+03  0.23467580366E+03  0.00000000000E+00 0. -1.
          1    1    1    2  503    0  0.17019823865E+02  0.17372530633E+02  0.18909838704E+04  0.18911402585E+04  0.00000000000E+00 0. -1.
<mgrwt>
<rscale>  0 0.36047162E+02</rscale>
<asrwt>0</asrwt>
<pdfrwt beam="1">  1        2 0.57690179E+00 0.24320346E+02</pdfrwt>
<pdfrwt beam="2">  1        2 0.45348028E-01 0.53428429E+02</pdfrwt>
<totfact> 0.19507028E+01</totfact>
</mgrwt>
</event>
<event>
13    1  0.1942437E-008  0.3638285E+02  0.7546771E-02  0.1724751E+00
          2   -1    0    0  503    0  0.00000000000E+00  0.00000000000E+00  0.67931344501E+03  0.67931344501E+03  0.00000000000E+00 0. -1.
          2   -1    0    0  502    0 -0.00000000000E+00 -0.00000000000E+00 -0.11161712834E+04  0.11161712834E+04  0.00000000000E+00 0. -1.
         24    2    1    2    0    0  0.13033249620E+03 -0.27921182588E+03 -0.45302039360E+03  0.55405072637E+03  0.82455606821E+02 0.  0.
         24    2    1    2    0    0 -0.74507023795E+01  0.10720992423E+03  0.76644910550E+02  0.15498719991E+03  0.81222589242E+02 0.  0.
         25    2    1    2    0    0 -0.12774894796E+03  0.13878172955E+03  0.17622980607E+03  0.28681465093E+03  0.12500214909E+03 0.  0.
        -11    1    4    4    0    0  0.28069918928E+02  0.97153817783E+01  0.26217387307E+02  0.39618939776E+02  0.00000000000E+00 0.  1.
         12    1    4    4    0    0 -0.35520621308E+02  0.97494542447E+02  0.50427523243E+02  0.11536826013E+03  0.00000000000E+00 0. -1.
        -13    1    3    3    0    0  0.10748139012E+03 -0.13668207875E+03 -0.26626754304E+03  0.31801359146E+03  0.00000000000E+00 0.  1.
         14    1    3    3    0    0  0.22851106078E+02 -0.14252974713E+03 -0.18675285056E+03  0.23603713491E+03  0.00000000000E+00 0. -1.
          5    1    5    5  501    0 -0.12567721417E+03  0.15315521444E+03  0.12725107195E+03  0.23551264761E+03  0.47000000000E+01 0.  1.
         -5    1    5    5    0  501 -0.20717337946E+01 -0.14373484887E+02  0.48978734120E+02  0.51302003321E+02  0.47000000000E+01 0.  1.
          1    1    1    2  502    0 -0.70879778873E+01  0.35693509480E+02 -0.51740039579E+03  0.51867854748E+03  0.00000000000E+00 0. -1.
          1    1    1    2  503    0  0.11955132030E+02 -0.24733373775E+01  0.28068823434E+03  0.28095360378E+03  0.00000000000E+00 0. -1.
<mgrwt>
<rscale>  0 0.21075405E+02</rscale>
<asrwt>0</asrwt>
<pdfrwt beam="1">  1        2 0.99899037E-01 0.12208300E+02</pdfrwt>
<pdfrwt beam="2">  1        2 0.16414283E+00 0.36382846E+02</pdfrwt>
<totfact> 0.20702942E+02</totfact>
</mgrwt>
</event>
<event>
13    1  0.1942437E-008  0.7540336E+02  0.7546771E-02  0.1350271E+00
          4   -1    0    0  503    0 -0.00000000000E+00  0.00000000000E+00  0.13173089850E+04  0.13173089850E+04  0.00000000000E+00 0. -1.
          2   -1    0    0  502    0  0.00000000000E+00 -0.00000000000E+00 -0.16713258235E+04  0.16713258235E+04  0.00000000000E+00 0. -1.
         24    2    1    2    0    0 -0.10250443078E+03  0.15014919881E+03 -0.11960676646E+03  0.23180543610E+03  0.79850118292E+02 0.  0.
         24    2    1    2    0    0  0.52166500625E+02 -0.10508833594E+03 -0.17656388242E+03  0.22701560788E+03  0.81218098405E+02 0.  0.
         25    2    1    2    0    0 -0.25262762870E+01  0.68948876069E+02 -0.58316276231E+03  0.60038485289E+03  0.12499133830E+03 0.  0.
        -11    1    4    4    0    0  0.43017818023E+02 -0.95249349923E+01 -0.76955433909E+02  0.88675790733E+02  0.00000000000E+00 0.  1.
         12    1    4    4    0    0  0.91486826022E+01 -0.95563400945E+02 -0.99608448508E+02  0.13833981714E+03  0.00000000000E+00 0. -1.
        -11    1    3    3    0    0 -0.15537964114E+02  0.84419831048E+02 -0.75118258786E+02  0.11406528396E+03  0.00000000000E+00 0.  1.
         12    1    3    3    0    0 -0.86966466662E+02  0.65729367758E+02 -0.44488507676E+02  0.11774015214E+03  0.00000000000E+00 0. -1.
          5    1    5    5  501    0  0.75314582046E+01  0.59909961117E+02 -0.99312040611E+02  0.11632238699E+03  0.47000000000E+01 0. -1.
         -5    1    5    5    0  501 -0.10057734492E+02  0.90389149520E+01 -0.48385072170E+03  0.48406246591E+03  0.47000000000E+01 0. -1.
          1    1    1    2  502    0  0.58942251283E+02 -0.38892513821E+02 -0.69911891648E+03  0.70267636647E+03  0.00000000000E+00 0. -1.
          3    1    1    2  503    0 -0.60780448449E+01 -0.75117225117E+02  0.12244354891E+04  0.12267525452E+04  0.00000000000E+00 0. -1.
<mgrwt>
<rscale>  0 0.72971154E+02</rscale>
<asrwt>0</asrwt>
<pdfrwt beam="2">  1        2 0.24578321E+00 0.70617396E+02</pdfrwt>
<pdfrwt beam="1">  1        4 0.19372191E+00 0.75403365E+02</pdfrwt>
<totfact> 0.11533983E+00</totfact>
</mgrwt>
</event>
<event>
13    1  0.1942437E-008  0.1371462E+03  0.7546771E-02  0.1327689E+00
          2   -1    0    0  503    0  0.00000000000E+00  0.00000000000E+00  0.11602268362E+04  0.11602268362E+04  0.00000000000E+00 0. -1.
          2   -1    0    0  502    0 -0.00000000000E+00 -0.00000000000E+00 -0.29382290998E+03  0.29382290998E+03  0.00000000000E+00 0. -1.
         24    2    1    2    0    0 -0.72072727462E+02 -0.56257829676E+02 -0.56050573199E+02  0.13431236737E+03  0.80862375852E+02 0.  0.
         24    2    1    2    0    0 -0.54621365616E+02  0.36335065634E+02  0.13286940035E+03  0.16877522358E+03  0.80790271502E+02 0.  0.
         25    2    1    2    0    0  0.21249580347E+03  0.64819475780E+02  0.14663295229E+03  0.29406034910E+03  0.12495693371E+03 0.  0.
        -13    1    3    3    0    0 -0.11424543027E+02 -0.56985705147E+02 -0.42933314914E+02  0.72257596860E+02  0.00000000000E+00 0.  1.
         14    1    3    3    0    0 -0.60648184435E+02  0.72787547028E+00 -0.13117258285E+02  0.62054770508E+02  0.00000000000E+00 0. -1.
        -13    1    4    4    0    0 -0.28705531080E+02  0.34414340783E+02  0.13543983168E+03  0.14266149576E+03  0.00000000000E+00 0.  1.
         14    1    4    4    0    0 -0.25915834537E+02  0.19207248508E+01 -0.25704313298E+01  0.26113727825E+02  0.00000000000E+00 0. -1.
          5    1    5    5  501    0  0.24584697347E+02  0.12001956547E+01 -0.22227067713E+02  0.33495975167E+02  0.47000000000E+01 0.  1.
         -5    1    5    5    0  501  0.18791110613E+03  0.63619280126E+02  0.16886002000E+03  0.26056437394E+03  0.47000000000E+01 0.  1.
          1    1    1    2  502    0  0.43716261425E+02  0.17875200944E+02 -0.94441738564E+02  0.10559297469E+03  0.00000000000E+00 0. -1.
          1    1    1    2  503    0 -0.12951797182E+03 -0.62771912682E+02  0.73739388531E+03  0.75130883140E+03  0.00000000000E+00 0. -1.
<mgrwt>
<rscale>  0 0.80482039E+02</rscale>
<asrwt>0</asrwt>
<pdfrwt beam="1">  1        2 0.17062159E+00 0.13714619E+03</pdfrwt>
<pdfrwt beam="2">  1        2 0.43209252E-01 0.47229592E+02</pdfrwt>
<totfact> 0.42115017E+02</totfact>
</mgrwt>
</event>
<event>
13    1  0.1942437E-008  0.1087327E+03  0.7546771E-02  0.1380291E+00
          2   -1    0    0  503    0  0.00000000000E+00  0.00000000000E+00  0.30063073740E+04  0.30063073740E+04  0.00000000000E+00 0. -1.
         -3   -1    0    0    0  501 -0.00000000000E+00 -0.00000000000E+00 -0.81808990623E+02  0.81808990623E+02  0.00000000000E+00 0.  1.
         24    2    1    2    0    0 -0.65374605679E+01 -0.58436401839E+01  0.87991888443E+01  0.78732215291E+02  0.77746057643E+02 0.  0.
         24    2    1    2    0    0 -0.31615018985E+02  0.89689682010E+01  0.52807377850E+03  0.53469175012E+03  0.77158280755E+02 0.  0.
         25    2    1    2    0    0  0.30204488687E+02 -0.12295572037E+03  0.74188961814E+03  0.76292638365E+03  0.12500416415E+03 0.  0.
        -13    1    4    4    0    0  0.17092514724E+02  0.26604273037E+02  0.22742653011E+03  0.22961438980E+03  0.00000000000E+00 0.  1.
         14    1    4    4    0    0 -0.48707533709E+02 -0.17635304836E+02  0.30064724839E+03  0.30507736032E+03  0.00000000000E+00 0. -1.
        -13    1    3    3    0    0 -0.42016217010E+01  0.34807996414E+02  0.13858859572E+02  0.37700374373E+02  0.00000000000E+00 0.  1.
         14    1    3    3    0    0 -0.23358388669E+01 -0.40651636597E+02 -0.50596707273E+01  0.41031840918E+02  0.00000000000E+00 0. -1.
          5    1    5    5  502    0  0.67609462076E+02 -0.23780252668E+02  0.29972606395E+03  0.30821152346E+03  0.47000000000E+01 0. -1.
         -5    1    5    5    0  502 -0.37404973388E+02 -0.99175467703E+02  0.44216355419E+03  0.45471486020E+03  0.47000000000E+01 0. -1.
          1    1    1    2  503    0 -0.26072172189E+02  0.10261566504E+03  0.16654714184E+04  0.16688333584E+04  0.00000000000E+00 0. -1.
         -4    1    1    2    0  501  0.34020163055E+02  0.17214727313E+02 -0.19735620480E+02  0.42932657109E+02  0.00000000000E+00 0.  1.
<mgrwt>
<rscale>  0 0.64387295E+02</rscale>
<asrwt>0</asrwt>
<pdfrwt beam="1">  1        2 0.44210395E+00 0.10873271E+03</pdfrwt>
<pdfrwt beam="2">  1       -3 0.12030736E-01 0.38127658E+02</pdfrwt>
<totfact> 0.77652218E+01</totfact>
</mgrwt>
</event>
<event>
13    1  0.1942437E-008  0.5547072E+02  0.7546771E-02  0.1440081E+00
          4   -1    0    0  503    0 -0.00000000000E+00  0.00000000000E+00  0.39381925450E+03  0.39381925450E+03  0.00000000000E+00 0. -1.
          2   -1    0    0  502    0  0.00000000000E+00 -0.00000000000E+00 -0.14521427580E+04  0.14521427580E+04  0.00000000000E+00 0. -1.
         24    2    1    2    0    0 -0.19611333997E+02  0.63478271916E+02  0.19109121648E+03  0.21764017838E+03  0.80232778868E+02 0.  0.
         24    2    1    2    0    0 -0.19925081241E+02  0.32135085552E+02 -0.64170321122E+02  0.10998967286E+03  0.80933463029E+02 0.  0.
         25    2    1    2    0    0 -0.78062151832E+01 -0.11294600135E+03 -0.32149404532E+03  0.36304695658E+03  0.12500774092E+03 0.  0.
        -13    1    3    3    0    0 -0.43897255222E+02  0.66498477794E+02  0.14780765231E+03  0.16791699928E+03  0.00000000000E+00 0.  1.
         14    1    3    3    0    0  0.24285921224E+02 -0.30202058785E+01  0.43283564165E+02  0.49723179102E+02  0.00000000000E+00 0. -1.
        -13    1    4    4    0    0  0.14639147141E+01  0.34148432830E+02 -0.77503010238E+02  0.84705224792E+02  0.00000000000E+00 0.  1.
         14    1    4    4    0    0 -0.21388995955E+02 -0.20133472783E+01  0.13332689116E+02  0.25284448072E+02  0.00000000000E+00 0. -1.
          5    1    5    5  501    0  0.31124769180E+02 -0.11613324596E+03 -0.28510593318E+03  0.30945624119E+03  0.47000000000E+01 0. -1.
         -5    1    5    5    0  501 -0.38930984363E+02  0.31872446082E+01 -0.36388112135E+02  0.53590715394E+02  0.47000000000E+01 0. -1.
          1    1    1    2  502    0  0.47043561152E+02 -0.29535243516E+02 -0.10049634357E+04  0.10064973594E+04  0.00000000000E+00 0. -1.
          3    1    1    2  503    0  0.29906926968E+00  0.46867887400E+02  0.14121308222E+03  0.14878784528E+03  0.00000000000E+00 0. -1.
<mgrwt>
<rscale>  0 0.50988710E+02</rscale>
<asrwt>0</asrwt>
<pdfrwt beam="2">  1        2 0.21355041E+00 0.55470724E+02</pdfrwt>
<pdfrwt beam="1">  1        4 0.57914596E-01 0.46868842E+02</pdfrwt>
<totfact> 0.23918448E+01</totfact>
</mgrwt>
</event>
<event>
13    1  0.1942437E-008  0.2833339E+02  0.7546771E-02  0.1640415E+00
          2   -1    0    0  503    0  0.00000000000E+00  0.00000000000E+00  0.25731848328E+04  0.25731848328E+04  0.00000000000E+00 0. -1.
          2   -1    0    0  502    0 -0.00000000000E+00 -0.00000000000E+00 -0.24325917159E+04  0.24325917159E+04  0.00000000000E+00 0. -1.
         24    2    1    2    0    0  0.65524845172E+02  0.51153063505E+03 -0.64429984600E+02  0.52622627573E+03  0.82497117671E+02 0.  0.
         24    2    1    2    0    0 -0.10936208767E+03 -0.62193669630E+03  0.73518009636E+03  0.97322458062E+03  0.88943745194E+02 0.  0.
         25    2    1    2    0    0  0.27143275770E+02  0.14493879023E+03  0.33054203084E+03  0.38291848789E+03  0.12499809551E+03 0.  0.
        -11    1    3    3    0    0  0.70849485658E+02  0.25147624536E+03 -0.47658269682E+02  0.26557722468E+03  0.00000000000E+00 0.  1.
         12    1    3    3    0    0 -0.53246404863E+01  0.26005438969E+03 -0.16771714918E+02  0.26064905105E+03  0.00000000000E+00 0. -1.
        -13    1    4    4    0    0 -0.29174575578E+02 -0.11788867591E+03  0.19771084190E+03  0.23203118923E+03  0.00000000000E+00 0.  1.
         14    1    4    4    0    0 -0.80187512096E+02 -0.50404802039E+03  0.53746925446E+03  0.74119339139E+03  0.00000000000E+00 0. -1.
          5    1    5    5  501    0  0.74660908876E+02  0.69394410555E+02  0.20272117184E+03  0.22695329705E+03  0.47000000000E+01 0. -1.
         -5    1    5    5    0  501 -0.47517633106E+02  0.75544379672E+02  0.12782085901E+03  0.15596519084E+03  0.47000000000E+01 0. -1.
          1    1    1    2  502    0 -0.70456435341E+01 -0.27443324174E+02 -0.19918167084E+04  0.19920182171E+04  0.00000000000E+00 0. -1.
          1    1    1    2  503    0  0.23739610266E+02 -0.70894047980E+01  0.11311176827E+04  0.11313889874E+04  0.00000000000E+00 0. -1.
<mgrwt>
<rscale>  0 0.26494826E+02</rscale>
<asrwt>0</asrwt>
<pdfrwt beam="1">  1        2 0.37840953E+00 0.24775568E+02</pdfrwt>
<pdfrwt beam="2">  1        2 0.35773408E+00 0.28333389E+02</pdfrwt>
<totfact> 0.61562395E+00</totfact>
</mgrwt>
</event>
<event>
13    1  0.1942437E-008  0.4197547E+02  0.7546771E-02  0.1594937E+00
          2   -1    0    0  502    0  0.00000000000E+00  0.00000000000E+00  0.45292565836E+04  0.45292565836E+04  0.00000000000E+00 0. -1.
          4   -1    0    0  503    0 -0.00000000000E+00 -0.00000000000E+00 -0.64176277061E+03  0.64176277061E+03  0.00000000000E+00 0. -1.
         24    2    1    2    0    0 -0.48635646077E+02  0.11307015837E+03 -0.12963566621E+03  0.19670696210E+03  0.82084932859E+02 0.  0.
         24    2    1    2    0    0  0.31212620335E+02 -0.91153037353E+02  0.10762138045E+03  0.16568694370E+03  0.81158473975E+02 0.  0.
         25    2    1    2    0    0  0.88040727362E+00 -0.70672841638E+02  0.34180340643E+03  0.37074605118E+03  0.12501056017E+03 0.  0.
        -13    1    4    4    0    0 -0.20313889973E+02 -0.45615259671E+02  0.73666625837E+02  0.88995380795E+02  0.00000000000E+00 0.  1.
         14    1    4    4    0    0  0.51526510308E+02 -0.45537777682E+02  0.33954754609E+02  0.76691562908E+02  0.00000000000E+00 0. -1.
        -13    1    3    3    0    0 -0.11124328684E+02  0.10900930155E+03 -0.88164647719E+02  0.14064061867E+03  0.00000000000E+00 0.  1.
         14    1    3    3    0    0 -0.37511317393E+02  0.40608568159E+01 -0.41471018491E+02  0.56066343427E+02  0.00000000000E+00 0. -1.
          5    1    5    5  501    0  0.50672922989E+02 -0.25856896796E+02  0.67784380760E+02  0.88617924322E+02  0.47000000000E+01 0. -1.
         -5    1    5    5    0  501 -0.49792515715E+02 -0.44815944842E+02  0.27401902567E+03  0.28212812685E+03  0.47000000000E+01 0. -1.
          1    1    1    2  502    0  0.28719324097E+02  0.30609166235E+02  0.40024075269E+04  0.40026276035E+04  0.00000000000E+00 0. -1.
          3    1    1    2  503    0 -0.12176705629E+02  0.18146554390E+02 -0.43470283457E+03  0.43525179377E+03  0.00000000000E+00 0. -1.
<mgrwt>
<rscale>  0 0.30287047E+02</rscale>
<asrwt>0</asrwt>
<pdfrwt beam="1">  1        2 0.66606712E+00 0.41975466E+02</pdfrwt>
<pdfrwt beam="2">  1        4 0.94376881E-01 0.21853366E+02</pdfrwt>
<totfact> 0.16736232E-01</totfact>
</mgrwt>
</event>
<event>
13    1  0.1942437E-008  0.3666515E+03  0.7546771E-02  0.1201535E+00
          2   -1    0    0  503    0  0.00000000000E+00  0.00000000000E+00  0.10930180687E+04  0.10930180687E+04  0.00000000000E+00 0. -1.
          2   -1    0    0  502    0 -0.00000000000E+00 -0.00000000000E+00 -0.35434940878E+04  0.35434940878E+04  0.00000000000E+00 0. -1.
         24    2    1    2    0    0  0.10411776226E+03 -0.22423101550E+03 -0.12858633931E+04  0.13119709266E+04  0.81871789151E+02 0.  0.
         24    2    1    2    0    0  0.79806431970E+01  0.14544051038E+02 -0.61308613612E+02  0.10205322828E+03  0.79880505836E+02 0.  0.
         25    2    1    2    0    0  0.82873060037E+02 -0.12581568841E+03  0.15508780914E+03  0.24974835139E+03  0.12499791577E+03 0.  0.
        -11    1    4    4    0    0 -0.18968307478E+02 -0.17102189703E+00  0.12087785254E+02  0.22493120935E+02  0.00000000000E+00 0.  1.
         12    1    4    4    0    0  0.26948950675E+02  0.14715072935E+02 -0.73396398867E+02  0.79560107344E+02  0.00000000000E+00 0. -1.
        -13    1    3    3    0    0 -0.29919957043E+01  0.48422682957E+01 -0.61681293984E+02  0.61943374368E+02  0.00000000000E+00 0.  1.
         14    1    3    3    0    0  0.10710975797E+03 -0.22907328380E+03 -0.12241820991E+04  0.12500275523E+04  0.00000000000E+00 0. -1.
          5    1    5    5  501    0 -0.27551718678E+02 -0.47825913387E+02  0.20885017711E+02  0.59200415186E+02  0.47000000000E+01 0.  1.
         -5    1    5    5    0  501  0.11042477872E+03 -0.77989775023E+02  0.13420279143E+03  0.19054793620E+03  0.47000000000E+01 0.  1.
          1    1    1    2  502    0  0.37967565556E+02  0.47312903998E+02 -0.20750532984E+04  0.20759398446E+04  0.00000000000E+00 0. -1.
          1    1    1    2  503    0 -0.23293903105E+03  0.28818974888E+03  0.81666147692E+03  0.89679980566E+03  0.00000000000E+00 0. -1.
<mgrwt>
<rscale>  0 0.14913861E+03</rscale>
<asrwt>0</asrwt>
<pdfrwt beam="1">  1        2 0.16073795E+00 0.36665151E+03</pdfrwt>
<pdfrwt beam="2">  1        2 0.52110207E+00 0.60663390E+02</pdfrwt>
<totfact> 0.59689098E+00</totfact>
</mgrwt>
</event>
<event>
13    1  0.1942437E-008  0.6793969E+02  0.7546771E-02  0.1398341E+00
          2   -1    0    0  503    0  0.00000000000E+00  0.00000000000E+00  0.20959418540E+03  0.20959418540E+03  0.00000000000E+00 0. -1.
          2   -1    0    0  502    0 -0.00000000000E+00 -0.00000000000E+00 -0.16544683419E+04  0.16544683419E+04  0.00000000000E+00 0. -1.
         24    2    1    2    0    0 -0.67708468837E+02 -0.18773223245E+02 -0.92352064181E+03  0.92997255073E+03  0.83795576245E+02 0.  0.
         24    2    1    2    0    0 -0.15583304457E+02  0.17354538455E+02 -0.38215689969E+02  0.77215361229E+02  0.62910680072E+02 0.  0.
         25    2    1    2    0    0 -0.24254036374E+02 -0.70327323023E+01  0.48141303867E+02  0.13631265529E+03  0.12500334895E+03 0.  0.
        -13    1    4    4    0    0 -0.20338290822E+02  0.33778455765E+02 -0.44078234869E+02  0.59139842210E+02  0.00000000000E+00 0.  1.
         14    1    4    4    0    0  0.47549863651E+01 -0.16423917309E+02  0.58625448999E+01  0.18075519019E+02  0.00000000000E+00 0. -1.
        -13    1    3    3    0    0 -0.15644811479E+02  0.30887983757E+00 -0.23425891095E+02  0.28171402283E+02  0.00000000000E+00 0.  1.
         14    1    3    3    0    0 -0.52063657358E+02 -0.19082103082E+02 -0.90009475072E+03  0.90180114845E+03  0.00000000000E+00 0. -1.
          5    1    5    5  501    0  0.25870574087E+02 -0.19882263929E+02 -0.28596034688E+02  0.43639594664E+02  0.47000000000E+01 0. -1.
         -5    1    5    5    0  501 -0.50124610462E+02  0.12849531627E+02  0.76737338555E+02  0.92673060624E+02  0.47000000000E+01 0. -1.
          1    1    1    2  502    0  0.59863816305E+02  0.31069096804E+02 -0.61657874066E+03  0.62025664745E+03  0.00000000000E+00 0. -1.
          1    1    1    2  503    0  0.47681993364E+02 -0.22617679713E+02  0.85299612038E+02  0.10030531262E+03  0.00000000000E+00 0. -1.
<mgrwt>
<rscale>  0 0.59878819E+02</rscale>
<asrwt>0</asrwt>
<pdfrwt beam="1">  1        2 0.30822675E-01 0.52774349E+02</pdfrwt>
<pdfrwt beam="2">  1        2 0.24330416E+00 0.67939692E+02</pdfrwt>
<totfact> 0.35417733E+02</totfact>
</mgrwt>
</event>
<event>
13    1  0.1942437E-008  0.1669100E+03  0.7546771E-02  0.1243004E+00
          2   -1    0    0  502    0  0.00000000000E+00  0.00000000000E+00  0.46406920843E+04  0.46406920843E+04  0.00000000000E+00 0. -1.
          2   -1    0    0  503    0 -0.00000000000E+00 -0.00000000000E+00 -0.99452878952E+03  0.99452878952E+03  0.00000000000E+00 0. -1.
         24    2    1    2    0    0  0.17222227052E+03  0.20709926248E+03 -0.15569556960E+03  0.32201685106E+03  0.83085058741E+02 0.  0.
         24    2    1    2    0    0 -0.34213582024E+02 -0.62138235503E+02 -0.25370820786E+02  0.11041807442E+03  0.80726347035E+02 0.  0.
         25    2    1    2    0    0  0.30584343895E+02  0.67106031250E+00  0.89237729067E+03  0.90160894745E+03  0.12500245118E+03 0.  0.
        -11    1    3    3    0    0  0.55219410251E+00  0.33270735646E+02 -0.39005393481E+02  0.51270532368E+02  0.00000000000E+00 0.  1.
         12    1    3    3    0    0  0.17167007642E+03  0.17382852683E+03 -0.11669017612E+03  0.27074631869E+03  0.00000000000E+00 0. -1.
        -13    1    4    4    0    0 -0.14650000766E+02 -0.72719078062E+02  0.31537461241E+01  0.74247107360E+02  0.00000000000E+00 0.  1.
         14    1    4    4    0    0 -0.19563581258E+02  0.10580842559E+02 -0.28524566910E+02  0.36170967063E+02  0.00000000000E+00 0. -1.
          5    1    5    5  501    0 -0.42543268857E+02  0.25971365155E+02  0.29426753830E+03  0.29849608981E+03  0.47000000000E+01 0.  1.
         -5    1    5    5    0  501  0.73127612752E+02 -0.25300304842E+02  0.59810975237E+03  0.60311285764E+03  0.47000000000E+01 0.  1.
          1    1    1    2  502    0  0.46822533081E+02 -0.72559716063E+02  0.35985470643E+04  0.35995830642E+04  0.00000000000E+00 0. -1.
          1    1    1    2  503    0 -0.21541556547E+03 -0.73072371227E+02 -0.66369466981E+03  0.70159393670E+03  0.00000000000E+00 0. -1.
<mgrwt>
<rscale>  0 0.12005661E+03</rscale>
<asrwt>0</asrwt>
<pdfrwt beam="1">  1        2 0.68245471E+00 0.86355440E+02</pdfrwt>
<pdfrwt beam="2">  1        2 0.14625424E+00 0.16691004E+03</pdfrwt>
<totfact> 0.11462055E+00</totfact>
</mgrwt>
</event>
<event>
13    1  0.1942437E-008  0.9323559E+02  0.7546771E-02  0.1380409E+00
          2   -1    0    0  503    0  0.00000000000E+00  0.00000000000E+00  0.89264426379E+03  0.89264426379E+03  0.00000000000E+00 0. -1.
          2   -1    0    0  502    0 -0.00000000000E+00 -0.00000000000E+00 -0.16558300851E+04  0.16558300851E+04  0.00000000000E+00 0. -1.
         24    2    1    2    0    0  0.21169912086E+02 -0.44783367717E+02 -0.24495774102E+03  0.26237040358E+03  0.79876270489E+02 0.  0.
         24    2    1    2    0    0  0.30777076877E+02  0.44659670087E+02 -0.27276041690E+03  0.28958550709E+03  0.80745317472E+02 0.  0.
         25    2    1    2    0    0 -0.13853441623E+03 -0.79020903718E+02 -0.34445699900E+03  0.39963989939E+03  0.12500134927E+03 0.  0.
        -11    1    4    4    0    0  0.40009281823E+02  0.28375916218E+02 -0.26469783014E+03  0.26920415400E+03  0.00000000000E+00 0.  1.
         12    1    4    4    0    0 -0.92322049460E+01  0.16283753869E+02 -0.80625867640E+01  0.20381353085E+02  0.00000000000E+00 0. -1.
        -13    1    3    3    0    0  0.35444900920E+02 -0.61290005538E+02 -0.16636497857E+03  0.18080407041E+03  0.00000000000E+00 0.  1.
         14    1    3    3    0    0 -0.14274988833E+02  0.16506637821E+02 -0.78592762443E+02  0.81566333169E+02  0.00000000000E+00 0. -1.
          5    1    5    5  501    0  0.39864708648E+01 -0.56698051744E+02 -0.78340649241E+02  0.96901539435E+02  0.47000000000E+01 0.  1.
         -5    1    5    5    0  501 -0.14252088710E+03 -0.22322851974E+02 -0.26611634976E+03  0.30273835995E+03  0.47000000000E+01 0.  1.
          1    1    1    2  502    0  0.14128776424E+00  0.44422214983E+02 -0.74572289155E+03  0.74704483408E+03  0.00000000000E+00 0. -1.
          1    1    1    2  503    0  0.86446139506E+02  0.34722386365E+02  0.84471222713E+03  0.84983370479E+03  0.00000000000E+00 0. -1.
<mgrwt>
<rscale>  0 0.64356449E+02</rscale>
<asrwt>0</asrwt>
<pdfrwt beam="1">  1        2 0.13127122E+00 0.93235593E+02</pdfrwt>
<pdfrwt beam="2">  1        2 0.24350442E+00 0.44422440E+02</pdfrwt>
<totfact> 0.76706801E+01</totfact>
</mgrwt>
</event>
<event>
13    1  0.1942437E-008  0.1225689E+03  0.7546771E-02  0.1283287E+00
          2   -1    0    0  503    0  0.00000000000E+00  0.00000000000E+00  0.14316232114E+04  0.14316232114E+04  0.00000000000E+00 0. -1.
          2   -1    0    0  502    0 -0.00000000000E+00 -0.00000000000E+00 -0.38639044477E+04  0.38639044477E+04  0.00000000000E+00 0. -1.
         24    2    1    2    0    0 -0.20360406747E+03 -0.24362942502E+02 -0.28566289142E+03  0.36110352510E+03  0.82123681423E+02 0.  0.
         24    2    1    2    0    0  0.10116023494E+04 -0.53112446072E+03 -0.59188816947E+03  0.12891780362E+04  0.78840964341E+02 0.  0.
         25    2    1    2    0    0 -0.88876729962E+03  0.40495704260E+03  0.31692316307E+03  0.10343883881E+04  0.12498610722E+03 0.  0.
        -11    1    3    3    0    0 -0.53041563767E+02  0.25931942478E+02 -0.52338712556E+02  0.78900025092E+02  0.00000000000E+00 0.  1.
         12    1    3    3    0    0 -0.15056250370E+03 -0.50294884980E+02 -0.23332417886E+03  0.28220350001E+03  0.00000000000E+00 0. -1.
        -13    1    4    4    0    0  0.33443217277E+03 -0.15802078418E+03 -0.22959946079E+03  0.43535199415E+03  0.00000000000E+00 0.  1.
         14    1    4    4    0    0  0.67717017665E+03 -0.37310367654E+03 -0.36228870868E+03  0.85382604202E+03  0.00000000000E+00 0. -1.
          5    1    5    5  501    0 -0.25890885400E+03  0.65075933805E+02  0.11506938279E+03  0.29074340009E+03  0.47000000000E+01 0. -1.
         -5    1    5    5    0  501 -0.62985844561E+03  0.33988110880E+03  0.20185378028E+03  0.74364498804E+03  0.47000000000E+01 0. -1.
          1    1    1    2  502    0  0.66454246774E+01  0.12233771099E+03 -0.22353045814E+04  0.22386596992E+04  0.00000000000E+00 0. -1.
          1    1    1    2  503    0  0.74123592983E+02  0.28192649629E+02  0.36365124290E+03  0.37219801047E+03  0.00000000000E+00 0. -1.
<mgrwt>
<rscale>  0 0.98591111E+02</rscale>
<asrwt>0</asrwt>
<pdfrwt beam="1">  1        2 0.21053283E+00 0.79304051E+02</pdfrwt>
<pdfrwt beam="2">  1        2 0.56822124E+00 0.12256886E+03</pdfrwt>
<totfact> 0.23934293E+00</totfact>
</mgrwt>
</event>
<event>
13    1  0.1942437E-008  0.9509931E+02  0.7546771E-02  0.1357687E+00
          2   -1    0    0  503    0  0.00000000000E+00  0.00000000000E+00  0.17617144298E+04  0.17617144298E+04  0.00000000000E+00 0. -1.
          2   -1    0    0  502    0 -0.00000000000E+00 -0.00000000000E+00 -0.13067446858E+04  0.13067446858E+04  0.00000000000E+00 0. -1.
         24    2    1    2    0    0  0.31184768027E+02 -0.21795817842E+02 -0.12923916346E+03  0.15759226853E+03  0.81761936717E+02 0.  0.
         24    2    1    2    0    0 -0.50556922792E+02 -0.54873835837E+02 -0.79799511566E+01  0.11087288556E+03  0.81620933775E+02 0.  0.
         25    2    1    2    0    0 -0.34598614663E+02 -0.49376040619E+02  0.64485015014E+02  0.15302993365E+03  0.12499914363E+03 0.  0.
        -11    1    3    3    0    0  0.16385301686E+01 -0.49532821848E+02 -0.67484265798E+02  0.83727602090E+02  0.00000000000E+00 0.  1.
         12    1    3    3    0    0  0.29546237858E+02  0.27737004007E+02 -0.61754897666E+02  0.73864666442E+02  0.00000000000E+00 0. -1.
        -13    1    4    4    0    0  0.21585898392E+02 -0.23513212474E+02 -0.26073843883E+01  0.32025312232E+02  0.00000000000E+00 0.  1.
         14    1    4    4    0    0 -0.72142821183E+02 -0.31360623364E+02 -0.53725667682E+01  0.78847573328E+02  0.00000000000E+00 0. -1.
          5    1    5    5  501    0  0.14261799337E+02  0.29804092597E+02 -0.87827047536E+01  0.34509545906E+02  0.47000000000E+01 0.  1.
         -5    1    5    5    0  501 -0.48860414000E+02 -0.79180133216E+02  0.73267719767E+02  0.11852038775E+03  0.47000000000E+01 0.  1.
          1    1    1    2  502    0  0.65112041649E+02  0.74660596431E+02 -0.10568777145E+04  0.10615103796E+04  0.00000000000E+00 0. -1.
          1    1    1    2  503    0 -0.11141272221E+02  0.51385097868E+02  0.15845815582E+04  0.15854536482E+04  0.00000000000E+00 0. -1.
<mgrwt>
<rscale>  0 0.70712313E+02</rscale>
<asrwt>0</asrwt>
<pdfrwt beam="1">  1        2 0.25907565E+00 0.52579047E+02</pdfrwt>
<pdfrwt beam="2">  1        2 0.19216834E+00 0.95099312E+02</pdfrwt>
<totfact> 0.39717769E+01</totfact>
</mgrwt>
</event>
<event>
13    1  0.1942437E-008  0.1643520E+03  0.7546771E-02  0.1410614E+00
          2   -1    0    0  502    0  0.00000000000E+00  0.00000000000E+00  0.18728487553E+04  0.18728487553E+04  0.00000000000E+00 0. -1.
          2   -1    0    0  503    0 -0.00000000000E+00 -0.00000000000E+00 -0.22818516237E+03  0.22818516237E+03  0.00000000000E+00 0. -1.
         24    2    1    2    0    0  0.14204198359E+03 -0.11015973684E+03  0.15191590351E+03  0.24868139101E+03  0.80329943184E+02 0.  0.
         24    2    1    2    0    0 -0.12340639283E+03 -0.87488155622E+02  0.64471918523E+02  0.18209715323E+03  0.78226784246E+02 0.  0.
         25    2    1    2    0    0  0.96843587641E+02  0.57334332573E+02  0.24709651932E+03  0.29891329385E+03  0.12500624473E+03 0.  0.
        -11    1    4    4    0    0 -0.11285081838E+03 -0.42541689039E+02  0.29447312592E+02  0.12414607015E+03  0.00000000000E+00 0.  1.
         12    1    4    4    0    0 -0.10555574451E+02 -0.44946466583E+02  0.35024605931E+02  0.57951083086E+02  0.00000000000E+00 0. -1.
        -13    1    3    3    0    0  0.16359578459E+01 -0.36659340144E+02  0.16536288395E+02  0.40249626231E+02  0.00000000000E+00 0.  1.
         14    1    3    3    0    0  0.14040602574E+03 -0.73500396696E+02  0.13537961511E+03  0.20843176478E+03  0.00000000000E+00 0. -1.
          5    1    5    5  501    0  0.33346586197E+02 -0.13936729372E+02  0.27590920865E+01  0.36550373811E+02  0.47000000000E+01 0.  1.
         -5    1    5    5    0  501  0.63497001443E+02  0.71271061945E+02  0.24433742724E+03  0.26236292004E+03  0.47000000000E+01 0.  1.
          1    1    1    2  502    0 -0.15318016834E+02  0.12558614396E+02  0.12068279562E+04  0.12069905039E+04  0.00000000000E+00 0. -1.
          1    1    1    2  503    0 -0.10016116157E+03  0.12775494549E+03 -0.25648704686E+02  0.16435157570E+03  0.00000000000E+00 0. -1.
<mgrwt>
<rscale>  0 0.57056978E+02</rscale>
<asrwt>0</asrwt>
<pdfrwt beam="1">  1        2 0.27541893E+00 0.19808090E+02</pdfrwt>
<pdfrwt beam="2">  1        2 0.33556643E-01 0.16435198E+03</pdfrwt>
<totfact> 0.29866710E+02</totfact>
</mgrwt>
</event>
<event>
13    1  0.1942437E-008  0.9582425E+02  0.7546771E-02  0.1392091E+00
          2   -1    0    0  502    0  0.00000000000E+00  0.00000000000E+00  0.19478181479E+04  0.19478181479E+04  0.00000000000E+00 0. -1.
          2   -1    0    0  503    0 -0.00000000000E+00 -0.00000000000E+00 -0.19028490720E+04  0.19028490720E+04  0.00000000000E+00 0. -1.
         24    2    1    2    0    0  0.44654119151E+02 -0.88816075417E+02 -0.33678825945E+03  0.36036309395E+03  0.80950245009E+02 0.  0.
         24    2    1    2    0    0  0.50165581191E+01  0.60589998586E+02 -0.40658710756E+03  0.41850448683E+03  0.78336553950E+02 0.  0.
         25    2    1    2    0    0  0.76853182389E+02  0.20825518967E+02  0.18706466192E+03  0.23865783942E+03  0.12499705075E+03 0.  0.
        -11    1    4    4    0    0  0.35457613346E+02  0.52821526355E+02 -0.21007259182E+03  0.21949453257E+03  0.00000000000E+00 0.  1.
         12    1    4    4    0    0 -0.30441055227E+02  0.77684722310E+01 -0.19651451573E+03  0.19900995427E+03  0.00000000000E+00 0. -1.
        -11    1    3    3    0    0 -0.56675664477E+01 -0.37455806569E+01 -0.13983673687E+03  0.14000165593E+03  0.00000000000E+00 0.  1.
         12    1    3    3    0    0  0.50321685598E+02 -0.85070494760E+02 -0.19695152258E+03  0.22036143802E+03  0.00000000000E+00 0. -1.
          5    1    5    5  501    0 -0.30414340216E+02 -0.11519780067E+02  0.65442143012E+02  0.73229102859E+02  0.47000000000E+01 0. -1.
         -5    1    5    5    0  501  0.10726752261E+03  0.32345299034E+02  0.12162251891E+03  0.16542873656E+03  0.47000000000E+01 0. -1.
          1    1    1    2  502    0 -0.94521003992E+02 -0.15459876365E+02  0.17155280987E+04  0.17181996058E+04  0.00000000000E+00 0. -1.
          1    1    1    2  503    0 -0.32002855667E+02  0.22860434228E+02 -0.11142483177E+04  0.11149421939E+04  0.00000000000E+00 0. -1.
<mgrwt>
<rscale>  0 0.61389628E+02</rscale>
<asrwt>0</asrwt>
<pdfrwt beam="1">  1        2 0.28644384E+00 0.95824248E+02</pdfrwt>
<pdfrwt beam="2">  1        2 0.27983075E+00 0.39329152E+02</pdfrwt>
<totfact> 0.17080046E+01</totfact>
</mgrwt>
</event>
<event>
13    1  0.1942437E-008  0.9840601E+02  0.7546771E-02  0.1289105E+00
          2   -1    0    0  503    0  0.00000000000E+00  0.00000000000E+00  0.11813709760E+04  0.11813709760E+04  0.00000000000E+00 0. -1.
          2   -1    0    0  502    0 -0.00000000000E+00 -0.00000000000E+00 -0.20512589511E+04  0.20512589511E+04  0.00000000000E+00 0. -1.
         24    2    1    2    0    0 -0.12847681291E+02  0.44401933177E+02 -0.11762430517E+03  0.14617161764E+03  0.73444333019E+02 0.  0.
         24    2    1    2    0    0  0.38548625604E+01 -0.12618336635E+02 -0.11205894714E+03  0.13629884275E+03  0.76459692109E+02 0.  0.
         25    2    1    2    0    0 -0.94510780940E+02  0.28849345394E+02  0.26136083628E+03  0.30611021228E+03  0.12501761028E+03 0.  0.
        -13    1    3    3    0    0 -0.33850527665E+02  0.41343937995E+02 -0.42997847903E+02  0.68585671655E+02  0.00000000000E+00 0.  1.
         14    1    3    3    0    0  0.21002846374E+02  0.30579951823E+01 -0.74626457265E+02  0.77585945984E+02  0.00000000000E+00 0. -1.
        -13    1    4    4    0    0 -0.27413164264E+02 -0.30871092417E+02 -0.63116483459E+02  0.75420132631E+02  0.00000000000E+00 0.  1.
         14    1    4    4    0    0  0.31268026824E+02  0.18252755782E+02 -0.48942463678E+02  0.60878710121E+02  0.00000000000E+00 0. -1.
          5    1    5    5  501    0 -0.20753840676E+02  0.49400908993E+02  0.20221171120E+03  0.20924348941E+03  0.47000000000E+01 0. -1.
         -5    1    5    5    0  501 -0.73756940264E+02 -0.20551563599E+02  0.59149125075E+02  0.96866722876E+02  0.47000000000E+01 0. -1.
          1    1    1    2  502    0  0.10890321337E+02 -0.10343806205E+03 -0.17682870570E+04  0.17713433173E+04  0.00000000000E+00 0. -1.
          1    1    1    2  503    0  0.92613278333E+02  0.42805120116E+02  0.86672149796E+03  0.87270593711E+03  0.00000000000E+00 0. -1.
<mgrwt>
<rscale>  0 0.95925437E+02</rscale>
<asrwt>0</asrwt>
<pdfrwt beam="1">  1        2 0.17373103E+00 0.98406013E+02</pdfrwt>
<pdfrwt beam="2">  1        2 0.30165573E+00 0.93507390E+02</pdfrwt>
<totfact> 0.31680285E+01</totfact>
</mgrwt>
</event>
<event>
13    1  0.1942437E-008  0.1069234E+03  0.7546771E-02  0.1438087E+00
         -3   -1    0    0    0  501 -0.00000000000E+00  0.00000000000E+00  0.16333234046E+04  0.16333234046E+04  0.00000000000E+00 0.  1.
          2   -1    0    0  503    0  0.00000000000E+00 -0.00000000000E+00 -0.11448926668E+04  0.11448926668E+04  0.00000000000E+00 0. -1.
         24    2    1    2    0    0  0.61647113502E+02  0.64031607562E+02  0.23508043236E+03  0.26394596499E+03  0.80648926764E+02 0.  0.
         24    2    1    2    0    0  0.20669015578E+02 -0.87013430452E+02  0.35514695470E+02  0.12673444092E+03  0.82472902433E+02 0.  0.
         25    2    1    2    0    0  0.35694232076E+02 -0.10077184956E+02 -0.17546530194E+02  0.13156280215E+03  0.12500104931E+03 0.  0.
        -11    1    4    4    0    0 -0.29103270366E+01 -0.87857840667E+01  0.43655527941E+02  0.44625834725E+02  0.00000000000E+00 0.  1.
         12    1    4    4    0    0  0.23579342615E+02 -0.78227646385E+02 -0.81408324709E+01  0.82108606190E+02  0.00000000000E+00 0. -1.
        -13    1    3    3    0    0  0.38384090912E+02  0.74539611704E+02  0.21708812241E+03  0.23271601801E+03  0.00000000000E+00 0.  1.
         14    1    3    3    0    0  0.23263022591E+02 -0.10508004142E+02  0.17992309948E+02  0.31229946980E+02  0.00000000000E+00 0. -1.
          5    1    5    5  502    0  0.56113691525E+02  0.34674065571E+02 -0.40000922060E+02  0.77286486306E+02  0.47000000000E+01 0.  1.
         -5    1    5    5    0  502 -0.20419459448E+02 -0.44751250527E+02  0.22454391867E+02  0.54276315847E+02  0.47000000000E+01 0.  1.
          1    1    1    2  503    0  0.18821731410E+02  0.15964480165E+02 -0.10063273522E+04  0.10066299528E+04  0.00000000000E+00 0. -1.
         -4    1    1    2    0  501 -0.13683209257E+03  0.17094527680E+02  0.12417094924E+04  0.12493429105E+04  0.00000000000E+00 0.  1.
<mgrwt>
<rscale>  0 0.51370353E+02</rscale>
<asrwt>0</asrwt>
<pdfrwt beam="2">  1        2 0.16836657E+00 0.24680401E+02</pdfrwt>
<pdfrwt beam="1">  1       -3 0.24019462E+00 0.10692343E+03</pdfrwt>
<totfact> 0.15884090E+00</totfact>
</mgrwt>
</event>
<event>
13    1  0.1942437E-008  0.8055007E+02  0.7546771E-02  0.1534520E+00
         -1   -1    0    0    0  501 -0.00000000000E+00  0.00000000000E+00  0.71312904166E+03  0.71312904166E+03  0.00000000000E+00 0.  1.
          4   -1    0    0  503    0  0.00000000000E+00 -0.00000000000E+00 -0.13754765097E+04  0.13754765097E+04  0.00000000000E+00 0. -1.
         24    2    1    2    0    0 -0.14863723852E+02 -0.11281302592E+03  0.92020781996E+02  0.17015134053E+03  0.86809822376E+02 0.  0.
         24    2    1    2    0    0  0.24892708968E+03  0.32611658563E+03  0.25176634560E+02  0.41891299468E+03  0.80854874828E+02 0.  0.
         25    2    1    2    0    0 -0.16775744789E+03 -0.20774745083E+03 -0.20560391809E+03  0.35944486156E+03  0.12500429079E+03 0.  0.
        -11    1    4    4    0    0  0.18047352263E+03  0.27328297174E+03 -0.43906653861E+01  0.32752641566E+03  0.00000000000E+00 0.  1.
         12    1    4    4    0    0  0.68453567049E+02  0.52833613894E+02  0.29567299946E+02  0.91386579020E+02  0.00000000000E+00 0. -1.
        -13    1    3    3    0    0 -0.41924466783E+02 -0.28872438224E+02  0.53694153816E+02  0.73988788056E+02  0.00000000000E+00 0.  1.
         14    1    3    3    0    0  0.27060742931E+02 -0.83940587694E+02  0.38326628180E+02  0.96162552472E+02  0.00000000000E+00 0. -1.
          5    1    5    5  502    0 -0.17043935359E+03 -0.21255072174E+03 -0.16575056009E+03  0.31893999551E+03  0.47000000000E+01 0.  1.
         -5    1    5    5    0  502  0.26819057003E+01  0.48032709127E+01 -0.39853358000E+02  0.40504866048E+02  0.47000000000E+01 0.  1.
          3    1    1    2  503    0  0.12742895394E+02  0.10738786845E+02 -0.85118239832E+03  0.85134551043E+03  0.00000000000E+00 0. -1.
         -2    1    1    2    0  501 -0.79048813334E+02 -0.16294895733E+02  0.27724143179E+03  0.28875084418E+03  0.00000000000E+00 0.  1.
<mgrwt>
<rscale>  0 0.36637689E+02</rscale>
<asrwt>0</asrwt>
<pdfrwt beam="2">  1        4 0.20227596E+00 0.16664421E+02</pdfrwt>
<pdfrwt beam="1">  1       -1 0.10487192E+00 0.80550071E+02</pdfrwt>
<totfact> 0.51341796E-01</totfact>
</mgrwt>
</event>
<event>
13    1  0.1942437E-008  0.6290050E+02  0.7546771E-02  0.1394750E+00
          2   -1    0    0  502    0  0.00000000000E+00  0.00000000000E+00  0.17164850440E+03  0.17164850440E+03  0.00000000000E+00 0. -1.
          2   -1    0    0  503    0 -0.00000000000E+00 -0.00000000000E+00 -0.14854081869E+04  0.14854081869E+04  0.00000000000E+00 0. -1.
         24    2    1    2    0    0  0.55637925162E+02 -0.34920619377E+01 -0.51090241896E+03  0.51928287181E+03  0.74334689358E+02 0.  0.
         24    2    1    2    0    0  0.85371382228E+01 -0.23349811021E+02 -0.23722920963E+03  0.25189274495E+03  0.80957770806E+02 0.  0.
         25    2    1    2    0    0 -0.83330432482E+02  0.20575839411E+02  0.19438338984E+02  0.15287983452E+03  0.12500827426E+03 0.  0.
        -13    1    3    3    0    0  0.10727406440E+02 -0.30329689776E+02 -0.99610727968E+02  0.10467695285E+03  0.00000000000E+00 0.  1.
         14    1    3    3    0    0  0.44910518722E+02  0.26837627838E+02 -0.41129169099E+03  0.41460591896E+03  0.00000000000E+00 0. -1.
        -13    1    4    4    0    0  0.32386111235E+02 -0.12582947776E+02 -0.21430895425E+03  0.21710715937E+03  0.00000000000E+00 0.  1.
         14    1    4    4    0    0 -0.23848973012E+02 -0.10766863245E+02 -0.22920255376E+02  0.34785585583E+02  0.00000000000E+00 0. -1.
          5    1    5    5  501    0  0.17681016289E+01  0.52360041269E+02  0.31204939727E+02  0.61159940880E+02  0.47000000000E+01 0. -1.
         -5    1    5    5    0  501 -0.85098534111E+02 -0.31784201859E+02 -0.11766600743E+02  0.91719893636E+02  0.47000000000E+01 0. -1.
          1    1    1    2  502    0  0.12933487158E+02 -0.57211149445E+02  0.60515426080E+02  0.84276375721E+02  0.00000000000E+00 0. -1.
          1    1    1    2  503    0  0.62218819391E+01  0.63477182993E+02 -0.64558181901E+03  0.64872486434E+03  0.00000000000E+00 0. -1.
<mgrwt>
<rscale>  0 0.60740588E+02</rscale>
<asrwt>0</asrwt>
<pdfrwt beam="1">  1        2 0.25242429E-01 0.58654844E+02</pdfrwt>
<pdfrwt beam="2">  1        2 0.21844236E+00 0.62900500E+02</pdfrwt>
<totfact> 0.53268844E+02</totfact>
</mgrwt>
</event>
<event>
13    1  0.1942437E-008  0.1010125E+03  0.7546771E-02  0.1287471E+00
          2   -1    0    0  503    0  0.00000000000E+00  0.00000000000E+00  0.98923167151E+03  0.98923167151E+03  0.00000000000E+00 0. -1.
          2   -1    0    0  502    0 -0.00000000000E+00 -0.00000000000E+00 -0.59430069682E+03  0.59430069682E+03  0.00000000000E+00 0. -1.
         24    2    1    2    0    0  0.85584634245E-01 -0.25057987222E+01 -0.77887947216E+02  0.11241206642E+03  0.81016381075E+02 0.  0.
         24    2    1    2    0    0 -0.42179838772E+02 -0.89564563525E+02 -0.23654777896E+02  0.12774320076E+03  0.77186961233E+02 0.  0.
         25    2    1    2    0    0  0.76894647996E+02  0.14621438450E+03  0.17385041714E+03  0.27044008520E+03  0.12498975565E+03 0.  0.
        -11    1    4    4    0    0 -0.45379210525E+02 -0.54873390096E+02 -0.47437605612E+02  0.85561019832E+02  0.00000000000E+00 0.  1.
         12    1    4    4    0    0  0.31993717536E+01 -0.34691173429E+02  0.23782827716E+02  0.42182180926E+02  0.00000000000E+00 0. -1.
        -11    1    3    3    0    0  0.30353748875E+02  0.68986246668E+01 -0.32181437905E+01  0.31293730083E+02  0.00000000000E+00 0.  1.
         12    1    3    3    0    0 -0.30268164241E+02 -0.94044233890E+01 -0.74669803426E+02  0.81118336333E+02  0.00000000000E+00 0. -1.
          5    1    5    5  501    0 -0.19233937828E+02 -0.33609648727E+01  0.49497277113E+02  0.53416391593E+02  0.47000000000E+01 0.  1.
         -5    1    5    5    0  501  0.96128585824E+02  0.14957534937E+03  0.12435314002E+03  0.21702369360E+03  0.47000000000E+01 0.  1.
          1    1    1    2  502    0 -0.11069940953E+03  0.12491502441E+02 -0.36310530612E+03  0.37981029506E+03  0.00000000000E+00 0. -1.
          1    1    1    2  503    0  0.75899015671E+02 -0.66635524691E+02  0.68572858879E+03  0.69312672089E+03  0.00000000000E+00 0. -1.
<mgrwt>
<rscale>  0 0.96664209E+02</rscale>
<asrwt>0</asrwt>
<pdfrwt beam="1">  1        2 0.14547525E+00 0.10101250E+03</pdfrwt>
<pdfrwt beam="2">  1        2 0.87397160E-01 0.92503099E+02</pdfrwt>
<totfact> 0.25466822E+02</totfact>
</mgrwt>
</event>
<event>
13    1  0.5275186E-008  0.6399440E+02  0.7546771E-02  0.1639326E+00
          2   -1    0    0  503    0  0.00000000000E+00  0.00000000000E+00  0.29744942428E+04  0.29744942428E+04  0.00000000000E+00 0. -1.
          2   -1    0    0  502    0 -0.00000000000E+00 -0.00000000000E+00 -0.25028142836E+04  0.25028142836E+04  0.00000000000E+00 0. -1.
         24    2    1    2    0    0  0.53749122414E+03 -0.21484710362E+03 -0.57223441797E+03  0.81823646258E+03  0.83681453301E+02 0.  0.
         24    2    1    2    0    0 -0.85196379725E+03 -0.16386473508E+03  0.13041718209E+03  0.88352923677E+03  0.10450506028E+03 0.  0.
         25    2    1    2    0    0  0.38426957607E+03  0.40608689979E+03 -0.13986381122E+03  0.58970780997E+03  0.12499495259E+03 0.  0.
        -11    1    4    4    0    0 -0.28286477479E+03 -0.84296575926E+01  0.61266677993E+02  0.28954644839E+03  0.00000000000E+00 0.  1.
         12    1    4    4    0    0 -0.56909902246E+03 -0.15543507749E+03  0.69150504093E+02  0.59398278838E+03  0.00000000000E+00 0. -1.
        -11    1    3    3    0    0  0.22904096142E+03 -0.53030232235E+02 -0.25900187061E+03  0.34979127565E+03  0.00000000000E+00 0.  1.
         12    1    3    3    0    0  0.30845026272E+03 -0.16181687138E+03 -0.31323254736E+03  0.46844518693E+03  0.00000000000E+00 0. -1.
          5    1    5    5  501    0  0.99481513676E+02  0.15119831240E+03 -0.96134563821E+02  0.20499133054E+03  0.47000000000E+01 0.  1.
         -5    1    5    5    0  501  0.28478806240E+03  0.25488858740E+03 -0.43729247401E+02  0.38471647943E+03  0.47000000000E+01 0.  1.
          1    1    1    2  502    0 -0.98602334447E+01 -0.49609044700E+01 -0.10657254492E+04  0.10657826082E+04  0.00000000000E+00 0. -1.
          1    1    1    2  503    0 -0.59936769522E+02 -0.22414156628E+02  0.21190864555E+04  0.21200524089E+04  0.00000000000E+00 0. -1.
<mgrwt>
<rscale>  0 0.26577479E+02</rscale>
<asrwt>0</asrwt>
<pdfrwt beam="1">  1        2 0.43742563E+00 0.63994396E+02</pdfrwt>
<pdfrwt beam="2">  1        2 0.36806092E+00 0.11037879E+02</pdfrwt>
<totfact> 0.36299355E+00</totfact>
</mgrwt>
</event>
<event>
13    1  0.1942437E-008  0.2322881E+03  0.7546771E-02  0.1377767E+00
          2   -1    0    0  502    0  0.00000000000E+00  0.00000000000E+00  0.20793181922E+04  0.20793181922E+04  0.00000000000E+00 0. -1.
          2   -1    0    0  503    0 -0.00000000000E+00 -0.00000000000E+00 -0.14417944127E+04  0.14417944127E+04  0.00000000000E+00 0. -1.
         24    2    1    2    0    0  0.19116575480E+03 -0.40811268889E+03  0.27472830691E+03  0.53275174196E+03  0.72446278720E+02 0.  0.
         24    2    1    2    0    0  0.65401953715E+03  0.53591485748E+03  0.96200083393E+02  0.85477926093E+03  0.80292212721E+02 0.  0.
         25    2    1    2    0    0 -0.68993410633E+03 -0.28425768663E+03  0.88699272397E+03  0.11658439626E+04  0.12499819719E+03 0.  0.
        -13    1    4    4    0    0  0.31459692519E+03  0.28553252689E+03  0.14128798907E+02  0.42508784058E+03  0.00000000000E+00 0.  1.
         14    1    4    4    0    0  0.33942261197E+03  0.25038233059E+03  0.82071284486E+02  0.42969142035E+03  0.00000000000E+00 0. -1.
        -13    1    3    3    0    0  0.67026993658E+02 -0.11205219669E+03  0.11585103784E+03  0.17455593840E+03  0.00000000000E+00 0.  1.
         14    1    3    3    0    0  0.12413876114E+03 -0.29606049220E+03  0.15887726907E+03  0.35819580356E+03  0.00000000000E+00 0. -1.
          5    1    5    5  501    0 -0.13233054621E+03 -0.97672328964E+01  0.12320674527E+03  0.18113189774E+03  0.47000000000E+01 0. -1.
         -5    1    5    5    0  501 -0.55760356013E+03 -0.27449045374E+03  0.76378597870E+03  0.98471206488E+03  0.47000000000E+01 0. -1.
          1    1    1    2  502    0  0.18138230732E+02  0.17144342780E+01  0.15612526833E+03  0.15718471335E+03  0.00000000000E+00 0. -1.
          1    1    1    2  503    0 -0.17338941635E+03  0.15474108376E+03 -0.77652260309E+03  0.81055292598E+03  0.00000000000E+00 0. -1.
<mgrwt>
<rscale>  0 0.65054392E+02</rscale>
<asrwt>0</asrwt>
<pdfrwt beam="1">  1        2 0.30578209E+00 0.18219075E+02</pdfrwt>
<pdfrwt beam="2">  1        2 0.21202859E+00 0.23228807E+03</pdfrwt>
<totfact> 0.25865898E+01</totfact>
</mgrwt>
</event>
<event>
13    1  0.1942437E-008  0.5668351E+02  0.7546771E-02  0.1421968E+00
          2   -1    0    0  502    0  0.00000000000E+00  0.00000000000E+00  0.30495881176E+04  0.30495881176E+04  0.00000000000E+00 0. -1.
          2   -1    0    0  503    0 -0.00000000000E+00 -0.00000000000E+00 -0.23866388603E+04  0.23866388603E+04  0.00000000000E+00 0. -1.
         24    2    1    2    0    0 -0.16800853304E+03  0.23354415503E+03 -0.14700114835E+04  0.15002707638E+04  0.84314076605E+02 0.  0.
         24    2    1    2    0    0  0.54929105687E+02 -0.42699808658E+02 -0.97038815752E+02  0.14539672712E+03  0.82965029886E+02 0.  0.
         25    2    1    2    0    0  0.34772321739E+02 -0.25076588344E+03  0.93796140321E+03  0.97953537698E+03  0.12500127275E+03 0.  0.
        -11    1    3    3    0    0 -0.11944714787E+02  0.85820040230E+01 -0.22635631152E+03  0.22683365440E+03  0.00000000000E+00 0.  1.
         12    1    3    3    0    0 -0.15606381826E+03  0.22496215101E+03 -0.12436551720E+04  0.12734371094E+04  0.00000000000E+00 0. -1.
        -11    1    4    4    0    0 -0.98124708953E+01 -0.20396404585E+02  0.43522166031E+01  0.23048637583E+02  0.00000000000E+00 0.  1.
         12    1    4    4    0    0  0.64741576582E+02 -0.22303404073E+02 -0.10139103236E+03  0.12234808954E+03  0.00000000000E+00 0. -1.
          5    1    5    5  501    0  0.38784307179E+01 -0.10375913646E+03  0.18948937920E+03  0.21612338017E+03  0.47000000000E+01 0. -1.
         -5    1    5    5    0  501  0.30893891021E+02 -0.14700674698E+03  0.74847202401E+03  0.76341199681E+03  0.47000000000E+01 0. -1.
          1    1    1    2  502    0  0.26640707912E+02  0.50023918419E+02  0.20502281283E+04  0.20510113354E+04  0.00000000000E+00 0. -1.
          1    1    1    2  503    0  0.51666397707E+02  0.98976186513E+01 -0.75818997496E+03  0.76001277465E+03  0.00000000000E+00 0. -1.
<mgrwt>
<rscale>  0 0.54606653E+02</rscale>
<asrwt>0</asrwt>
<pdfrwt beam="1">  1        2 0.44846884E+00 0.56683512E+02</pdfrwt>
<pdfrwt beam="2">  1        2 0.35097630E+00 0.52605889E+02</pdfrwt>
<totfact> 0.30037736E+00</totfact>
</mgrwt>
</event>
<event>
13    1  0.1942437E-008  0.1206262E+03  0.7546771E-02  0.1273686E+00
          2   -1    0    0  503    0  0.00000000000E+00  0.00000000000E+00  0.22442341588E+04  0.22442341588E+04  0.00000000000E+00 0. -1.
          2   -1    0    0  502    0 -0.00000000000E+00 -0.00000000000E+00 -0.21287083703E+04  0.21287083703E+04  0.00000000000E+00 0. -1.
         24    2    1    2    0    0 -0.53731710006E+02 -0.19312879953E+03  0.17873081137E+02  0.21248620033E+03  0.68155032346E+02 0.  0.
         24    2    1    2    0    0  0.10445062688E+03  0.34392960557E+03  0.70579691444E+03  0.79606401934E+03  0.79819367389E+02 0.  0.
         25    2    1    2    0    0 -0.87867634099E+02 -0.72836083878E+02  0.83349409763E+03  0.85050723486E+03  0.12499731810E+03 0.  0.
        -11    1    4    4    0    0  0.10182801486E+03  0.26814717137E+03  0.49573141716E+03  0.57273160213E+03  0.00000000000E+00 0.  1.
         12    1    4    4    0    0  0.26226120232E+01  0.75782434198E+02  0.21006549728E+03  0.22333241721E+03  0.00000000000E+00 0. -1.
        -13    1    3    3    0    0 -0.21337752835E+02 -0.16872326902E+03  0.22959340597E+02  0.17160994297E+03  0.00000000000E+00 0.  1.
         14    1    3    3    0    0 -0.32393957171E+02 -0.24405530506E+02 -0.50862594602E+01  0.40876257360E+02  0.00000000000E+00 0. -1.
          5    1    5    5  501    0 -0.15438411103E+02 -0.57826848854E+02  0.64768098953E+03  0.65045756447E+03  0.47000000000E+01 0.  1.
         -5    1    5    5    0  501 -0.72429222997E+02 -0.15009235024E+02  0.18581310810E+03  0.20004967039E+03  0.47000000000E+01 0.  1.
          1    1    1    2  502    0  0.11506989499E+03 -0.36409642088E+02 -0.19722678742E+04  0.19759573149E+04  0.00000000000E+00 0. -1.
          1    1    1    2  503    0 -0.77921177772E+02 -0.41555080071E+02  0.53062956950E+03  0.53792775970E+03  0.00000000000E+00 0. -1.
<mgrwt>
<rscale>  0 0.10321053E+03</rscale>
<asrwt>0</asrwt>
<pdfrwt beam="1">  1        2 0.33003444E+00 0.88309312E+02</pdfrwt>
<pdfrwt beam="2">  1        2 0.31304535E+00 0.12062616E+03</pdfrwt>
<totfact> 0.85843047E+00</totfact>
</mgrwt>
</event>
<event>
13    1  0.1942437E-008  0.1809062E+03  0.7546771E-02  0.1401681E+00
          2   -1    0    0  502    0  0.00000000000E+00  0.00000000000E+00  0.17464490974E+04  0.17464490974E+04  0.00000000000E+00 0. -1.
          2   -1    0    0  503    0 -0.00000000000E+00 -0.00000000000E+00 -0.35985579644E+04  0.35985579644E+04  0.00000000000E+00 0. -1.
         24    2    1    2    0    0  0.51230020500E+01  0.10097656592E+03 -0.67169466861E+02  0.14556933242E+03  0.80350365575E+02 0.  0.
         24    2    1    2    0    0  0.13147675954E+03 -0.66420644349E+01 -0.10013808283E+03  0.18397892343E+03  0.80562729065E+02 0.  0.
         25    2    1    2    0    0 -0.28076304309E+02  0.32439363489E+02  0.16570596126E+03  0.21194045346E+03  0.12497879440E+03 0.  0.
        -11    1    4    4    0    0  0.41004479975E+02 -0.40109957735E+02 -0.44689577025E+02  0.72714059040E+02  0.00000000000E+00 0.  1.
         12    1    4    4    0    0  0.90472279561E+02  0.33467893300E+02 -0.55448505807E+02  0.11126486439E+03  0.00000000000E+00 0. -1.
        -11    1    3    3    0    0 -0.22522385219E+02  0.27146941146E+02 -0.55662966518E+02  0.65898255600E+02  0.00000000000E+00 0.  1.
         12    1    3    3    0    0  0.27645387269E+02  0.73829624776E+02 -0.11506500343E+02  0.79671076822E+02  0.00000000000E+00 0. -1.
          5    1    5    5  501    0 -0.68227178321E+02  0.12983752864E+01  0.13764794835E+03  0.15370647782E+03  0.47000000000E+01 0.  1.
         -5    1    5    5    0  501  0.40150874012E+02  0.31140988203E+02  0.28058012910E+02  0.58233975638E+02  0.47000000000E+01 0. -1.
          1    1    1    2  502    0  0.22117132673E+01  0.19175170565E+02  0.14739202595E+04  0.14740466445E+04  0.00000000000E+00 0. -1.
          1    1    1    2  503    0 -0.11073517054E+03 -0.14594903554E+03 -0.33244275380E+04  0.33294717080E+04  0.00000000000E+00 0. -1.
<mgrwt>
<rscale>  0 0.59092350E+02</rscale>
<asrwt>0</asrwt>
<pdfrwt beam="1">  1        2 0.25683075E+00 0.19302301E+02</pdfrwt>
<pdfrwt beam="2">  1        2 0.52919969E+00 0.18090619E+03</pdfrwt>
<totfact> 0.26620846E+00</totfact>
</mgrwt>
</event>
<event>
13    1  0.1942437E-008  0.7550493E+02  0.7546771E-02  0.1391220E+00
          2   -1    0    0  503    0  0.00000000000E+00  0.00000000000E+00  0.16610194850E+04  0.16610194850E+04  0.00000000000E+00 0. -1.
          2   -1    0    0  502    0 -0.00000000000E+00 -0.00000000000E+00 -0.41860246720E+03  0.41860246720E+03  0.00000000000E+00 0. -1.
         24    2    1    2    0    0  0.18883996137E+02  0.36793132514E+02  0.12114137433E+02  0.90793714936E+02  0.79914995062E+02 0.  0.
         24    2    1    2    0    0 -0.61392726619E+02 -0.13830885852E+03  0.15087448835E+03  0.22796414407E+03  0.79411161161E+02 0.  0.
         25    2    1    2    0    0  0.84712983570E+02  0.15235494263E+03  0.59926473911E+03  0.63649965890E+03  0.12500108045E+03 0.  0.
        -13    1    4    4    0    0  0.18132695527E+02 -0.32660058072E+02  0.22190762942E+02  0.43450017264E+02  0.00000000000E+00 0.  1.
         14    1    4    4    0    0 -0.79525422146E+02 -0.10564880045E+03  0.12868372541E+03  0.18451412680E+03  0.00000000000E+00 0. -1.
        -13    1    3    3    0    0 -0.23771554614E+02  0.22025929898E+02 -0.17477150386E+02  0.36819548914E+02  0.00000000000E+00 0.  1.
         14    1    3    3    0    0  0.42655550751E+02  0.14767202616E+02  0.29591287819E+02  0.53974166022E+02  0.00000000000E+00 0. -1.
          5    1    5    5  501    0  0.73168976594E+02  0.32684717393E+02  0.13655217006E+03  0.15840004746E+03  0.47000000000E+01 0.  1.
         -5    1    5    5    0  501  0.11544006976E+02  0.11967022524E+03  0.46271256905E+03  0.47809961144E+03  0.47000000000E+01 0.  1.
          1    1    1    2  502    0  0.15242036495E+01 -0.75621557378E+02 -0.31685746245E+03  0.32576002617E+03  0.00000000000E+00 0. -1.
          1    1    1    2  503    0 -0.43728456737E+02  0.24782340760E+02  0.79702111541E+03  0.79860440817E+03  0.00000000000E+00 0. -1.
<mgrwt>
<rscale>  0 0.61604255E+02</rscale>
<asrwt>0</asrwt>
<pdfrwt beam="1">  1        2 0.24426757E+00 0.50262733E+02</pdfrwt>
<pdfrwt beam="2">  1        2 0.61559187E-01 0.75504933E+02</pdfrwt>
<totfact> 0.17719649E+02</totfact>
</mgrwt>
</event>
<event>
13    1  0.1942437E-008  0.6976141E+02  0.7546771E-02  0.1412966E+00
          2   -1    0    0  503    0  0.00000000000E+00  0.00000000000E+00  0.27355067812E+04  0.27355067812E+04  0.00000000000E+00 0. -1.
          2   -1    0    0  502    0 -0.00000000000E+00 -0.00000000000E+00 -0.92451117686E+03  0.92451117686E+03  0.00000000000E+00 0. -1.
         24    2    1    2    0    0  0.42425873778E+02 -0.10574986221E+02 -0.84082305585E+02  0.12411525802E+03  0.80143484211E+02 0.  0.
         24    2    1    2    0    0  0.11740164216E+01 -0.97229939616E+01  0.44922703880E+02  0.92854431615E+02  0.80672059726E+02 0.  0.
         25    2    1    2    0    0 -0.37007796152E+02  0.13478326944E+03  0.22728493529E+03  0.29465203217E+03  0.12500108620E+03 0.  0.
        -11    1    4    4    0    0  0.45918583334E+01 -0.45249628516E+02  0.22975986710E+02  0.50955961468E+02  0.00000000000E+00 0.  1.
         12    1    4    4    0    0 -0.34178419118E+01  0.35526634555E+02  0.21946717170E+02  0.41898470147E+02  0.00000000000E+00 0. -1.
        -13    1    3    3    0    0  0.54874345795E+02  0.19575206556E+01 -0.21300878685E+02  0.58896121658E+02  0.00000000000E+00 0.  1.
         14    1    3    3    0    0 -0.12448472018E+02 -0.12532506877E+02 -0.62781426900E+02  0.65219136362E+02  0.00000000000E+00 0. -1.
          5    1    5    5  501    0 -0.60624241686E+02  0.14802420742E+03  0.19486784055E+03  0.25215477379E+03  0.47000000000E+01 0.  1.
         -5    1    5    5    0  501  0.23616445534E+02 -0.13240937978E+02  0.32417094742E+02  0.42497258379E+02  0.47000000000E+01 0.  1.
          1    1    1    2  502    0 -0.90936273270E+01 -0.44908356383E+02 -0.76156631086E+03  0.76294344506E+03  0.00000000000E+00 0. -1.
          1    1    1    2  503    0  0.25015332794E+01 -0.69576932874E+02  0.23844365816E+04  0.23854527912E+04  0.00000000000E+00 0. -1.
<mgrwt>
<rscale>  0 0.56537194E+02</rscale>
<asrwt>0</asrwt>
<pdfrwt beam="1">  1        2 0.40228041E+00 0.69761412E+02</pdfrwt>
<pdfrwt beam="2">  1        2 0.13595753E+00 0.45819805E+02</pdfrwt>
<totfact> 0.21957697E+01</totfact>
</mgrwt>
</event>
<event>
13    1  0.1942437E-008  0.1819180E+03  0.7546771E-02  0.1213099E+00
          2   -1    0    0  503    0  0.00000000000E+00  0.00000000000E+00  0.23328118367E+04  0.23328118367E+04  0.00000000000E+00 0. -1.
          2   -1    0    0  502    0 -0.00000000000E+00 -0.00000000000E+00 -0.28235471258E+04  0.28235471258E+04  0.00000000000E+00 0. -1.
         24    2    1    2    0    0 -0.42022514616E+03  0.70013107964E+03 -0.69178040384E+03  0.10747268578E+04  0.98513905349E+02 0.  0.
         24    2    1    2    0    0  0.29965844771E+03 -0.92061324881E+03 -0.27974222837E+03  0.10130482166E+04  0.10337812001E+03 0.  0.
         25    2    1    2    0    0  0.31839962944E+03  0.16457569158E+03  0.75403940180E+03  0.84419401301E+03  0.12499851941E+03 0.  0.
        -13    1    4    4    0    0  0.22389940874E+03 -0.66089878314E+03 -0.24844984110E+03  0.74070606203E+03  0.00000000000E+00 0.  1.
         14    1    4    4    0    0  0.75759038972E+02 -0.25971446568E+03 -0.31292387269E+02  0.27234215459E+03  0.00000000000E+00 0. -1.
        -13    1    3    3    0    0 -0.91849074689E+02  0.85340796210E+02 -0.11196474124E+03  0.16809344812E+03  0.00000000000E+00 0.  1.
         14    1    3    3    0    0 -0.32837607147E+03  0.61479028343E+03 -0.57981566259E+03  0.90663340966E+03  0.00000000000E+00 0. -1.
          5    1    5    5  501    0  0.30429815803E+03  0.11365222446E+03  0.67346980464E+03  0.74772847002E+03  0.47000000000E+01 0.  1.
         -5    1    5    5    0  501  0.14101471410E+02  0.50923467127E+02  0.80569597151E+02  0.96465542995E+02  0.47000000000E+01 0.  1.
          1    1    1    2  502    0 -0.17504119100E+03 -0.49665719415E+02 -0.12391677187E+04  0.12524546847E+04  0.00000000000E+00 0. -1.
          1    1    1    2  503    0 -0.22791739992E+02  0.10557219700E+03  0.96591565992E+03  0.97193519037E+03  0.00000000000E+00 0. -1.
<mgrwt>
<rscale>  0 0.14017114E+03</rscale>
<asrwt>0</asrwt>
<pdfrwt beam="1">  1        2 0.34306057E+00 0.10800441E+03</pdfrwt>
<pdfrwt beam="2">  1        2 0.41522752E+00 0.18191802E+03</pdfrwt>
<totfact> 0.32123659E+00</totfact>
</mgrwt>
</event>
<event>
13    1  0.1942437E-008  0.3439159E+02  0.7546771E-02  0.1565526E+00
          2   -1    0    0  502    0  0.00000000000E+00  0.00000000000E+00  0.15043837985E+04  0.15043837985E+04  0.00000000000E+00 0. -1.
          2   -1    0    0  503    0 -0.00000000000E+00 -0.00000000000E+00 -0.10338106988E+04  0.10338106988E+04  0.00000000000E+00 0. -1.
         24    2    1    2    0    0  0.55952515695E+01 -0.19784915773E+02 -0.38437712009E+03  0.39303941469E+03  0.79444706054E+02 0.  0.
         24    2    1    2    0    0 -0.41926830490E+02 -0.18601374332E+02  0.33583485240E+02  0.88649205038E+02  0.68021767333E+02 0.  0.
         25    2    1    2    0    0  0.18212512353E+02  0.57328770412E+02  0.54022954077E+03  0.55775513238E+03  0.12499818981E+03 0.  0.
        -11    1    3    3    0    0  0.34555844940E+02  0.12443261199E+02 -0.13406499638E+03  0.13900490791E+03  0.00000000000E+00 0.  1.
         12    1    3    3    0    0 -0.28960593370E+02 -0.32228176972E+02 -0.25031212371E+03  0.25403450678E+03  0.00000000000E+00 0. -1.
        -13    1    4    4    0    0 -0.14799525891E+02 -0.40713260083E+02  0.52824055648E+01  0.43640569677E+02  0.00000000000E+00 0.  1.
         14    1    4    4    0    0 -0.27127304599E+02  0.22111885751E+02  0.28301079675E+02  0.45008635361E+02  0.00000000000E+00 0. -1.
          5    1    5    5  501    0 -0.48027447396E+02  0.10532619473E+02  0.12039751163E+03  0.13013540096E+03  0.47000000000E+01 0. -1.
         -5    1    5    5    0  501  0.66239959749E+02  0.46796150939E+02  0.41983202914E+03  0.42761973142E+03  0.47000000000E+01 0. -1.
          1    1    1    2  502    0 -0.10761361240E+02 -0.32682756621E+02  0.88919095361E+03  0.88985646116E+03  0.00000000000E+00 0. -1.
          1    1    1    2  503    0  0.28880427807E+02  0.13740276313E+02 -0.60805375978E+03  0.60889428400E+03  0.00000000000E+00 0. -1.
<mgrwt>
<rscale>  0 0.33165127E+02</rscale>
<asrwt>0</asrwt>
<pdfrwt beam="1">  1        2 0.22123291E+00 0.34391586E+02</pdfrwt>
<pdfrwt beam="2">  1        2 0.15203099E+00 0.31982406E+02</pdfrwt>
<totfact> 0.80700036E+01</totfact>
</mgrwt>
</event>
<event>
13    1  0.1942437E-008  0.4890225E+02  0.7546771E-02  0.1500844E+00
          2   -1    0    0  503    0  0.00000000000E+00  0.00000000000E+00  0.38349978858E+04  0.38349978858E+04  0.00000000000E+00 0. -1.
          2   -1    0    0  502    0 -0.00000000000E+00 -0.00000000000E+00 -0.20517199502E+04  0.20517199502E+04  0.00000000000E+00 0. -1.
         24    2    1    2    0    0 -0.99618896595E+02 -0.27431438599E+02 -0.67258349039E+03  0.68518381587E+03  0.80199137112E+02 0.  0.
         24    2    1    2    0    0 -0.36499617958E+02 -0.54149285182E+02  0.26232982665E+03  0.28225048461E+03  0.81142041631E+02 0.  0.
         25    2    1    2    0    0  0.18425300051E+03  0.50942314031E+02  0.93873869950E+03  0.96612601528E+03  0.12499937561E+03 0.  0.
        -11    1    3    3    0    0  0.11778257452E+01 -0.16513414052E+02 -0.26880653711E+02  0.31569758647E+02  0.00000000000E+00 0.  1.
         12    1    3    3    0    0 -0.10079672234E+03 -0.10918024546E+02 -0.64570283668E+03  0.65361405722E+03  0.00000000000E+00 0. -1.
        -11    1    4    4    0    0 -0.69406696878E+01  0.21643204182E+02  0.52987772602E+02  0.57656788224E+02  0.00000000000E+00 0.  1.
         12    1    4    4    0    0 -0.29558948271E+02 -0.75792489364E+02  0.20934205404E+03  0.22459369639E+03  0.00000000000E+00 0. -1.
          5    1    5    5  501    0  0.12195213735E+03 -0.21201294877E+02  0.39154045427E+03  0.41066754929E+03  0.47000000000E+01 0. -1.
         -5    1    5    5    0  501  0.62300863159E+02  0.72143608907E+02  0.54719824523E+03  0.55545846599E+03  0.47000000000E+01 0. -1.
          1    1    1    2  502    0  0.62388081252E+00  0.34400822412E+02 -0.13487332932E+04  0.13491720802E+04  0.00000000000E+00 0. -1.
          1    1    1    2  503    0 -0.48758366769E+02 -0.37624126617E+01  0.26035261930E+04  0.26039854400E+04  0.00000000000E+00 0. -1.
<mgrwt>
<rscale>  0 0.41018949E+02</rscale>
<asrwt>0</asrwt>
<pdfrwt beam="1">  1        2 0.56397028E+00 0.48902247E+02</pdfrwt>
<pdfrwt beam="2">  1        2 0.30172352E+00 0.34406479E+02</pdfrwt>
<totfact> 0.16718705E+00</totfact>
</mgrwt>
</event>
<event>
13    1  0.1942437E-008  0.7884748E+02  0.7546771E-02  0.1364534E+00
          2   -1    0    0  503    0  0.00000000000E+00  0.00000000000E+00  0.19838375407E+03  0.19838375407E+03  0.00000000000E+00 0. -1.
          2   -1    0    0  502    0 -0.00000000000E+00 -0.00000000000E+00 -0.21941703813E+04  0.21941703813E+04  0.00000000000E+00 0. -1.
         24    2    1    2    0    0 -0.82508046475E+01 -0.33896847738E+02 -0.35655716110E+03  0.36738273083E+03  0.81363319262E+02 0.  0.
         24    2    1    2    0    0 -0.15191599710E+03 -0.66193481814E+02 -0.69188346180E+03  0.71597547536E+03  0.80362363030E+02 0.  0.
         25    2    1    2    0    0  0.50480198625E+02  0.12222509143E+03 -0.14371908114E+03  0.23188501076E+03  0.12501304133E+03 0.  0.
        -11    1    3    3    0    0 -0.28760160798E+01 -0.36371773016E+02 -0.35909534319E+03  0.36094409933E+03  0.00000000000E+00 0.  1.
         12    1    3    3    0    0 -0.53747885678E+01  0.24749252778E+01  0.25381820939E+01  0.64386315022E+01  0.00000000000E+00 0. -1.
        -11    1    4    4    0    0 -0.87014355487E+01 -0.16145388989E+02 -0.20943776384E+03  0.21023930529E+03  0.00000000000E+00 0.  1.
         12    1    4    4    0    0 -0.14321456155E+03 -0.50048092825E+02 -0.48244569796E+03  0.50573617007E+03  0.00000000000E+00 0. -1.
          5    1    5    5  501    0  0.60838480978E+02  0.18604375133E+01 -0.46322568058E+02  0.76633232393E+02  0.47000000000E+01 0. -1.
         -5    1    5    5    0  501 -0.10358282354E+02  0.12036465392E+03 -0.97396513083E+02  0.15525177837E+03  0.47000000000E+01 0. -1.
          1    1    1    2  502    0  0.35457455127E+02 -0.48249078087E+02 -0.92811170444E+03  0.93004114994E+03  0.00000000000E+00 0. -1.
          1    1    1    2  503    0  0.74229147991E+02  0.26114316209E+02  0.12448478129E+03  0.14726976844E+03  0.00000000000E+00 0. -1.
<mgrwt>
<rscale>  0 0.68710387E+02</rscale>
<asrwt>0</asrwt>
<pdfrwt beam="1">  1        2 0.29174081E-01 0.78847478E+02</pdfrwt>
<pdfrwt beam="2">  1        2 0.32267212E+00 0.59876579E+02</pdfrwt>
<totfact> 0.21379179E+02</totfact>
</mgrwt>
</event>
<event>
13    1  0.1942437E-008  0.3962650E+02  0.7546771E-02  0.1637648E+00
          2   -1    0    0  503    0  0.00000000000E+00  0.00000000000E+00  0.46905089201E+03  0.46905089201E+03  0.00000000000E+00 0. -1.
         -1   -1    0    0    0  501 -0.00000000000E+00 -0.00000000000E+00 -0.13547413230E+04  0.13547413230E+04  0.00000000000E+00 0.  1.
         24    2    1    2    0    0 -0.44831248811E+02  0.11133697621E+03 -0.80740603745E+03  0.82055303125E+03  0.83648099996E+02 0.  0.
         24    2    1    2    0    0 -0.14501006799E+03  0.16445112743E+03 -0.18306846331E+03  0.29675622696E+03  0.80486662540E+02 0.  0.
         25    2    1    2    0    0  0.13238879910E+03 -0.27332512587E+03  0.11070423678E+02  0.32861521659E+03  0.12502794780E+03 0.  0.
        -13    1    4    4    0    0 -0.11502344839E+03  0.16127407640E+03 -0.17772630058E+03  0.26613222149E+03  0.00000000000E+00 0.  1.
         14    1    4    4    0    0 -0.29986619594E+02  0.31770510262E+01 -0.53421627368E+01  0.30624005464E+02  0.00000000000E+00 0. -1.
        -13    1    3    3    0    0 -0.56791858353E+02  0.62812773683E+02 -0.64764486810E+03  0.65315743500E+03  0.00000000000E+00 0.  1.
         14    1    3    3    0    0  0.11960609542E+02  0.48524202532E+02 -0.15976116935E+03  0.16739559625E+03  0.00000000000E+00 0. -1.
          5    1    5    5  502    0  0.32865024670E+02  0.35510778683E+01 -0.57369714582E+01  0.33878058417E+02  0.47000000000E+01 0.  1.
         -5    1    5    5    0  502  0.99523774428E+02 -0.27687620374E+03  0.16807395136E+02  0.29473715817E+03  0.47000000000E+01 0.  1.
          1    1    1    2  503    0  0.39601621853E+02 -0.16948241863E+00  0.23354705896E+03  0.23688086864E+03  0.00000000000E+00 0. -1.
         -2    1    1    2    0  501  0.17850895846E+02 -0.22934953527E+01 -0.13983341284E+03  0.14098687155E+03  0.00000000000E+00 0.  1.
<mgrwt>
<rscale>  0 0.26705487E+02</rscale>
<asrwt>0</asrwt>
<pdfrwt beam="1">  1        2 0.68978074E-01 0.39626502E+02</pdfrwt>
<pdfrwt beam="2">  1       -1 0.19922666E+00 0.17997628E+02</pdfrwt>
<totfact> 0.17731479E+01</totfact>
</mgrwt>
</event>
<event>
13    1  0.1942437E-008  0.1639627E+03  0.7546771E-02  0.1251822E+00
         -3   -1    0    0    0  502 -0.00000000000E+00  0.00000000000E+00  0.19769152861E+04  0.19769152861E+04  0.00000000000E+00 0.  1.
         -1   -1    0    0    0  501  0.00000000000E+00 -0.00000000000E+00 -0.13363472569E+04  0.13363472569E+04  0.00000000000E+00 0.  1.
         24    2    1    2    0    0 -0.81149977015E+02  0.31224919633E+02  0.35740848812E+03  0.37632426825E+03  0.79490962493E+02 0.  0.
         24    2    1    2    0    0  0.46830643323E+02 -0.42225787760E+02  0.52914366845E+02  0.11462210642E+03  0.79763216805E+02 0.  0.
         25    2    1    2    0    0  0.22556545386E+03  0.11165325694E+03 -0.19118630703E+03  0.33988685135E+03  0.12499857586E+03 0.  0.
        -13    1    3    3    0    0  0.15000081344E+02 -0.15103045911E+01  0.30884994141E+02  0.34368100375E+02  0.00000000000E+00 0.  1.
         14    1    3    3    0    0 -0.96150058359E+02  0.32735224224E+02  0.32652349398E+03  0.34195616787E+03  0.00000000000E+00 0. -1.
        -13    1    4    4    0    0 -0.74249081672E+01  0.30788451202E+01  0.42406672357E+02  0.43161723888E+02  0.00000000000E+00 0.  1.
         14    1    4    4    0    0  0.54255551490E+02 -0.45304632880E+02  0.10507694488E+02  0.71460382530E+02  0.00000000000E+00 0. -1.
          5    1    5    5  503    0  0.24355452547E+02  0.70107631399E+02 -0.64707148843E+02  0.98576737421E+02  0.47000000000E+01 0.  1.
         -5    1    5    5    0  503  0.20121000131E+03  0.41545625543E+02 -0.12647915818E+03  0.24131011393E+03  0.47000000000E+01 0.  1.
         -2    1    1    2    0  501 -0.91884082975E+02 -0.12968482683E+03 -0.10225066633E+04  0.10347853476E+04  0.00000000000E+00 0.  1.
         -4    1    1    2    0  502 -0.99362037192E+02  0.29032438018E+02  0.14439381446E+04  0.14476439695E+04  0.00000000000E+00 0.  1.
<mgrwt>
<rscale>  0 0.11486229E+03</rscale>
<asrwt>0</asrwt>
<pdfrwt beam="2">  1       -1 0.19652166E+00 0.16396272E+03</pdfrwt>
<pdfrwt beam="1">  1       -3 0.29072284E+00 0.80465515E+02</pdfrwt>
<totfact> 0.45091787E-02</totfact>
</mgrwt>
</event>
<event>
13    1  0.1942437E-008  0.1196543E+03  0.7546771E-02  0.1277376E+00
         -1   -1    0    0    0  501 -0.00000000000E+00  0.00000000000E+00  0.35541965339E+03  0.35541965339E+03  0.00000000000E+00 0.  1.
          2   -1    0    0  503    0  0.00000000000E+00 -0.00000000000E+00 -0.36201254664E+04  0.36201254664E+04  0.00000000000E+00 0. -1.
         24    2    1    2    0    0  0.99686687495E+02  0.16030689143E+02 -0.52859543983E+01  0.12846321535E+03  0.79249212771E+02 0.  0.
         24    2    1    2    0    0 -0.31897963873E+01 -0.57733166863E+02  0.32472162138E+02  0.10391998894E+03  0.80010183297E+02 0.  0.
         25    2    1    2    0    0  0.37367113024E+02  0.67111240553E+02 -0.11645016437E+04  0.11737072566E+04  0.12499770417E+03 0.  0.
        -11    1    4    4    0    0  0.37906707044E+02 -0.34679199431E+02  0.20386204762E+02  0.55273525821E+02  0.00000000000E+00 0.  1.
         12    1    4    4    0    0 -0.41096503432E+02 -0.23053967432E+02  0.12085957376E+02  0.48646463123E+02  0.00000000000E+00 0. -1.
        -11    1    3    3    0    0  0.30042851069E+02 -0.13875175254E+02  0.30175406582E+02  0.44784467744E+02  0.00000000000E+00 0.  1.
         12    1    3    3    0    0  0.69643836426E+02  0.29905864398E+02 -0.35461360981E+02  0.83678747602E+02  0.00000000000E+00 0. -1.
          5    1    5    5  502    0 -0.34252373457E+02  0.65775434305E+02 -0.64604221862E+03  0.65030167698E+03  0.47000000000E+01 0.  1.
         -5    1    5    5    0  502  0.71619486481E+02  0.13358062480E+01 -0.51845942513E+03  0.52340557957E+03  0.47000000000E+01 0.  1.
          1    1    1    2  503    0 -0.10779223234E+03  0.56474199698E+02 -0.23384278482E+04  0.23415920443E+04  0.00000000000E+00 0. -1.
         -2    1    1    2    0  501 -0.26071771789E+02 -0.81882962531E+02  0.21103747128E+03  0.22786261458E+03  0.00000000000E+00 0.  1.
<mgrwt>
<rscale>  0 0.10140170E+03</rscale>
<asrwt>0</asrwt>
<pdfrwt beam="2">  1        2 0.53237136E+00 0.11965428E+03</pdfrwt>
<pdfrwt beam="1">  1       -1 0.52267599E-01 0.85933444E+02</pdfrwt>
<totfact> 0.54886056E+00</totfact>
</mgrwt>
</event>
<event>
13    1  0.1942437E-008  0.6132717E+02  0.7546771E-02  0.1412791E+00
         -3   -1    0    0    0  501 -0.00000000000E+00  0.00000000000E+00  0.81739629164E+03  0.81739629164E+03  0.00000000000E+00 0.  1.
          2   -1    0    0  503    0  0.00000000000E+00 -0.00000000000E+00 -0.22465548120E+04  0.22465548120E+04  0.00000000000E+00 0. -1.
         24    2    1    2    0    0  0.43265735028E+02 -0.25275711198E+02  0.32278613510E+03  0.33674354630E+03  0.81820178161E+02 0.  0.
         24    2    1    2    0    0  0.80204662007E+02  0.39802374554E+02  0.14904394136E+03  0.19131037863E+03  0.79803180935E+02 0.  0.
         25    2    1    2    0    0 -0.14758499050E+03 -0.35066735522E+01 -0.14698493707E+04  0.14825238795E+04  0.12500501824E+03 0.  0.
        -11    1    3    3    0    0  0.43984663953E+02 -0.38153159940E+01  0.30683397778E+03  0.30999402771E+03  0.00000000000E+00 0.  1.
         12    1    3    3    0    0 -0.71892892446E+00 -0.21460395204E+02  0.15952157324E+02  0.26749518582E+02  0.00000000000E+00 0. -1.
        -11    1    4    4    0    0  0.62682390448E+02 -0.12614398441E+02  0.90406729802E+02  0.11073202750E+03  0.00000000000E+00 0.  1.
         12    1    4    4    0    0  0.17522271559E+02  0.52416772995E+02  0.58637211560E+02  0.80578351133E+02  0.00000000000E+00 0. -1.
          5    1    5    5  502    0 -0.16477865020E+03  0.14981258187E+02 -0.13377263822E+04  0.13479281900E+04  0.47000000000E+01 0. -1.
         -5    1    5    5    0  502  0.17193659705E+02 -0.18487931740E+02 -0.13212298843E+03  0.13459568948E+03  0.47000000000E+01 0. -1.
          1    1    1    2  503    0  0.15593426478E+02  0.49808349694E+02 -0.73829442957E+03  0.74013694096E+03  0.00000000000E+00 0. -1.
         -4    1    1    2    0  501  0.85211669847E+01 -0.60828339498E+02  0.30715520340E+03  0.31323635828E+03  0.00000000000E+00 0.  1.
<mgrwt>
<rscale>  0 0.56575615E+02</rscale>
<asrwt>0</asrwt>
<pdfrwt beam="2">  1        2 0.33037571E+00 0.52192209E+02</pdfrwt>
<pdfrwt beam="1">  1       -3 0.12020534E+00 0.61327165E+02</pdfrwt>
<totfact> 0.27239659E+00</totfact>
</mgrwt>
</event>
<event>
13    1  0.1942437E-008  0.7807139E+02  0.7546771E-02  0.1337483E+00
          2   -1    0    0  502    0  0.00000000000E+00  0.00000000000E+00  0.11601641488E+04  0.11601641488E+04  0.00000000000E+00 0. -1.
          2   -1    0    0  503    0 -0.00000000000E+00 -0.00000000000E+00 -0.71899574078E+03  0.71899574078E+03  0.00000000000E+00 0. -1.
         24    2    1    2    0    0 -0.30662578961E+02 -0.51205659432E+02 -0.11032273370E+02  0.10620001024E+03  0.87146530699E+02 0.  0.
         24    2    1    2    0    0  0.14404466700E+02  0.30784557471E+02  0.17815398932E+03  0.19791378025E+03  0.79220217503E+02 0.  0.
         25    2    1    2    0    0  0.58550166684E+02 -0.83538969953E+01  0.53014791965E+03  0.54788387640E+03  0.12498806219E+03 0.  0.
        -11    1    3    3    0    0 -0.30292401892E+02  0.11369371414E+02 -0.26405760110E+02  0.41763098373E+02  0.00000000000E+00 0.  1.
         12    1    3    3    0    0 -0.37017706928E+00 -0.62575030845E+02  0.15373486741E+02  0.64436911867E+02  0.00000000000E+00 0. -1.
        -13    1    4    4    0    0  0.43484605259E+02  0.10664620712E+02  0.13437042595E+03  0.14163352851E+03  0.00000000000E+00 0.  1.
         14    1    4    4    0    0 -0.29080138559E+02  0.20119936758E+02  0.43783563377E+02  0.56280251739E+02  0.00000000000E+00 0. -1.
          5    1    5    5  501    0  0.62916740925E+02  0.96959222814E+01  0.10911050954E+03  0.12641091919E+03  0.47000000000E+01 0.  1.
         -5    1    5    5    0  501 -0.43665742403E+01 -0.18049819277E+02  0.42103741011E+03  0.42147295721E+03  0.47000000000E+01 0.  1.
          1    1    1    2  502    0 -0.87777740213E+02 -0.32290479214E+02  0.37754498215E+03  0.38895735020E+03  0.00000000000E+00 0. -1.
          1    1    1    2  503    0  0.45485685789E+02  0.61065478171E+02 -0.63364620971E+03  0.63820487252E+03  0.00000000000E+00 0. -1.
<mgrwt>
<rscale>  0 0.77101775E+02</rscale>
<asrwt>0</asrwt>
<pdfrwt beam="1">  1        2 0.17061238E+00 0.78071385E+02</pdfrwt>
<pdfrwt beam="2">  1        2 0.10573467E+00 0.76144207E+02</pdfrwt>
<totfact> 0.16831326E+02</totfact>
</mgrwt>
</event>
<event>
13    1  0.1942437E-008  0.1147245E+03  0.7546771E-02  0.1287138E+00
          2   -1    0    0  502    0  0.00000000000E+00  0.00000000000E+00  0.18049064418E+04  0.18049064418E+04  0.00000000000E+00 0. -1.
          2   -1    0    0  503    0 -0.00000000000E+00 -0.00000000000E+00 -0.15188063134E+04  0.15188063134E+04  0.00000000000E+00 0. -1.
         24    2    1    2    0    0 -0.11472626357E+03  0.55417575246E+02 -0.65682584769E+03  0.67416568861E+03  0.82740306356E+02 0.  0.
         24    2    1    2    0    0  0.68541994419E+02 -0.17248964180E+03  0.18817011701E+02  0.20291774815E+03  0.79817611192E+02 0.  0.
         25    2    1    2    0    0 -0.31424478393E+01  0.10078387469E+03  0.19904411667E+03  0.25575671085E+03  0.12500268153E+03 0.  0.
        -13    1    3    3    0    0 -0.24642731553E+02 -0.11683880796E+02 -0.26961803538E+03  0.27099384179E+03  0.00000000000E+00 0.  1.
         14    1    3    3    0    0 -0.90083532020E+02  0.67101456043E+02 -0.38720781232E+03  0.40317184681E+03  0.00000000000E+00 0. -1.
        -13    1    4    4    0    0  0.53477175569E+02 -0.13830553258E+03 -0.19314530886E+02  0.14953688425E+03  0.00000000000E+00 0.  1.
         14    1    4    4    0    0  0.15064818850E+02 -0.34184109227E+02  0.38131542586E+02  0.53380863900E+02  0.00000000000E+00 0. -1.
          5    1    5    5  501    0  0.56479119676E+02  0.34729588715E+02  0.11735782140E+03  0.13487395425E+03  0.47000000000E+01 0.  1.
         -5    1    5    5    0  501 -0.59621567516E+02  0.66054285976E+02  0.81686295270E+02  0.12088275660E+03  0.47000000000E+01 0.  1.
          1    1    1    2  502    0  0.10725089750E+03 -0.41332414290E+02  0.14534157525E+04  0.14579535223E+04  0.00000000000E+00 0. -1.
          1    1    1    2  503    0 -0.57924180506E+02  0.57620606155E+02 -0.72835090487E+03  0.73291908528E+03  0.00000000000E+00 0. -1.
<mgrwt>
<rscale>  0 0.96815842E+02</rscale>
<asrwt>0</asrwt>
<pdfrwt beam="1">  1        2 0.26542742E+00 0.11472445E+03</pdfrwt>
<pdfrwt beam="2">  1        2 0.22335387E+00 0.81702784E+02</pdfrwt>
<totfact> 0.27860520E+01</totfact>
</mgrwt>
</event>
<event>
13    1  0.1942437E-008  0.5371122E+02  0.7546771E-02  0.1662603E+00
          2   -1    0    0  502    0  0.00000000000E+00  0.00000000000E+00  0.22382334069E+04  0.22382334069E+04  0.00000000000E+00 0. -1.
          2   -1    0    0  503    0 -0.00000000000E+00 -0.00000000000E+00 -0.94379932415E+02  0.94379932415E+02  0.00000000000E+00 0. -1.
         24    2    1    2    0    0 -0.86971290138E+02  0.36005693524E+02  0.22205993356E+03  0.25540346014E+03  0.84023199689E+02 0.  0.
         24    2    1    2    0    0  0.13339615434E+03 -0.28530112099E+02  0.91472916430E+03  0.92700190234E+03  0.63202702729E+02 0.  0.
         25    2    1    2    0    0  0.13223101391E+02  0.14719047892E+02  0.76941179634E+03  0.77975030886E+03  0.12499812412E+03 0.  0.
        -11    1    4    4    0    0  0.82270438758E+02 -0.45920493388E+02  0.65275734229E+03  0.65952199714E+03  0.00000000000E+00 0.  1.
         12    1    4    4    0    0  0.51125715587E+02  0.17390381289E+02  0.26197182201E+03  0.26747990520E+03  0.00000000000E+00 0. -1.
        -11    1    3    3    0    0 -0.20311569285E+02 -0.27055704937E+02  0.49402469892E+02  0.59876331283E+02  0.00000000000E+00 0.  1.
         12    1    3    3    0    0 -0.66659720853E+02  0.63061398461E+02  0.17265746366E+03  0.19552712886E+03  0.00000000000E+00 0. -1.
          5    1    5    5  501    0  0.34604586882E+02  0.43589269079E+02  0.69231385954E+03  0.69456322385E+03  0.47000000000E+01 0.  1.
         -5    1    5    5    0  501 -0.21381485492E+02 -0.28870221187E+02  0.77097936795E+02  0.85187085003E+02  0.47000000000E+01 0.  1.
          1    1    1    2  502    0 -0.11449624257E+02  0.13853208746E+01  0.29308361468E+03  0.29331044680E+03  0.00000000000E+00 0. -1.
          1    1    1    2  503    0 -0.48198341340E+02 -0.23579950192E+02 -0.55431034400E+02  0.77147221166E+02  0.00000000000E+00 0. -1.
<mgrwt>
<rscale>  0 0.24888919E+02</rscale>
<asrwt>0</asrwt>
<pdfrwt beam="1">  1        2 0.32915194E+00 0.11533127E+02</pdfrwt>
<pdfrwt beam="2">  1        2 0.13879403E-01 0.53711218E+02</pdfrwt>
<totfact> 0.57284678E+02</totfact>
</mgrwt>
</event>
<event>
13    1  0.1942437E-008  0.3249068E+03  0.7546771E-02  0.1189445E+00
          2   -1    0    0  503    0  0.00000000000E+00  0.00000000000E+00  0.15491211803E+04  0.15491211803E+04  0.00000000000E+00 0. -1.
          2   -1    0    0  502    0 -0.00000000000E+00 -0.00000000000E+00 -0.38893008062E+04  0.38893008062E+04  0.00000000000E+00 0. -1.
         24    2    1    2    0    0  0.93914063552E+02  0.18125671585E+03 -0.14848120309E+03  0.26553616308E+03  0.82395011116E+02 0.  0.
         24    2    1    2    0    0  0.11199349201E+02 -0.72472882034E+01 -0.59195901200E+02  0.99199169781E+02  0.78475295205E+02 0.  0.
         25    2    1    2    0    0 -0.92469438862E+02  0.18961996275E+03  0.74455129249E+03  0.78390059281E+03  0.12504872996E+03 0.  0.
        -11    1    4    4    0    0 -0.21894643894E+02 -0.26907620063E+02 -0.47786771645E+02  0.59050579955E+02  0.00000000000E+00 0.  1.
         12    1    4    4    0    0  0.33093993095E+02  0.19660331860E+02 -0.11409129554E+02  0.40148589826E+02  0.00000000000E+00 0. -1.
        -13    1    3    3    0    0  0.42967673029E+02  0.13896322470E+03 -0.65897406514E+02  0.15968552511E+03  0.00000000000E+00 0.  1.
         14    1    3    3    0    0  0.50946390523E+02  0.42293491151E+02 -0.82583796575E+02  0.10585063797E+03  0.00000000000E+00 0. -1.
          5    1    5    5  501    0  0.18495250877E+01  0.67768384398E+02  0.40929619533E+03  0.41489931330E+03  0.47000000000E+01 0.  1.
         -5    1    5    5    0  501 -0.94318963950E+02  0.12185157835E+03  0.33525509716E+03  0.36900127951E+03  0.47000000000E+01 0.  1.
          1    1    1    2  502    0 -0.84103521896E+02 -0.33201154667E+03 -0.35730446010E+04  0.35894223477E+04  0.00000000000E+00 0. -1.
          1    1    1    2  503    0  0.71459548005E+02 -0.31617843730E+02  0.69599078694E+03  0.70036371304E+03  0.00000000000E+00 0. -1.
<mgrwt>
<rscale>  0 0.15933874E+03</rscale>
<asrwt>0</asrwt>
<pdfrwt beam="1">  1        2 0.22781194E+00 0.78141890E+02</pdfrwt>
<pdfrwt beam="2">  1        2 0.57195599E+00 0.32490683E+03</pdfrwt>
<totfact> 0.16886020E+00</totfact>
</mgrwt>
</event>
<event>
13    1  0.1942437E-008  0.8010746E+02  0.7546771E-02  0.1380980E+00
          2   -1    0    0  503    0  0.00000000000E+00  0.00000000000E+00  0.50878391824E+03  0.50878391824E+03  0.00000000000E+00 0. -1.
          2   -1    0    0  502    0 -0.00000000000E+00 -0.00000000000E+00 -0.28978839368E+04  0.28978839368E+04  0.00000000000E+00 0. -1.
         24    2    1    2    0    0 -0.17072311841E+01 -0.42980735908E+02 -0.48876802193E+03  0.49692096246E+03  0.78651162609E+02 0.  0.
         24    2    1    2    0    0 -0.45385327307E+02  0.73581517766E+01 -0.45062750669E+03  0.46021454332E+03  0.81352970281E+02 0.  0.
         25    2    1    2    0    0  0.64307851212E+02  0.71880099780E+02  0.14985279316E+03  0.21767639930E+03  0.12499962690E+03 0.  0.
        -11    1    4    4    0    0 -0.50650151013E+02  0.14731566415E+02 -0.44754731453E+03  0.45064515485E+03  0.00000000000E+00 0.  1.
         12    1    4    4    0    0  0.52648237062E+01 -0.73734146388E+01 -0.30801921577E+01  0.95693884769E+01  0.00000000000E+00 0. -1.
        -13    1    3    3    0    0  0.30747584688E+02 -0.12482273574E+02 -0.94733902682E+02  0.10037795293E+03  0.00000000000E+00 0.  1.
         14    1    3    3    0    0 -0.32454815872E+02 -0.30498462334E+02 -0.39403411924E+03  0.39654300953E+03  0.00000000000E+00 0. -1.
          5    1    5    5  501    0  0.92184935670E+02  0.75557509118E+02  0.14657532888E+03  0.18897993699E+03  0.47000000000E+01 0. -1.
         -5    1    5    5    0  501 -0.27877084458E+02 -0.36774093381E+01  0.32774642800E+01  0.28696462315E+02  0.47000000000E+01 0. -1.
          1    1    1    2  502    0 -0.27635140675E+02  0.43412739224E+02 -0.19102493566E+04  0.19109424301E+04  0.00000000000E+00 0. -1.
          1    1    1    2  503    0  0.10419847955E+02 -0.79670254873E+02  0.31069207343E+03  0.32091351987E+03  0.00000000000E+00 0. -1.
<mgrwt>
<rscale>  0 0.64206797E+02</rscale>
<asrwt>0</asrwt>
<pdfrwt beam="1">  1        2 0.74821166E-01 0.80107455E+02</pdfrwt>
<pdfrwt beam="2">  1        2 0.42615939E+00 0.51462286E+02</pdfrwt>
<totfact> 0.36885449E+01</totfact>
</mgrwt>
</event>
<event>
13    1  0.1942437E-008  0.5348247E+02  0.7546771E-02  0.1535167E+00
          2   -1    0    0  502    0  0.00000000000E+00  0.00000000000E+00  0.24994293588E+04  0.24994293588E+04  0.00000000000E+00 0. -1.
          2   -1    0    0  503    0 -0.00000000000E+00 -0.00000000000E+00 -0.48307004194E+03  0.48307004194E+03  0.00000000000E+00 0. -1.
         24    2    1    2    0    0 -0.17703394474E+03  0.46914067098E+03  0.10157132874E+03  0.52010324818E+03  0.93577065506E+02 0.  0.
         24    2    1    2    0    0  0.28830297464E+03 -0.34742124362E+03  0.42727044416E+03  0.62805286671E+03  0.89834543631E+02 0.  0.
         25    2    1    2    0    0 -0.11189984468E+03 -0.91505842104E+02  0.34332239840E+03  0.39292520822E+03  0.12500022252E+03 0.  0.
        -11    1    4    4    0    0  0.11612741541E+03 -0.17233673361E+03  0.14221804012E+03  0.25181639601E+03  0.00000000000E+00 0.  1.
         12    1    4    4    0    0  0.17217555923E+03 -0.17508451000E+03  0.28505240404E+03  0.37623647070E+03  0.00000000000E+00 0. -1.
        -13    1    3    3    0    0 -0.16092693667E+03  0.30241848092E+03  0.66045646940E+02  0.34887883861E+03  0.00000000000E+00 0.  1.
         14    1    3    3    0    0 -0.16107008077E+02  0.16672219006E+03  0.35525681800E+02  0.17122440958E+03  0.00000000000E+00 0. -1.
          5    1    5    5  501    0 -0.30761565653E+02 -0.10141374859E+03  0.22825723036E+03  0.25170314963E+03  0.47000000000E+01 0.  1.
         -5    1    5    5    0  501 -0.81138279025E+02  0.99079064817E+01  0.11506516804E+03  0.14122205859E+03  0.47000000000E+01 0.  1.
          1    1    1    2  502    0 -0.12219460599E+02  0.21801180491E+02  0.12878522852E+04  0.12880947617E+04  0.00000000000E+00 0. -1.
          1    1    1    2  503    0  0.12850275382E+02 -0.52014765752E+02 -0.14365713963E+03  0.15332331591E+03  0.00000000000E+00 0. -1.
<mgrwt>
<rscale>  0 0.36560100E+02</rscale>
<asrwt>0</asrwt>
<pdfrwt beam="1">  1        2 0.36756314E+00 0.24992133E+02</pdfrwt>
<pdfrwt beam="2">  1        2 0.71039713E-01 0.53482469E+02</pdfrwt>
<totfact> 0.68563421E+01</totfact>
</mgrwt>
</event>
<event>
13    1  0.1942437E-008  0.5717649E+02  0.7546771E-02  0.1412834E+00
          2   -1    0    0  502    0  0.00000000000E+00  0.00000000000E+00  0.28310560052E+04  0.28310560052E+04  0.00000000000E+00 0. -1.
          2   -1    0    0  503    0 -0.00000000000E+00 -0.00000000000E+00 -0.21363186633E+04  0.21363186633E+04  0.00000000000E+00 0. -1.
         24    2    1    2    0    0 -0.18061764326E+02  0.19958682906E+02 -0.29306522072E+03  0.30489233953E+03  0.79671442519E+02 0.  0.
         24    2    1    2    0    0 -0.33911921826E+02 -0.30588261086E+02 -0.58059059554E+03  0.58791541049E+03  0.80457629211E+02 0.  0.
         25    2    1    2    0    0  0.24753379621E+02  0.11397581542E+03  0.21017200499E+03  0.27092449559E+03  0.12499837730E+03 0.  0.
        -11    1    4    4    0    0 -0.43816878694E+02 -0.23252463469E+01 -0.15003836127E+03  0.15632285656E+03  0.00000000000E+00 0.  1.
         12    1    4    4    0    0  0.99049568685E+01 -0.28263014739E+02 -0.43055223427E+03  0.43159255393E+03  0.00000000000E+00 0. -1.
        -13    1    3    3    0    0 -0.46443865903E+02  0.47559461151E+01 -0.11817232199E+03  0.12706041629E+03  0.00000000000E+00 0.  1.
         14    1    3    3    0    0  0.28382101577E+02  0.15202736791E+02 -0.17489289873E+03  0.17783192324E+03  0.00000000000E+00 0. -1.
          5    1    5    5  501    0  0.66601657254E+02  0.27349485054E+02  0.67642610217E+02  0.98900898877E+02  0.47000000000E+01 0.  1.
         -5    1    5    5    0  501 -0.41848277633E+02  0.86626330364E+02  0.14252939477E+03  0.17202359672E+03  0.47000000000E+01 0.  1.
          1    1    1    2  502    0  0.31243672771E+02 -0.46428959789E+02  0.25799624978E+04  0.25805693763E+04  0.00000000000E+00 0. -1.
          1    1    1    2  503    0 -0.40233662411E+01 -0.56917277449E+02 -0.12217413447E+04  0.12230730466E+04  0.00000000000E+00 0. -1.
<mgrwt>
<rscale>  0 0.56566301E+02</rscale>
<asrwt>0</asrwt>
<pdfrwt beam="1">  1        2 0.41633177E+00 0.55962625E+02</pdfrwt>
<pdfrwt beam="2">  1        2 0.31416451E+00 0.57176489E+02</pdfrwt>
<totfact> 0.50701559E+00</totfact>
</mgrwt>
</event>
<event>
13    1  0.1942437E-008  0.1423119E+03  0.7546771E-02  0.1244255E+00
          2   -1    0    0  502    0  0.00000000000E+00  0.00000000000E+00  0.29453380438E+03  0.29453380438E+03  0.00000000000E+00 0. -1.
          2   -1    0    0  503    0 -0.00000000000E+00 -0.00000000000E+00 -0.37606851680E+04  0.37606851680E+04  0.00000000000E+00 0. -1.
         24    2    1    2    0    0  0.15780829955E+02  0.17559047667E+02 -0.36561855614E+03  0.37551025342E+03  0.82302290854E+02 0.  0.
         24    2    1    2    0    0 -0.84324041236E+02 -0.24635179723E+02 -0.28341160564E+03  0.31169467191E+03  0.95467241919E+02 0.  0.
         25    2    1    2    0    0  0.29466261277E+02  0.63772138125E+01 -0.92710985933E+02  0.15852088158E+03  0.12499845429E+03 0.  0.
        -13    1    3    3    0    0 -0.21614463453E+02  0.35261198161E+02 -0.23114064309E+03  0.23481169905E+03  0.00000000000E+00 0.  1.
         14    1    3    3    0    0  0.37395293409E+02 -0.17702150494E+02 -0.13447791306E+03  0.14069855437E+03  0.00000000000E+00 0. -1.
        -13    1    4    4    0    0 -0.50321338179E+02  0.47901002245E+01 -0.40825693360E+02  0.64976298560E+02  0.00000000000E+00 0.  1.
         14    1    4    4    0    0 -0.34002703057E+02 -0.29425279947E+02 -0.24258591228E+03  0.24671837335E+03  0.00000000000E+00 0. -1.
          5    1    5    5  501    0 -0.21406790770E+01 -0.57133652016E+02 -0.38010914590E+02  0.68816831717E+02  0.47000000000E+01 0.  1.
         -5    1    5    5    0  501  0.31606940354E+02  0.63510865829E+02 -0.54700071342E+02  0.89704049862E+02  0.47000000000E+01 0.  1.
          1    1    1    2  502    0  0.68636143177E+02  0.13168539714E+03  0.21813583198E+03  0.26388483314E+03  0.00000000000E+00 0. -1.
          1    1    1    2  503    0 -0.29559193174E+02 -0.13098647889E+03 -0.29425460479E+04  0.29456083323E+04  0.00000000000E+00 0. -1.
<mgrwt>
<rscale>  0 0.11930101E+03</rscale>
<asrwt>0</asrwt>
<pdfrwt beam="1">  1        2 0.43313800E-01 0.14231185E+03</pdfrwt>
<pdfrwt beam="2">  1        2 0.55304187E+00 0.10001085E+03</pdfrwt>
<totfact> 0.19091483E+01</totfact>
</mgrwt>
</event>
<event>
13    1  0.1942437E-008  0.1733554E+03  0.7546771E-02  0.1476311E+00
          2   -1    0    0  503    0  0.00000000000E+00  0.00000000000E+00  0.67489100608E+03  0.67489100608E+03  0.00000000000E+00 0. -1.
         -1   -1    0    0    0  501 -0.00000000000E+00 -0.00000000000E+00 -0.68186168151E+03  0.68186168151E+03  0.00000000000E+00 0.  1.
         24    2    1    2    0    0 -0.18656725978E+03  0.21241587117E+02  0.13910288173E+02  0.20482415297E+03  0.80628097318E+02 0.  0.
         24    2    1    2    0    0  0.84093864773E+02 -0.14213214055E+01  0.19250136682E+02  0.11906802694E+03  0.82053817883E+02 0.  0.
         25    2    1    2    0    0  0.23296207280E+02  0.12080245629E+03  0.41823288784E+03  0.45351403496E+03  0.12498113744E+03 0.  0.
        -13    1    3    3    0    0 -0.55207588769E+02  0.34910231203E+02  0.29813042014E+02  0.71801250507E+02  0.00000000000E+00 0.  1.
         14    1    3    3    0    0 -0.13135967101E+03 -0.13668644086E+02 -0.15902753841E+02  0.13302290246E+03  0.00000000000E+00 0. -1.
        -13    1    4    4    0    0  0.61273153191E+02  0.36326481195E+02  0.22860793865E+02  0.74810617121E+02  0.00000000000E+00 0.  1.
         14    1    4    4    0    0  0.22820711583E+02 -0.37747802600E+02 -0.36106571827E+01  0.44257409815E+02  0.00000000000E+00 0. -1.
          5    1    5    5  502    0 -0.11745329327E+02  0.20961192918E+02  0.27120804523E+03  0.27231088514E+03  0.47000000000E+01 0.  1.
         -5    1    5    5    0  502  0.35041536607E+02  0.99841263370E+02  0.14702484261E+03  0.18120314982E+03  0.47000000000E+01 0.  1.
          1    1    1    2  503    0 -0.81254642026E+01  0.81644716929E+01  0.45413354400E+02  0.46851408990E+02  0.00000000000E+00 0. -1.
         -2    1    1    2    0  501  0.87302651932E+02 -0.14878719369E+03 -0.50377734254E+03  0.53249506373E+03  0.00000000000E+00 0.  1.
<mgrwt>
<rscale>  0 0.44685996E+02</rscale>
<asrwt>0</asrwt>
<pdfrwt beam="1">  1        2 0.99248677E-01 0.11518757E+02</pdfrwt>
<pdfrwt beam="2">  1       -1 0.10027378E+00 0.17335536E+03</pdfrwt>
<totfact> 0.58965956E+01</totfact>
</mgrwt>
</event>
<event>
13    1  0.1942437E-008  0.1475435E+03  0.7546771E-02  0.1323045E+00
         -1   -1    0    0    0  501 -0.00000000000E+00  0.00000000000E+00  0.14212511584E+04  0.14212511584E+04  0.00000000000E+00 0.  1.
          2   -1    0    0  503    0  0.00000000000E+00 -0.00000000000E+00 -0.66687392137E+03  0.66687392137E+03  0.00000000000E+00 0. -1.
         24    2    1    2    0    0  0.24144851150E+02 -0.10684521690E+03  0.75230886944E+02  0.15519610623E+03  0.80170261491E+02 0.  0.
         24    2    1    2    0    0 -0.47402797373E+02  0.10464115014E+03 -0.70999019456E+01  0.14037015754E+03  0.80352828319E+02 0.  0.
         25    2    1    2    0    0 -0.50144062075E+02 -0.12774071905E+03 -0.67433489349E+02  0.19749521755E+03  0.12499986882E+03 0.  0.
        -13    1    4    4    0    0  0.20700942428E+02  0.24125058040E+02  0.10452477990E+02  0.33463438840E+02  0.00000000000E+00 0.  1.
         14    1    4    4    0    0 -0.68103739801E+02  0.80516092100E+02 -0.17552379936E+02  0.10690671870E+03  0.00000000000E+00 0. -1.
        -13    1    3    3    0    0  0.16818505766E+02 -0.10211136124E+03  0.28057699894E+02  0.10722325659E+03  0.00000000000E+00 0.  1.
         14    1    3    3    0    0  0.73263453838E+01 -0.47338556596E+01  0.47173187051E+02  0.47972849640E+02  0.00000000000E+00 0. -1.
          5    1    5    5  502    0 -0.64666389924E+02 -0.12426129022E+03 -0.12891862322E+02  0.14075120016E+03  0.47000000000E+01 0. -1.
         -5    1    5    5    0  502  0.14522327849E+02 -0.34794288367E+01 -0.54541627028E+02  0.56744017394E+02  0.47000000000E+01 0. -1.
          1    1    1    2  503    0 -0.35361575521E+02  0.29020430221E+02 -0.41474271705E+03  0.41725789116E+03  0.00000000000E+00 0. -1.
         -2    1    1    2    0  501  0.10876358382E+03  0.10092435560E+03  0.11684224584E+04  0.11778057073E+04  0.00000000000E+00 0.  1.
<mgrwt>
<rscale>  0 0.82154801E+02</rscale>
<asrwt>0</asrwt>
<pdfrwt beam="2">  1        2 0.98069694E-01 0.45745234E+02</pdfrwt>
<pdfrwt beam="1">  1       -1 0.20900752E+00 0.14754349E+03</pdfrwt>
<totfact> 0.87096165E+00</totfact>
</mgrwt>
</event>
<event>
13    1  0.2905476E-008  0.9146757E+02  0.7546771E-02  0.1503067E+00
          2   -1    0    0  503    0  0.00000000000E+00  0.00000000000E+00  0.28064780968E+04  0.28064780968E+04  0.00000000000E+00 0. -1.
          2   -1    0    0  502    0 -0.00000000000E+00 -0.00000000000E+00 -0.18052797249E+04  0.18052797249E+04  0.00000000000E+00 0. -1.
         24    2    1    2    0    0  0.36941590480E+03  0.38808935406E+02 -0.31871663078E+03  0.49710877725E+03  0.86963219245E+02 0.  0.
         24    2    1    2    0    0  0.46080408146E+03  0.51021347438E+03  0.27553055255E+03  0.74788104636E+03  0.10368598354E+03 0.  0.
         25    2    1    2    0    0 -0.73467511775E+03 -0.57452760939E+03  0.14403031997E+04  0.17204435798E+04  0.12499320655E+03 0.  0.
        -11    1    4    4    0    0  0.43685119515E+02  0.54665836960E+02 -0.36048612776E+01  0.70069525633E+02  0.00000000000E+00 0.  1.
         12    1    4    4    0    0  0.41711896195E+03  0.45554763742E+03  0.27913541383E+03  0.67781152073E+03  0.00000000000E+00 0. -1.
        -13    1    3    3    0    0  0.19809503383E+03  0.46759197664E+02 -0.21786083545E+03  0.29814662268E+03  0.00000000000E+00 0.  1.
         14    1    3    3    0    0  0.17132087097E+03 -0.79502622571E+01 -0.10085579533E+03  0.19896215457E+03  0.00000000000E+00 0. -1.
          5    1    5    5  501    0 -0.39633119025E+03 -0.37563167832E+03  0.89803295753E+03  0.10510294253E+04  0.47000000000E+01 0.  1.
         -5    1    5    5    0  501 -0.33834392750E+03 -0.19889593107E+03  0.54227024216E+03  0.66941415447E+03  0.47000000000E+01 0.  1.
          1    1    1    2  502    0 -0.91116916329E+02  0.79375806875E+01 -0.10189415737E+04  0.10230382340E+04  0.00000000000E+00 0. -1.
          1    1    1    2  503    0 -0.44279521842E+01  0.17567618916E+02  0.62302282422E+03  0.62328618426E+03  0.00000000000E+00 0. -1.
<mgrwt>
<rscale>  0 0.40707786E+02</rscale>
<asrwt>0</asrwt>
<pdfrwt beam="1">  1        2 0.41271737E+00 0.18117064E+02</pdfrwt>
<pdfrwt beam="2">  1        2 0.26548231E+00 0.91467571E+02</pdfrwt>
<totfact> 0.86317135E+00</totfact>
</mgrwt>
</event>
<event>
13    1  0.1942437E-008  0.1465215E+03  0.7546771E-02  0.1268541E+00
          2   -1    0    0  502    0  0.00000000000E+00  0.00000000000E+00  0.24036855270E+04  0.24036855270E+04  0.00000000000E+00 0. -1.
          2   -1    0    0  503    0 -0.00000000000E+00 -0.00000000000E+00 -0.17293620163E+04  0.17293620163E+04  0.00000000000E+00 0. -1.
         24    2    1    2    0    0 -0.54397596145E+01 -0.27360918635E+02 -0.85496437973E+03  0.85929845263E+03  0.81556907844E+02 0.  0.
         24    2    1    2    0    0  0.14911586485E+02 -0.17814280071E+02 -0.37655439747E+02  0.92778996829E+02  0.81549409098E+02 0.  0.
         25    2    1    2    0    0  0.12437021286E+02 -0.37045856853E+02  0.35309152345E+03  0.37659800015E+03  0.12500141910E+03 0.  0.
        -13    1    3    3    0    0  0.92096315929E+01  0.22780208903E+02 -0.48988383818E+03  0.49049967395E+03  0.00000000000E+00 0.  1.
         14    1    3    3    0    0 -0.14649391207E+02 -0.50141127538E+02 -0.36508054156E+03  0.36879877868E+03  0.00000000000E+00 0. -1.
        -13    1    4    4    0    0  0.34384183814E+02  0.11359882392E+02  0.60764164348E+01  0.36718413108E+02  0.00000000000E+00 0.  1.
         14    1    4    4    0    0 -0.19472597328E+02 -0.29174162463E+02 -0.43731856182E+02  0.56060583721E+02  0.00000000000E+00 0. -1.
          5    1    5    5  501    0 -0.95598069452E+01 -0.56100394044E+02  0.63060552530E+02  0.85072718342E+02  0.47000000000E+01 0.  1.
         -5    1    5    5    0  501  0.21996828231E+02  0.19054537192E+02  0.29003097092E+03  0.29152528181E+03  0.47000000000E+01 0.  1.
          1    1    1    2  502    0 -0.90606429791E+02  0.11565964824E+03  0.20045820736E+04  0.20099591959E+04  0.00000000000E+00 0. -1.
          1    1    1    2  503    0  0.68697581634E+02 -0.33438592687E+02 -0.79073026685E+03  0.79441289775E+03  0.00000000000E+00 0. -1.
<mgrwt>
<rscale>  0 0.10580529E+03</rscale>
<asrwt>0</asrwt>
<pdfrwt beam="1">  1        2 0.35348317E+00 0.14652152E+03</pdfrwt>
<pdfrwt beam="2">  1        2 0.25431794E+00 0.76403516E+02</pdfrwt>
<totfact> 0.10995305E+01</totfact>
</mgrwt>
</event>
<event>
13    1  0.1942437E-008  0.1504346E+03  0.7546771E-02  0.1354828E+00
          2   -1    0    0  503    0  0.00000000000E+00  0.00000000000E+00  0.84649034089E+03  0.84649034089E+03  0.00000000000E+00 0. -1.
          2   -1    0    0  502    0 -0.00000000000E+00 -0.00000000000E+00 -0.18867459698E+04  0.18867459698E+04  0.00000000000E+00 0. -1.
         24    2    1    2    0    0  0.35643385679E+03 -0.75933017477E+02 -0.97035904780E+03  0.10397734252E+04  0.81982783169E+02 0.  0.
         24    2    1    2    0    0 -0.26170953253E+03 -0.11061047325E+02 -0.22950140142E+03  0.35820287694E+03  0.83810390809E+02 0.  0.
         25    2    1    2    0    0 -0.17810302350E+02 -0.72120600439E+01  0.16221623375E+03  0.20570413318E+03  0.12502345075E+03 0.  0.
        -11    1    4    4    0    0  0.13227723793E+01 -0.84594971118E+01 -0.20562560633E+02  0.22274014410E+02  0.00000000000E+00 0.  1.
         12    1    4    4    0    0 -0.26303230491E+03 -0.26015502130E+01 -0.20893884078E+03  0.33592886253E+03  0.00000000000E+00 0. -1.
        -13    1    3    3    0    0  0.16791368668E+01  0.85878943493E+01 -0.26738657728E+02  0.28134094033E+02  0.00000000000E+00 0.  1.
         14    1    3    3    0    0  0.35475471992E+03 -0.84520911826E+02 -0.94362039007E+03  0.10116393312E+04  0.00000000000E+00 0. -1.
          5    1    5    5  501    0  0.24778945483E+01 -0.64749727368E+02  0.76062702311E+02  0.10003145425E+03  0.47000000000E+01 0.  1.
         -5    1    5    5    0  501 -0.20288196899E+02  0.57537667324E+02  0.86153531441E+02  0.10567267894E+03  0.47000000000E+01 0.  1.
          1    1    1    2  502    0 -0.85033526836E+02  0.12727554200E+03 -0.55520266652E+03  0.57591645678E+03  0.00000000000E+00 0. -1.
          1    1    1    2  503    0  0.81195049332E+01 -0.33069417156E+02  0.55259125312E+03  0.55363941852E+03  0.00000000000E+00 0. -1.
<mgrwt>
<rscale>  0 0.71571927E+02</rscale>
<asrwt>0</asrwt>
<pdfrwt beam="1">  1        2 0.12448388E+00 0.34051618E+02</pdfrwt>
<pdfrwt beam="2">  1        2 0.27746264E+00 0.15043458E+03</pdfrwt>
<totfact> 0.58913509E+01</totfact>
</mgrwt>
</event>
<event>
13    1  0.1942437E-008  0.4480820E+02  0.7546771E-02  0.1520825E+00
          2   -1    0    0  502    0  0.00000000000E+00  0.00000000000E+00  0.15515960027E+04  0.15515960027E+04  0.00000000000E+00 0. -1.
          2   -1    0    0  503    0 -0.00000000000E+00 -0.00000000000E+00 -0.13939383050E+04  0.13939383050E+04  0.00000000000E+00 0. -1.
         24    2    1    2    0    0 -0.65526053959E+02  0.27063373490E+02 -0.42568077951E+03  0.43902742772E+03  0.80714721796E+02 0.  0.
         24    2    1    2    0    0 -0.45688052719E+02 -0.54322112582E+02 -0.78472683172E+02  0.13307156066E+03  0.80695651523E+02 0.  0.
         25    2    1    2    0    0  0.15588490732E+03 -0.34292144590E+02  0.23889723184E+03  0.31332401436E+03  0.12499598027E+03 0.  0.
        -11    1    3    3    0    0 -0.42990980697E+02  0.66147620598E+01 -0.38874605716E+03  0.39117192697E+03  0.00000000000E+00 0.  1.
         12    1    3    3    0    0 -0.22535073262E+02  0.20448611430E+02 -0.36934722356E+02  0.47855500749E+02  0.00000000000E+00 0. -1.
        -13    1    4    4    0    0 -0.20048531247E+02 -0.71352401886E+02 -0.41428254630E+02  0.84908239540E+02  0.00000000000E+00 0.  1.
         14    1    4    4    0    0 -0.25639521472E+02  0.17030289303E+02 -0.37044428542E+02  0.48163321117E+02  0.00000000000E+00 0. -1.
          5    1    5    5  501    0  0.47094827282E+02 -0.30523427092E+02  0.65489893984E+01  0.56697280537E+02  0.47000000000E+01 0. -1.
         -5    1    5    5    0  501  0.10879008004E+03 -0.37687174984E+01  0.23234824244E+03  0.25662673382E+03  0.47000000000E+01 0. -1.
          1    1    1    2  502    0 -0.19793495137E+02  0.40175810244E+02  0.12407798880E+04  0.12415879383E+04  0.00000000000E+00 0. -1.
          1    1    1    2  503    0 -0.24877305502E+02  0.21375073439E+02 -0.81786595946E+03  0.81852336664E+03  0.00000000000E+00 0. -1.
<mgrwt>
<rscale>  0 0.38336198E+02</rscale>
<asrwt>0</asrwt>
<pdfrwt beam="1">  1        2 0.22817588E+00 0.44808203E+02</pdfrwt>
<pdfrwt beam="2">  1        2 0.20499093E+00 0.32798995E+02</pdfrwt>
<totfact> 0.49486736E+01</totfact>
</mgrwt>
</event>
<event>
13    1  0.1942437E-008  0.1476300E+03  0.7546771E-02  0.1292018E+00
          2   -1    0    0  502    0  0.00000000000E+00  0.00000000000E+00  0.23699845631E+04  0.23699845631E+04  0.00000000000E+00 0. -1.
          2   -1    0    0  503    0 -0.00000000000E+00 -0.00000000000E+00 -0.99270040255E+03  0.99270040255E+03  0.00000000000E+00 0. -1.
         24    2    1    2    0    0  0.52653964209E+01  0.84472020839E+02 -0.10899476413E+03  0.16058855632E+03  0.82131474529E+02 0.  0.
         24    2    1    2    0    0 -0.41105296536E+02 -0.84410574202E+02  0.66471960080E+02  0.13968069471E+03  0.79229947348E+02 0.  0.
         25    2    1    2    0    0 -0.13891612492E+03  0.20451743979E+03  0.11515388715E+04  0.11843970701E+04  0.12501829475E+03 0.  0.
        -11    1    4    4    0    0 -0.56540303126E+02 -0.78061801203E+02  0.73856819915E+02  0.12143014672E+03  0.00000000000E+00 0.  1.
         12    1    4    4    0    0  0.15435006590E+02 -0.63487729986E+01 -0.73848598353E+01  0.18250547987E+02  0.00000000000E+00 0. -1.
        -13    1    3    3    0    0  0.41696933704E+02  0.59745345826E+02 -0.57341039285E+02  0.92715346165E+02  0.00000000000E+00 0.  1.
         14    1    3    3    0    0 -0.36431537283E+02  0.24726675013E+02 -0.51653724849E+02  0.67873210155E+02  0.00000000000E+00 0. -1.
          5    1    5    5  501    0 -0.14904801873E+03  0.20271042086E+03  0.95715153890E+03  0.98968074905E+03  0.47000000000E+01 0. -1.
         -5    1    5    5    0  501  0.10131893807E+02  0.18070189279E+01  0.19438733262E+03  0.19471632102E+03  0.47000000000E+01 0. -1.
          1    1    1    2  502    0  0.59472028560E+02  0.11913907486E+02  0.10535648843E+04  0.10553093521E+04  0.00000000000E+00 0. -1.
          1    1    1    2  503    0  0.11528399648E+03 -0.21649279391E+03 -0.78529679115E+03  0.82270929243E+03  0.00000000000E+00 0. -1.
<mgrwt>
<rscale>  0 0.94627147E+02</rscale>
<asrwt>0</asrwt>
<pdfrwt beam="1">  1        2 0.34852714E+00 0.60653634E+02</pdfrwt>
<pdfrwt beam="2">  1        2 0.14598535E+00 0.14763001E+03</pdfrwt>
<totfact> 0.29275120E+01</totfact>
</mgrwt>
</event>
<event>
13    1  0.1942437E-008  0.1088058E+03  0.7546771E-02  0.1527099E+00
          2   -1    0    0  503    0  0.00000000000E+00  0.00000000000E+00  0.81819808557E+03  0.81819808557E+03  0.00000000000E+00 0. -1.
          2   -1    0    0  502    0 -0.00000000000E+00 -0.00000000000E+00 -0.22364874459E+04  0.22364874459E+04  0.00000000000E+00 0. -1.
         24    2    1    2    0    0  0.75494058457E+02  0.47678074063E+03 -0.71314710898E+03  0.86500169863E+03  0.81424272188E+02 0.  0.
         24    2    1    2    0    0 -0.31652538192E+03 -0.55988066331E+03  0.66552167235E+02  0.65236076228E+03  0.86548822374E+02 0.  0.
         25    2    1    2    0    0  0.23463254430E+03  0.19292021135E+03  0.25351772842E+03  0.41492955996E+03  0.12499864924E+03 0.  0.
        -11    1    3    3    0    0  0.47356801835E+02  0.41449110141E+03 -0.64730589055E+03  0.77009769235E+03  0.00000000000E+00 0.  1.
         12    1    3    3    0    0  0.28137256622E+02  0.62289639221E+02 -0.65841218431E+02  0.94904006285E+02  0.00000000000E+00 0. -1.
        -13    1    4    4    0    0 -0.13759231462E+03 -0.18882061781E+03 -0.77559254815E+01  0.23376275395E+03  0.00000000000E+00 0.  1.
         14    1    4    4    0    0 -0.17893306730E+03 -0.37106004549E+03  0.74308092717E+02  0.41859800833E+03  0.00000000000E+00 0. -1.
          5    1    5    5  501    0  0.21410592519E+03  0.17428452689E+03  0.26668983243E+03  0.38387758496E+03  0.47000000000E+01 0. -1.
         -5    1    5    5    0  501  0.20526619115E+02  0.18635684466E+02 -0.13172104006E+02  0.31051975006E+02  0.47000000000E+01 0. -1.
          1    1    1    2  502    0 -0.64997697065E+01 -0.10860994149E+03 -0.10701287981E+04  0.10756458576E+04  0.00000000000E+00 0. -1.
          1    1    1    2  503    0  0.12898548868E+02 -0.12103471804E+01  0.44916651172E+02  0.46747652943E+02  0.00000000000E+00 0. -1.
<mgrwt>
<rscale>  0 0.37544674E+02</rscale>
<asrwt>0</asrwt>
<pdfrwt beam="1">  1        2 0.12032325E+00 0.12955211E+02</pdfrwt>
<pdfrwt beam="2">  1        2 0.32889521E+00 0.10880583E+03</pdfrwt>
<totfact> 0.44298670E+01</totfact>
</mgrwt>
</event>
<event>
13    1  0.1942437E-008  0.4713442E+02  0.7546771E-02  0.1704178E+00
          2   -1    0    0  503    0  0.00000000000E+00  0.00000000000E+00  0.21547247377E+04  0.21547247377E+04  0.00000000000E+00 0. -1.
         -3   -1    0    0    0  501 -0.00000000000E+00 -0.00000000000E+00 -0.27315200485E+03  0.27315200485E+03  0.00000000000E+00 0.  1.
         24    2    1    2    0    0 -0.11566575634E+03 -0.17957489391E+03 -0.95039147620E+02  0.24756848948E+03  0.81437139496E+02 0.  0.
         24    2    1    2    0    0  0.98686042717E+02  0.44772037328E+02  0.13693362408E+03  0.19225608472E+03  0.80424588007E+02 0.  0.
         25    2    1    2    0    0  0.41764251275E+02  0.16395408255E+03  0.10970345488E+04  0.11170218589E+04  0.12501135241E+03 0.  0.
        -11    1    3    3    0    0 -0.10164752884E+03 -0.18591062002E+03 -0.81311483821E+02  0.22695051478E+03  0.00000000000E+00 0.  1.
         12    1    3    3    0    0 -0.14018227491E+02  0.63357261088E+01 -0.13727663798E+02  0.20617974698E+02  0.00000000000E+00 0. -1.
        -11    1    4    4    0    0  0.59446512971E+02 -0.16878154686E+02  0.65950797308E+02  0.90378469093E+02  0.00000000000E+00 0.  1.
         12    1    4    4    0    0  0.39239529745E+02  0.61650192015E+02  0.70982826771E+02  0.10187761563E+03  0.00000000000E+00 0. -1.
          5    1    5    5  502    0  0.32691968189E+02  0.84315347667E+02  0.24476574833E+03  0.26097931755E+03  0.47000000000E+01 0.  1.
         -5    1    5    5    0  502  0.90722830856E+01  0.79638734880E+02  0.85226880047E+03  0.85604254139E+03  0.47000000000E+01 0.  1.
          1    1    1    2  503    0  0.10176854512E+02  0.25495161768E+01  0.79812392939E+03  0.79819288087E+03  0.00000000000E+00 0. -1.
         -4    1    1    2    0  501 -0.34961392168E+02 -0.31700742140E+02 -0.55480221759E+02  0.72837428572E+02  0.00000000000E+00 0.  1.
<mgrwt>
<rscale>  0 0.22237439E+02</rscale>
<asrwt>0</asrwt>
<pdfrwt beam="1">  1        2 0.31687128E+00 0.10491349E+02</pdfrwt>
<pdfrwt beam="2">  1       -3 0.40169414E-01 0.47134425E+02</pdfrwt>
<totfact> 0.35939082E+01</totfact>
</mgrwt>
</event>
<event>
13    1  0.1942437E-008  0.1137902E+03  0.7546771E-02  0.1303890E+00
          2   -1    0    0  502    0  0.00000000000E+00  0.00000000000E+00  0.32929590259E+04  0.32929590259E+04  0.00000000000E+00 0. -1.
          2   -1    0    0  503    0 -0.00000000000E+00 -0.00000000000E+00 -0.40765178244E+03  0.40765178244E+03  0.00000000000E+00 0. -1.
         24    2    1    2    0    0 -0.62133377898E+02  0.38294342636E+02  0.42324332354E+03  0.43834814698E+03  0.87676528866E+02 0.  0.
         24    2    1    2    0    0 -0.44607665061E+02 -0.57523512440E+02  0.46219221053E+03  0.47472899244E+03  0.80294324378E+02 0.  0.
         25    2    1    2    0    0  0.64421327650E+02  0.42755641844E+02  0.84918316927E+03  0.86180808014E+03  0.12499183838E+03 0.  0.
        -11    1    4    4    0    0 -0.59953341207E+02 -0.49882101581E+02  0.25089196610E+03  0.26273447782E+03  0.00000000000E+00 0.  1.
         12    1    4    4    0    0  0.15345676146E+02 -0.76414108586E+01  0.21130024443E+03  0.21199451462E+03  0.00000000000E+00 0. -1.
        -13    1    3    3    0    0  0.21156572162E+02  0.18364976328E+02  0.88845358482E+02  0.93157772756E+02  0.00000000000E+00 0.  1.
         14    1    3    3    0    0 -0.83289950060E+02  0.19929366309E+02  0.33439796505E+03  0.34519037422E+03  0.00000000000E+00 0. -1.
          5    1    5    5  501    0  0.81258261720E+01  0.61327071157E+02  0.18835389598E+03  0.19830864540E+03  0.47000000000E+01 0.  1.
         -5    1    5    5    0  501  0.56295501478E+02 -0.18571429313E+02  0.66082927329E+03  0.66349943475E+03  0.47000000000E+01 0.  1.
          1    1    1    2  502    0 -0.32802424594E+02  0.62413990143E+02  0.15289714842E+04  0.15305963886E+04  0.00000000000E+00 0. -1.
          1    1    1    2  503    0  0.75122139903E+02 -0.85940462184E+02 -0.37828294416E+03  0.39512920012E+03  0.00000000000E+00 0. -1.
<mgrwt>
<rscale>  0 0.89572458E+02</rscale>
<asrwt>0</asrwt>
<pdfrwt beam="1">  1        2 0.48425867E+00 0.70508902E+02</pdfrwt>
<pdfrwt beam="2">  1        2 0.59948793E-01 0.11379025E+03</pdfrwt>
<totfact> 0.27227477E+01</totfact>
</mgrwt>
</event>
<event>
13    1  0.1942437E-008  0.9510131E+02  0.7546771E-02  0.1346112E+00
          2   -1    0    0  502    0  0.00000000000E+00  0.00000000000E+00  0.27597368936E+04  0.27597368936E+04  0.00000000000E+00 0. -1.
          2   -1    0    0  503    0 -0.00000000000E+00 -0.00000000000E+00 -0.98313303930E+03  0.98313303930E+03  0.00000000000E+00 0. -1.
         24    2    1    2    0    0  0.16575977086E+03 -0.15439342709E+03  0.14550810251E+03  0.28163794385E+03  0.82666145180E+02 0.  0.
         24    2    1    2    0    0 -0.49955032327E+02 -0.12607837901E+03  0.93093650232E+02  0.18859241417E+03  0.92246452844E+02 0.  0.
         25    2    1    2    0    0 -0.32472522532E+02  0.19763692478E+03  0.85712600709E+03  0.88904823781E+03  0.12500783324E+03 0.  0.
        -11    1    3    3    0    0  0.14980572882E+03 -0.11526760020E+03  0.83592726572E+02  0.20667878454E+03  0.00000000000E+00 0.  1.
         12    1    3    3    0    0  0.15954042033E+02 -0.39125826888E+02  0.61915375938E+02  0.74959159310E+02  0.00000000000E+00 0. -1.
        -11    1    4    4    0    0 -0.50268001775E+02 -0.89795046304E+02  0.17016368936E+02  0.10430522113E+03  0.00000000000E+00 0.  1.
         12    1    4    4    0    0  0.31296944744E+00 -0.36283332705E+02  0.76077281296E+02  0.84287193045E+02  0.00000000000E+00 0. -1.
          5    1    5    5  501    0 -0.57915606318E+02  0.14427593085E+03  0.75584841314E+03  0.77168560652E+03  0.47000000000E+01 0. -1.
         -5    1    5    5    0  501  0.25443083786E+02  0.53360993929E+02  0.10127759396E+03  0.11736263129E+03  0.47000000000E+01 0. -1.
          1    1    1    2  502    0  0.82944944991E+01  0.57422874027E+02  0.15290268735E+04  0.15301272382E+04  0.00000000000E+00 0. -1.
          1    1    1    2  503    0 -0.91626710496E+02  0.25412007292E+02 -0.84815077901E+03  0.85346409891E+03  0.00000000000E+00 0. -1.
<mgrwt>
<rscale>  0 0.74281003E+02</rscale>
<asrwt>0</asrwt>
<pdfrwt beam="1">  1        2 0.40584366E+00 0.58018834E+02</pdfrwt>
<pdfrwt beam="2">  1        2 0.14457839E+00 0.95101315E+02</pdfrwt>
<totfact> 0.19633195E+01</totfact>
</mgrwt>
</event>
<event>
13    1  0.1942437E-008  0.6372034E+02  0.7546771E-02  0.1424971E+00
          2   -1    0    0  502    0  0.00000000000E+00  0.00000000000E+00  0.47791127643E+04  0.47791127643E+04  0.00000000000E+00 0. -1.
          2   -1    0    0  503    0 -0.00000000000E+00 -0.00000000000E+00 -0.28924089683E+04  0.28924089683E+04  0.00000000000E+00 0. -1.
         24    2    1    2    0    0  0.13253034404E+04  0.25322998286E+03 -0.34067581281E+03  0.13934210622E+04  0.70764494745E+02 0.  0.
         24    2    1    2    0    0 -0.13703215743E+04 -0.23471967822E+03  0.66909428003E+03  0.15466694838E+04  0.10781833051E+03 0.  0.
         25    2    1    2    0    0  0.69793905845E+02  0.76064064329E+02  0.11393983306E+03  0.19815409965E+03  0.12500332186E+03 0.  0.
        -13    1    4    4    0    0 -0.65906349094E+03 -0.70068442093E+02  0.28133555666E+03  0.72001664363E+03  0.00000000000E+00 0.  1.
         14    1    4    4    0    0 -0.71125808334E+03 -0.16465123613E+03  0.38775872336E+03  0.82665284020E+03  0.00000000000E+00 0. -1.
        -13    1    3    3    0    0  0.11572355336E+04  0.23893149379E+03 -0.28195736596E+03  0.12148178033E+04  0.00000000000E+00 0.  1.
         14    1    3    3    0    0  0.16806790680E+03  0.14298489067E+02 -0.58718446848E+02  0.17860325889E+03  0.00000000000E+00 0. -1.
          5    1    5    5  501    0  0.96740325823E+02  0.66230517085E+02  0.49282602457E+02  0.12726365129E+03  0.47000000000E+01 0. -1.
         -5    1    5    5    0  501 -0.26946419978E+02  0.98335472442E+01  0.64657230599E+02  0.70890448368E+02  0.47000000000E+01 0. -1.
          1    1    1    2  502    0 -0.38328914954E+02 -0.50895165252E+02  0.29881330695E+04  0.29888122498E+04  0.00000000000E+00 0. -1.
          1    1    1    2  503    0  0.13553142952E+02 -0.43679203714E+02 -0.15437875737E+04  0.15444648372E+04  0.00000000000E+00 0. -1.
<mgrwt>
<rscale>  0 0.53982955E+02</rscale>
<asrwt>0</asrwt>
<pdfrwt beam="1">  1        2 0.70281070E+00 0.63720341E+02</pdfrwt>
<pdfrwt beam="2">  1        2 0.42535426E+00 0.45733582E+02</pdfrwt>
<totfact> 0.12208750E-01</totfact>
</mgrwt>
</event>
<event>
13    1  0.1942437E-008  0.1566760E+03  0.7546771E-02  0.1291010E+00
          2   -1    0    0  502    0  0.00000000000E+00  0.00000000000E+00  0.19733454666E+04  0.19733454666E+04  0.00000000000E+00 0. -1.
          2   -1    0    0  503    0 -0.00000000000E+00 -0.00000000000E+00 -0.17046992838E+04  0.17046992838E+04  0.00000000000E+00 0. -1.
         24    2    1    2    0    0  0.21517793527E+03 -0.10322009099E+03 -0.29555035438E+03  0.38810733977E+03  0.79507007221E+02 0.  0.
         24    2    1    2    0    0 -0.42321509905E+03 -0.98050553808E+02  0.63810044645E+02  0.44941879279E+03  0.95815438990E+02 0.  0.
         25    2    1    2    0    0  0.32501166134E+02  0.11658466498E+03  0.16963327863E+03  0.24299913399E+03  0.12499927998E+03 0.  0.
        -11    1    3    3    0    0  0.90998285088E+02 -0.78164624921E+01 -0.78307980105E+02  0.12030762537E+03  0.00000000000E+00 0.  1.
         12    1    3    3    0    0  0.12417965018E+03 -0.95403628494E+02 -0.21724237428E+03  0.26779971440E+03  0.00000000000E+00 0. -1.
        -13    1    4    4    0    0 -0.26412611066E+03 -0.70804698278E+02 -0.61093098537E+01  0.27352007476E+03  0.00000000000E+00 0.  1.
         14    1    4    4    0    0 -0.15908898839E+03 -0.27245855530E+02  0.69919354499E+02  0.17589871803E+03  0.00000000000E+00 0. -1.
          5    1    5    5  501    0  0.46098368784E+02  0.35304996065E+01  0.97811401851E+02  0.10828981653E+03  0.47000000000E+01 0. -1.
         -5    1    5    5    0  501 -0.13597202650E+02  0.11305416537E+03  0.71821876779E+02  0.13470931746E+03  0.47000000000E+01 0. -1.
          1    1    1    2  502    0  0.55559823704E+02 -0.15542003344E+02  0.14581722790E+04  0.14593131408E+04  0.00000000000E+00 0. -1.
          1    1    1    2  503    0  0.11997617394E+03  0.10022798316E+03 -0.11274190651E+04  0.11382063430E+04  0.00000000000E+00 0. -1.
<mgrwt>
<rscale>  0 0.95073986E+02</rscale>
<asrwt>0</asrwt>
<pdfrwt beam="1">  1        2 0.29019786E+00 0.57692702E+02</pdfrwt>
<pdfrwt beam="2">  1        2 0.25069107E+00 0.15667602E+03</pdfrwt>
<totfact> 0.19058691E+01</totfact>
</mgrwt>
</event>
<event>
13    1  0.1942437E-008  0.4155424E+02  0.7546771E-02  0.1512324E+00
          2   -1    0    0  503    0  0.00000000000E+00  0.00000000000E+00  0.22570506832E+04  0.22570506832E+04  0.00000000000E+00 0. -1.
         -1   -1    0    0    0  501 -0.00000000000E+00 -0.00000000000E+00 -0.74344741466E+03  0.74344741466E+03  0.00000000000E+00 0.  1.
         24    2    1    2    0    0  0.12880797674E+02 -0.41100042659E+02 -0.24212836886E+03  0.25857477579E+03  0.79872643724E+02 0.  0.
         24    2    1    2    0    0  0.48209237439E+02 -0.48618480733E+02 -0.26155524522E+02  0.10928258910E+03  0.81059765440E+02 0.  0.
         25    2    1    2    0    0 -0.65176897597E+02  0.15498058739E+03  0.82054451776E+03  0.84686838712E+03  0.12500299608E+03 0.  0.
        -11    1    3    3    0    0 -0.17122105553E+02 -0.34980321836E+02 -0.21224557484E+03  0.21578918753E+03  0.00000000000E+00 0.  1.
         12    1    3    3    0    0  0.30002903227E+02 -0.61197208233E+01 -0.29882794018E+02  0.42785588266E+02  0.00000000000E+00 0. -1.
        -13    1    4    4    0    0  0.40678776569E+02  0.13967749652E+02 -0.12396425806E+02  0.44760834066E+02  0.00000000000E+00 0.  1.
         14    1    4    4    0    0  0.75304608706E+01 -0.62586230385E+02 -0.13759098716E+02  0.64521755030E+02  0.00000000000E+00 0. -1.
          5    1    5    5  502    0 -0.67044418964E+02  0.13970688027E+03  0.81535465572E+03  0.82996281309E+03  0.47000000000E+01 0. -1.
         -5    1    5    5    0  502  0.18675213671E+01  0.15273707118E+02  0.51898620366E+01  0.16905574026E+02  0.47000000000E+01 0. -1.
          1    1    1    2  503    0  0.24264667324E+02 -0.33717816466E+02  0.13723921687E+04  0.13730207318E+04  0.00000000000E+00 0. -1.
         -2    1    1    2    0  501 -0.20177804841E+02 -0.31544247530E+02 -0.41104952449E+03  0.41275161410E+03  0.00000000000E+00 0.  1.
<mgrwt>
<rscale>  0 0.39446535E+02</rscale>
<asrwt>0</asrwt>
<pdfrwt beam="1">  1        2 0.33191922E+00 0.41554238E+02</pdfrwt>
<pdfrwt beam="2">  1       -1 0.10933050E+00 0.37445739E+02</pdfrwt>
<totfact> 0.79962366E+00</totfact>
</mgrwt>
</event>
<event>
13    1  0.1942437E-008  0.1226441E+03  0.7546771E-02  0.1317666E+00
          2   -1    0    0  503    0  0.00000000000E+00  0.00000000000E+00  0.26212639308E+04  0.26212639308E+04  0.00000000000E+00 0. -1.
          2   -1    0    0  502    0 -0.00000000000E+00 -0.00000000000E+00 -0.20015563481E+04  0.20015563481E+04  0.00000000000E+00 0. -1.
         24    2    1    2    0    0  0.47839400214E+03  0.24663604550E+03 -0.10511248361E+04  0.11856317545E+04  0.10568384890E+03 0.  0.
         24    2    1    2    0    0 -0.46944855701E+03 -0.61485914267E+02  0.96974285392E+02  0.49004419964E+03  0.81097720359E+02 0.  0.
         25    2    1    2    0    0  0.89138322584E+02 -0.19645456274E+03  0.29570363555E+03  0.38678910295E+03  0.12500053725E+03 0.  0.
        -11    1    3    3    0    0  0.20071714347E+03  0.45979950588E+02 -0.39566675650E+03  0.44604227348E+03  0.00000000000E+00 0.  1.
         12    1    3    3    0    0  0.27767685867E+03  0.20065609492E+03 -0.65545807962E+03  0.73958948100E+03  0.00000000000E+00 0. -1.
        -13    1    4    4    0    0 -0.38842985684E+03 -0.20461394166E+02  0.87917113976E+02  0.39878044244E+03  0.00000000000E+00 0.  1.
         14    1    4    4    0    0 -0.81018700164E+02 -0.41024520101E+02  0.90571714169E+01  0.91263757209E+02  0.00000000000E+00 0. -1.
          5    1    5    5  501    0  0.11181272502E+03 -0.19587133981E+03  0.25992581287E+03  0.34416737997E+03  0.47000000000E+01 0.  1.
         -5    1    5    5    0  501 -0.22674402434E+02 -0.58322292263E+00  0.35777822678E+02  0.42621722986E+02  0.47000000000E+01 0.  1.
          1    1    1    2  502    0  0.34088908092E+01 -0.57639348275E+02 -0.63783404408E+03  0.64044217756E+03  0.00000000000E+00 0. -1.
          1    1    1    2  503    0 -0.10149265852E+03  0.68943779775E+02  0.19159885420E+04  0.19199130443E+04  0.00000000000E+00 0. -1.
<mgrwt>
<rscale>  0 0.84151509E+02</rscale>
<asrwt>0</asrwt>
<pdfrwt beam="1">  1        2 0.38547999E+00 0.12264407E+03</pdfrwt>
<pdfrwt beam="2">  1        2 0.29434652E+00 0.57740064E+02</pdfrwt>
<totfact> 0.66832123E+00</totfact>
</mgrwt>
</event>
<event>
13    1  0.1942437E-008  0.5879785E+02  0.7546771E-02  0.1460260E+00
          2   -1    0    0  503    0  0.00000000000E+00  0.00000000000E+00  0.22037685040E+04  0.22037685040E+04  0.00000000000E+00 0. -1.
          2   -1    0    0  502    0 -0.00000000000E+00 -0.00000000000E+00 -0.29792494489E+04  0.29792494489E+04  0.00000000000E+00 0. -1.
         24    2    1    2    0    0 -0.35843974085E+02 -0.41370316865E+02 -0.11186303080E+04  0.11229584437E+04  0.81887769516E+02 0.  0.
         24    2    1    2    0    0  0.42900799012E+01 -0.40800595295E+02 -0.37074736109E+03  0.38189460232E+03  0.81894982498E+02 0.  0.
         25    2    1    2    0    0 -0.60942086088E+02  0.58500455840E+02  0.42334846237E+03  0.44942898787E+03  0.12500501331E+03 0.  0.
        -11    1    3    3    0    0  0.48871317334E+01  0.22344900628E+02 -0.25588044736E+03  0.25690072398E+03  0.00000000000E+00 0.  1.
         12    1    3    3    0    0 -0.40731105818E+02 -0.63715217493E+02 -0.86274986063E+03  0.86605771975E+03  0.00000000000E+00 0. -1.
        -11    1    4    4    0    0 -0.74518632268E+01 -0.58551812127E+02 -0.33601669886E+03  0.34116135021E+03  0.00000000000E+00 0.  1.
         12    1    4    4    0    0  0.11741943128E+02  0.17751216832E+02 -0.34730662236E+02  0.40733252102E+02  0.00000000000E+00 0. -1.
          5    1    5    5  501    0 -0.33754044358E+02 -0.65456465260E+00  0.34830902822E+03  0.34997290339E+03  0.47000000000E+01 0. -1.
         -5    1    5    5    0  501 -0.27188041729E+02  0.59155020492E+02  0.75039434150E+02  0.99456084479E+02  0.47000000000E+01 0. -1.
          1    1    1    2  502    0  0.58365299889E+02  0.67166196476E+01 -0.14682999650E+04  0.14694748750E+04  0.00000000000E+00 0. -1.
          1    1    1    2  503    0  0.34130680382E+02  0.16953836673E+02  0.17588482268E+04  0.17592610440E+04  0.00000000000E+00 0. -1.
<mgrwt>
<rscale>  0 0.47336648E+02</rscale>
<asrwt>0</asrwt>
<pdfrwt beam="1">  1        2 0.32408361E+00 0.38109525E+02</pdfrwt>
<pdfrwt beam="2">  1        2 0.43812492E+00 0.58797853E+02</pdfrwt>
<totfact> 0.41306517E+00</totfact>
</mgrwt>
</event>
<event>
13    1  0.1942437E-008  0.1052361E+03  0.7546771E-02  0.1471180E+00
          2   -1    0    0  503    0  0.00000000000E+00  0.00000000000E+00  0.23040767726E+04  0.23040767726E+04  0.00000000000E+00 0. -1.
          2   -1    0    0  502    0 -0.00000000000E+00 -0.00000000000E+00 -0.10656890694E+04  0.10656890694E+04  0.00000000000E+00 0. -1.
         24    2    1    2    0    0  0.15877287474E+02  0.44011903457E+02 -0.34221706979E+03  0.35474305093E+03  0.80876284706E+02 0.  0.
         24    2    1    2    0    0 -0.70072101893E+01 -0.43092332670E+02 -0.15230386419E+03  0.17747336117E+03  0.79964221682E+02 0.  0.
         25    2    1    2    0    0  0.81384470583E+02  0.49734262367E+02  0.10701533821E+03  0.19019903000E+03  0.12500583784E+03 0.  0.
        -11    1    4    4    0    0 -0.34790072789E+02 -0.45522822196E+02 -0.12892060486E+03  0.14107869741E+03  0.00000000000E+00 0.  1.
         12    1    4    4    0    0  0.27782862600E+02  0.24304895256E+01 -0.23383259331E+02  0.36394663764E+02  0.00000000000E+00 0. -1.
        -13    1    3    3    0    0  0.24914728076E+02  0.58713478585E+02 -0.32156753017E+03  0.32783180551E+03  0.00000000000E+00 0.  1.
         14    1    3    3    0    0 -0.90374406019E+01 -0.14701575128E+02 -0.20649539613E+02  0.26911245421E+02  0.00000000000E+00 0. -1.
          5    1    5    5  501    0  0.10987679500E+03  0.51972194988E+02  0.10579384508E+03  0.16120932599E+03  0.47000000000E+01 0.  1.
         -5    1    5    5    0  501 -0.28492324413E+02 -0.22379326210E+01  0.12214931311E+01  0.28989704005E+02  0.47000000000E+01 0.  1.
          1    1    1    2  502    0 -0.80943419427E+02 -0.67993465770E+02 -0.50521252173E+03  0.51615369867E+03  0.00000000000E+00 0. -1.
          1    1    1    2  503    0 -0.93111284407E+01  0.17339632617E+02  0.21311058207E+04  0.21311967011E+04  0.00000000000E+00 0. -1.
<mgrwt>
<rscale>  0 0.45510446E+02</rscale>
<asrwt>0</asrwt>
<pdfrwt beam="1">  1        2 0.33883482E+00 0.19681463E+02</pdfrwt>
<pdfrwt beam="2">  1        2 0.15671898E+00 0.10523612E+03</pdfrwt>
<totfact> 0.33929713E+01</totfact>
</mgrwt>
</event>
<event>
13    1  0.1942437E-008  0.1151773E+03  0.7546771E-02  0.1419869E+00
          2   -1    0    0  503    0  0.00000000000E+00  0.00000000000E+00  0.27601088653E+04  0.27601088653E+04  0.00000000000E+00 0. -1.
          2   -1    0    0  502    0 -0.00000000000E+00 -0.00000000000E+00 -0.32985680017E+04  0.32985680017E+04  0.00000000000E+00 0. -1.
         24    2    1    2    0    0  0.12641925321E+03 -0.51647270183E+02 -0.31151236141E+03  0.34922003410E+03  0.79154360651E+02 0.  0.
         24    2    1    2    0    0 -0.76360763241E+02  0.10359002512E+02 -0.54895904800E+02  0.12507104376E+03  0.81798108335E+02 0.  0.
         25    2    1    2    0    0  0.41207620068E+02  0.91522422472E+02  0.38139546569E+03  0.41371881926E+03  0.12500535348E+03 0.  0.
        -11    1    3    3    0    0  0.13500958084E+02  0.15882363434E+02 -0.17899070539E+02  0.27475481134E+02  0.00000000000E+00 0.  1.
         12    1    3    3    0    0  0.11291829513E+03 -0.67529633617E+02 -0.29361329087E+03  0.32174455297E+03  0.00000000000E+00 0. -1.
        -11    1    4    4    0    0 -0.61324503921E+01 -0.17110228157E+02  0.13988494887E+02  0.22935667520E+02  0.00000000000E+00 0.  1.
         12    1    4    4    0    0 -0.70228312848E+02  0.27469230669E+02 -0.68884399687E+02  0.10213537624E+03  0.00000000000E+00 0. -1.
          5    1    5    5  501    0 -0.11171171092E+02  0.74078966490E+02  0.32902392858E+03  0.33747788656E+03  0.47000000000E+01 0. -1.
         -5    1    5    5    0  501  0.52378791160E+02  0.17443455982E+02  0.52371537106E+02  0.76240932699E+02  0.47000000000E+01 0. -1.
          1    1    1    2  502    0 -0.11042093961E+03 -0.32197443166E+02 -0.28608260330E+04  0.28631372741E+04  0.00000000000E+00 0. -1.
          1    1    1    2  503    0  0.19154829567E+02 -0.18036711636E+02  0.23073796971E+04  0.23075296958E+04  0.00000000000E+00 0. -1.
<mgrwt>
<rscale>  0 0.55048586E+02</rscale>
<asrwt>0</asrwt>
<pdfrwt beam="1">  1        2 0.40589837E+00 0.26310273E+02</pdfrwt>
<pdfrwt beam="2">  1        2 0.48508352E+00 0.11517733E+03</pdfrwt>
<totfact> 0.14370011E+00</totfact>
</mgrwt>
</event>
<event>
13    1  0.1942437E-008  0.8274359E+02  0.7546771E-02  0.1333480E+00
          2   -1    0    0  503    0  0.00000000000E+00  0.00000000000E+00  0.18914223644E+04  0.18914223644E+04  0.00000000000E+00 0. -1.
          2   -1    0    0  502    0 -0.00000000000E+00 -0.00000000000E+00 -0.20599893199E+04  0.20599893199E+04  0.00000000000E+00 0. -1.
         24    2    1    2    0    0  0.39173174300E+02  0.72440119762E+02 -0.28582354112E+03  0.30812335025E+03  0.80391503116E+02 0.  0.
         24    2    1    2    0    0 -0.34870325540E+02 -0.43279972085E+02  0.43047805571E+03  0.44127001543E+03  0.79490719446E+02 0.  0.
         25    2    1    2    0    0 -0.45322656788E+02 -0.58884213593E+02  0.53426458974E+03  0.55370107150E+03  0.12499892363E+03 0.  0.
        -13    1    4    4    0    0 -0.46566060248E+02 -0.41898031272E+02  0.18134850203E+03  0.19186224792E+03  0.00000000000E+00 0.  1.
         14    1    4    4    0    0  0.11695734707E+02 -0.13819408132E+01  0.24912955369E+03  0.24940776750E+03  0.00000000000E+00 0. -1.
        -13    1    3    3    0    0  0.41870139478E+01  0.79137660470E+02 -0.18824028656E+03  0.20424178288E+03  0.00000000000E+00 0.  1.
         14    1    3    3    0    0  0.34986160352E+02 -0.66975407087E+01 -0.97583254558E+02  0.10388156736E+03  0.00000000000E+00 0. -1.
          5    1    5    5  501    0  0.13594958239E+01 -0.37612120744E+02  0.34450255815E+02  0.51238949847E+02  0.47000000000E+01 0. -1.
         -5    1    5    5    0  501 -0.46682152612E+02 -0.21272092849E+02  0.49981433392E+03  0.50246212166E+03  0.47000000000E+01 0. -1.
          1    1    1    2  502    0  0.52649978419E+02 -0.52564434151E+02 -0.17451897940E+04  0.17467748730E+04  0.00000000000E+00 0. -1.
          1    1    1    2  503    0 -0.11630170391E+02  0.82288500067E+02  0.89770373412E+03  0.90154237414E+03  0.00000000000E+00 0. -1.
<mgrwt>
<rscale>  0 0.78459832E+02</rscale>
<asrwt>0</asrwt>
<pdfrwt beam="1">  1        2 0.27815035E+00 0.82743592E+02</pdfrwt>
<pdfrwt beam="2">  1        2 0.30293960E+00 0.74397849E+02</pdfrwt>
<totfact> 0.14517987E+01</totfact>
</mgrwt>
</event>
<event>
13    1  0.1942437E-008  0.2060811E+03  0.7546771E-02  0.1249257E+00
          2   -1    0    0  503    0  0.00000000000E+00  0.00000000000E+00  0.12257232248E+04  0.12257232248E+04  0.00000000000E+00 0. -1.
          2   -1    0    0  502    0 -0.00000000000E+00 -0.00000000000E+00 -0.22021582696E+04  0.22021582696E+04  0.00000000000E+00 0. -1.
         24    2    1    2    0    0 -0.25429079135E+03 -0.30135068418E+03 -0.71965825136E+03  0.82459658390E+03  0.81089370481E+02 0.  0.
         24    2    1    2    0    0 -0.93351053392E+02  0.40645375406E+03 -0.71631128411E+02  0.42916050770E+03  0.71614589674E+02 0.  0.
         25    2    1    2    0    0  0.24992281379E+03  0.15252370227E+02  0.20398299557E+03  0.34630608746E+03  0.12499918433E+03 0.  0.
        -13    1    3    3    0    0 -0.17379268016E+03 -0.24699132811E+03 -0.58753709110E+03  0.66061217461E+03  0.00000000000E+00 0.  1.
         14    1    3    3    0    0 -0.80498111195E+02 -0.54359356073E+02 -0.13212116026E+03  0.16398440928E+03  0.00000000000E+00 0. -1.
        -13    1    4    4    0    0 -0.46816178896E+02  0.33051690575E+03 -0.50348623568E+02  0.33759171123E+03  0.00000000000E+00 0.  1.
         14    1    4    4    0    0 -0.46534874495E+02  0.75936848307E+02 -0.21282504842E+02  0.91568796473E+02  0.00000000000E+00 0. -1.
          5    1    5    5  501    0  0.24484316912E+02  0.21967404332E+02 -0.10683464341E+02  0.34903796901E+02  0.47000000000E+01 0.  1.
         -5    1    5    5    0  501  0.22543849688E+03 -0.67150341051E+01  0.21466645991E+03  0.31140229056E+03  0.47000000000E+01 0.  1.
          1    1    1    2  502    0  0.16297077246E+03 -0.12784247831E+03 -0.10972643230E+04  0.11166432583E+04  0.00000000000E+00 0. -1.
          1    1    1    2  503    0 -0.65251741506E+02  0.74870381954E+01  0.70813566235E+03  0.71117505707E+03  0.00000000000E+00 0. -1.
<mgrwt>
<rscale>  0 0.11634166E+03</rscale>
<asrwt>0</asrwt>
<pdfrwt beam="1">  1        2 0.18025342E+00 0.65679871E+02</pdfrwt>
<pdfrwt beam="2">  1        2 0.32384680E+00 0.20608112E+03</pdfrwt>
<totfact> 0.23869879E+01</totfact>
</mgrwt>
</event>
<event>
13    1  0.1942437E-008  0.2243535E+03  0.7546771E-02  0.1447329E+00
          2   -1    0    0  503    0  0.00000000000E+00  0.00000000000E+00  0.28055964414E+04  0.28055964414E+04  0.00000000000E+00 0. -1.
          2   -1    0    0  502    0 -0.00000000000E+00 -0.00000000000E+00 -0.44495552829E+04  0.44495552829E+04  0.00000000000E+00 0. -1.
         24    2    1    2    0    0  0.16928673773E+03 -0.26031329682E+03 -0.24111190049E+03  0.39961222730E+03  0.71651738158E+02 0.  0.
         24    2    1    2    0    0 -0.53422350847E+03  0.59769658762E+03  0.11989897633E+04  0.14445816733E+04  0.81263709231E+02 0.  0.
         25    2    1    2    0    0  0.42503950933E+03 -0.12325152231E+03  0.72471829195E+03  0.85830710834E+03  0.12499986919E+03 0.  0.
        -11    1    3    3    0    0  0.14324102789E+03 -0.19180367617E+03 -0.21512855166E+03  0.32184924421E+03  0.00000000000E+00 0.  1.
         12    1    3    3    0    0  0.26045709840E+02 -0.68509620644E+02 -0.25983348831E+02  0.77762983086E+02  0.00000000000E+00 0. -1.
        -13    1    4    4    0    0 -0.35840151846E+03  0.45566687202E+03  0.86493608580E+03  0.10412484714E+04  0.00000000000E+00 0.  1.
         14    1    4    4    0    0 -0.17582199002E+03  0.14202971560E+03  0.33405367750E+03  0.40333320188E+03  0.00000000000E+00 0. -1.
          5    1    5    5  501    0  0.10984646839E+03 -0.56628501835E+02  0.30547998219E+03  0.32956508213E+03  0.47000000000E+01 0. -1.
         -5    1    5    5    0  501  0.31519304095E+03 -0.66623020473E+02  0.41923830976E+03  0.52874202621E+03  0.47000000000E+01 0. -1.
          1    1    1    2  502    0 -0.50112591258E+02 -0.21868851561E+03 -0.39363591645E+04  0.39427476981E+04  0.00000000000E+00 0. -1.
          1    1    1    2  503    0 -0.99901473319E+01  0.45567471105E+01  0.60980416825E+03  0.60990301737E+03  0.00000000000E+00 0. -1.
<mgrwt>
<rscale>  0 0.49633344E+02</rscale>
<asrwt>0</asrwt>
<pdfrwt beam="1">  1        2 0.41258772E+00 0.10980300E+02</pdfrwt>
<pdfrwt beam="2">  1        2 0.65434635E+00 0.22435351E+03</pdfrwt>
<totfact> 0.24350006E-01</totfact>
</mgrwt>
</event>
<event>
13    1  0.1942437E-008  0.2597723E+03  0.7546771E-02  0.1244038E+00
         -1   -1    0    0    0  501 -0.00000000000E+00  0.00000000000E+00  0.53181752221E+03  0.53181752221E+03  0.00000000000E+00 0.  1.
          2   -1    0    0  503    0  0.00000000000E+00 -0.00000000000E+00 -0.25327970643E+04  0.25327970643E+04  0.00000000000E+00 0. -1.
         24    2    1    2    0    0 -0.29295163248E+03  0.87676767819E+02  0.34127865237E+02  0.31795443352E+03  0.80140102466E+02 0.  0.
         24    2    1    2    0    0  0.92829718119E+01 -0.45286313364E+02 -0.37916254718E+03  0.38825848529E+03  0.69594471562E+02 0.  0.
         25    2    1    2    0    0 -0.20571143677E+01  0.50810967563E+02 -0.90054827252E+03  0.91060344017E+03  0.12500179185E+03 0.  0.
        -13    1    3    3    0    0 -0.11613385157E+03  0.66623858718E+02  0.40175294069E+02  0.13978506459E+03  0.00000000000E+00 0.  1.
         14    1    3    3    0    0 -0.17681778091E+03  0.21052909101E+02 -0.60474288319E+01  0.17816936893E+03  0.00000000000E+00 0. -1.
        -13    1    4    4    0    0 -0.10042798551E+02 -0.12020392148E+02 -0.13798611511E+02  0.20874609213E+02  0.00000000000E+00 0.  1.
         14    1    4    4    0    0  0.19325770363E+02 -0.33265921215E+02 -0.36536393567E+03  0.36738387608E+03  0.00000000000E+00 0. -1.
          5    1    5    5  502    0  0.48870941966E+02 -0.13295332367E+02 -0.42537730462E+03  0.42840760511E+03  0.47000000000E+01 0. -1.
         -5    1    5    5    0  502 -0.50928056334E+02  0.64106299930E+02 -0.47517096790E+03  0.48219583506E+03  0.47000000000E+01 0. -1.
          1    1    1    2  503    0  0.52145180150E+02 -0.17200795859E+02 -0.10572250091E+04  0.10586499454E+04  0.00000000000E+00 0. -1.
         -2    1    1    2    0  501  0.23358059488E+03 -0.76000626158E+02  0.30182842143E+03  0.38914828211E+03  0.00000000000E+00 0.  1.
<mgrwt>
<rscale>  0 0.11943119E+03</rscale>
<asrwt>0</asrwt>
<pdfrwt beam="2">  1        2 0.37247015E+00 0.54908899E+02</pdfrwt>
<pdfrwt beam="1">  1       -1 0.78208460E-01 0.25977227E+03</pdfrwt>
<totfact> 0.10786261E+01</totfact>
</mgrwt>
</event>
<event>
13    1  0.1942437E-008  0.9794229E+02  0.7546771E-02  0.1412271E+00
          2   -1    0    0  503    0  0.00000000000E+00  0.00000000000E+00  0.63938185278E+03  0.63938185278E+03  0.00000000000E+00 0. -1.
         -3   -1    0    0    0  501 -0.00000000000E+00 -0.00000000000E+00 -0.12819869241E+04  0.12819869241E+04  0.00000000000E+00 0.  1.
         24    2    1    2    0    0 -0.56171325565E+02  0.11137917486E+03 -0.35706165369E+03  0.38645802062E+03  0.79348842183E+02 0.  0.
         24    2    1    2    0    0  0.56782019648E+02 -0.77642285226E+02 -0.33881625169E+03  0.36114962409E+03  0.79875380186E+02 0.  0.
         25    2    1    2    0    0 -0.94963968824E+02 -0.93349081746E+02  0.17570177178E+03  0.25342126270E+03  0.12497606708E+03 0.  0.
        -11    1    3    3    0    0 -0.71163247258E+02  0.11162352377E+03 -0.31049351055E+03  0.33753553726E+03  0.00000000000E+00 0.  1.
         12    1    3    3    0    0  0.14991921693E+02 -0.24434891062E+00 -0.46568143143E+02  0.48922483361E+02  0.00000000000E+00 0. -1.
        -11    1    4    4    0    0  0.45694431197E+02 -0.13700281522E+02 -0.22617714315E+03  0.23115315018E+03  0.00000000000E+00 0.  1.
         12    1    4    4    0    0  0.11087588451E+02 -0.63942003704E+02 -0.11263910854E+03  0.12999647391E+03  0.00000000000E+00 0. -1.
          5    1    5    5  502    0 -0.30095567730E+02 -0.10662919883E+03  0.13815942208E+03  0.17715994229E+03  0.47000000000E+01 0. -1.
         -5    1    5    5    0  502 -0.64868401094E+02  0.13280117084E+02  0.37542349695E+02  0.76261320411E+02  0.47000000000E+01 0. -1.
          1    1    1    2  503    0  0.64624063558E+02  0.73499915391E+02  0.39242306917E+03  0.40444328696E+03  0.00000000000E+00 0. -1.
         -4    1    1    2    0  501  0.29729211184E+02 -0.13887723284E+02 -0.51485200692E+03  0.51589658254E+03  0.00000000000E+00 0.  1.
<mgrwt>
<rscale>  0 0.56690239E+02</rscale>
<asrwt>0</asrwt>
<pdfrwt beam="1">  1        2 0.94026744E-01 0.97942292E+02</pdfrwt>
<pdfrwt beam="2">  1       -3 0.18852749E+00 0.32813029E+02</pdfrwt>
<totfact> 0.61350569E+00</totfact>
</mgrwt>
</event>
<event>
13    1  0.3150176E-008  0.3080253E+03  0.7546771E-02  0.1165128E+00
          2   -1    0    0  502    0  0.00000000000E+00  0.00000000000E+00  0.26569230590E+04  0.26569230590E+04  0.00000000000E+00 0. -1.
          2   -1    0    0  503    0 -0.00000000000E+00 -0.00000000000E+00 -0.30727178475E+04  0.30727178475E+04  0.00000000000E+00 0. -1.
         24    2    1    2    0    0  0.10244635075E+04  0.28513252919E+03 -0.17909684800E+04  0.20844024145E+04  0.79619668901E+02 0.  0.
         24    2    1    2    0    0 -0.99314984958E+03  0.27931312628E+03  0.85781474571E+03  0.13453687824E+04  0.99038257084E+02 0.  0.
         25    2    1    2    0    0  0.28020366569E+03 -0.38210398536E+03  0.64707925914E+03  0.81169851850E+03  0.12500146972E+03 0.  0.
        -13    1    3    3    0    0  0.82283665318E+03  0.24079231213E+03 -0.13832510195E+04  0.16273980700E+04  0.00000000000E+00 0.  1.
         14    1    3    3    0    0  0.20162685433E+03  0.44340217057E+02 -0.40771746059E+03  0.45700434451E+03  0.00000000000E+00 0. -1.
        -13    1    4    4    0    0 -0.45459565620E+03  0.14199166187E+03  0.33452765515E+03  0.58200308826E+03  0.00000000000E+00 0.  1.
         14    1    4    4    0    0 -0.53855419337E+03  0.13732146441E+03  0.52328709057E+03  0.76336569411E+03  0.00000000000E+00 0. -1.
          5    1    5    5  501    0  0.10676907250E+03 -0.75384418514E+02  0.23967935321E+03  0.27303979152E+03  0.47000000000E+01 0.  1.
         -5    1    5    5    0  501  0.17343459319E+03 -0.30671956685E+03  0.40739990593E+03  0.53865872698E+03  0.47000000000E+01 0.  1.
          1    1    1    2  502    0 -0.13275319675E+02 -0.10765896044E+03  0.64532169538E+03  0.65437510375E+03  0.00000000000E+00 0. -1.
          1    1    1    2  503    0 -0.29824200395E+03 -0.74682709661E+02 -0.77504200868E+03  0.83379608734E+03  0.00000000000E+00 0. -1.
<mgrwt>
<rscale>  0 0.18279181E+03</rscale>
<asrwt>0</asrwt>
<pdfrwt beam="1">  1        2 0.39072398E+00 0.10847436E+03</pdfrwt>
<pdfrwt beam="2">  1        2 0.45187027E+00 0.30802531E+03</pdfrwt>
<totfact> 0.15045110E+00</totfact>
</mgrwt>
</event>
<event>
13    1  0.1942437E-008  0.1071561E+03  0.7546771E-02  0.1321917E+00
          2   -1    0    0  503    0  0.00000000000E+00  0.00000000000E+00  0.17831373133E+04  0.17831373133E+04  0.00000000000E+00 0. -1.
          2   -1    0    0  502    0 -0.00000000000E+00 -0.00000000000E+00 -0.78298374000E+03  0.78298374000E+03  0.00000000000E+00 0. -1.
         24    2    1    2    0    0  0.47794092633E+02  0.13013204811E+03 -0.32400324501E+03  0.36179500721E+03  0.81846803424E+02 0.  0.
         24    2    1    2    0    0 -0.21330719549E+03 -0.25037012911E+03  0.85353354436E+03  0.91848914715E+03  0.83172356435E+02 0.  0.
         25    2    1    2    0    0  0.15077273049E+03  0.43447580308E+01  0.47917183307E+03  0.51766823745E+03  0.12499386097E+03 0.  0.
        -11    1    3    3    0    0 -0.22236291361E+01 -0.82528972406E+01 -0.50526856266E+02  0.51244687954E+02  0.00000000000E+00 0.  1.
         12    1    3    3    0    0  0.50017721769E+02  0.13838494535E+03 -0.27347638874E+03  0.31055031926E+03  0.00000000000E+00 0. -1.
        -13    1    4    4    0    0 -0.66689080955E+02 -0.14209208395E+03  0.38808231287E+03  0.41862330967E+03  0.00000000000E+00 0.  1.
         14    1    4    4    0    0 -0.14661811454E+03 -0.10827804516E+03  0.46545123150E+03  0.49986583747E+03  0.00000000000E+00 0. -1.
          5    1    5    5  501    0  0.78579457751E+02 -0.42560962102E+02  0.12875380318E+03  0.15679859217E+03  0.47000000000E+01 0. -1.
         -5    1    5    5    0  501  0.72193272737E+02  0.46905720133E+02  0.35041802989E+03  0.36086964528E+03  0.47000000000E+01 0. -1.
          1    1    1    2  502    0  0.60740062357E+02  0.18932616613E+02 -0.37806622987E+03  0.38338215049E+03  0.00000000000E+00 0. -1.
          1    1    1    2  503    0 -0.45999689987E+02  0.96960706357E+02  0.36951767070E+03  0.38478651096E+03  0.00000000000E+00 0. -1.
<mgrwt>
<rscale>  0 0.82568276E+02</rscale>
<asrwt>0</asrwt>
<pdfrwt beam="1">  1        2 0.26222607E+00 0.10715612E+03</pdfrwt>
<pdfrwt beam="2">  1        2 0.11514467E+00 0.63622316E+02</pdfrwt>
<totfact> 0.73128909E+01</totfact>
</mgrwt>
</event>
<event>
13    1  0.1942437E-008  0.2146557E+03  0.7546771E-02  0.1249411E+00
          2   -1    0    0  503    0  0.00000000000E+00  0.00000000000E+00  0.21246722174E+04  0.21246722174E+04  0.00000000000E+00 0. -1.
         -3   -1    0    0    0  501 -0.00000000000E+00 -0.00000000000E+00 -0.42428418664E+03  0.42428418664E+03  0.00000000000E+00 0.  1.
         24    2    1    2    0    0 -0.84397597512E+01 -0.25133701976E+01  0.10151356870E+03  0.12993068631E+03  0.80619055062E+02 0.  0.
         24    2    1    2    0    0  0.13380392068E+03 -0.78165480951E+02  0.23591816952E+03  0.29299556464E+03  0.78585536781E+02 0.  0.
         25    2    1    2    0    0  0.49654719433E+02  0.66997533825E+02  0.12588816379E+04  0.12678179340E+04  0.12500029970E+03 0.  0.
        -13    1    3    3    0    0 -0.15647826248E+01  0.33905834764E+02  0.80412335416E+02  0.87282288368E+02  0.00000000000E+00 0.  1.
         14    1    3    3    0    0 -0.68749771264E+01 -0.36419204962E+02  0.21101233287E+02  0.42648397939E+02  0.00000000000E+00 0. -1.
        -13    1    4    4    0    0  0.33003557176E+02  0.53187213689E+01  0.94820029185E+02  0.10054034771E+03  0.00000000000E+00 0.  1.
         14    1    4    4    0    0  0.10080036350E+03 -0.83484202320E+02  0.14109814033E+03  0.19245521693E+03  0.00000000000E+00 0. -1.
          5    1    5    5  502    0  0.90947926315E+02  0.47750515093E+02  0.77943765481E+03  0.78619131560E+03  0.47000000000E+01 0.  1.
         -5    1    5    5    0  502 -0.41293206882E+02  0.19247018732E+02  0.47944398310E+03  0.48162661844E+03  0.47000000000E+01 0.  1.
          1    1    1    2  503    0  0.40846712864E+02  0.47910282205E+02  0.44707978504E+03  0.45149106667E+03  0.00000000000E+00 0. -1.
         -4    1    1    2    0  501 -0.21586559323E+03 -0.34228964882E+02 -0.34300513035E+03  0.40672115242E+03  0.00000000000E+00 0.  1.
<mgrwt>
<rscale>  0 0.11625203E+03</rscale>
<asrwt>0</asrwt>
<pdfrwt beam="1">  1        2 0.31245179E+00 0.62959107E+02</pdfrwt>
<pdfrwt beam="2">  1       -3 0.62394734E-01 0.21465574E+03</pdfrwt>
<totfact> 0.13179744E+01</totfact>
</mgrwt>
</event>
<event>
13    1  0.1942437E-008  0.2492255E+03  0.7546771E-02  0.1173547E+00
          2   -1    0    0  503    0  0.00000000000E+00  0.00000000000E+00  0.32889860519E+04  0.32889860519E+04  0.00000000000E+00 0. -1.
          2   -1    0    0  502    0 -0.00000000000E+00 -0.00000000000E+00 -0.10507059296E+04  0.10507059296E+04  0.00000000000E+00 0. -1.
         24    2    1    2    0    0 -0.28068892632E+03  0.16599253620E+02  0.90561682343E+02  0.30505369023E+03  0.76121790822E+02 0.  0.
         24    2    1    2    0    0  0.37079188187E+02  0.11075562714E+03  0.15972373645E+03  0.21365320505E+03  0.80587498440E+02 0.  0.
         25    2    1    2    0    0  0.11556471130E+03 -0.13244327085E+03  0.14551105264E+04  0.14710092500E+04  0.12500058816E+03 0.  0.
        -11    1    3    3    0    0 -0.38967602594E+02  0.20217954947E+02 -0.68229930281E+01  0.44427390066E+02  0.00000000000E+00 0.  1.
         12    1    3    3    0    0 -0.24172132372E+03 -0.36187013266E+01  0.97384675371E+02  0.26062630017E+03  0.00000000000E+00 0. -1.
        -13    1    4    4    0    0  0.35766687716E+02  0.87729742033E+01  0.63659593836E+02  0.73544305789E+02  0.00000000000E+00 0.  1.
         14    1    4    4    0    0  0.13125004702E+01  0.10198265293E+03  0.96064142613E+02  0.14010889926E+03  0.00000000000E+00 0. -1.
          5    1    5    5  501    0 -0.21140948334E+02 -0.17124569272E+01  0.78294484517E+02  0.81252621564E+02  0.47000000000E+01 0. -1.
         -5    1    5    5    0  501  0.13670565963E+03 -0.13073081393E+03  0.13768160419E+04  0.13897566285E+04  0.47000000000E+01 0.  1.
          1    1    1    2  502    0  0.24479089578E+03 -0.29446587692E+02 -0.88916958503E+03  0.92272001990E+03  0.00000000000E+00 0. -1.
          1    1    1    2  503    0 -0.11674586894E+03  0.34534977787E+02  0.14220537621E+04  0.14272558162E+04  0.00000000000E+00 0. -1.
<mgrwt>
<rscale>  0 0.17419067E+03</rscale>
<asrwt>0</asrwt>
<pdfrwt beam="1">  1        2 0.48367442E+00 0.12174671E+03</pdfrwt>
<pdfrwt beam="2">  1        2 0.15451558E+00 0.24922553E+03</pdfrwt>
<totfact> 0.79584666E+00</totfact>
</mgrwt>
</event>
<event>
13    1  0.1942437E-008  0.9673730E+02  0.7546771E-02  0.1297296E+00
          2   -1    0    0  502    0  0.00000000000E+00  0.00000000000E+00  0.15197411536E+04  0.15197411536E+04  0.00000000000E+00 0. -1.
          2   -1    0    0  503    0 -0.00000000000E+00 -0.00000000000E+00 -0.17453287342E+04  0.17453287342E+04  0.00000000000E+00 0. -1.
         24    2    1    2    0    0  0.33449078373E+02 -0.21251072374E+02  0.95126261058E+01  0.89376015109E+02  0.79543278160E+02 0.  0.
         24    2    1    2    0    0  0.65036855039E+02 -0.24168242106E+03  0.11372118399E+03  0.28625366310E+03  0.79802674073E+02 0.  0.
         25    2    1    2    0    0 -0.65795906265E+02  0.16205194245E+03  0.54814121582E+03  0.58879065892E+03  0.12500285683E+03 0.  0.
        -11    1    3    3    0    0 -0.20658818830E+02 -0.12571408446E+02  0.22529542544E+02  0.33051586846E+02  0.00000000000E+00 0.  1.
         12    1    3    3    0    0  0.54107897203E+02 -0.86796639277E+01 -0.13016916438E+02  0.56324428263E+02  0.00000000000E+00 0. -1.
        -13    1    4    4    0    0  0.72629171560E+01 -0.89646228540E+02  0.79521586609E+02  0.12005365048E+03  0.00000000000E+00 0.  1.
         14    1    4    4    0    0  0.57773937883E+02 -0.15203619252E+03  0.34199597379E+02  0.16620001262E+03  0.00000000000E+00 0. -1.
          5    1    5    5  501    0 -0.42177537418E+02  0.11924479703E+03  0.19650223385E+03  0.23373806748E+03  0.47000000000E+01 0. -1.
         -5    1    5    5    0  501 -0.23618368847E+02  0.42807145424E+02  0.35163898197E+03  0.35505259144E+03  0.47000000000E+01 0. -1.
          1    1    1    2  502    0  0.57863377126E+02  0.66475481760E+02  0.69760111978E+03  0.70314613161E+03  0.00000000000E+00 0. -1.
          1    1    1    2  503    0 -0.90553404273E+02  0.34406069217E+02 -0.15945637263E+04  0.15975034190E+04  0.00000000000E+00 0. -1.
<mgrwt>
<rscale>  0 0.92334188E+02</rscale>
<asrwt>0</asrwt>
<pdfrwt beam="1">  1        2 0.22349135E+00 0.88131493E+02</pdfrwt>
<pdfrwt beam="2">  1        2 0.25666599E+00 0.96737296E+02</pdfrwt>
<totfact> 0.30028269E+01</totfact>
</mgrwt>
</event>
<event>
13    1  0.1942437E-008  0.9743571E+02  0.7546771E-02  0.1392042E+00
          2   -1    0    0  503    0  0.00000000000E+00  0.00000000000E+00  0.28173340954E+04  0.28173340954E+04  0.00000000000E+00 0. -1.
         -1   -1    0    0    0  501 -0.00000000000E+00 -0.00000000000E+00 -0.14209847682E+04  0.14209847682E+04  0.00000000000E+00 0.  1.
         24    2    1    2    0    0  0.73815109559E+02 -0.51006975319E+02 -0.10377956737E+03  0.16037441717E+03  0.83062465346E+02 0.  0.
         24    2    1    2    0    0 -0.32111509193E+02  0.15923260509E+01  0.42954010738E+03  0.43819980562E+03  0.80502678656E+02 0.  0.
         25    2    1    2    0    0  0.88061252635E+02  0.18655092323E+02  0.89645583819E+03  0.90959298161E+03  0.12499410260E+03 0.  0.
        -13    1    3    3    0    0  0.31957183330E+02  0.20087747274E+01 -0.84143359600E+02  0.90030004482E+02  0.00000000000E+00 0.  1.
         14    1    3    3    0    0  0.41857926229E+02 -0.53015750046E+02 -0.19636207771E+02  0.70344412691E+02  0.00000000000E+00 0. -1.
        -13    1    4    4    0    0 -0.59659503010E+01 -0.34507315424E+02  0.27930869850E+03  0.28149546433E+03  0.00000000000E+00 0.  1.
         14    1    4    4    0    0 -0.26145558892E+02  0.36099641475E+02  0.15023140888E+03  0.15670434129E+03  0.00000000000E+00 0. -1.
          5    1    5    5  502    0 -0.13577622292E+02  0.32662758834E+02  0.93199551732E+02  0.99797064510E+02  0.47000000000E+01 0. -1.
         -5    1    5    5    0  502  0.10163887493E+03 -0.14007666512E+02  0.80325628646E+03  0.80979591710E+03  0.47000000000E+01 0. -1.
          1    1    1    2  503    0 -0.38564428841E+02 -0.31638908204E+01  0.14500316780E+04  0.14505478595E+04  0.00000000000E+00 0. -1.
         -2    1    1    2    0  501 -0.91200424160E+02  0.33923447766E+02 -0.12758987290E+04  0.12796037998E+04  0.00000000000E+00 0.  1.
<mgrwt>
<rscale>  0 0.61401767E+02</rscale>
<asrwt>0</asrwt>
<pdfrwt beam="1">  1        2 0.41431384E+00 0.38693997E+02</pdfrwt>
<pdfrwt beam="2">  1       -1 0.20896835E+00 0.97435710E+02</pdfrwt>
<totfact> 0.76964461E-01</totfact>
</mgrwt>
</event>
<event>
13    1  0.1942437E-008  0.7533460E+02  0.7546771E-02  0.1488806E+00
          2   -1    0    0  503    0  0.00000000000E+00  0.00000000000E+00  0.12021845800E+04  0.12021845800E+04  0.00000000000E+00 0. -1.
          2   -1    0    0  502    0 -0.00000000000E+00 -0.00000000000E+00 -0.33463403143E+04  0.33463403143E+04  0.00000000000E+00 0. -1.
         24    2    1    2    0    0  0.20676966070E+02  0.42215615908E+02 -0.10847597637E+04  0.10890814932E+04  0.84764726160E+02 0.  0.
         24    2    1    2    0    0  0.32841413076E+02 -0.19612931573E+02 -0.40338635827E+03  0.41245642769E+03  0.77048849465E+02 0.  0.
         25    2    1    2    0    0 -0.10308828831E+03 -0.66975365268E+01 -0.10199262384E+01  0.16216573328E+03  0.12499853047E+03 0.  0.
        -11    1    3    3    0    0 -0.30988863123E+02  0.19966627597E+02 -0.29004197383E+03  0.29237531093E+03  0.00000000000E+00 0.  1.
         12    1    3    3    0    0  0.51665829193E+02  0.22248988311E+02 -0.79471778984E+03  0.79670618228E+03  0.00000000000E+00 0. -1.
        -11    1    4    4    0    0 -0.25291511365E+01 -0.33776639923E+02 -0.30621020602E+03  0.30807782829E+03  0.00000000000E+00 0.  1.
         12    1    4    4    0    0  0.35370564213E+02  0.14163708349E+02 -0.97176152249E+02  0.10437859940E+03  0.00000000000E+00 0. -1.
          5    1    5    5  501    0  0.71575056115E+01  0.34595892434E+02 -0.22857475679E+02  0.42339814056E+02  0.47000000000E+01 0. -1.
         -5    1    5    5    0  501 -0.11024579392E+03 -0.41293428961E+02  0.21837549441E+02  0.11982591922E+03  0.47000000000E+01 0. -1.
          1    1    1    2  502    0  0.69351118621E+02 -0.29975254833E+02 -0.17689669043E+04  0.17705795667E+04  0.00000000000E+00 0. -1.
          1    1    1    2  503    0 -0.19781209459E+02  0.14070107025E+02  0.11139772182E+04  0.11142416734E+04  0.00000000000E+00 0. -1.
<mgrwt>
<rscale>  0 0.42763648E+02</rscale>
<asrwt>0</asrwt>
<pdfrwt beam="1">  1        2 0.17679185E+00 0.24274764E+02</pdfrwt>
<pdfrwt beam="2">  1        2 0.49210887E+00 0.75334600E+02</pdfrwt>
<totfact> 0.75926866E+00</totfact>
</mgrwt>
</event>
<event>
13    1  0.1942437E-008  0.8262176E+02  0.7546771E-02  0.1504908E+00
          2   -1    0    0  503    0  0.00000000000E+00  0.00000000000E+00  0.12576783417E+04  0.12576783417E+04  0.00000000000E+00 0. -1.
         -1   -1    0    0    0  501 -0.00000000000E+00 -0.00000000000E+00 -0.72397013970E+03  0.72397013970E+03  0.00000000000E+00 0.  1.
         24    2    1    2    0    0 -0.44103539202E+01  0.18772508087E+02 -0.95856325237E+02  0.12800096054E+03  0.82607218387E+02 0.  0.
         24    2    1    2    0    0  0.10539876289E+03  0.61227629049E+02 -0.27712852662E+03  0.31357499700E+03  0.81678251072E+02 0.  0.
         25    2    1    2    0    0 -0.14554008713E+03 -0.16149454651E+02  0.42080862338E+03  0.46276050144E+03  0.12499864933E+03 0.  0.
        -13    1    3    3    0    0  0.23973096670E+02 -0.23520846945E+02 -0.43499683630E+02  0.54956001318E+02  0.00000000000E+00 0.  1.
         14    1    3    3    0    0 -0.28383450591E+02  0.42293355032E+02 -0.52356641607E+02  0.73044959221E+02  0.00000000000E+00 0. -1.
        -13    1    4    4    0    0  0.89123972997E+02  0.80655653856E+02 -0.21226799860E+03  0.24393876340E+03  0.00000000000E+00 0.  1.
         14    1    4    4    0    0  0.16274789894E+02 -0.19428024808E+02 -0.64860528028E+02  0.69636233600E+02  0.00000000000E+00 0. -1.
          5    1    5    5  502    0 -0.15233933689E+02  0.42674706740E+02  0.14613312447E+03  0.15306921113E+03  0.47000000000E+01 0.  1.
         -5    1    5    5    0  502 -0.13030615344E+03 -0.58824161391E+02  0.27467549892E+03  0.30969129031E+03  0.47000000000E+01 0.  1.
          1    1    1    2  503    0 -0.19585378460E+02 -0.29471734286E+01  0.77485536385E+03  0.77510844904E+03  0.00000000000E+00 0. -1.
         -2    1    1    2    0  501  0.64137056623E+02 -0.60903509057E+02 -0.28897093336E+03  0.30220357340E+03  0.00000000000E+00 0.  1.
<mgrwt>
<rscale>  0 0.40452400E+02</rscale>
<asrwt>0</asrwt>
<pdfrwt beam="1">  1        2 0.18495270E+00 0.19805880E+02</pdfrwt>
<pdfrwt beam="2">  1       -1 0.10646620E+00 0.82621762E+02</pdfrwt>
<totfact> 0.25284289E+01</totfact>
</mgrwt>
</event>
<event>
13    1  0.1942437E-008  0.1172931E+03  0.7546771E-02  0.1401959E+00
          2   -1    0    0  502    0  0.00000000000E+00  0.00000000000E+00  0.33430981146E+03  0.33430981146E+03  0.00000000000E+00 0. -1.
          2   -1    0    0  503    0 -0.00000000000E+00 -0.00000000000E+00 -0.17402923379E+04  0.17402923379E+04  0.00000000000E+00 0. -1.
         24    2    1    2    0    0 -0.17448581910E+02  0.78058142376E+02 -0.17931671755E+03  0.21235358812E+03  0.80882844858E+02 0.  0.
         24    2    1    2    0    0 -0.12549176598E+03 -0.10634652333E+03 -0.21319692136E+03  0.28130403712E+03  0.81371172244E+02 0.  0.
         25    2    1    2    0    0  0.10028111227E+02  0.63243327474E+02  0.17739725394E+03  0.22626324323E+03  0.12499995219E+03 0.  0.
        -13    1    3    3    0    0 -0.23782821114E+02 -0.87022223397E+01 -0.55799122784E+02  0.61277184638E+02  0.00000000000E+00 0.  1.
         14    1    3    3    0    0  0.63342392032E+01  0.86760364716E+02 -0.12351759477E+03  0.15107640348E+03  0.00000000000E+00 0. -1.
        -13    1    4    4    0    0 -0.88735190833E+02 -0.40815343839E+02 -0.71935533575E+02  0.12130353406E+03  0.00000000000E+00 0.  1.
         14    1    4    4    0    0 -0.36756575148E+02 -0.65531179490E+02 -0.14126138778E+03  0.16000050306E+03  0.00000000000E+00 0. -1.
          5    1    5    5  501    0 -0.12740009195E+02  0.70628088005E+02  0.18676403986E+03  0.20013378334E+03  0.47000000000E+01 0. -1.
         -5    1    5    5    0  501  0.22768120421E+02 -0.73847605308E+01 -0.93667859221E+01  0.26129459890E+02  0.47000000000E+01 0. -1.
          1    1    1    2  502    0 -0.10446148799E+01  0.29687003204E+02  0.74707843083E+02  0.80396960127E+02  0.00000000000E+00 0. -1.
          1    1    1    2  503    0  0.13395685154E+03 -0.64641949727E+02 -0.12655739846E+04  0.12742843208E+04  0.00000000000E+00 0. -1.
<mgrwt>
<rscale>  0 0.59027409E+02</rscale>
<asrwt>0</asrwt>
<pdfrwt beam="1">  1        2 0.49163208E-01 0.29705376E+02</pdfrwt>
<pdfrwt beam="2">  1        2 0.25592534E+00 0.11729308E+03</pdfrwt>
<totfact> 0.18834060E+02</totfact>
</mgrwt>
</event>
<event>
13    1  0.1942437E-008  0.3494835E+03  0.7546771E-02  0.1295175E+00
         -1   -1    0    0    0  501 -0.00000000000E+00  0.00000000000E+00  0.15255576457E+03  0.15255576457E+03  0.00000000000E+00 0.  1.
          2   -1    0    0  503    0  0.00000000000E+00 -0.00000000000E+00 -0.38152776814E+04  0.38152776814E+04  0.00000000000E+00 0. -1.
         24    2    1    2    0    0 -0.99310613649E+02 -0.57950432602E+02 -0.20151062301E+03  0.24522091499E+03  0.79409793726E+02 0.  0.
         24    2    1    2    0    0  0.10042838174E+03 -0.10889982275E+03 -0.10223071427E+03  0.19600276103E+03  0.77594665647E+02 0.  0.
         25    2    1    2    0    0 -0.27868961952E+03  0.32512707481E+03 -0.17327155043E+04  0.17892184661E+04  0.12499672784E+03 0.  0.
        -13    1    4    4    0    0  0.11245437712E+03 -0.10637497655E+03 -0.96783011277E+02  0.18256115097E+03  0.00000000000E+00 0.  1.
         14    1    4    4    0    0 -0.12025995380E+02 -0.25248462001E+01 -0.54477029915E+01  0.13441610064E+02  0.00000000000E+00 0. -1.
        -13    1    3    3    0    0 -0.83050453620E+02 -0.76211996067E+02 -0.18136643281E+03  0.21354022839E+03  0.00000000000E+00 0.  1.
         14    1    3    3    0    0 -0.16260160029E+02  0.18261563465E+02 -0.20144190193E+02  0.31680686591E+02  0.00000000000E+00 0. -1.
          5    1    5    5  502    0 -0.17070528809E+03  0.21588175464E+03 -0.85698471507E+03  0.90010561560E+03  0.47000000000E+01 0.  1.
         -5    1    5    5    0  502 -0.10798433143E+03  0.10924532017E+03 -0.87573078922E+03  0.88911285055E+03  0.47000000000E+01 0.  1.
          1    1    1    2  503    0  0.28862302488E+03 -0.13598674952E+03 -0.16628313600E+04  0.16931638369E+04  0.00000000000E+00 0. -1.
         -2    1    1    2    0  501 -0.11051173458E+02 -0.22290069932E+02  0.36566284767E+02  0.44227466964E+02  0.00000000000E+00 0.  1.
<mgrwt>
<rscale>  0 0.93246323E+02</rscale>
<asrwt>0</asrwt>
<pdfrwt beam="2">  1        2 0.56107020E+00 0.34948347E+03</pdfrwt>
<pdfrwt beam="1">  1       -1 0.22434673E-01 0.24879221E+02</pdfrwt>
<totfact> 0.13619187E+01</totfact>
</mgrwt>
</event>
<event>
13    1  0.1942437E-008  0.1006287E+03  0.7546771E-02  0.1388915E+00
         -3   -1    0    0    0  501 -0.00000000000E+00  0.00000000000E+00  0.12217219692E+04  0.12217219692E+04  0.00000000000E+00 0.  1.
          2   -1    0    0  503    0  0.00000000000E+00 -0.00000000000E+00 -0.52292575868E+03  0.52292575868E+03  0.00000000000E+00 0. -1.
         24    2    1    2    0    0  0.65454244626E+02 -0.57989461621E+02  0.28182933071E+03  0.30608033086E+03  0.81304129613E+02 0.  0.
         24    2    1    2    0    0 -0.21864045012E+02 -0.27086502894E+02  0.22977619215E+03  0.24632425518E+03  0.81650628338E+02 0.  0.
         25    2    1    2    0    0  0.69286898163E+02  0.92200092607E+02 -0.29299613771E+03  0.33878178818E+03  0.12499932782E+03 0.  0.
        -11    1    3    3    0    0 -0.67487279209E+01  0.40505680790E+01  0.10465936165E+03  0.10495491609E+03  0.00000000000E+00 0.  1.
         12    1    3    3    0    0  0.72202972547E+02 -0.62040029700E+02  0.17716996905E+03  0.20112541477E+03  0.00000000000E+00 0. -1.
        -11    1    4    4    0    0  0.16904888134E+02 -0.56898442006E+01  0.69535921625E+01  0.19144242315E+02  0.00000000000E+00 0.  1.
         12    1    4    4    0    0 -0.38768933146E+02 -0.21396658694E+02  0.22282259999E+03  0.22718001287E+03  0.00000000000E+00 0. -1.
          5    1    5    5  502    0  0.18321565082E+02  0.38024549533E+02 -0.24824076010E+03  0.25184739644E+03  0.47000000000E+01 0. -1.
         -5    1    5    5    0  502  0.50965333080E+02  0.54175543075E+02 -0.44755377606E+02  0.86934391745E+02  0.47000000000E+01 0. -1.
          1    1    1    2  503    0 -0.14841747742E+02 -0.35436262135E+02 -0.18070216377E+03  0.18474111113E+03  0.00000000000E+00 0. -1.
         -4    1    1    2    0  501 -0.98035350035E+02  0.28312134043E+02  0.66088898911E+03  0.66872024249E+03  0.00000000000E+00 0.  1.
<mgrwt>
<rscale>  0 0.62177459E+02</rscale>
<asrwt>0</asrwt>
<pdfrwt beam="2">  1        2 0.76900847E-01 0.38418825E+02</pdfrwt>
<pdfrwt beam="1">  1       -3 0.17966500E+00 0.10062870E+03</pdfrwt>
<totfact> 0.86193140E+00</totfact>
</mgrwt>
</event>
<event>
13    1  0.1942437E-008  0.9424794E+02  0.7546771E-02  0.1308804E+00
          2   -1    0    0  503    0  0.00000000000E+00  0.00000000000E+00  0.63303616505E+03  0.63303616505E+03  0.00000000000E+00 0. -1.
         -1   -1    0    0    0  501 -0.00000000000E+00 -0.00000000000E+00 -0.77627683732E+03  0.77627683732E+03  0.00000000000E+00 0.  1.
         24    2    1    2    0    0 -0.14664651980E+02  0.72824161524E+02 -0.20230920252E+03  0.23076208270E+03  0.82484634136E+02 0.  0.
         24    2    1    2    0    0  0.16567982084E+01  0.34894603319E+02 -0.73351077049E+02  0.11342278553E+03  0.79145242767E+02 0.  0.
         25    2    1    2    0    0  0.12575621881E+03 -0.60091283627E+02 -0.82973693786E+02  0.20478429540E+03  0.12500553926E+03 0.  0.
        -11    1    3    3    0    0 -0.78306560550E+01  0.86604009238E+02 -0.19544878395E+03  0.21392008026E+03  0.00000000000E+00 0.  1.
         12    1    3    3    0    0 -0.68339959251E+01 -0.13779847714E+02 -0.68604185709E+01  0.16842002443E+02  0.00000000000E+00 0. -1.
        -13    1    4    4    0    0 -0.34455806179E+02  0.32715866937E+02 -0.55563013774E+02  0.73107995654E+02  0.00000000000E+00 0.  1.
         14    1    4    4    0    0  0.36112604387E+02  0.21787363819E+01 -0.17788063275E+02  0.40314789878E+02  0.00000000000E+00 0. -1.
          5    1    5    5  502    0  0.95197839512E+02  0.35075816883E+01  0.50479096956E+00  0.95379644532E+02  0.47000000000E+01 0.  1.
         -5    1    5    5    0  502  0.30558379298E+02 -0.63598865316E+02 -0.83478484756E+02  0.10940465087E+03  0.47000000000E+01 0.  1.
          1    1    1    2  503    0 -0.40680236786E+02 -0.85461794618E+02  0.52845985214E+03  0.53686908583E+03  0.00000000000E+00 0. -1.
         -2    1    1    2    0  501 -0.72068128253E+02  0.37834313403E+02 -0.31306655105E+03  0.32347475291E+03  0.00000000000E+00 0.  1.
<mgrwt>
<rscale>  0 0.87586365E+02</rscale>
<asrwt>0</asrwt>
<pdfrwt beam="1">  1        2 0.93093555E-01 0.94247938E+02</pdfrwt>
<pdfrwt beam="2">  1       -1 0.11415836E+00 0.81395641E+02</pdfrwt>
<totfact> 0.46651940E+01</totfact>
</mgrwt>
</event>
<event>
13    1  0.1942437E-008  0.1050125E+03  0.7546771E-02  0.1280592E+00
          2   -1    0    0  503    0  0.00000000000E+00  0.00000000000E+00  0.10287760379E+04  0.10287760379E+04  0.00000000000E+00 0. -1.
          2   -1    0    0  502    0 -0.00000000000E+00 -0.00000000000E+00 -0.44946534753E+03  0.44946534753E+03  0.00000000000E+00 0. -1.
         24    2    1    2    0    0  0.38831070793E+02  0.57665800682E+02 -0.65666836102E+02  0.12518164997E+03  0.80778187023E+02 0.  0.
         24    2    1    2    0    0 -0.11222415453E+03 -0.14252094328E+03 -0.32697379762E+02  0.20071094939E+03  0.79431016798E+02 0.  0.
         25    2    1    2    0    0  0.69238589907E+02  0.95580716070E+01  0.48810455103E+03  0.50868138899E+03  0.12500145480E+03 0.  0.
        -11    1    4    4    0    0 -0.47815727460E+01 -0.37687637733E+02  0.18305474433E+02  0.42170035215E+02  0.00000000000E+00 0.  1.
         12    1    4    4    0    0 -0.10744258178E+03 -0.10483330555E+03 -0.51002854195E+02  0.15854091418E+03  0.00000000000E+00 0. -1.
        -13    1    3    3    0    0  0.34486821461E+02 -0.62160000597E+01 -0.46732264375E+02  0.58411334900E+02  0.00000000000E+00 0.  1.
         14    1    3    3    0    0  0.43442493317E+01  0.63881800742E+02 -0.18934571727E+02  0.66770315072E+02  0.00000000000E+00 0. -1.
          5    1    5    5  501    0 -0.49673502593E+01 -0.72587741918E+01 -0.39722048414E+01  0.10734653356E+02  0.47000000000E+01 0.  1.
         -5    1    5    5    0  501  0.74205940167E+02  0.16816845799E+02  0.49207675588E+03  0.49794673564E+03  0.47000000000E+01 0.  1.
          1    1    1    2  502    0 -0.89216309589E+02  0.58000334971E+02 -0.20868373582E+03  0.23424877876E+03  0.00000000000E+00 0. -1.
          1    1    1    2  503    0  0.93370803419E+02  0.17296736020E+02  0.39825409098E+03  0.40941861827E+03  0.00000000000E+00 0. -1.
<mgrwt>
<rscale>  0 0.99859520E+02</rscale>
<asrwt>0</asrwt>
<pdfrwt beam="1">  1        2 0.15129059E+00 0.94959381E+02</pdfrwt>
<pdfrwt beam="2">  1        2 0.66097845E-01 0.10501252E+03</pdfrwt>
<totfact> 0.32758107E+02</totfact>
</mgrwt>
</event>
<event>
13    1  0.1942437E-008  0.2909828E+02  0.7546771E-02  0.1637754E+00
          2   -1    0    0  502    0  0.00000000000E+00  0.00000000000E+00  0.24413216035E+04  0.24413216035E+04  0.00000000000E+00 0. -1.
          2   -1    0    0  503    0 -0.00000000000E+00 -0.00000000000E+00 -0.36639905385E+04  0.36639905385E+04  0.00000000000E+00 0. -1.
         24    2    1    2    0    0  0.95248554255E+03  0.22002318690E+03 -0.11622723938E+04  0.15212993585E+04  0.88519540851E+02 0.  0.
         24    2    1    2    0    0 -0.75557240092E+03  0.56806191725E+02  0.57966247884E+02  0.76410712822E+03  0.79893811151E+02 0.  0.
         25    2    1    2    0    0 -0.20854111477E+03 -0.30268092600E+03  0.15959133752E+03  0.41976353562E+03  0.12500756502E+03 0.  0.
        -13    1    3    3    0    0  0.77645508015E+03  0.14655815098E+03 -0.91376225902E+03  0.12080245234E+04  0.00000000000E+00 0.  1.
         14    1    3    3    0    0  0.17603046240E+03  0.73465035915E+02 -0.24851013483E+03  0.31327483510E+03  0.00000000000E+00 0. -1.
        -13    1    4    4    0    0 -0.51463863215E+03  0.54269475180E+02  0.55369037994E+01  0.51752174345E+03  0.00000000000E+00 0.  1.
         14    1    4    4    0    0 -0.24093376877E+03  0.25367165449E+01  0.52429344085E+02  0.24658538477E+03  0.00000000000E+00 0. -1.
          5    1    5    5  501    0 -0.16806707404E+03 -0.23087495385E+03  0.62593413677E+02  0.29238640722E+03  0.47000000000E+01 0. -1.
         -5    1    5    5    0  501 -0.40474040726E+02 -0.71805972149E+02  0.96997923843E+02  0.12737712840E+03  0.47000000000E+01 0. -1.
          1    1    1    2  502    0 -0.12865420157E+02  0.26100550709E+02  0.15608768179E+04  0.15611480386E+04  0.00000000000E+00 0. -1.
          1    1    1    2  503    0  0.24493393298E+02 -0.24900333232E+00 -0.18388309444E+04  0.18389940812E+04  0.00000000000E+00 0. -1.
<mgrwt>
<rscale>  0 0.26697425E+02</rscale>
<asrwt>0</asrwt>
<pdfrwt beam="1">  1        2 0.35901789E+00 0.29098282E+02</pdfrwt>
<pdfrwt beam="2">  1        2 0.53882213E+00 0.24494659E+02</pdfrwt>
<totfact> 0.16761313E+00</totfact>
</mgrwt>
</event>
<event>
13    1  0.1942437E-008  0.2521610E+03  0.7546771E-02  0.1209409E+00
          2   -1    0    0  502    0  0.00000000000E+00  0.00000000000E+00  0.20921129461E+04  0.20921129461E+04  0.00000000000E+00 0. -1.
          2   -1    0    0  503    0 -0.00000000000E+00 -0.00000000000E+00 -0.98710754958E+03  0.98710754958E+03  0.00000000000E+00 0. -1.
         24    2    1    2    0    0 -0.11048767925E+02  0.15916444033E+02 -0.14438970872E+03  0.16785594823E+03  0.83377592379E+02 0.  0.
         24    2    1    2    0    0  0.11868228638E+03 -0.58286486807E+02  0.10874835191E+03  0.18907892481E+03  0.80261049818E+02 0.  0.
         25    2    1    2    0    0 -0.32967791330E+03 -0.44880416082E+02  0.27446974280E+03  0.44906653244E+03  0.12500133030E+03 0.  0.
        -11    1    3    3    0    0  0.31418660698E+01  0.21528599748E+02  0.89206115581E+00  0.21774932896E+02  0.00000000000E+00 0.  1.
         12    1    3    3    0    0 -0.14190633995E+02 -0.56121557147E+01 -0.14528176987E+03  0.14608101534E+03  0.00000000000E+00 0. -1.
        -13    1    4    4    0    0 -0.54183094285E+01  0.32206509038E+01  0.28110851955E+02  0.28808864381E+02  0.00000000000E+00 0.  1.
         14    1    4    4    0    0  0.12410059581E+03 -0.61507137711E+02  0.80637499958E+02  0.16027006043E+03  0.00000000000E+00 0. -1.
          5    1    5    5  501    0 -0.33192960784E+03 -0.47623071511E+02  0.28292394216E+03  0.43876334003E+03  0.47000000000E+01 0. -1.
         -5    1    5    5    0  501  0.22516945422E+01  0.27426554293E+01 -0.84541993589E+01  0.10303192414E+02  0.47000000000E+01 0. -1.
          1    1    1    2  502    0  0.18158728370E+03  0.17061833628E+03  0.15566955213E+04  0.15765105468E+04  0.00000000000E+00 0. -1.
          1    1    1    2  503    0  0.40457111139E+02 -0.83367877419E+02 -0.69051851071E+03  0.69670854341E+03  0.00000000000E+00 0. -1.
<mgrwt>
<rscale>  0 0.14295354E+03</rscale>
<asrwt>0</asrwt>
<pdfrwt beam="1">  1        2 0.30766367E+00 0.25216100E+03</pdfrwt>
<pdfrwt beam="2">  1        2 0.14516287E+00 0.81042328E+02</pdfrwt>
<totfact> 0.35332625E+01</totfact>
</mgrwt>
</event>
<event>
13    1  0.1942437E-008  0.1170368E+03  0.7546771E-02  0.1485765E+00
          2   -1    0    0  502    0  0.00000000000E+00  0.00000000000E+00  0.12782894484E+04  0.12782894484E+04  0.00000000000E+00 0. -1.
          2   -1    0    0  503    0 -0.00000000000E+00 -0.00000000000E+00 -0.21541571924E+04  0.21541571924E+04  0.00000000000E+00 0. -1.
         24    2    1    2    0    0  0.13204455824E+03 -0.37069034276E+02 -0.39909207329E+03  0.42950101041E+03  0.79917184105E+02 0.  0.
         24    2    1    2    0    0 -0.13090357465E+03 -0.52846929971E+02 -0.31980385810E+02  0.16834830326E+03  0.85964308123E+02 0.  0.
         25    2    1    2    0    0 -0.50894928752E+02 -0.32160650989E+01  0.63092233396E+02  0.14901929368E+03  0.12500193250E+03 0.  0.
        -11    1    4    4    0    0 -0.16188078418E+02  0.10747809589E+02 -0.31703281380E+02  0.37184235156E+02  0.00000000000E+00 0.  1.
         12    1    4    4    0    0 -0.11471549623E+03 -0.63594739560E+02 -0.27710442961E+00  0.13116406810E+03  0.00000000000E+00 0. -1.
        -13    1    3    3    0    0  0.13463738101E+03 -0.51404509045E+02 -0.36545443470E+03  0.39284423345E+03  0.00000000000E+00 0.  1.
         14    1    3    3    0    0 -0.25928227710E+01  0.14335474769E+02 -0.33637638594E+02  0.36656776958E+02  0.00000000000E+00 0. -1.
          5    1    5    5  501    0  0.40070687238E+02  0.29766544949E+00  0.35605195428E+02  0.53810487100E+02  0.47000000000E+01 0.  1.
         -5    1    5    5    0  501 -0.90965615990E+02 -0.35137305484E+01  0.27487037968E+02  0.95208806584E+02  0.47000000000E+01 0.  1.
          1    1    1    2  502    0  0.50012695380E+01 -0.15157294813E+02  0.10866369655E+04  0.10867541816E+04  0.00000000000E+00 0. -1.
          1    1    1    2  503    0  0.44752675620E+02  0.10828932416E+03 -0.15945244838E+04  0.15988238518E+04  0.00000000000E+00 0. -1.
<mgrwt>
<rscale>  0 0.43220756E+02</rscale>
<asrwt>0</asrwt>
<pdfrwt beam="1">  1        2 0.18798374E+00 0.15961087E+02</pdfrwt>
<pdfrwt beam="2">  1        2 0.31678782E+00 0.11703675E+03</pdfrwt>
<totfact> 0.27863062E+01</totfact>
</mgrwt>
</event>
<event>
13    1  0.1942437E-008  0.2895076E+02  0.7546771E-02  0.1679584E+00
          2   -1    0    0  503    0  0.00000000000E+00  0.00000000000E+00  0.88296876271E+03  0.88296876271E+03  0.00000000000E+00 0. -1.
          2   -1    0    0  502    0 -0.00000000000E+00 -0.00000000000E+00 -0.85564693166E+03  0.85564693166E+03  0.00000000000E+00 0. -1.
         24    2    1    2    0    0  0.54211708550E+02  0.66956557548E+02 -0.55076005304E+03  0.56335803295E+03  0.81323719258E+02 0.  0.
         24    2    1    2    0    0 -0.12824885172E+02 -0.13778225163E+02 -0.96453591435E+02  0.12656827042E+03  0.79761611115E+02 0.  0.
         25    2    1    2    0    0 -0.61318833121E+02 -0.34124203010E+02  0.93079855036E+02  0.17092587975E+03  0.12500934536E+03 0.  0.
        -11    1    4    4    0    0 -0.34601221313E+02 -0.28836768422E+02 -0.87859694485E+02  0.98732616922E+02  0.00000000000E+00 0.  1.
         12    1    4    4    0    0  0.21776336141E+02  0.15058543258E+02 -0.85938969502E+01  0.27835653496E+02  0.00000000000E+00 0. -1.
        -11    1    3    3    0    0  0.38852979300E+02  0.11225741695E+02 -0.86206426739E+02  0.95221422422E+02  0.00000000000E+00 0.  1.
         12    1    3    3    0    0  0.15358729250E+02  0.55730815853E+02 -0.46455362631E+03  0.46813661052E+03  0.00000000000E+00 0. -1.
          5    1    5    5  501    0 -0.21782158117E+02  0.34218292646E+02  0.81273534569E+02  0.90955106427E+02  0.47000000000E+01 0.  1.
         -5    1    5    5    0  501 -0.39536675005E+02 -0.68342495656E+02  0.11806320467E+02  0.79970773323E+02  0.47000000000E+01 0.  1.
          1    1    1    2  502    0  0.28968357871E+02 -0.17869741877E+01 -0.14660087212E+03  0.14944622692E+03  0.00000000000E+00 0. -1.
          1    1    1    2  503    0 -0.90363481271E+01 -0.17267155187E+02  0.72805649261E+03  0.72831728434E+03  0.00000000000E+00 0. -1.
<mgrwt>
<rscale>  0 0.23753172E+02</rscale>
<asrwt>0</asrwt>
<pdfrwt beam="1">  1        2 0.12984835E+00 0.19488721E+02</pdfrwt>
<pdfrwt beam="2">  1        2 0.12583043E+00 0.28950756E+02</pdfrwt>
<totfact> 0.21623311E+02</totfact>
</mgrwt>
</event>
<event>
13    1  0.1942437E-008  0.4238091E+02  0.7546771E-02  0.1535794E+00
          2   -1    0    0  502    0  0.00000000000E+00  0.00000000000E+00  0.34215204555E+04  0.34215204555E+04  0.00000000000E+00 0. -1.
          2   -1    0    0  503    0 -0.00000000000E+00 -0.00000000000E+00 -0.34916885326E+04  0.34916885326E+04  0.00000000000E+00 0. -1.
         24    2    1    2    0    0  0.98257051938E+02  0.30732451160E+03 -0.48359633168E+03  0.58873150584E+03  0.92933149473E+02 0.  0.
         24    2    1    2    0    0  0.25854588221E+03  0.87714865579E+02  0.19269023754E+03  0.34372593307E+03  0.80486760200E+02 0.  0.
         25    2    1    2    0    0 -0.34366373861E+03 -0.32932913449E+03  0.16657533680E+04  0.17369279827E+04  0.12498836003E+03 0.  0.
        -11    1    4    4    0    0  0.14567851485E+03  0.76266508243E+02  0.76575917506E+02  0.18139096204E+03  0.00000000000E+00 0.  1.
         12    1    4    4    0    0  0.11286736736E+03  0.11448357336E+02  0.11611432003E+03  0.16233497102E+03  0.00000000000E+00 0. -1.
        -13    1    3    3    0    0  0.61971370861E+02  0.65898877421E+02 -0.15333643213E+03  0.17803138563E+03  0.00000000000E+00 0.  1.
         14    1    3    3    0    0  0.36285681077E+02  0.24142563418E+03 -0.33025989955E+03  0.41070012021E+03  0.00000000000E+00 0. -1.
          5    1    5    5  501    0 -0.59837479696E+02 -0.17697287356E+02  0.12850890259E+03  0.14293476134E+03  0.47000000000E+01 0. -1.
         -5    1    5    5    0  501 -0.28382625891E+03 -0.31163184713E+03  0.15372444654E+04  0.15939932214E+04  0.47000000000E+01 0. -1.
          1    1    1    2  502    0 -0.20327247722E+02 -0.23944947013E+02  0.13990699784E+04  0.13994225102E+04  0.00000000000E+00 0. -1.
          1    1    1    2  503    0  0.71880521808E+01 -0.41765295677E+02 -0.28440853294E+04  0.28444010563E+04  0.00000000000E+00 0. -1.
<mgrwt>
<rscale>  0 0.36485116E+02</rscale>
<asrwt>0</asrwt>
<pdfrwt beam="1">  1        2 0.50316478E+00 0.31409513E+02</pdfrwt>
<pdfrwt beam="2">  1        2 0.51348360E+00 0.42380908E+02</pdfrwt>
<totfact> 0.59418740E-01</totfact>
</mgrwt>
</event>
<event>
13    1  0.1942437E-008  0.6490829E+02  0.7546771E-02  0.1567887E+00
          2   -1    0    0  503    0  0.00000000000E+00  0.00000000000E+00  0.17295742604E+04  0.17295742604E+04  0.00000000000E+00 0. -1.
          2   -1    0    0  502    0 -0.00000000000E+00 -0.00000000000E+00 -0.32816377906E+03  0.32816377906E+03  0.00000000000E+00 0. -1.
         24    2    1    2    0    0 -0.37705374299E+02 -0.14771583299E+02  0.19469454997E+03  0.21312754909E+03  0.76664786365E+02 0.  0.
         24    2    1    2    0    0 -0.21894404731E+02  0.31199579895E+02  0.18434114297E+03  0.20451218156E+03  0.79942458504E+02 0.  0.
         25    2    1    2    0    0  0.94104612128E+02  0.43128598601E+02  0.65402646401E+03  0.67386361116E+03  0.12500318710E+03 0.  0.
        -11    1    3    3    0    0  0.14414149865E+02 -0.11796542502E+02  0.12321110608E+03  0.12461100591E+03  0.00000000000E+00 0.  1.
         12    1    3    3    0    0 -0.52119524164E+02 -0.29750407970E+01  0.71483443894E+02  0.88516543187E+02  0.00000000000E+00 0. -1.
        -13    1    4    4    0    0  0.71664061969E+00 -0.14621906172E+02  0.15588642168E+01  0.14722220333E+02  0.00000000000E+00 0.  1.
         14    1    4    4    0    0 -0.22611045351E+02  0.45821486067E+02  0.18278227876E+03  0.18978996123E+03  0.00000000000E+00 0. -1.
          5    1    5    5  501    0  0.24210865756E+01 -0.15348954505E+01 -0.47208506624E+01  0.72521717593E+01  0.47000000000E+01 0.  1.
         -5    1    5    5    0  501  0.91683525552E+02  0.44663494051E+02  0.65874731467E+03  0.66661143940E+03  0.47000000000E+01 0.  1.
          1    1    1    2  502    0 -0.18042783732E+02 -0.62343612957E+02 -0.29531432231E+03  0.30236206290E+03  0.00000000000E+00 0. -1.
          1    1    1    2  503    0 -0.16462049365E+02  0.27870177607E+01  0.66366264665E+03  0.66387263470E+03  0.00000000000E+00 0. -1.
<mgrwt>
<rscale>  0 0.32920032E+02</rscale>
<asrwt>0</asrwt>
<pdfrwt beam="1">  1        2 0.25434915E+00 0.16696303E+02</pdfrwt>
<pdfrwt beam="2">  1        2 0.48259380E-01 0.64908291E+02</pdfrwt>
<totfact> 0.23736769E+02</totfact>
</mgrwt>
</event>
<event>
13    1  0.1942437E-008  0.5704863E+02  0.7546771E-02  0.1434785E+00
         -3   -1    0    0    0  501 -0.00000000000E+00  0.00000000000E+00  0.12479950419E+03  0.12479950419E+03  0.00000000000E+00 0.  1.
          2   -1    0    0  503    0  0.00000000000E+00 -0.00000000000E+00 -0.35894919611E+04  0.35894919611E+04  0.00000000000E+00 0. -1.
         24    2    1    2    0    0  0.38384096010E+02 -0.17818859843E+02 -0.35557296832E+02  0.99881828673E+02  0.83193796334E+02 0.  0.
         24    2    1    2    0    0 -0.72669437318E+02  0.81076421133E+02 -0.10222642525E+03  0.17099015359E+03  0.83265583655E+02 0.  0.
         25    2    1    2    0    0  0.35342544074E+02 -0.91870955208E+02 -0.20082523408E+04  0.20145451245E+04  0.12500090598E+03 0.  0.
        -11    1    3    3    0    0  0.26850443234E+02  0.30075396482E+02 -0.30106513179E+02  0.50317769339E+02  0.00000000000E+00 0.  1.
         12    1    3    3    0    0  0.11533652776E+02 -0.47894256325E+02 -0.54507836526E+01  0.49564059334E+02  0.00000000000E+00 0. -1.
        -13    1    4    4    0    0 -0.67553211676E+02  0.77547809008E+02 -0.43055683706E+02  0.11149390561E+03  0.00000000000E+00 0.  1.
         14    1    4    4    0    0 -0.51162256428E+01  0.35286121242E+01 -0.59170741543E+02  0.59496247975E+02  0.00000000000E+00 0. -1.
          5    1    5    5  502    0 -0.23996801693E+02 -0.13885880225E+02 -0.10303139368E+03  0.10679991688E+03  0.47000000000E+01 0.  1.
         -5    1    5    5    0  502  0.59339345767E+02 -0.77985074983E+02 -0.19052209471E+04  0.19077452076E+04  0.47000000000E+01 0.  1.
          1    1    1    2  503    0  0.46018007913E+02  0.34312115909E+02 -0.13628476739E+04  0.13640559961E+04  0.00000000000E+00 0. -1.
         -4    1    1    2    0  501 -0.47075210679E+02 -0.56987219908E+01  0.44191279833E+02  0.64818362414E+02  0.00000000000E+00 0.  1.
<mgrwt>
<rscale>  0 0.52011368E+02</rscale>
<asrwt>0</asrwt>
<pdfrwt beam="2">  1        2 0.52786644E+00 0.57048627E+02</pdfrwt>
<pdfrwt beam="1">  1       -3 0.18352869E-01 0.47418888E+02</pdfrwt>
<totfact> 0.21003944E+01</totfact>
</mgrwt>
</event>
<event>
13    1  0.1942437E-008  0.3797499E+02  0.7546771E-02  0.1526297E+00
         -1   -1    0    0    0  501 -0.00000000000E+00  0.00000000000E+00  0.86407037983E+03  0.86407037983E+03  0.00000000000E+00 0.  1.
          2   -1    0    0  503    0  0.00000000000E+00 -0.00000000000E+00 -0.24931367471E+04  0.24931367471E+04  0.00000000000E+00 0. -1.
         24    2    1    2    0    0 -0.36875108723E+03 -0.65889883514E+03 -0.30622316420E+03  0.81805671666E+03  0.72932339149E+02 0.  0.
         24    2    1    2    0    0  0.35798496858E+03  0.85335310891E+03 -0.34776701902E+03  0.99050576408E+03  0.61603595084E+02 0.  0.
         25    2    1    2    0    0 -0.73403787827E+01 -0.15429513524E+03 -0.10606079847E+03  0.22524506083E+03  0.12500229813E+03 0.  0.
        -13    1    4    4    0    0  0.28591712626E+02  0.95434717649E+02 -0.20810930765E+02  0.10177605909E+03  0.00000000000E+00 0.  1.
         14    1    4    4    0    0  0.32939325595E+03  0.75791839126E+03 -0.32695608826E+03  0.88872970499E+03  0.00000000000E+00 0. -1.
        -13    1    3    3    0    0 -0.68029154797E+01 -0.23833678959E+02 -0.23991064144E+02  0.34494855711E+02  0.00000000000E+00 0.  1.
         14    1    3    3    0    0 -0.36194817175E+03 -0.63506515618E+03 -0.28223210006E+03  0.78356186095E+03  0.00000000000E+00 0. -1.
          5    1    5    5  502    0  0.87190429356E+01 -0.99601436906E+02 -0.12929434264E+03  0.16351019841E+03  0.47000000000E+01 0. -1.
         -5    1    5    5    0  502 -0.16059421718E+02 -0.54693698337E+02  0.23233544177E+02  0.61734862425E+02  0.47000000000E+01 0. -1.
          1    1    1    2  503    0  0.37118522468E+02 -0.80484549250E+01 -0.10943434576E+04  0.10950023587E+04  0.00000000000E+00 0. -1.
         -2    1    1    2    0  501 -0.19012025033E+02 -0.32110683601E+02  0.22532807204E+03  0.22839722666E+03  0.00000000000E+00 0.  1.
<mgrwt>
<rscale>  0 0.37644523E+02</rscale>
<asrwt>0</asrwt>
<pdfrwt beam="2">  1        2 0.36663775E+00 0.37974995E+02</pdfrwt>
<pdfrwt beam="1">  1       -1 0.12706917E+00 0.37316928E+02</pdfrwt>
<totfact> 0.44697730E+00</totfact>
</mgrwt>
</event>
<event>
13    1  0.1942437E-008  0.1083467E+03  0.7546771E-02  0.1300253E+00
          2   -1    0    0  502    0  0.00000000000E+00  0.00000000000E+00  0.15871298787E+04  0.15871298787E+04  0.00000000000E+00 0. -1.
          2   -1    0    0  503    0 -0.00000000000E+00 -0.00000000000E+00 -0.22111630880E+04  0.22111630880E+04  0.00000000000E+00 0. -1.
         24    2    1    2    0    0  0.40086606957E+02  0.91109781192E+02 -0.53745307200E+02  0.13949594674E+03  0.81624952212E+02 0.  0.
         24    2    1    2    0    0  0.10522366170E+02  0.64231359366E+02  0.46063199417E+02  0.11272699801E+03  0.79681679350E+02 0.  0.
         25    2    1    2    0    0 -0.76978631940E+02 -0.68574943409E+02  0.13729344768E+03  0.21237595658E+03  0.12500329404E+03 0.  0.
        -11    1    3    3    0    0  0.54919743668E+02  0.78201767001E+02 -0.15936434306E+02  0.96879639476E+02  0.00000000000E+00 0.  1.
         12    1    3    3    0    0 -0.14833136711E+02  0.12908014192E+02 -0.37808872893E+02  0.42616307261E+02  0.00000000000E+00 0. -1.
        -13    1    4    4    0    0  0.37582018993E+02  0.53671658966E+02  0.97772718218E+01  0.66246888018E+02  0.00000000000E+00 0.  1.
         14    1    4    4    0    0 -0.27059652823E+02  0.10559700399E+02  0.36285927595E+02  0.46480109992E+02  0.00000000000E+00 0. -1.
          5    1    5    5  501    0 -0.64950652507E+01  0.23557705927E+02 -0.82353162169E+01  0.26211864000E+02  0.47000000000E+01 0. -1.
         -5    1    5    5    0  501 -0.70483566689E+02 -0.92132649336E+02  0.14552876390E+03  0.18616409258E+03  0.47000000000E+01 0. -1.
          1    1    1    2  502    0  0.95416070648E+02 -0.53670994133E+02  0.12869828786E+04  0.12916306485E+04  0.00000000000E+00 0. -1.
          1    1    1    2  503    0 -0.69046411835E+02 -0.33095203016E+02 -0.20406274278E+04  0.20420634169E+04  0.00000000000E+00 0. -1.
<mgrwt>
<rscale>  0 0.91081945E+02</rscale>
<asrwt>0</asrwt>
<pdfrwt beam="1">  1        2 0.23340145E+00 0.10834672E+03</pdfrwt>
<pdfrwt beam="2">  1        2 0.32517104E+00 0.76568267E+02</pdfrwt>
<totfact> 0.16775963E+01</totfact>
</mgrwt>
</event>
<event>
13    1  0.1942437E-008  0.1878307E+03  0.7546771E-02  0.1285634E+00
          2   -1    0    0  503    0  0.00000000000E+00  0.00000000000E+00  0.13699211469E+04  0.13699211469E+04  0.00000000000E+00 0. -1.
          2   -1    0    0  502    0 -0.00000000000E+00 -0.00000000000E+00 -0.30489358630E+04  0.30489358630E+04  0.00000000000E+00 0. -1.
         24    2    1    2    0    0 -0.27549303756E+02  0.17879067685E+02 -0.39342119098E+02  0.96930274352E+02  0.82274239906E+02 0.  0.
         24    2    1    2    0    0 -0.92601092097E+02 -0.31125737364E+03 -0.75517316883E+02  0.34293715524E+03  0.80292667088E+02 0.  0.
         25    2    1    2    0    0 -0.49199398208E+02  0.32285770303E+03  0.76119779940E+03  0.83767801893E+03  0.12499878559E+03 0.  0.
        -11    1    4    4    0    0 -0.55187425268E+02 -0.17170343667E+03 -0.97063362234E+00  0.18035704644E+03  0.00000000000E+00 0.  1.
         12    1    4    4    0    0 -0.37413666829E+02 -0.13955393697E+03 -0.74546683261E+02  0.16258010879E+03  0.00000000000E+00 0. -1.
        -13    1    3    3    0    0 -0.30681310082E+02 -0.23424965489E+02  0.16724639626E+01  0.38637662095E+02  0.00000000000E+00 0.  1.
         14    1    3    3    0    0  0.31320063256E+01  0.41304033174E+02 -0.41014583061E+02  0.58292612257E+02  0.00000000000E+00 0. -1.
          5    1    5    5  501    0 -0.79422428657E+02  0.26630188364E+03  0.54003639403E+03  0.60735987049E+03  0.47000000000E+01 0.  1.
         -5    1    5    5    0  501  0.30223030449E+02  0.56555819389E+02  0.22116140537E+03  0.23031814844E+03  0.47000000000E+01 0.  1.
          1    1    1    2  502    0  0.18714162980E+03  0.17905259333E+02 -0.27285155039E+04  0.27349843589E+04  0.00000000000E+00 0. -1.
          1    1    1    2  503    0 -0.17791835735E+02 -0.47384656405E+02  0.40316242442E+03  0.40632720257E+03  0.00000000000E+00 0. -1.
<mgrwt>
<rscale>  0 0.97503875E+02</rscale>
<asrwt>0</asrwt>
<pdfrwt beam="1">  1        2 0.20145900E+00 0.50614771E+02</pdfrwt>
<pdfrwt beam="2">  1        2 0.44837291E+00 0.18783065E+03</pdfrwt>
<totfact> 0.75403018E+00</totfact>
</mgrwt>
</event>
<event>
13    1  0.2434320E-008  0.1752955E+03  0.7546771E-02  0.1253355E+00
          2   -1    0    0  502    0  0.00000000000E+00  0.00000000000E+00  0.35554635516E+04  0.35554635516E+04  0.00000000000E+00 0. -1.
          2   -1    0    0  503    0 -0.00000000000E+00 -0.00000000000E+00 -0.19850638673E+04  0.19850638673E+04  0.00000000000E+00 0. -1.
         24    2    1    2    0    0  0.44336230230E+03 -0.29473366848E+03 -0.36472992475E+03  0.65047024723E+03  0.81520292518E+02 0.  0.
         24    2    1    2    0    0 -0.46799945354E+03  0.98221806945E+03 -0.50742954971E+02  0.10929644582E+04  0.90667716730E+02 0.  0.
         25    2    1    2    0    0  0.10794308067E+03 -0.50712876021E+03  0.79957228088E+03  0.96113085794E+03  0.12500162252E+03 0.  0.
        -11    1    3    3    0    0  0.20804642562E+03 -0.13078757487E+03 -0.12012237503E+03  0.27352895630E+03  0.00000000000E+00 0.  1.
         12    1    3    3    0    0  0.23531587668E+03 -0.16394609361E+03 -0.24460754973E+03  0.37694129093E+03  0.00000000000E+00 0. -1.
        -13    1    4    4    0    0 -0.15665723123E+03  0.24105805694E+03 -0.37799220813E+00  0.28749020469E+03  0.00000000000E+00 0.  1.
         14    1    4    4    0    0 -0.31134222230E+03  0.74116001251E+03 -0.50364962763E+02  0.80547425347E+03  0.00000000000E+00 0. -1.
          5    1    5    5  501    0  0.54354537664E+02 -0.11712485553E+03  0.28757710870E+03  0.31527025073E+03  0.47000000000E+01 0.  1.
         -5    1    5    5    0  501  0.53588543004E+02 -0.39000390467E+03  0.51199517218E+03  0.64586060721E+03  0.47000000000E+01 0.  1.
          1    1    1    2  502    0 -0.73929861762E+02 -0.53675112637E+01  0.20011295457E+04  0.20025019085E+04  0.00000000000E+00 0. -1.
          1    1    1    2  503    0 -0.93760676681E+01 -0.17498812950E+03 -0.81482926266E+03  0.83345994709E+03  0.00000000000E+00 0. -1.
<mgrwt>
<rscale>  0 0.11398985E+03</rscale>
<asrwt>0</asrwt>
<pdfrwt beam="1">  1        2 0.52286229E+00 0.74124454E+02</pdfrwt>
<pdfrwt beam="2">  1        2 0.29192115E+00 0.17529555E+03</pdfrwt>
<totfact> 0.20439774E+00</totfact>
</mgrwt>
</event>
<event>
13    1  0.1942437E-008  0.3557563E+02  0.7546771E-02  0.1565192E+00
          2   -1    0    0  502    0  0.00000000000E+00  0.00000000000E+00  0.22314016107E+04  0.22314016107E+04  0.00000000000E+00 0. -1.
          2   -1    0    0  503    0 -0.00000000000E+00 -0.00000000000E+00 -0.27346171202E+04  0.27346171202E+04  0.00000000000E+00 0. -1.
         24    2    1    2    0    0 -0.29698697963E+02 -0.78130500996E+02 -0.63216773360E+03  0.64304559154E+03  0.82977114595E+02 0.  0.
         24    2    1    2    0    0 -0.13862177329E+03 -0.17601274207E+03 -0.96774027790E+03  0.99722201369E+03  0.87943264164E+02 0.  0.
         25    2    1    2    0    0  0.17520435029E+03  0.24575103114E+03 -0.34159042243E+03  0.47265166582E+03  0.12500178732E+03 0.  0.
        -11    1    3    3    0    0 -0.53116302822E+02 -0.51404553868E+02 -0.52407307308E+03  0.52926019661E+03  0.00000000000E+00 0.  1.
         12    1    3    3    0    0  0.23417604859E+02 -0.26725947128E+02 -0.10809466052E+03  0.11378539493E+03  0.00000000000E+00 0. -1.
        -13    1    4    4    0    0 -0.14647422685E+03 -0.17899147788E+03 -0.91290977712E+03  0.94175204245E+03  0.00000000000E+00 0.  1.
         14    1    4    4    0    0  0.78524535634E+01  0.29787358096E+01 -0.54830500781E+02  0.55469971245E+02  0.00000000000E+00 0. -1.
          5    1    5    5  501    0  0.91559828437E+02  0.17731450184E+03 -0.13981869782E+03  0.24371087995E+03  0.47000000000E+01 0.  1.
         -5    1    5    5    0  501  0.83644521857E+02  0.68436529300E+02 -0.20177172461E+03  0.22894078587E+03  0.47000000000E+01 0.  1.
          1    1    1    2  502    0  0.28694967395E+02  0.11684861837E+02  0.21451280648E+04  0.21453518013E+04  0.00000000000E+00 0. -1.
          1    1    1    2  503    0 -0.35578846440E+02 -0.32926499137E+01 -0.70684514030E+03  0.70774765858E+03  0.00000000000E+00 0. -1.
<mgrwt>
<rscale>  0 0.33199915E+02</rscale>
<asrwt>0</asrwt>
<pdfrwt beam="1">  1        2 0.32814730E+00 0.30982853E+02</pdfrwt>
<pdfrwt beam="2">  1        2 0.40214957E+00 0.35575626E+02</pdfrwt>
<totfact> 0.59406949E+00</totfact>
</mgrwt>
</event>
<event>
13    1  0.1942437E-008  0.2353128E+03  0.7546771E-02  0.1310846E+00
          2   -1    0    0  502    0  0.00000000000E+00  0.00000000000E+00  0.11789518741E+04  0.11789518741E+04  0.00000000000E+00 0. -1.
          2   -1    0    0  503    0 -0.00000000000E+00 -0.00000000000E+00 -0.19572345334E+04  0.19572345334E+04  0.00000000000E+00 0. -1.
         24    2    1    2    0    0 -0.20175099428E+02 -0.90082075086E+02  0.58970770219E+02  0.13547629945E+03  0.79714873667E+02 0.  0.
         24    2    1    2    0    0 -0.59518581987E+02 -0.20023834834E+01  0.72469401204E+02  0.12298372864E+03  0.79540632750E+02 0.  0.
         25    2    1    2    0    0  0.15380097608E+03 -0.13633590148E+03  0.47405580031E+03  0.53159709427E+03  0.12499740219E+03 0.  0.
        -11    1    4    4    0    0  0.68360473151E+01 -0.25837532555E+02  0.31985223041E+02  0.41681700114E+02  0.00000000000E+00 0.  1.
         12    1    4    4    0    0 -0.66354629302E+02  0.23835149072E+02  0.40484178163E+02  0.81302028527E+02  0.00000000000E+00 0. -1.
        -11    1    3    3    0    0  0.26134054396E+02 -0.16695331618E+02  0.32103347237E+02  0.44635723371E+02  0.00000000000E+00 0.  1.
         12    1    3    3    0    0 -0.46309153824E+02 -0.73386743467E+02  0.26867422982E+02  0.90840576079E+02  0.00000000000E+00 0. -1.
          5    1    5    5  501    0  0.15209078081E+03 -0.95563700466E+02  0.27606807686E+03  0.32939292572E+03  0.47000000000E+01 0.  1.
         -5    1    5    5    0  501  0.17101952772E+01 -0.40772201011E+02  0.19798772344E+03  0.20220416855E+03  0.47000000000E+01 0.  1.
          1    1    1    2  502    0 -0.31731366507E+02 -0.41530573709E+01  0.47314101928E+03  0.47422204887E+03  0.00000000000E+00 0. -1.
          1    1    1    2  503    0 -0.42375928162E+02  0.23257341742E+03 -0.18569196503E+04  0.18719072363E+04  0.00000000000E+00 0. -1.
<mgrwt>
<rscale>  0 0.86778330E+02</rscale>
<asrwt>0</asrwt>
<pdfrwt beam="1">  1        2 0.17337528E+00 0.32001992E+02</pdfrwt>
<pdfrwt beam="2">  1        2 0.28782861E+00 0.23531280E+03</pdfrwt>
<totfact> 0.34531089E+01</totfact>
</mgrwt>
</event>
<event>
13    1  0.1942437E-008  0.2435833E+03  0.7546771E-02  0.1269827E+00
          2   -1    0    0  503    0  0.00000000000E+00  0.00000000000E+00  0.25614205806E+04  0.25614205806E+04  0.00000000000E+00 0. -1.
          2   -1    0    0  502    0 -0.00000000000E+00 -0.00000000000E+00 -0.91685132535E+03  0.91685132535E+03  0.00000000000E+00 0. -1.
         24    2    1    2    0    0  0.96889491151E+02  0.89035712508E+02  0.90346588360E+02  0.17792030277E+03  0.78601504519E+02 0.  0.
         24    2    1    2    0    0 -0.19540807357E+03  0.34808018922E+02  0.19127422423E+03  0.28716709902E+03  0.80518324038E+02 0.  0.
         25    2    1    2    0    0 -0.37484031868E+02  0.88530278396E+02  0.58456368857E+03  0.60546011339E+03  0.12499832033E+03 0.  0.
        -11    1    4    4    0    0 -0.71571112299E+02  0.33430922274E+02  0.12178064738E+03  0.14515707615E+03  0.00000000000E+00 0.  1.
         12    1    4    4    0    0 -0.12383696127E+03  0.13770966472E+01  0.69493576855E+02  0.14201002287E+03  0.00000000000E+00 0. -1.
        -11    1    3    3    0    0 -0.87726798694E+01 -0.46023879031E+01  0.14761369891E+02  0.17777511849E+02  0.00000000000E+00 0.  1.
         12    1    3    3    0    0  0.10566217102E+03  0.93638100411E+02  0.75585218469E+02  0.16014279092E+03  0.00000000000E+00 0. -1.
          5    1    5    5  501    0  0.13029322989E+02  0.38954838765E+02  0.46203296021E+03  0.46387906726E+03  0.47000000000E+01 0.  1.
         -5    1    5    5    0  501 -0.50513354858E+02  0.49575439630E+02  0.12253072836E+03  0.14158104614E+03  0.47000000000E+01 0.  1.
          1    1    1    2  502    0  0.94074082050E+02 -0.22975943077E+03 -0.79541958025E+03  0.83326564647E+03  0.00000000000E+00 0. -1.
          1    1    1    2  503    0  0.41928532237E+02  0.17385420950E+02  0.15738043344E+04  0.15744587443E+04  0.00000000000E+00 0. -1.
<mgrwt>
<rscale>  0 0.10514872E+03</rscale>
<asrwt>0</asrwt>
<pdfrwt beam="1">  1        2 0.37667949E+00 0.45390028E+02</pdfrwt>
<pdfrwt beam="2">  1        2 0.13483108E+00 0.24358333E+03</pdfrwt>
<totfact> 0.26823507E+01</totfact>
</mgrwt>
</event>
<event>
13    1  0.1942437E-008  0.1559763E+03  0.7546771E-02  0.1237957E+00
          2   -1    0    0  503    0  0.00000000000E+00  0.00000000000E+00  0.16976585198E+04  0.16976585198E+04  0.00000000000E+00 0. -1.
          2   -1    0    0  502    0 -0.00000000000E+00 -0.00000000000E+00 -0.13015014139E+04  0.13015014139E+04  0.00000000000E+00 0. -1.
         24    2    1    2    0    0 -0.12513956807E+03  0.26555501156E+02 -0.25244300580E+02  0.15490088411E+03  0.83617600107E+02 0.  0.
         24    2    1    2    0    0 -0.69423173128E+01  0.39423196752E+02  0.50781084711E+02  0.10316335899E+03  0.80383927880E+02 0.  0.
         25    2    1    2    0    0 -0.27771401763E+02 -0.33853259132E+03  0.87147105269E+03  0.94364396330E+03  0.12500627047E+03 0.  0.
        -11    1    3    3    0    0 -0.10646266958E+03  0.15943919848E+02  0.15578544335E+02  0.10877131808E+03  0.00000000000E+00 0.  1.
         12    1    3    3    0    0 -0.18676898498E+02  0.10611581308E+02 -0.40822844915E+02  0.46129566032E+02  0.00000000000E+00 0. -1.
        -13    1    4    4    0    0 -0.19750312016E+02  0.61149442319E+02  0.40302625475E+02  0.75852691059E+02  0.00000000000E+00 0.  1.
         14    1    4    4    0    0  0.12807994703E+02 -0.21726245568E+02  0.10478459236E+02  0.27310667929E+02  0.00000000000E+00 0. -1.
          5    1    5    5  501    0 -0.52357673983E+02 -0.19129960956E+03  0.36278213581E+03  0.41348498729E+03  0.47000000000E+01 0. -1.
         -5    1    5    5    0  501  0.24586272220E+02 -0.14723298176E+03  0.50868891688E+03  0.53015897602E+03  0.47000000000E+01 0. -1.
          1    1    1    2  502    0  0.71962382164E+02  0.65394336276E+02 -0.11274674215E+04  0.11316526809E+04  0.00000000000E+00 0. -1.
          1    1    1    2  503    0  0.87890904985E+02  0.20715955714E+03  0.62661669060E+03  0.66579904643E+03  0.00000000000E+00 0. -1.
<mgrwt>
<rscale>  0 0.12317040E+03</rscale>
<asrwt>0</asrwt>
<pdfrwt beam="1">  1        2 0.24965566E+00 0.15597629E+03</pdfrwt>
<pdfrwt beam="2">  1        2 0.19139727E+00 0.97264453E+02</pdfrwt>
<totfact> 0.38818325E+01</totfact>
</mgrwt>
</event>
<event>
13    1  0.1942437E-008  0.1328095E+03  0.7546771E-02  0.1326276E+00
          2   -1    0    0  502    0  0.00000000000E+00  0.00000000000E+00  0.15218100596E+04  0.15218100596E+04  0.00000000000E+00 0. -1.
          2   -1    0    0  503    0 -0.00000000000E+00 -0.00000000000E+00 -0.10694407776E+04  0.10694407776E+04  0.00000000000E+00 0. -1.
         24    2    1    2    0    0 -0.96041820349E+02 -0.10295801027E+03 -0.32186672144E+03  0.36031897779E+03  0.80044963935E+02 0.  0.
         24    2    1    2    0    0 -0.81029724848E+02  0.38534764533E+02 -0.28016365509E+01  0.12091000851E+03  0.80997756790E+02 0.  0.
         25    2    1    2    0    0  0.18641593969E+03  0.23722582696E+03  0.86324431881E+03  0.92295397023E+03  0.12500512655E+03 0.  0.
        -11    1    4    4    0    0  0.10466390008E+02 -0.12316222439E+02 -0.13990600347E+01  0.16223194012E+02  0.00000000000E+00 0.  1.
         12    1    4    4    0    0 -0.91496114856E+02  0.50850986972E+02 -0.14025765162E+01  0.10468681450E+03  0.00000000000E+00 0. -1.
        -13    1    3    3    0    0 -0.96655546148E+02 -0.58248338371E+02 -0.26462644410E+03  0.28768440771E+03  0.00000000000E+00 0.  1.
         14    1    3    3    0    0  0.61372579914E+00 -0.44709671897E+02 -0.57240277344E+02  0.72634570081E+02  0.00000000000E+00 0. -1.
          5    1    5    5  501    0  0.50254405719E+02  0.19981118895E+02  0.65847679703E+02  0.85339072697E+02  0.47000000000E+01 0.  1.
         -5    1    5    5    0  501  0.13616153397E+03  0.21724470806E+03  0.79739663911E+03  0.83761489754E+03  0.47000000000E+01 0.  1.
          1    1    1    2  502    0  0.22425154409E+02 -0.43999527785E+02  0.54238546261E+03  0.54462908116E+03  0.00000000000E+00 0. -1.
          1    1    1    2  503    0 -0.31769548903E+02 -0.12880305344E+03 -0.62859214145E+03  0.64243879950E+03  0.00000000000E+00 0. -1.
<mgrwt>
<rscale>  0 0.80986147E+02</rscale>
<asrwt>0</asrwt>
<pdfrwt beam="1">  1        2 0.22379560E+00 0.49384674E+02</pdfrwt>
<pdfrwt beam="2">  1        2 0.15727070E+00 0.13280954E+03</pdfrwt>
<totfact> 0.68108800E+01</totfact>
</mgrwt>
</event>
<event>
13    1  0.1942437E-008  0.3372167E+02  0.7546771E-02  0.1629598E+00
          2   -1    0    0  502    0  0.00000000000E+00  0.00000000000E+00  0.27859590398E+03  0.27859590398E+03  0.00000000000E+00 0. -1.
          2   -1    0    0  503    0 -0.00000000000E+00 -0.00000000000E+00 -0.33438458032E+04  0.33438458032E+04  0.00000000000E+00 0. -1.
         24    2    1    2    0    0 -0.76533877360E+01  0.13926759833E+03 -0.89324149874E+03  0.90768400213E+03  0.80968107002E+02 0.  0.
         24    2    1    2    0    0  0.51759061298E+02 -0.15667487923E+03 -0.38241285105E+02  0.18984490661E+03  0.85747737407E+02 0.  0.
         25    2    1    2    0    0 -0.57967502765E+02  0.18957323224E+02  0.10766203268E+03  0.17588832809E+03  0.12500391672E+03 0.  0.
        -11    1    3    3    0    0 -0.14926346302E+02  0.10212940312E+03 -0.40383021110E+03  0.41681176830E+03  0.00000000000E+00 0.  1.
         12    1    3    3    0    0  0.72729585661E+01  0.37138195206E+02 -0.48941128764E+03  0.49087223382E+03  0.00000000000E+00 0. -1.
        -13    1    4    4    0    0  0.49674030482E+02 -0.70863848227E+02 -0.54792208983E+02  0.10242743995E+03  0.00000000000E+00 0.  1.
         14    1    4    4    0    0  0.20850308155E+01 -0.85811031003E+02  0.16550923878E+02  0.87417466656E+02  0.00000000000E+00 0. -1.
          5    1    5    5  501    0 -0.18272698068E+02  0.28641740387E+02  0.12619814327E+03  0.13077577050E+03  0.47000000000E+01 0. -1.
         -5    1    5    5    0  501 -0.39694804698E+02 -0.96844171634E+01 -0.18536110590E+02  0.45112557582E+02  0.47000000000E+01 0. -1.
          1    1    1    2  502    0  0.28568350057E+02 -0.18118076348E+02  0.48420631885E+02  0.59067528370E+02  0.00000000000E+00 0. -1.
          1    1    1    2  503    0 -0.14706520853E+02  0.16568034023E+02 -0.22898497799E+04  0.22899569420E+04  0.00000000000E+00 0. -1.
<mgrwt>
<rscale>  0 0.27332326E+02</rscale>
<asrwt>0</asrwt>
<pdfrwt beam="1">  1        2 0.40969991E-01 0.33721672E+02</pdfrwt>
<pdfrwt beam="2">  1        2 0.49174197E+00 0.22153589E+02</pdfrwt>
<totfact> 0.46996157E+01</totfact>
</mgrwt>
</event>
<event>
13    1  0.1942437E-008  0.1383426E+03  0.7546771E-02  0.1289981E+00
          2   -1    0    0  502    0  0.00000000000E+00  0.00000000000E+00  0.16162136186E+04  0.16162136186E+04  0.00000000000E+00 0. -1.
          2   -1    0    0  503    0 -0.00000000000E+00 -0.00000000000E+00 -0.80133749859E+03  0.80133749859E+03  0.00000000000E+00 0. -1.
         24    2    1    2    0    0 -0.11231766822E+02  0.59216148703E+02 -0.19092357603E+03  0.21618075319E+03  0.81545087617E+02 0.  0.
         24    2    1    2    0    0  0.48537011493E+02  0.59906792706E+02 -0.11029627375E+03  0.15892579075E+03  0.84542732772E+02 0.  0.
         25    2    1    2    0    0  0.41436161852E+02 -0.98288267937E+02  0.13677286678E+03  0.21381135044E+03  0.12502374722E+03 0.  0.
        -11    1    4    4    0    0  0.49645118570E+02  0.14049289753E+02 -0.99071787732E+02  0.11170156429E+03  0.00000000000E+00 0.  1.
         12    1    4    4    0    0 -0.11081070760E+01  0.45857502953E+02 -0.11224486022E+02  0.47224226461E+02  0.00000000000E+00 0. -1.
        -11    1    3    3    0    0 -0.24427116365E+02  0.11518139940E+01 -0.12490396372E+03  0.12727533477E+03  0.00000000000E+00 0.  1.
         12    1    3    3    0    0  0.13195349543E+02  0.58064334709E+02 -0.66019612313E+02  0.88905418421E+02  0.00000000000E+00 0. -1.
          5    1    5    5  501    0 -0.19775555218E+02 -0.51937571282E+01 -0.14772311308E+02  0.25658504997E+02  0.47000000000E+01 0.  1.
         -5    1    5    5    0  501  0.61211717070E+02 -0.93094510809E+02  0.15154517808E+03  0.18815284545E+03  0.47000000000E+01 0.  1.
          1    1    1    2  502    0 -0.13916359781E+03  0.56452514301E+01  0.13979344695E+04  0.14048555644E+04  0.00000000000E+00 0. -1.
          1    1    1    2  503    0  0.60422191287E+02 -0.26479924901E+02 -0.41861136648E+03  0.42377765841E+03  0.00000000000E+00 0. -1.
<mgrwt>
<rscale>  0 0.95532428E+02</rscale>
<asrwt>0</asrwt>
<pdfrwt beam="1">  1        2 0.23767847E+00 0.13834256E+03</pdfrwt>
<pdfrwt beam="2">  1        2 0.11784375E+00 0.65969899E+02</pdfrwt>
<totfact> 0.83919850E+01</totfact>
</mgrwt>
</event>
<event>
13    1  0.1942437E-008  0.7776384E+02  0.7546771E-02  0.1418188E+00
          2   -1    0    0  503    0  0.00000000000E+00  0.00000000000E+00  0.79551380057E+03  0.79551380057E+03  0.00000000000E+00 0. -1.
         -3   -1    0    0    0  501 -0.00000000000E+00 -0.00000000000E+00 -0.35219374243E+03  0.35219374243E+03  0.00000000000E+00 0.  1.
         24    2    1    2    0    0  0.10444119611E+03 -0.10882304922E+02  0.98513619074E+00  0.13246057872E+03  0.80736896253E+02 0.  0.
         24    2    1    2    0    0 -0.11915536388E+03 -0.39699033386E+02  0.78837511302E+02  0.16998056654E+03  0.83090467687E+02 0.  0.
         25    2    1    2    0    0 -0.89648204737E+02  0.59043075690E+00  0.23152548504E+03  0.27796919296E+03  0.12500269113E+03 0.  0.
        -13    1    3    3    0    0  0.11045552757E+03 -0.22369192965E+02  0.14623152042E+02  0.11364260178E+03  0.00000000000E+00 0.  1.
         14    1    3    3    0    0 -0.60143314555E+01  0.11486888043E+02 -0.13638015851E+02  0.18817976941E+02  0.00000000000E+00 0. -1.
        -13    1    4    4    0    0 -0.49663727952E+02  0.23183101606E+02  0.15822810180E+02  0.57046502050E+02  0.00000000000E+00 0.  1.
         14    1    4    4    0    0 -0.69491635926E+02 -0.62882134992E+02  0.63014701122E+02  0.11293406449E+03  0.00000000000E+00 0. -1.
          5    1    5    5  502    0 -0.10999480708E+03 -0.19991795405E+02  0.21930897509E+03  0.24620529244E+03  0.47000000000E+01 0.  1.
         -5    1    5    5    0  502  0.20346602345E+02  0.20582226162E+02  0.12216509944E+02  0.31763900516E+02  0.47000000000E+01 0.  1.
          1    1    1    2  503    0  0.32013226802E+02  0.23098427986E+02  0.34161928274E+03  0.34389259719E+03  0.00000000000E+00 0. -1.
         -4    1    1    2    0  501  0.72349145700E+02  0.26892479566E+02 -0.20964735713E+03  0.22340460759E+03  0.00000000000E+00 0.  1.
<mgrwt>
<rscale>  0 0.55406087E+02</rscale>
<asrwt>0</asrwt>
<pdfrwt beam="1">  1        2 0.11698732E+00 0.39476374E+02</pdfrwt>
<pdfrwt beam="2">  1       -3 0.51793198E-01 0.77763843E+02</pdfrwt>
<totfact> 0.89141900E+01</totfact>
</mgrwt>
</event>
<event>
13    1  0.1942437E-008  0.1223779E+03  0.7546771E-02  0.1346547E+00
          2   -1    0    0  503    0  0.00000000000E+00  0.00000000000E+00  0.15788254834E+04  0.15788254834E+04  0.00000000000E+00 0. -1.
          2   -1    0    0  502    0 -0.00000000000E+00 -0.00000000000E+00 -0.17583571201E+04  0.17583571201E+04  0.00000000000E+00 0. -1.
         24    2    1    2    0    0  0.10480892672E+02 -0.11429923365E+03 -0.58571071095E+03  0.60228639003E+03  0.80732241216E+02 0.  0.
         24    2    1    2    0    0 -0.72788021964E+02  0.29606317131E+02 -0.14981444471E+03  0.18743392061E+03  0.80699916949E+02 0.  0.
         25    2    1    2    0    0 -0.81944908650E+02  0.12535357928E+03  0.85753060426E+02  0.21308881843E+03  0.12499907710E+03 0.  0.
        -11    1    4    4    0    0 -0.49535800477E+02  0.55611113583E+02 -0.12148398633E+03  0.14249473821E+03  0.00000000000E+00 0.  1.
         12    1    4    4    0    0 -0.23252221488E+02 -0.26004796452E+02 -0.28330458375E+02  0.44939182396E+02  0.00000000000E+00 0. -1.
        -13    1    3    3    0    0  0.19217650098E+02 -0.12238307348E+03 -0.56478790745E+03  0.57821476560E+03  0.00000000000E+00 0.  1.
         14    1    3    3    0    0 -0.87367574253E+01  0.80838398307E+01 -0.20922803494E+02  0.24071624431E+02  0.00000000000E+00 0. -1.
          5    1    5    5  501    0 -0.87315557720E+02  0.70521818025E+02  0.15420138821E+01  0.11234679009E+03  0.47000000000E+01 0. -1.
         -5    1    5    5    0  501  0.53706490694E+01  0.54831761252E+02  0.84211046544E+02  0.10074202834E+03  0.47000000000E+01 0. -1.
          1    1    1    2  502    0  0.10593730440E+03 -0.64106659273E+02 -0.92759167183E+03  0.93581979348E+03  0.00000000000E+00 0. -1.
          1    1    1    2  503    0  0.38314733546E+02  0.23445996514E+02  0.13978321304E+04  0.13985536809E+04  0.00000000000E+00 0. -1.
<mgrwt>
<rscale>  0 0.74142529E+02</rscale>
<asrwt>0</asrwt>
<pdfrwt beam="1">  1        2 0.23218022E+00 0.44919189E+02</pdfrwt>
<pdfrwt beam="2">  1        2 0.25858193E+00 0.12237787E+03</pdfrwt>
<totfact> 0.28719432E+01</totfact>
</mgrwt>
</event>
<event>
13    1  0.1942437E-008  0.2128848E+03  0.7546771E-02  0.1384095E+00
          2   -1    0    0  502    0  0.00000000000E+00  0.00000000000E+00  0.22954654815E+04  0.22954654815E+04  0.00000000000E+00 0. -1.
          2   -1    0    0  503    0 -0.00000000000E+00 -0.00000000000E+00 -0.20254684483E+04  0.20254684483E+04  0.00000000000E+00 0. -1.
         24    2    1    2    0    0  0.38515135279E+03  0.35561285898E+03 -0.50878260601E+02  0.53320765597E+03  0.83184956354E+02 0.  0.
         24    2    1    2    0    0 -0.11457380757E+04 -0.21127690177E+03 -0.25977225728E+03  0.11972471188E+04  0.92549287215E+02 0.  0.
         25    2    1    2    0    0  0.58895165677E+03  0.11009456031E+02  0.27952508076E+03  0.66388592390E+03  0.12499994817E+03 0.  0.
        -11    1    3    3    0    0  0.22217253896E+03  0.15031807723E+03 -0.36158480648E+02  0.27067249054E+03  0.00000000000E+00 0.  1.
         12    1    3    3    0    0  0.16297881382E+03  0.20529478175E+03 -0.14719779953E+02  0.26253516544E+03  0.00000000000E+00 0. -1.
        -11    1    4    4    0    0 -0.90832774911E+03 -0.12889538689E+03 -0.20348650021E+03  0.93972340416E+03  0.00000000000E+00 0.  1.
         12    1    4    4    0    0 -0.23741032656E+03 -0.82381514888E+02 -0.56285757062E+02  0.25752371464E+03  0.00000000000E+00 0. -1.
          5    1    5    5  501    0  0.43776219667E+03 -0.13263063371E+02  0.14904510301E+03  0.46265341501E+03  0.47000000000E+01 0.  1.
         -5    1    5    5    0  501  0.15118946010E+03  0.24272519402E+02  0.13047997774E+03  0.20123250889E+03  0.47000000000E+01 0.  1.
          1    1    1    2  502    0  0.14847537795E+02 -0.11663924750E+02  0.10998635605E+04  0.11000256125E+04  0.00000000000E+00 0. -1.
          1    1    1    2  503    0  0.15678752831E+03 -0.14368148848E+03 -0.79874109009E+03  0.82656761862E+03  0.00000000000E+00 0. -1.
<mgrwt>
<rscale>  0 0.63399546E+02</rscale>
<asrwt>0</asrwt>
<pdfrwt beam="1">  1        2 0.33756846E+00 0.18881115E+02</pdfrwt>
<pdfrwt beam="2">  1        2 0.29786301E+00 0.21288480E+03</pdfrwt>
<totfact> 0.10576361E+01</totfact>
</mgrwt>
</event>
<event>
13    1  0.1942437E-008  0.6989867E+02  0.7546771E-02  0.1448280E+00
         -1   -1    0    0    0  501 -0.00000000000E+00  0.00000000000E+00  0.55484503307E+03  0.55484503307E+03  0.00000000000E+00 0.  1.
          2   -1    0    0  503    0  0.00000000000E+00 -0.00000000000E+00 -0.10333713594E+04  0.10333713594E+04  0.00000000000E+00 0. -1.
         24    2    1    2    0    0 -0.84563152204E+02 -0.86516110869E+02  0.19512306192E+03  0.24383621683E+03  0.82140898419E+02 0.  0.
         24    2    1    2    0    0  0.64018043525E+02  0.67109174288E+02  0.80679579754E+01  0.12398302263E+03  0.81882518179E+02 0.  0.
         25    2    1    2    0    0  0.70072734129E+02  0.90897979885E+02 -0.90563568136E+02  0.19235320074E+03  0.12500145257E+03 0.  0.
        -11    1    3    3    0    0 -0.28567126151E+02 -0.98198540979E+01  0.11709511904E+03  0.12092881019E+03  0.00000000000E+00 0.  1.
         12    1    3    3    0    0 -0.55996026053E+02 -0.76696256771E+02  0.78027942884E+02  0.12290740664E+03  0.00000000000E+00 0. -1.
        -11    1    4    4    0    0  0.41525837620E+02 -0.10562558496E+02  0.20723144915E+01  0.42898220468E+02  0.00000000000E+00 0.  1.
         12    1    4    4    0    0  0.22492205906E+02  0.77671732784E+02  0.59956434839E+01  0.81084802158E+02  0.00000000000E+00 0. -1.
          5    1    5    5  502    0  0.68327694075E+02  0.58450615217E+02 -0.11878818248E+03  0.14905660164E+03  0.47000000000E+01 0. -1.
         -5    1    5    5    0  502  0.17450400543E+01  0.32447364668E+02  0.28224614340E+02  0.43296599097E+02  0.47000000000E+01 0. -1.
          1    1    1    2  503    0 -0.14677540622E+02 -0.68292377229E+02 -0.80667810588E+03  0.80969676144E+03  0.00000000000E+00 0. -1.
         -2    1    1    2    0  501 -0.34850084828E+02 -0.31986660750E+01  0.21552432778E+03  0.21834719083E+03  0.00000000000E+00 0.  1.
<mgrwt>
<rscale>  0 0.49459213E+02</rscale>
<asrwt>0</asrwt>
<pdfrwt beam="2">  1        2 0.15196637E+00 0.69898672E+02</pdfrwt>
<pdfrwt beam="1">  1       -1 0.81594859E-01 0.34996570E+02</pdfrwt>
<totfact> 0.54997598E+01</totfact>
</mgrwt>
</event>
<event>
13    1  0.1942437E-008  0.7684251E+02  0.7546771E-02  0.1475809E+00
          2   -1    0    0  502    0  0.00000000000E+00  0.00000000000E+00  0.10583732438E+03  0.10583732438E+03  0.00000000000E+00 0. -1.
          2   -1    0    0  503    0 -0.00000000000E+00 -0.00000000000E+00 -0.34629557243E+04  0.34629557243E+04  0.00000000000E+00 0. -1.
         24    2    1    2    0    0  0.10184679671E+03 -0.59902362680E+02 -0.34946997766E+03  0.37719757931E+03  0.78661842690E+02 0.  0.
         24    2    1    2    0    0 -0.12059557111E+02 -0.34944295908E+02 -0.11072124153E+03  0.14170567964E+03  0.80341580646E+02 0.  0.
         25    2    1    2    0    0 -0.30270223262E+02  0.85207544068E+02 -0.10516978114E+03  0.18671468580E+03  0.12500031618E+03 0.  0.
        -11    1    3    3    0    0  0.98991750341E+02 -0.65167869572E+02 -0.24102728313E+03  0.26858959227E+03  0.00000000000E+00 0.  1.
         12    1    3    3    0    0  0.28550463686E+01  0.52655068917E+01 -0.10844269453E+03  0.10860798704E+03  0.00000000000E+00 0. -1.
        -11    1    4    4    0    0 -0.75136668515E+01  0.26040518779E+02 -0.29903978460E+02  0.40358539810E+02  0.00000000000E+00 0.  1.
         12    1    4    4    0    0 -0.45458902597E+01 -0.60984814687E+02 -0.80817263071E+02  0.10134713983E+03  0.00000000000E+00 0. -1.
          5    1    5    5  501    0  0.47115311992E+02  0.41536747957E+02 -0.27991819638E+02  0.68925945925E+02  0.47000000000E+01 0.  1.
         -5    1    5    5    0  501 -0.77385535254E+02  0.43670796110E+02 -0.77177961502E+02  0.11778873987E+03  0.47000000000E+01 0.  1.
          1    1    1    2  502    0  0.96119415568E+01 -0.24243029675E+02  0.30351353144E+02  0.40016478430E+02  0.00000000000E+00 0. -1.
          1    1    1    2  503    0 -0.69128957893E+02  0.33882144195E+02 -0.28221087527E+04  0.28231586255E+04  0.00000000000E+00 0. -1.
<mgrwt>
<rscale>  0 0.44765782E+02</rscale>
<asrwt>0</asrwt>
<pdfrwt beam="1">  1        2 0.15564313E-01 0.26078994E+02</pdfrwt>
<pdfrwt beam="2">  1        2 0.50925819E+00 0.76842507E+02</pdfrwt>
<totfact> 0.85725523E+01</totfact>
</mgrwt>
</event>
<event>
13    1  0.1942437E-008  0.1535415E+03  0.7546771E-02  0.1320262E+00
          2   -1    0    0  503    0  0.00000000000E+00  0.00000000000E+00  0.55480440687E+03  0.55480440687E+03  0.00000000000E+00 0. -1.
          2   -1    0    0  502    0 -0.00000000000E+00 -0.00000000000E+00 -0.40072903389E+04  0.40072903389E+04  0.00000000000E+00 0. -1.
         24    2    1    2    0    0  0.27631538598E+02  0.21563267615E+03 -0.62101342968E+03  0.66326299294E+03  0.83661012515E+02 0.  0.
         24    2    1    2    0    0  0.18299210805E+03 -0.29609585832E+03 -0.18490501078E+04  0.18831759086E+04  0.78780280165E+02 0.  0.
         25    2    1    2    0    0 -0.79259536206E+02 -0.10680096254E+01  0.98600796296E+02  0.17784841965E+03  0.12499891446E+03 0.  0.
        -11    1    4    4    0    0  0.54326183771E+02 -0.11968388301E+03 -0.52262663333E+03  0.53890088510E+03  0.00000000000E+00 0.  1.
         12    1    4    4    0    0  0.12866592428E+03 -0.17641197532E+03 -0.13264234745E+04  0.13442750235E+04  0.00000000000E+00 0. -1.
        -11    1    3    3    0    0 -0.16602031722E+02  0.13661424058E+03 -0.30662125000E+03  0.33608878163E+03  0.00000000000E+00 0.  1.
         12    1    3    3    0    0  0.44233570320E+02  0.79018435569E+02 -0.31439217968E+03  0.32717421131E+03  0.00000000000E+00 0. -1.
          5    1    5    5  501    0  0.10752474104E+02 -0.33725647785E+02  0.68698252646E+02  0.77424640357E+02  0.47000000000E+01 0. -1.
         -5    1    5    5    0  501 -0.90012010309E+02  0.32657638159E+02  0.29902543650E+02  0.10042377929E+03  0.47000000000E+01 0. -1.
          1    1    1    2  502    0 -0.30118154771E+02 -0.33518463412E+02 -0.14435315478E+04  0.14442347178E+04  0.00000000000E+00 0. -1.
          1    1    1    2  503    0 -0.10124595568E+03  0.11504965521E+03  0.36250835693E+03  0.39357270681E+03  0.00000000000E+00 0. -1.
<mgrwt>
<rscale>  0 0.83179919E+02</rscale>
<asrwt>0</asrwt>
<pdfrwt beam="1">  1        2 0.81588880E-01 0.15354150E+03</pdfrwt>
<pdfrwt beam="2">  1        2 0.58930743E+00 0.45062075E+02</pdfrwt>
<totfact> 0.79538128E+00</totfact>
</mgrwt>
</event>
<event>
13    1  0.1942437E-008  0.1003457E+03  0.7546771E-02  0.1282588E+00
         -1   -1    0    0    0  501 -0.00000000000E+00  0.00000000000E+00  0.10121014213E+04  0.10121014213E+04  0.00000000000E+00 0.  1.
          2   -1    0    0  503    0  0.00000000000E+00 -0.00000000000E+00 -0.22852769753E+04  0.22852769753E+04  0.00000000000E+00 0. -1.
         24    2    1    2    0    0 -0.82287293240E+01  0.10687468869E+01 -0.30012102082E+02  0.88065022778E+02  0.82376378649E+02 0.  0.
         24    2    1    2    0    0 -0.10040567080E+03  0.27107866072E+02  0.26374643521E+02  0.13514435831E+03  0.82172018537E+02 0.  0.
         25    2    1    2    0    0  0.16388962841E+03  0.59603345798E+01 -0.18285544425E+03  0.27560297563E+03  0.12500220316E+03 0.  0.
        -11    1    4    4    0    0 -0.11434537409E+03  0.20693336988E+02  0.28517103084E+02  0.11965075821E+03  0.00000000000E+00 0.  1.
         12    1    4    4    0    0  0.13939703289E+02  0.64145290834E+01 -0.21424595623E+01  0.15493600102E+02  0.00000000000E+00 0. -1.
        -11    1    3    3    0    0  0.14093630851E+02 -0.32805135945E+02 -0.31293438437E+02  0.47477222582E+02  0.00000000000E+00 0.  1.
         12    1    3    3    0    0 -0.22322360175E+02  0.33873882832E+02  0.12813363546E+01  0.40587800196E+02  0.00000000000E+00 0. -1.
          5    1    5    5  502    0  0.11012957367E+03  0.44915582232E+01 -0.19142726950E+03  0.22094159093E+03  0.47000000000E+01 0.  1.
         -5    1    5    5    0  502  0.53760054735E+02  0.14687763567E+01  0.85718252543E+01  0.54661384700E+02  0.47000000000E+01 0.  1.
          1    1    1    2  503    0  0.54932508285E+02 -0.83982787671E+02 -0.19370470895E+04  0.19396448427E+04  0.00000000000E+00 0. -1.
         -2    1    1    2    0  501 -0.11018773657E+03  0.49845840132E+02  0.85036443831E+03  0.85892119720E+03  0.00000000000E+00 0.  1.
<mgrwt>
<rscale>  0 0.98917756E+02</rscale>
<asrwt>0</asrwt>
<pdfrwt beam="2">  1        2 0.33607014E+00 0.10034569E+03</pdfrwt>
<pdfrwt beam="1">  1       -1 0.14883844E+00 0.97510141E+02</pdfrwt>
<totfact> 0.31737109E+00</totfact>
</mgrwt>
</event>
<event>
13    1  0.1942437E-008  0.1316401E+03  0.7546771E-02  0.1383570E+00
          2   -1    0    0  503    0  0.00000000000E+00  0.00000000000E+00  0.28025855668E+04  0.28025855668E+04  0.00000000000E+00 0. -1.
         -1   -1    0    0    0  501 -0.00000000000E+00 -0.00000000000E+00 -0.85490472711E+03  0.85490472711E+03  0.00000000000E+00 0.  1.
         24    2    1    2    0    0  0.26622221804E+03 -0.90088040823E+02 -0.29303550760E+03  0.41382843118E+03  0.79962724204E+02 0.  0.
         24    2    1    2    0    0 -0.54467587853E+02  0.12079759084E+02 -0.56581227876E+02  0.11672774680E+03  0.85506098134E+02 0.  0.
         25    2    1    2    0    0 -0.56984623414E+02  0.99651878767E+02  0.58650552721E+03  0.61056500082E+03  0.12499256989E+03 0.  0.
        -11    1    3    3    0    0  0.18137493292E+03 -0.90120051401E+02 -0.23883766052E+03  0.31314839619E+03  0.00000000000E+00 0.  1.
         12    1    3    3    0    0  0.84847285122E+02  0.32010578387E-01 -0.54197847082E+02  0.10068003499E+03  0.00000000000E+00 0. -1.
        -13    1    4    4    0    0 -0.18043602169E+01  0.40678408155E+02 -0.32675912679E+02  0.52208274011E+02  0.00000000000E+00 0.  1.
         14    1    4    4    0    0 -0.52663227636E+02 -0.28598649071E+02 -0.23905315197E+02  0.64519472785E+02  0.00000000000E+00 0. -1.
          5    1    5    5  502    0 -0.87285164980E+02  0.57530507349E+02  0.48838496722E+03  0.49947014476E+03  0.47000000000E+01 0.  1.
         -5    1    5    5    0  502  0.30300541566E+02  0.42121371418E+02  0.98120559988E+02  0.11109485605E+03  0.47000000000E+01 0.  1.
          1    1    1    2  503    0 -0.19748377978E+02  0.23458463818E+02  0.21008872373E+04  0.21011110113E+04  0.00000000000E+00 0. -1.
         -2    1    1    2    0  501 -0.13502162880E+03 -0.45102060847E+02 -0.39009518928E+03  0.41525810388E+03  0.00000000000E+00 0.  1.
<mgrwt>
<rscale>  0 0.63534627E+02</rscale>
<asrwt>0</asrwt>
<pdfrwt beam="1">  1        2 0.41214493E+00 0.30664278E+02</pdfrwt>
<pdfrwt beam="2">  1       -1 0.12572128E+00 0.13164010E+03</pdfrwt>
<totfact> 0.31382646E+00</totfact>
</mgrwt>
</event>
<event>
13    1  0.1942437E-008  0.1204125E+03  0.7546771E-02  0.1305889E+00
          2   -1    0    0  503    0  0.00000000000E+00  0.00000000000E+00  0.80917324522E+03  0.80917324522E+03  0.00000000000E+00 0. -1.
          2   -1    0    0  502    0 -0.00000000000E+00 -0.00000000000E+00 -0.64241617168E+03  0.64241617168E+03  0.00000000000E+00 0. -1.
         24    2    1    2    0    0  0.39136621344E+02 -0.77403933068E+01 -0.83751773501E+02  0.12121130610E+03  0.78014308582E+02 0.  0.
         24    2    1    2    0    0 -0.41890364559E+02 -0.29137611982E+02  0.16827694679E+02  0.97121853264E+02  0.80905376820E+02 0.  0.
         25    2    1    2    0    0 -0.10198885535E+03  0.59828176902E+02  0.57891610892E+03  0.60394834165E+03  0.12501440260E+03 0.  0.
        -11    1    3    3    0    0  0.61156140616E+02 -0.59069352192E+01 -0.76147266180E+02  0.97843607689E+02  0.00000000000E+00 0.  1.
         12    1    3    3    0    0 -0.22019519272E+02 -0.18334580875E+01 -0.76045073210E+01  0.23367698413E+02  0.00000000000E+00 0. -1.
        -13    1    4    4    0    0 -0.60232959064E+02 -0.30462856885E+02  0.30635255849E+02  0.74124988419E+02  0.00000000000E+00 0.  1.
         14    1    4    4    0    0  0.18342594505E+02  0.13252449037E+01 -0.13807561170E+02  0.22996864845E+02  0.00000000000E+00 0. -1.
          5    1    5    5  501    0  0.28105089015E+02  0.21543806208E+02  0.10042759828E+03  0.10659185762E+03  0.47000000000E+01 0. -1.
         -5    1    5    5    0  501 -0.13009394437E+03  0.38284370694E+02  0.47848851064E+03  0.49735648403E+03  0.47000000000E+01 0. -1.
          1    1    1    2  502    0  0.10409223185E+03 -0.88370841612E+02 -0.46945650816E+03  0.48891104654E+03  0.00000000000E+00 0. -1.
          1    1    1    2  503    0  0.65036671531E+00  0.65420669999E+02  0.12422155160E+03  0.14039686935E+03  0.00000000000E+00 0. -1.
<mgrwt>
<rscale>  0 0.88757269E+02</rscale>
<asrwt>0</asrwt>
<pdfrwt beam="1">  1        2 0.11899607E+00 0.65423903E+02</pdfrwt>
<pdfrwt beam="2">  1        2 0.94472966E-01 0.12041246E+03</pdfrwt>
<totfact> 0.30368382E+02</totfact>
</mgrwt>
</event>
<event>
13    1  0.1942437E-008  0.8896580E+02  0.7546771E-02  0.1380144E+00
         -1   -1    0    0    0  501 -0.00000000000E+00  0.00000000000E+00  0.75112745705E+03  0.75112745705E+03  0.00000000000E+00 0.  1.
          2   -1    0    0  503    0  0.00000000000E+00 -0.00000000000E+00 -0.10801958938E+04  0.10801958938E+04  0.00000000000E+00 0. -1.
         24    2    1    2    0    0  0.11260888564E+03  0.29247909494E+02  0.26635641386E+03  0.30157968195E+03  0.80426140204E+02 0.  0.
         24    2    1    2    0    0 -0.41940150038E+02  0.17608660519E+02  0.10305080587E+03  0.13745086297E+03  0.78766934867E+02 0.  0.
         25    2    1    2    0    0  0.15533315600E+02  0.23819696894E+02 -0.33246635471E+03  0.35632483456E+03  0.12499939544E+03 0.  0.
        -13    1    3    3    0    0  0.45702523404E+02 -0.40222799879E+01  0.32898744005E+02  0.56455528860E+02  0.00000000000E+00 0.  1.
         14    1    3    3    0    0  0.66906362236E+02  0.33270189482E+02  0.23345766985E+03  0.24512415309E+03  0.00000000000E+00 0. -1.
        -13    1    4    4    0    0 -0.57418203001E+02  0.99504020542E+01  0.10498509142E+03  0.12007385209E+03  0.00000000000E+00 0.  1.
         14    1    4    4    0    0  0.15478052964E+02  0.76582584651E+01 -0.19342855429E+01  0.17377010871E+02  0.00000000000E+00 0. -1.
          5    1    5    5  502    0 -0.21765919416E+02  0.37949394885E+00 -0.14080287470E+01  0.22315281953E+02  0.47000000000E+01 0. -1.
         -5    1    5    5    0  502  0.37299235016E+02  0.23440202945E+02 -0.33105832596E+03  0.33400955261E+03  0.47000000000E+01 0. -1.
          1    1    1    2  503    0 -0.45892464319E+02  0.84012622845E+01 -0.69431242969E+03  0.69587818583E+03  0.00000000000E+00 0. -1.
         -2    1    1    2    0  501 -0.40309586883E+02 -0.79077529191E+02  0.32830312792E+03  0.34008978553E+03  0.00000000000E+00 0.  1.
<mgrwt>
<rscale>  0 0.64426000E+02</rscale>
<asrwt>0</asrwt>
<pdfrwt beam="2">  1        2 0.15885234E+00 0.46655112E+02</pdfrwt>
<pdfrwt beam="1">  1       -1 0.11045992E+00 0.88965803E+02</pdfrwt>
<totfact> 0.26971000E+01</totfact>
</mgrwt>
</event>
<event>
13    1  0.1942437E-008  0.4439846E+02  0.7546771E-02  0.1499155E+00
          2   -1    0    0  502    0  0.00000000000E+00  0.00000000000E+00  0.11497664188E+04  0.11497664188E+04  0.00000000000E+00 0. -1.
          2   -1    0    0  503    0 -0.00000000000E+00 -0.00000000000E+00 -0.47329991101E+03  0.47329991101E+03  0.00000000000E+00 0. -1.
         24    2    1    2    0    0 -0.45483034235E+02  0.19874752722E+02 -0.19228837841E+03  0.21454752619E+03  0.81191799594E+02 0.  0.
         24    2    1    2    0    0  0.32453576515E+02 -0.16935600070E+03  0.22210207712E+03  0.29275978551E+03  0.81512390159E+02 0.  0.
         25    2    1    2    0    0  0.38408063236E+01  0.13181068616E+03  0.14002751487E+03  0.22939347293E+03  0.12499940688E+03 0.  0.
        -11    1    4    4    0    0  0.38513449211E+02 -0.43205496858E+02  0.10810660992E+03  0.12262560841E+03  0.00000000000E+00 0.  1.
         12    1    4    4    0    0 -0.60598726957E+01 -0.12615050384E+03  0.11399546720E+03  0.17013417710E+03  0.00000000000E+00 0. -1.
        -13    1    3    3    0    0 -0.54045559771E+02 -0.16128746287E+02 -0.13544476621E+03  0.14671858669E+03  0.00000000000E+00 0.  1.
         14    1    3    3    0    0  0.85625255361E+01  0.36003499009E+02 -0.56843612200E+02  0.67828939491E+02  0.00000000000E+00 0. -1.
          5    1    5    5  501    0  0.17364820681E+02  0.11636057320E+03  0.35809372839E+02  0.12306795349E+03  0.47000000000E+01 0.  1.
         -5    1    5    5    0  501 -0.13524014357E+02  0.15450112962E+02  0.10421814203E+03  0.10632551944E+03  0.47000000000E+01 0.  1.
          1    1    1    2  502    0  0.44412310059E+02  0.25320840043E+01  0.69384047670E+03  0.69526503712E+03  0.00000000000E+00 0. -1.
          1    1    1    2  503    0 -0.35223658662E+02  0.15138477807E+02 -0.18721518248E+03  0.19110050809E+03  0.00000000000E+00 0. -1.
<mgrwt>
<rscale>  0 0.41257641E+02</rscale>
<asrwt>0</asrwt>
<pdfrwt beam="1">  1        2 0.16908330E+00 0.44398459E+02</pdfrwt>
<pdfrwt beam="2">  1        2 0.69602929E-01 0.38339009E+02</pdfrwt>
<totfact> 0.28023683E+02</totfact>
</mgrwt>
</event>
<event>
13    1  0.1942437E-008  0.1164925E+03  0.7546771E-02  0.1273897E+00
          2   -1    0    0  502    0  0.00000000000E+00  0.00000000000E+00  0.23440685121E+04  0.23440685121E+04  0.00000000000E+00 0. -1.
          2   -1    0    0  503    0 -0.00000000000E+00 -0.00000000000E+00 -0.20945199600E+04  0.20945199600E+04  0.00000000000E+00 0. -1.
         24    2    1    2    0    0 -0.10071530690E+03  0.88398002532E+02 -0.23629633067E+03  0.28454132202E+03  0.84676018773E+02 0.  0.
         24    2    1    2    0    0 -0.91508146141E+01 -0.15169621309E+03 -0.43105615127E+03  0.46409877700E+03  0.80515779766E+02 0.  0.
         25    2    1    2    0    0 -0.19394416646E+02  0.14865972948E+03  0.18179046798E+03  0.26675446705E+03  0.12503724598E+03 0.  0.
        -11    1    4    4    0    0 -0.38948688504E+02 -0.40839115752E+02 -0.12225901753E+03  0.13465549034E+03  0.00000000000E+00 0.  1.
         12    1    4    4    0    0  0.29797873890E+02 -0.11085709734E+03 -0.30879713374E+03  0.32944328666E+03  0.00000000000E+00 0. -1.
        -11    1    3    3    0    0 -0.86564878136E+01 -0.15408736804E+02 -0.43989899536E+02  0.47407543834E+02  0.00000000000E+00 0.  1.
         12    1    3    3    0    0 -0.92058819084E+02  0.10380673934E+03 -0.19230643113E+03  0.23713377819E+03  0.00000000000E+00 0. -1.
          5    1    5    5  501    0  0.38048328224E+02  0.41654736188E+02  0.11474199536E+03  0.12794767613E+03  0.47000000000E+01 0.  1.
         -5    1    5    5    0  501 -0.57442744870E+02  0.10700499329E+03  0.67048472617E+02  0.13880679093E+03  0.47000000000E+01 0.  1.
          1    1    1    2  502    0  0.12963076258E+02 -0.90331771017E+02  0.20756274378E+04  0.20776325784E+04  0.00000000000E+00 0. -1.
          1    1    1    2  503    0  0.11629746190E+03  0.49702521001E+01 -0.13405168717E+04  0.13455613276E+04  0.00000000000E+00 0. -1.
<mgrwt>
<rscale>  0 0.10310567E+03</rscale>
<asrwt>0</asrwt>
<pdfrwt beam="1">  1        2 0.34471596E+00 0.91257165E+02</pdfrwt>
<pdfrwt beam="2">  1        2 0.30801764E+00 0.11649254E+03</pdfrwt>
<totfact> 0.79749029E+00</totfact>
</mgrwt>
</event>
<event>
13    1  0.1942437E-008  0.1172264E+03  0.7546771E-02  0.1364126E+00
         -3   -1    0    0    0  501 -0.00000000000E+00  0.00000000000E+00  0.59064115003E+03  0.59064115003E+03  0.00000000000E+00 0.  1.
          2   -1    0    0  503    0  0.00000000000E+00 -0.00000000000E+00 -0.24782428875E+04  0.24782428875E+04  0.00000000000E+00 0. -1.
         24    2    1    2    0    0 -0.88567817666E+02 -0.54960467133E+02  0.11113210304E+03  0.16929911113E+03  0.73803342946E+02 0.  0.
         24    2    1    2    0    0  0.53648723608E+02  0.85732575238E-01 -0.27165169479E+03  0.28962167280E+03  0.84899217766E+02 0.  0.
         25    2    1    2    0    0 -0.30165112767E+02  0.19361583479E+02 -0.27736830345E+03  0.30633848554E+03  0.12500114808E+03 0.  0.
        -11    1    4    4    0    0 -0.13284480282E+02 -0.24490477628E+02 -0.57152908369E+02  0.63582354831E+02  0.00000000000E+00 0.  1.
         12    1    4    4    0    0  0.66933203890E+02  0.24576210203E+02 -0.21449878643E+03  0.22603931797E+03  0.00000000000E+00 0. -1.
        -13    1    3    3    0    0 -0.45397875764E+02 -0.17076119219E+01  0.90311115936E+01  0.46318938232E+02  0.00000000000E+00 0.  1.
         14    1    3    3    0    0 -0.43169941902E+02 -0.53252855211E+02  0.10210099144E+03  0.12298017290E+03  0.00000000000E+00 0. -1.
          5    1    5    5  502    0 -0.61384766371E+02 -0.20653005013E+02 -0.22100183448E+03  0.23034438783E+03  0.47000000000E+01 0. -1.
         -5    1    5    5    0  502  0.31219653605E+02  0.40014588492E+02 -0.56366468966E+02  0.75994097712E+02  0.47000000000E+01 0. -1.
          1    1    1    2  503    0  0.71625842133E+02  0.75391048081E+02 -0.18742685238E+04  0.18771511848E+04  0.00000000000E+00 0. -1.
         -4    1    1    2    0  501 -0.65416353091E+01 -0.39877897002E+02  0.42455468148E+03  0.42647358328E+03  0.00000000000E+00 0.  1.
<mgrwt>
<rscale>  0 0.68827478E+02</rscale>
<asrwt>0</asrwt>
<pdfrwt beam="2">  1        2 0.36444749E+00 0.11722638E+03</pdfrwt>
<pdfrwt beam="1">  1       -3 0.86858991E-01 0.40410885E+02</pdfrwt>
<totfact> 0.38559528E+00</totfact>
</mgrwt>
</event>
<event>
13    1  0.1942437E-008  0.1011487E+03  0.7546771E-02  0.1291742E+00
          2   -1    0    0  502    0  0.00000000000E+00  0.00000000000E+00  0.23617043317E+04  0.23617043317E+04  0.00000000000E+00 0. -1.
          2   -1    0    0  503    0 -0.00000000000E+00 -0.00000000000E+00 -0.25962423977E+04  0.25962423977E+04  0.00000000000E+00 0. -1.
         24    2    1    2    0    0 -0.44895349523E+02  0.52606508244E+02 -0.46345949826E+03  0.47540605877E+03  0.80207088666E+02 0.  0.
         24    2    1    2    0    0 -0.40090449312E+02 -0.66052784006E+02 -0.14985617563E+03  0.18723090235E+03  0.81414513548E+02 0.  0.
         25    2    1    2    0    0 -0.17828656467E+02  0.19721019743E+03  0.27802458523E+02  0.23583613233E+03  0.12504391890E+03 0.  0.
        -11    1    4    4    0    0 -0.49527137951E+02 -0.72774540759E+02 -0.15180551961E+03  0.17548215568E+03  0.00000000000E+00 0.  1.
         12    1    4    4    0    0  0.94366886396E+01  0.67217567531E+01  0.19493439776E+01  0.11748746668E+02  0.00000000000E+00 0. -1.
        -13    1    3    3    0    0 -0.96179260550E+01  0.41156913323E+02 -0.82988206533E+02  0.93131296777E+02  0.00000000000E+00 0.  1.
         14    1    3    3    0    0 -0.35277423468E+02  0.11449594921E+02 -0.38047129172E+03  0.38227476199E+03  0.00000000000E+00 0. -1.
          5    1    5    5  501    0  0.28307203985E+02  0.10540638181E+03  0.64227749515E+02  0.12672449224E+03  0.47000000000E+01 0.  1.
         -5    1    5    5    0  501 -0.46135860452E+02  0.91803815616E+02 -0.36425290992E+02  0.10911164010E+03  0.47000000000E+01 0.  1.
          1    1    1    2  502    0  0.77349592708E+02 -0.65177458682E+02  0.22020787937E+04  0.22044006157E+04  0.00000000000E+00 0. -1.
          1    1    1    2  503    0  0.25464862593E+02 -0.11858646299E+03 -0.18511036444E+04  0.18550730203E+04  0.00000000000E+00 0. -1.
<mgrwt>
<rscale>  0 0.94749116E+02</rscale>
<asrwt>0</asrwt>
<pdfrwt beam="1">  1        2 0.34730946E+00 0.10114871E+03</pdfrwt>
<pdfrwt beam="2">  1        2 0.38180035E+00 0.88754423E+02</pdfrwt>
<totfact> 0.45235451E+00</totfact>
</mgrwt>
</event>
<event>
13    1  0.1942437E-008  0.1000037E+03  0.7546771E-02  0.1337030E+00
          2   -1    0    0  503    0  0.00000000000E+00  0.00000000000E+00  0.35108319903E+04  0.35108319903E+04  0.00000000000E+00 0. -1.
         -3   -1    0    0    0  501 -0.00000000000E+00 -0.00000000000E+00 -0.24980826203E+03  0.24980826203E+03  0.00000000000E+00 0.  1.
         24    2    1    2    0    0  0.50486588785E+02 -0.55986477418E+02  0.10824032357E+03  0.15562695436E+03  0.82585712909E+02 0.  0.
         24    2    1    2    0    0 -0.14286778885E+03  0.71598573822E+02  0.10138225136E+03  0.20317247500E+03  0.73913008612E+02 0.  0.
         25    2    1    2    0    0  0.81099234521E+02 -0.16044770225E+03  0.10697850646E+04  0.10919638269E+04  0.12499745555E+03 0.  0.
        -11    1    4    4    0    0 -0.60553664894E+02 -0.85481851480E+01  0.33477791137E+02  0.69717862136E+02  0.00000000000E+00 0.  1.
         12    1    4    4    0    0 -0.82314123952E+02  0.80146758970E+02  0.67904460225E+02  0.13345461286E+03  0.00000000000E+00 0. -1.
        -13    1    3    3    0    0  0.43925647520E+02  0.10197889163E+02  0.48538440251E+02  0.66252846244E+02  0.00000000000E+00 0.  1.
         14    1    3    3    0    0  0.65609412650E+01 -0.66184366581E+02  0.59701883314E+02  0.89374108115E+02  0.00000000000E+00 0. -1.
          5    1    5    5  502    0 -0.14703546715E+02 -0.24853589974E+02  0.44128420929E+02  0.52946225119E+02  0.47000000000E+01 0. -1.
         -5    1    5    5    0  502  0.95802781237E+02 -0.13559411228E+03  0.10256566437E+04  0.10390176018E+04  0.47000000000E+01 0. -1.
          1    1    1    2  503    0 -0.27341023706E+02  0.53048364557E+02  0.21301852633E+04  0.21310210971E+04  0.00000000000E+00 0. -1.
         -4    1    1    2    0  501  0.38622989245E+02  0.91787241291E+02 -0.14856917452E+03  0.17885589892E+03  0.00000000000E+00 0.  1.
<mgrwt>
<rscale>  0 0.77254024E+02</rscale>
<asrwt>0</asrwt>
<pdfrwt beam="1">  1        2 0.51629879E+00 0.59679649E+02</pdfrwt>
<pdfrwt beam="2">  1       -3 0.36736511E-01 0.10000368E+03</pdfrwt>
<totfact> 0.71674079E+00</totfact>
</mgrwt>
</event>
<event>
13    1  0.1942437E-008  0.1428908E+03  0.7546771E-02  0.1335032E+00
         -1   -1    0    0    0  501 -0.00000000000E+00  0.00000000000E+00  0.11403568664E+04  0.11403568664E+04  0.00000000000E+00 0.  1.
          2   -1    0    0  503    0  0.00000000000E+00 -0.00000000000E+00 -0.10050860562E+04  0.10050860562E+04  0.00000000000E+00 0. -1.
         24    2    1    2    0    0 -0.10333664043E+03  0.95558952877E+02  0.41475204032E+03  0.44445482633E+03  0.75570251831E+02 0.  0.
         24    2    1    2    0    0  0.48332595850E+02 -0.18611531064E+02 -0.83345375273E+02  0.12921934947E+03  0.84075916816E+02 0.  0.
         25    2    1    2    0    0  0.51901385794E+02  0.40855159727E+02 -0.60987032016E+03  0.62604189734E+03  0.12499500744E+03 0.  0.
        -13    1    3    3    0    0 -0.87404434724E+02  0.58500451274E+02  0.20022047096E+03  0.22616382337E+03  0.00000000000E+00 0.  1.
         14    1    3    3    0    0 -0.15932205711E+02  0.37058501603E+02  0.21453156936E+03  0.21829100296E+03  0.00000000000E+00 0. -1.
        -13    1    4    4    0    0  0.61453393563E+01  0.32111412950E+02 -0.25193800851E+02  0.41275121306E+02  0.00000000000E+00 0.  1.
         14    1    4    4    0    0  0.42187256494E+02 -0.50722944015E+02 -0.58151574422E+02  0.87944228166E+02  0.00000000000E+00 0. -1.
          5    1    5    5  502    0  0.14055977451E+02  0.63091787787E+01 -0.22706293675E+01  0.16267206174E+02  0.47000000000E+01 0. -1.
         -5    1    5    5    0  502  0.37845408342E+02  0.34545980948E+02 -0.60759969079E+03  0.60977469116E+03  0.47000000000E+01 0. -1.
          1    1    1    2  503    0  0.36754899713E+02  0.21340703931E+02 -0.25669210826E+03  0.26018683045E+03  0.00000000000E+00 0. -1.
         -2    1    1    2    0  501 -0.33652240922E+02 -0.13914328547E+03  0.67042657356E+03  0.68554001907E+03  0.00000000000E+00 0.  1.
<mgrwt>
<rscale>  0 0.77929624E+02</rscale>
<asrwt>0</asrwt>
<pdfrwt beam="2">  1        2 0.14780677E+00 0.42501156E+02</pdfrwt>
<pdfrwt beam="1">  1       -1 0.16769954E+00 0.14289085E+03</pdfrwt>
<totfact> 0.10292301E+01</totfact>
</mgrwt>
</event>
<event>
13    1  0.1942437E-008  0.6807080E+02  0.7546771E-02  0.1450198E+00
          2   -1    0    0  503    0  0.00000000000E+00  0.00000000000E+00  0.13045917184E+04  0.13045917184E+04  0.00000000000E+00 0. -1.
          2   -1    0    0  502    0 -0.00000000000E+00 -0.00000000000E+00 -0.17379493710E+04  0.17379493710E+04  0.00000000000E+00 0. -1.
         24    2    1    2    0    0  0.86068966893E+02  0.78846548179E+02 -0.33793808363E+03  0.36831459028E+03  0.88480753963E+02 0.  0.
         24    2    1    2    0    0 -0.62966893149E+02  0.40212486117E+02  0.16592191550E+02  0.11067242989E+03  0.79945057661E+02 0.  0.
         25    2    1    2    0    0  0.46626578485E+02 -0.18094108653E+03  0.98406755061E+03  0.10094200948E+04  0.12500507565E+03 0.  0.
        -11    1    4    4    0    0 -0.62670764143E+02 -0.52169692950E+01  0.17345421834E+02  0.65235765539E+02  0.00000000000E+00 0.  1.
         12    1    4    4    0    0 -0.29612900682E+00  0.45429455412E+02 -0.75323028357E+00  0.45436664350E+02  0.00000000000E+00 0. -1.
        -13    1    3    3    0    0  0.80827282127E+02  0.15049556987E+02 -0.17944155196E+03  0.19737986035E+03  0.00000000000E+00 0.  1.
         14    1    3    3    0    0  0.52416847664E+01  0.63796991192E+02 -0.15849653167E+03  0.17093472993E+03  0.00000000000E+00 0. -1.
          5    1    5    5  501    0  0.83352746645E+02 -0.15534880757E+03  0.84650492892E+03  0.86468122280E+03  0.47000000000E+01 0.  1.
         -5    1    5    5    0  501 -0.36726168161E+02 -0.25592278964E+02  0.13756262169E+03  0.14473887196E+03  0.47000000000E+01 0.  1.
          1    1    1    2  502    0 -0.34440530975E+02  0.58695863544E+02 -0.13228563469E+04  0.13246057033E+04  0.00000000000E+00 0. -1.
          1    1    1    2  503    0 -0.35288121253E+02  0.31861886889E+01  0.22677703576E+03  0.22952827113E+03  0.00000000000E+00 0. -1.
<mgrwt>
<rscale>  0 0.49110715E+02</rscale>
<asrwt>0</asrwt>
<pdfrwt beam="1">  1        2 0.19185172E+00 0.35431671E+02</pdfrwt>
<pdfrwt beam="2">  1        2 0.25558079E+00 0.68070804E+02</pdfrwt>
<totfact> 0.42688361E+01</totfact>
</mgrwt>
</event>
<event>
13    1  0.1942437E-008  0.1688946E+03  0.7546771E-02  0.1266364E+00
          2   -1    0    0  503    0  0.00000000000E+00  0.00000000000E+00  0.67363805245E+03  0.67363805245E+03  0.00000000000E+00 0. -1.
          2   -1    0    0  502    0 -0.00000000000E+00 -0.00000000000E+00 -0.11966217154E+04  0.11966217154E+04  0.00000000000E+00 0. -1.
         24    2    1    2    0    0  0.45423865309E+02 -0.93604734917E+02 -0.27870380181E+03  0.30834522612E+03  0.81091278138E+02 0.  0.
         24    2    1    2    0    0 -0.11604452719E+03  0.10345174883E+03 -0.31722402686E+02  0.17424364296E+03  0.72013468552E+02 0.  0.
         25    2    1    2    0    0 -0.13731253294E+03 -0.16032422535E+03  0.18754386589E+03  0.30880108990E+03  0.12500728999E+03 0.  0.
        -11    1    4    4    0    0 -0.81677367448E+02  0.41341102174E+02  0.97010363570E+01  0.92056445666E+02  0.00000000000E+00 0.  1.
         12    1    4    4    0    0 -0.34367159737E+02  0.62110646653E+02 -0.41423439043E+02  0.82187197289E+02  0.00000000000E+00 0. -1.
        -11    1    3    3    0    0  0.19413680743E+02 -0.17917906742E+02 -0.17684118970E+03  0.17880365979E+03  0.00000000000E+00 0.  1.
         12    1    3    3    0    0  0.26010184566E+02 -0.75686828175E+02 -0.10186261212E+03  0.12954156633E+03  0.00000000000E+00 0. -1.
          5    1    5    5  501    0 -0.67859399346E+02 -0.11691953771E+03  0.41839433117E+02  0.14158991681E+03  0.47000000000E+01 0. -1.
         -5    1    5    5    0  501 -0.69453133596E+02 -0.43404687640E+02  0.14570443278E+03  0.16721117309E+03  0.47000000000E+01 0. -1.
          1    1    1    2  502    0  0.14890340167E+03  0.18362170846E+03 -0.71692306272E+03  0.75489590852E+03  0.00000000000E+00 0. -1.
          1    1    1    2  503    0  0.59029793150E+02 -0.33144497021E+02  0.31682173840E+03  0.32397390032E+03  0.00000000000E+00 0. -1.
<mgrwt>
<rscale>  0 0.10692939E+03</rscale>
<asrwt>0</asrwt>
<pdfrwt beam="1">  1        2 0.99064420E-01 0.67698406E+02</pdfrwt>
<pdfrwt beam="2">  1        2 0.17597378E+00 0.16889460E+03</pdfrwt>
<totfact> 0.16619614E+02</totfact>
</mgrwt>
</event>
<event>
13    1  0.1942437E-008  0.1254444E+03  0.7546771E-02  0.1372209E+00
          2   -1    0    0  503    0  0.00000000000E+00  0.00000000000E+00  0.14436198690E+04  0.14436198690E+04  0.00000000000E+00 0. -1.
          2   -1    0    0  502    0 -0.00000000000E+00 -0.00000000000E+00 -0.41200899016E+03  0.41200899016E+03  0.00000000000E+00 0. -1.
         24    2    1    2    0    0  0.37392222517E+02  0.63132647529E+02 -0.23415248621E+02  0.10988932154E+03  0.78380352336E+02 0.  0.
         24    2    1    2    0    0  0.58634786503E+02  0.89169208211E+01  0.15078286881E+02  0.10177629909E+03  0.81323493871E+02 0.  0.
         25    2    1    2    0    0 -0.13008032615E+02  0.58088365085E+02  0.90176438099E+03  0.91233116610E+03  0.12500276297E+03 0.  0.
        -13    1    4    4    0    0  0.42179024240E+02 -0.33870094650E+02  0.21144247169E+01  0.54136163415E+02  0.00000000000E+00 0.  1.
         14    1    4    4    0    0  0.16455762263E+02  0.42787015471E+02  0.12963862165E+02  0.47640135672E+02  0.00000000000E+00 0. -1.
        -13    1    3    3    0    0  0.47094149574E+02  0.38673484603E+02  0.15531779786E+02  0.62886672028E+02  0.00000000000E+00 0.  1.
         14    1    3    3    0    0 -0.97019270575E+01  0.24459162927E+02 -0.38947028407E+02  0.47002649515E+02  0.00000000000E+00 0. -1.
          5    1    5    5  501    0 -0.47133831993E+02  0.12760377809E+02  0.72427368585E+03  0.72593311495E+03  0.47000000000E+01 0. -1.
         -5    1    5    5    0  501  0.34125799378E+02  0.45327987275E+02  0.17749069513E+03  0.18639805115E+03  0.47000000000E+01 0. -1.
          1    1    1    2  502    0 -0.94103450421E+02 -0.16366627595E+03 -0.26584636839E+03  0.32606195861E+03  0.00000000000E+00 0. -1.
          1    1    1    2  503    0  0.11084474016E+02  0.33528342518E+02  0.40402982795E+03  0.40557011378E+03  0.00000000000E+00 0. -1.
<mgrwt>
<rscale>  0 0.66556980E+02</rscale>
<asrwt>0</asrwt>
<pdfrwt beam="1">  1        2 0.21229704E+00 0.35313104E+02</pdfrwt>
<pdfrwt beam="2">  1        2 0.60589558E-01 0.12544441E+03</pdfrwt>
<totfact> 0.23461948E+02</totfact>
</mgrwt>
</event>
<event>
13    1  0.1942437E-008  0.1391165E+03  0.7546771E-02  0.1339393E+00
          2   -1    0    0  503    0  0.00000000000E+00  0.00000000000E+00  0.39725337853E+04  0.39725337853E+04  0.00000000000E+00 0. -1.
          2   -1    0    0  502    0 -0.00000000000E+00 -0.00000000000E+00 -0.26374950758E+04  0.26374950758E+04  0.00000000000E+00 0. -1.
         24    2    1    2    0    0 -0.14059752842E+03 -0.55968031637E+03 -0.27001574283E+03  0.64139288350E+03  0.73936513964E+02 0.  0.
         24    2    1    2    0    0  0.28105495593E+03  0.68774571089E+03  0.97095186862E+03  0.12250533930E+04  0.77603049653E+02 0.  0.
         25    2    1    2    0    0 -0.24460510670E+03 -0.11903751629E+03  0.35299383764E+03  0.46284906393E+03  0.12499207198E+03 0.  0.
        -11    1    4    4    0    0  0.14199825586E+03  0.33963464082E+03  0.54456788427E+03  0.65731984185E+03  0.00000000000E+00 0.  1.
         12    1    4    4    0    0  0.13905670007E+03  0.34811107008E+03  0.42638398435E+03  0.56773355111E+03  0.00000000000E+00 0. -1.
        -13    1    3    3    0    0 -0.37338682747E+02 -0.10165208273E+03 -0.22432124855E+02  0.11059169670E+03  0.00000000000E+00 0.  1.
         14    1    3    3    0    0 -0.10325884568E+03 -0.45802823364E+03 -0.24758361798E+03  0.53080118680E+03  0.00000000000E+00 0. -1.
          5    1    5    5  501    0 -0.15118931148E+03 -0.13526462524E+03  0.21810293277E+03  0.29790217526E+03  0.47000000000E+01 0.  1.
         -5    1    5    5    0  501 -0.93415795224E+02  0.16227108945E+02  0.13489090488E+03  0.16494688867E+03  0.47000000000E+01 0.  1.
          1    1    1    2  502    0  0.13830782171E+03  0.15457140622E+02 -0.19971971132E+04  0.20020400310E+04  0.00000000000E+00 0. -1.
          1    1    1    2  503    0 -0.34160142515E+02 -0.24485018850E+02  0.22783058593E+04  0.22786934897E+04  0.00000000000E+00 0. -1.
<mgrwt>
<rscale>  0 0.76465137E+02</rscale>
<asrwt>0</asrwt>
<pdfrwt beam="1">  1        2 0.58419615E+00 0.42028936E+02</pdfrwt>
<pdfrwt beam="2">  1        2 0.38786692E+00 0.13911647E+03</pdfrwt>
<totfact> 0.61869010E-01</totfact>
</mgrwt>
</event>
<event>
13    1  0.2535487E-008  0.1180556E+03  0.7546771E-02  0.1298248E+00
          4   -1    0    0  503    0 -0.00000000000E+00  0.00000000000E+00  0.36508363062E+04  0.36508363062E+04  0.00000000000E+00 0. -1.
          2   -1    0    0  502    0  0.00000000000E+00 -0.00000000000E+00 -0.14331706689E+04  0.14331706689E+04  0.00000000000E+00 0. -1.
         24    2    1    2    0    0 -0.20351392634E+02  0.10008238195E+02  0.25928624943E+03  0.27168328675E+03  0.77898043242E+02 0.  0.
         24    2    1    2    0    0  0.48489210909E+02  0.26686273102E+02  0.10048887315E+03  0.14056060999E+03  0.81215212284E+02 0.  0.
         25    2    1    2    0    0 -0.22057553375E+03 -0.61762879434E+01 -0.15456149585E+03  0.29699897843E+03  0.12500969788E+03 0.  0.
        -11    1    4    4    0    0  0.28011059947E+02 -0.28170893323E+02  0.40633708460E+02  0.56827079577E+02  0.00000000000E+00 0.  1.
         12    1    4    4    0    0  0.20478150962E+02  0.54857166425E+02  0.59855164690E+02  0.83733530411E+02  0.00000000000E+00 0. -1.
        -13    1    3    3    0    0  0.28366213252E+02  0.86793116168E+01  0.13417136930E+03  0.13741153097E+03  0.00000000000E+00 0.  1.
         14    1    3    3    0    0 -0.48717605886E+02  0.13289265780E+01  0.12511488013E+03  0.13427175577E+03  0.00000000000E+00 0. -1.
          5    1    5    5  501    0 -0.12607064615E+03 -0.64649425165E+02 -0.96883670082E+02  0.17170291647E+03  0.47000000000E+01 0. -1.
         -5    1    5    5    0  501 -0.94504887606E+02  0.58473137221E+02 -0.57677825770E+02  0.12529606196E+03  0.47000000000E+01 0. -1.
          1    1    1    2  502    0  0.26337410460E+02  0.66561809391E+02 -0.11771703367E+04  0.11793447906E+04  0.00000000000E+00 0. -1.
          3    1    1    2  503    0  0.16610030502E+03 -0.97080032745E+02  0.31896223473E+04  0.31954193093E+04  0.00000000000E+00 0. -1.
<mgrwt>
<rscale>  0 0.91928135E+02</rscale>
<asrwt>0</asrwt>
<pdfrwt beam="2">  1        2 0.21076039E+00 0.71583054E+02</pdfrwt>
<pdfrwt beam="1">  1        4 0.53688769E+00 0.11805562E+03</pdfrwt>
<totfact> 0.87230712E-03</totfact>
</mgrwt>
</event>
<event>
13    1  0.1942437E-008  0.1838628E+03  0.7546771E-02  0.1383003E+00
          2   -1    0    0  503    0  0.00000000000E+00  0.00000000000E+00  0.23877337785E+04  0.23877337785E+04  0.00000000000E+00 0. -1.
         -1   -1    0    0    0  501 -0.00000000000E+00 -0.00000000000E+00 -0.57927429195E+03  0.57927429195E+03  0.00000000000E+00 0.  1.
         24    2    1    2    0    0  0.73711240030E+02  0.55516360575E+02 -0.86781242973E+02  0.15061284101E+03  0.81472882276E+02 0.  0.
         24    2    1    2    0    0  0.93664034791E+02 -0.23095255407E+03  0.31444508006E+03  0.40902478810E+03  0.79457757696E+02 0.  0.
         25    2    1    2    0    0 -0.39905459791E+02 -0.29219997013E+02  0.12515061462E+04  0.12587035160E+04  0.12498261201E+03 0.  0.
        -13    1    4    4    0    0  0.98319634779E+02 -0.15238078411E+03  0.23884440674E+03  0.29988882036E+03  0.00000000000E+00 0.  1.
         14    1    4    4    0    0 -0.46555999881E+01 -0.78571769965E+02  0.75600673320E+02  0.10913596773E+03  0.00000000000E+00 0. -1.
        -13    1    3    3    0    0  0.83486016919E+02  0.22682824850E+02 -0.74660059511E+02  0.11427401301E+03  0.00000000000E+00 0.  1.
         14    1    3    3    0    0 -0.97747768895E+01  0.32833535724E+02 -0.12121183461E+02  0.36338827993E+02  0.00000000000E+00 0. -1.
          5    1    5    5  502    0 -0.34199661415E+02  0.46633904481E+02  0.57334392271E+03  0.57627222872E+03  0.47000000000E+01 0. -1.
         -5    1    5    5    0  502 -0.57057983761E+01 -0.75853901495E+02  0.67816222349E+03  0.68243128729E+03  0.47000000000E+01 0. -1.
          1    1    1    2  503    0  0.14577901572E+02 -0.16551383210E+02  0.69661322920E+03  0.69696230500E+03  0.00000000000E+00 0. -1.
         -2    1    1    2    0  501 -0.14204771660E+03  0.22120757372E+03 -0.36732372589E+03  0.45170462037E+03  0.00000000000E+00 0.  1.
<mgrwt>
<rscale>  0 0.63680948E+02</rscale>
<asrwt>0</asrwt>
<pdfrwt beam="1">  1        2 0.35113732E+00 0.22055918E+02</pdfrwt>
<pdfrwt beam="2">  1       -1 0.85187397E-01 0.18386281E+03</pdfrwt>
<totfact> 0.12207650E+01</totfact>
</mgrwt>
</event>
<event>
13    1  0.1942437E-008  0.4698149E+02  0.7546771E-02  0.1522558E+00
          2   -1    0    0  503    0  0.00000000000E+00  0.00000000000E+00  0.71285055494E+03  0.71285055494E+03  0.00000000000E+00 0. -1.
         -1   -1    0    0    0  501 -0.00000000000E+00 -0.00000000000E+00 -0.45848860582E+03  0.45848860582E+03  0.00000000000E+00 0.  1.
         24    2    1    2    0    0  0.15677016838E+02 -0.33264802577E+02 -0.10325668877E+03  0.13582180234E+03  0.80207869105E+02 0.  0.
         24    2    1    2    0    0 -0.11915802586E+02 -0.21908692442E+01 -0.12522313820E+03  0.14891425497E+03  0.79673299992E+02 0.  0.
         25    2    1    2    0    0 -0.31250097560E+02  0.30939077967E+02  0.12386452519E+03  0.18138444971E+03  0.12499641136E+03 0.  0.
        -13    1    3    3    0    0  0.16657532736E+02  0.23852400050E+02 -0.49291847492E+02  0.57237196072E+02  0.00000000000E+00 0.  1.
         14    1    3    3    0    0 -0.98051589777E+00 -0.57117202628E+02 -0.53964841279E+02  0.78584606264E+02  0.00000000000E+00 0. -1.
        -13    1    4    4    0    0 -0.21424727231E+02  0.33760588746E+02 -0.43255784335E+02  0.58905510505E+02  0.00000000000E+00 0.  1.
         14    1    4    4    0    0  0.95089246450E+01 -0.35951457990E+02 -0.81967353869E+02  0.90008744463E+02  0.00000000000E+00 0. -1.
          5    1    5    5  502    0 -0.16449317022E+02  0.71988391325E+02  0.34115864946E+02  0.81479388542E+02  0.47000000000E+01 0. -1.
         -5    1    5    5    0  502 -0.14800780538E+02 -0.41049313358E+02  0.89748660243E+02  0.99905061169E+02  0.47000000000E+01 0. -1.
          1    1    1    2  503    0 -0.43883643513E+01 -0.30609231203E+02  0.52838827500E+03  0.52929231237E+03  0.00000000000E+00 0. -1.
         -2    1    1    2    0  501  0.31877247660E+02  0.35125825058E+02 -0.16941102409E+03  0.17592634137E+03  0.00000000000E+00 0.  1.
<mgrwt>
<rscale>  0 0.38115235E+02</rscale>
<asrwt>0</asrwt>
<pdfrwt beam="1">  1        2 0.10483096E+00 0.30922205E+02</pdfrwt>
<pdfrwt beam="2">  1       -1 0.67424795E-01 0.46981486E+02</pdfrwt>
<totfact> 0.12742922E+02</totfact>
</mgrwt>
</event>
<event>
13    1  0.1942437E-008  0.1785942E+03  0.7546771E-02  0.1266274E+00
          2   -1    0    0  502    0  0.00000000000E+00  0.00000000000E+00  0.40498244362E+04  0.40498244362E+04  0.00000000000E+00 0. -1.
          2   -1    0    0  503    0 -0.00000000000E+00 -0.00000000000E+00 -0.20965789694E+04  0.20965789694E+04  0.00000000000E+00 0. -1.
         24    2    1    2    0    0 -0.41301173078E+03  0.74308644328E+02 -0.50703021614E+03  0.66332271275E+03  0.82564621867E+02 0.  0.
         24    2    1    2    0    0  0.23957401466E+03 -0.51674378750E+01 -0.52490325568E+03  0.58250723519E+03  0.79805014353E+02 0.  0.
         25    2    1    2    0    0  0.15462324625E+02 -0.22054371093E+03  0.37102804080E+03  0.44962852318E+03  0.12500155953E+03 0.  0.
        -11    1    3    3    0    0 -0.11760378865E+03  0.56442910057E+02 -0.13194231719E+03  0.18554036829E+03  0.00000000000E+00 0.  1.
         12    1    3    3    0    0 -0.29540794213E+03  0.17865734271E+02 -0.37508789895E+03  0.47778234445E+03  0.00000000000E+00 0. -1.
        -13    1    4    4    0    0  0.90279200196E+02 -0.59334921147E+01 -0.29344590609E+03  0.30707660302E+03  0.00000000000E+00 0.  1.
         14    1    4    4    0    0  0.14929481446E+03  0.76605423975E+00 -0.23145734958E+03  0.27543063217E+03  0.00000000000E+00 0. -1.
          5    1    5    5  501    0 -0.41251581063E+02 -0.59431060957E+02  0.17594774339E+03  0.19029829834E+03  0.47000000000E+01 0. -1.
         -5    1    5    5    0  501  0.56713905688E+02 -0.16111264997E+03  0.19508029741E+03  0.25933022485E+03  0.47000000000E+01 0. -1.
          1    1    1    2  502    0  0.28633134700E+01  0.64013596087E+02  0.35236256536E+04  0.35242082353E+04  0.00000000000E+00 0. -1.
          1    1    1    2  503    0  0.15511207803E+03  0.87388908390E+02 -0.90947475581E+03  0.92673669913E+03  0.00000000000E+00 0. -1.
<mgrwt>
<rscale>  0 0.10697610E+03</rscale>
<asrwt>0</asrwt>
<pdfrwt beam="1">  1        2 0.59556242E+00 0.64077602E+02</pdfrwt>
<pdfrwt beam="2">  1        2 0.30832044E+00 0.17859417E+03</pdfrwt>
<totfact> 0.90739228E-01</totfact>
</mgrwt>
</event>
<event>
13    1  0.1942437E-008  0.1262618E+03  0.7546771E-02  0.1301047E+00
          2   -1    0    0  502    0  0.00000000000E+00  0.00000000000E+00  0.64571718233E+03  0.64571718233E+03  0.00000000000E+00 0. -1.
          2   -1    0    0  503    0 -0.00000000000E+00 -0.00000000000E+00 -0.27067272740E+04  0.27067272740E+04  0.00000000000E+00 0. -1.
         24    2    1    2    0    0 -0.32190703101E+02  0.50277149662E+02 -0.36472265099E+03  0.37699240726E+03  0.74408533385E+02 0.  0.
         24    2    1    2    0    0  0.17956623982E+02 -0.52802639385E+02 -0.12711477946E+03  0.16055671242E+03  0.80682908186E+02 0.  0.
         25    2    1    2    0    0  0.54734032832E+02 -0.13881232696E+03  0.87655805383E+02  0.21347266633E+03  0.12498944990E+03 0.  0.
        -13    1    4    4    0    0  0.43294636641E+01 -0.60862055274E+02 -0.13077345545E+03  0.14430741727E+03  0.00000000000E+00 0.  1.
         14    1    4    4    0    0  0.13627160318E+02  0.80594158892E+01  0.36586759893E+01  0.16249295148E+02  0.00000000000E+00 0. -1.
        -13    1    3    3    0    0  0.21032926786E+02  0.30492958388E+02 -0.11190658077E+03  0.11787827340E+03  0.00000000000E+00 0.  1.
         14    1    3    3    0    0 -0.53223629887E+02  0.19784191274E+02 -0.25281607022E+03  0.25911413386E+03  0.00000000000E+00 0. -1.
          5    1    5    5  501    0  0.23339841958E+02 -0.15471815872E+03  0.84335309523E+02  0.17781167367E+03  0.47000000000E+01 0.  1.
         -5    1    5    5    0  501  0.31394190874E+02  0.15905831761E+02  0.33204958601E+01  0.35660992659E+02  0.47000000000E+01 0.  1.
          1    1    1    2  502    0  0.22322697588E+02  0.12379766103E+03  0.46341051164E+03  0.48018065975E+03  0.00000000000E+00 0. -1.
          1    1    1    2  503    0 -0.62822651301E+02  0.17540155646E+02 -0.21202389782E+04  0.21212420106E+04  0.00000000000E+00 0. -1.
<mgrwt>
<rscale>  0 0.90749463E+02</rscale>
<asrwt>0</asrwt>
<pdfrwt beam="1">  1        2 0.94958409E-01 0.12626178E+03</pdfrwt>
<pdfrwt beam="2">  1        2 0.39804813E+00 0.65225322E+02</pdfrwt>
<totfact> 0.33845908E+01</totfact>
</mgrwt>
</event>
<event>
13    1  0.1942437E-008  0.1179403E+03  0.7546771E-02  0.1377183E+00
          2   -1    0    0  502    0  0.00000000000E+00  0.00000000000E+00  0.10623643287E+04  0.10623643287E+04  0.00000000000E+00 0. -1.
          2   -1    0    0  503    0 -0.00000000000E+00 -0.00000000000E+00 -0.39845396990E+04  0.39845396990E+04  0.00000000000E+00 0. -1.
         24    2    1    2    0    0  0.38306752264E+02  0.95463876035E+01 -0.20115949943E+03  0.22028316983E+03  0.80628716449E+02 0.  0.
         24    2    1    2    0    0 -0.19991346981E+03 -0.24338005650E+03 -0.12286169031E+04  0.12708672351E+04  0.80029916591E+02 0.  0.
         25    2    1    2    0    0  0.47878706984E+02  0.36580249505E+03  0.27073811743E+03  0.47437159037E+03  0.12500176620E+03 0.  0.
        -11    1    4    4    0    0 -0.17371185400E+02 -0.73537668802E+02 -0.29709472244E+03  0.30655312902E+03  0.00000000000E+00 0.  1.
         12    1    4    4    0    0 -0.18254228441E+03 -0.16984238769E+03 -0.93152218062E+03  0.96431410611E+03  0.00000000000E+00 0. -1.
        -13    1    3    3    0    0 -0.12942426361E+02 -0.14972859606E+02 -0.12866421235E+02  0.23605883171E+02  0.00000000000E+00 0.  1.
         14    1    3    3    0    0  0.51249178625E+02  0.24519247209E+02 -0.18829307819E+03  0.19667728666E+03  0.00000000000E+00 0. -1.
          5    1    5    5  501    0  0.60438292417E+02  0.21219700563E+03  0.94121881346E+02  0.23991951762E+03  0.47000000000E+01 0. -1.
         -5    1    5    5    0  501 -0.12559585434E+02  0.15360548942E+03  0.17661623609E+03  0.23445207275E+03  0.47000000000E+01 0. -1.
          1    1    1    2  502    0  0.33456787784E+02 -0.13439115505E+02  0.65651234082E+03  0.65750165028E+03  0.00000000000E+00 0. -1.
          1    1    1    2  503    0  0.80271222775E+02 -0.11852971065E+03 -0.24196494261E+04  0.24238803821E+04  0.00000000000E+00 0. -1.
<mgrwt>
<rscale>  0 0.65209982E+02</rscale>
<asrwt>0</asrwt>
<pdfrwt beam="1">  1        2 0.15623005E+00 0.36055048E+02</pdfrwt>
<pdfrwt beam="2">  1        2 0.58596173E+00 0.11794026E+03</pdfrwt>
<totfact> 0.32568724E+00</totfact>
</mgrwt>
</event>
<event>
13    1  0.1942437E-008  0.1206091E+03  0.7546771E-02  0.1266408E+00
          2   -1    0    0  503    0  0.00000000000E+00  0.00000000000E+00  0.17972878436E+04  0.17972878436E+04  0.00000000000E+00 0. -1.
         -1   -1    0    0    0  501 -0.00000000000E+00 -0.00000000000E+00 -0.78756428079E+03  0.78756428079E+03  0.00000000000E+00 0.  1.
         24    2    1    2    0    0  0.17976853557E+03  0.83757252390E+02 -0.68904434737E+02  0.22561487809E+03  0.82596902956E+02 0.  0.
         24    2    1    2    0    0 -0.12373993109E+03  0.67755428848E+02  0.11271627056E+03  0.19736998265E+03  0.79671724698E+02 0.  0.
         25    2    1    2    0    0 -0.19645292762E+03 -0.26476626767E+03  0.45165692397E+03  0.57298646349E+03  0.12499832443E+03 0.  0.
        -11    1    4    4    0    0 -0.98881089565E+02  0.81842460359E+02  0.10930935090E+03  0.16859475788E+03  0.00000000000E+00 0.  1.
         12    1    4    4    0    0 -0.24858841523E+02 -0.14087031511E+02  0.34069196634E+01  0.28775224765E+02  0.00000000000E+00 0. -1.
        -13    1    3    3    0    0  0.14165413684E+03  0.83551333272E+02 -0.83939468589E+02  0.18464169129E+03  0.00000000000E+00 0.  1.
         14    1    3    3    0    0  0.38114398726E+02  0.20591911804E+00  0.15035033853E+02  0.40973186792E+02  0.00000000000E+00 0. -1.
          5    1    5    5  502    0 -0.14769640492E+03 -0.14150869219E+03  0.35178247601E+03  0.40695446726E+03  0.47000000000E+01 0.  1.
         -5    1    5    5    0  502 -0.48756522705E+02 -0.12325757548E+03  0.99874447957E+02  0.16603199624E+03  0.47000000000E+01 0.  1.
          1    1    1    2  503    0  0.94739341552E+02  0.20016611596E+01  0.10426623424E+04  0.10469595549E+04  0.00000000000E+00 0. -1.
         -2    1    1    2    0  501  0.45684981589E+02  0.11125192527E+03 -0.52840753934E+03  0.54192124525E+03  0.00000000000E+00 0.  1.
<mgrwt>
<rscale>  0 0.10690640E+03</rscale>
<asrwt>0</asrwt>
<pdfrwt beam="1">  1        2 0.26430704E+00 0.94760485E+02</pdfrwt>
<pdfrwt beam="2">  1       -1 0.11581828E+00 0.12060913E+03</pdfrwt>
<totfact> 0.99737297E+00</totfact>
</mgrwt>
</event>
<event>
13    1  0.1942437E-008  0.2141577E+03  0.7546771E-02  0.1274753E+00
          2   -1    0    0  503    0  0.00000000000E+00  0.00000000000E+00  0.18594428294E+04  0.18594428294E+04  0.00000000000E+00 0. -1.
          2   -1    0    0  502    0 -0.00000000000E+00 -0.00000000000E+00 -0.21168416315E+04  0.21168416315E+04  0.00000000000E+00 0. -1.
         24    2    1    2    0    0  0.16728012229E+03 -0.70557658703E+02 -0.17650407210E+03  0.26553801961E+03  0.79973307271E+02 0.  0.
         24    2    1    2    0    0  0.31635535638E+02 -0.65476632244E+01 -0.56509692789E+02  0.10296604936E+03  0.79780843151E+02 0.  0.
         25    2    1    2    0    0 -0.89779682508E+02 -0.57430199274E+02  0.87756341181E+02  0.18621090703E+03  0.12495882241E+03 0.  0.
        -11    1    3    3    0    0  0.16475606253E+03 -0.46153864216E+02 -0.13769264027E+03  0.21962240893E+03  0.00000000000E+00 0.  1.
         12    1    3    3    0    0  0.25240597613E+01 -0.24403794487E+02 -0.38811431830E+02  0.45915610675E+02  0.00000000000E+00 0. -1.
        -13    1    4    4    0    0 -0.26324443024E+02 -0.57182973911E+01 -0.26096646248E+02  0.37506135111E+02  0.00000000000E+00 0.  1.
         14    1    4    4    0    0  0.57959978662E+02 -0.82936583339E+00 -0.30413046541E+02  0.65459914254E+02  0.00000000000E+00 0. -1.
          5    1    5    5  501    0 -0.89637821124E+02 -0.40272123569E+02  0.17635471823E+01  0.98397068103E+02  0.47000000000E+01 0.  1.
         -5    1    5    5    0  501 -0.14186138381E+00 -0.17158075704E+02  0.85992793999E+02  0.87813838923E+02  0.47000000000E+01 0.  1.
          1    1    1    2  502    0 -0.13816824451E+03  0.17429859474E+03 -0.17594864062E+04  0.17734888997E+04  0.00000000000E+00 0. -1.
          1    1    1    2  503    0  0.29032269096E+02 -0.39763073539E+02  0.16473450278E+04  0.16480805852E+04  0.00000000000E+00 0. -1.
<mgrwt>
<rscale>  0 0.10268308E+03</rscale>
<asrwt>0</asrwt>
<pdfrwt beam="1">  1        2 0.27344747E+00 0.49233877E+02</pdfrwt>
<pdfrwt beam="2">  1        2 0.31130024E+00 0.21415772E+03</pdfrwt>
<totfact> 0.13300482E+01</totfact>
</mgrwt>
</event>
<event>
13    1  0.1942437E-008  0.1559207E+03  0.7546771E-02  0.1257113E+00
          4   -1    0    0  503    0 -0.00000000000E+00  0.00000000000E+00  0.18975250086E+04  0.18975250086E+04  0.00000000000E+00 0. -1.
          2   -1    0    0  502    0  0.00000000000E+00 -0.00000000000E+00 -0.17567288145E+04  0.17567288145E+04  0.00000000000E+00 0. -1.
         24    2    1    2    0    0 -0.57181234143E+02  0.39599156444E+02  0.94041508670E+02  0.14125854566E+03  0.79198387853E+02 0.  0.
         24    2    1    2    0    0  0.38421051114E+02  0.71841559006E+01  0.26558560660E+03  0.28085180338E+03  0.82548360140E+02 0.  0.
         25    2    1    2    0    0  0.18052412314E+03 -0.88352393914E+02 -0.21229307352E+03  0.31794636310E+03  0.12500574467E+03 0.  0.
        -11    1    3    3    0    0  0.20192582781E+02  0.78895920046E+01  0.21982385643E+02  0.30874120876E+02  0.00000000000E+00 0.  1.
         12    1    3    3    0    0 -0.77373816924E+02  0.31709564440E+02  0.72059123028E+02  0.11038442478E+03  0.00000000000E+00 0. -1.
        -13    1    4    4    0    0  0.59668392508E+02  0.23175902645E+02  0.20292943415E+03  0.21278579552E+03  0.00000000000E+00 0.  1.
         14    1    4    4    0    0 -0.21247341394E+02 -0.15991746744E+02  0.62656172449E+02  0.68066007861E+02  0.00000000000E+00 0. -1.
          5    1    5    5  501    0  0.16196865086E+03 -0.11859396989E+03 -0.17682377538E+03  0.26755767807E+03  0.47000000000E+01 0.  1.
         -5    1    5    5    0  501  0.18555472280E+02  0.30241575973E+02 -0.35469298140E+02  0.50388685034E+02  0.47000000000E+01 0.  1.
          1    1    1    2  502    0 -0.10269609070E+03  0.11407273526E+03 -0.14548221259E+04  0.14628966109E+04  0.00000000000E+00 0. -1.
          3    1    1    2  503    0 -0.59067849414E+02 -0.72503653692E+02  0.14482842783E+04  0.14513005001E+04  0.00000000000E+00 0. -1.
<mgrwt>
<rscale>  0 0.11188829E+03</rscale>
<asrwt>0</asrwt>
<pdfrwt beam="2">  1        2 0.25834247E+00 0.15592067E+03</pdfrwt>
<pdfrwt beam="1">  1        4 0.27904780E+00 0.80290761E+02</pdfrwt>
<totfact> 0.31491331E-01</totfact>
</mgrwt>
</event>
<event>
13    1  0.1942437E-008  0.7580972E+02  0.7546771E-02  0.1500053E+00
          2   -1    0    0  503    0  0.00000000000E+00  0.00000000000E+00  0.14205567864E+04  0.14205567864E+04  0.00000000000E+00 0. -1.
          2   -1    0    0  502    0 -0.00000000000E+00 -0.00000000000E+00 -0.19360880969E+04  0.19360880969E+04  0.00000000000E+00 0. -1.
         24    2    1    2    0    0 -0.12076600419E+03 -0.11993690516E+02 -0.31011560856E+03  0.34283413292E+03  0.81457201264E+02 0.  0.
         24    2    1    2    0    0  0.35996321519E+02  0.53780255458E+02 -0.45977661689E+02  0.11104291259E+03  0.77643621907E+02 0.  0.
         25    2    1    2    0    0  0.40110256186E+02 -0.11565054442E+03  0.46777121473E+01  0.17501623261E+03  0.12499967843E+03 0.  0.
        -13    1    4    4    0    0 -0.12607115911E+01  0.56214495768E+02 -0.47600280649E+02  0.73671199570E+02  0.00000000000E+00 0.  1.
         14    1    4    4    0    0  0.37257033110E+02 -0.24342403102E+01  0.16226189600E+01  0.37371713024E+02  0.00000000000E+00 0. -1.
        -13    1    3    3    0    0 -0.43339605288E+02 -0.78741626184E+01 -0.21811355255E+03  0.22251706817E+03  0.00000000000E+00 0.  1.
         14    1    3    3    0    0 -0.77426398907E+02 -0.41195278976E+01 -0.92002056017E+02  0.12031706475E+03  0.00000000000E+00 0. -1.
          5    1    5    5  501    0 -0.60860220334E+01 -0.11915194102E+03 -0.21910737881E+02  0.12139355481E+03  0.47000000000E+01 0.  1.
         -5    1    5    5    0  501  0.46196278220E+02  0.35013966031E+01  0.26588450028E+02  0.53622677800E+02  0.47000000000E+01 0.  1.
          1    1    1    2  502    0  0.53678004194E+02  0.53452217948E+02 -0.14448442407E+04  0.14468287209E+04  0.00000000000E+00 0. -1.
          1    1    1    2  503    0 -0.90185777053E+01  0.20411761530E+02  0.12807284883E+04  0.12809228843E+04  0.00000000000E+00 0. -1.
<mgrwt>
<rscale>  0 0.41130526E+02</rscale>
<asrwt>0</asrwt>
<pdfrwt beam="1">  1        2 0.20890541E+00 0.22315348E+02</pdfrwt>
<pdfrwt beam="2">  1        2 0.28471884E+00 0.75809715E+02</pdfrwt>
<totfact> 0.31090649E+01</totfact>
</mgrwt>
</event>
<event>
13    1  0.1942437E-008  0.1329154E+03  0.7546771E-02  0.1445337E+00
          2   -1    0    0  503    0  0.00000000000E+00  0.00000000000E+00  0.94403666511E+03  0.94403666511E+03  0.00000000000E+00 0. -1.
          2   -1    0    0  502    0 -0.00000000000E+00 -0.00000000000E+00 -0.11169844042E+04  0.11169844042E+04  0.00000000000E+00 0. -1.
         24    2    1    2    0    0 -0.89456382262E+02 -0.68126168094E+01 -0.33177081958E+03  0.35333074253E+03  0.81987077166E+02 0.  0.
         24    2    1    2    0    0 -0.98358359549E+01  0.58143117502E+02 -0.15990778412E+03  0.18916553416E+03  0.82071518254E+02 0.  0.
         25    2    1    2    0    0  0.29359986995E+02  0.40335889754E+02  0.14234449070E+03  0.19590073153E+03  0.12500459889E+03 0.  0.
        -11    1    3    3    0    0  0.98718195973E-01  0.24932874930E+02 -0.48231492063E+02  0.54294887643E+02  0.00000000000E+00 0.  1.
         12    1    3    3    0    0 -0.89555100458E+02 -0.31745491739E+02 -0.28353932751E+03  0.29903585489E+03  0.00000000000E+00 0. -1.
        -13    1    4    4    0    0 -0.46002697086E+02  0.36702807124E+02 -0.87895405330E+02  0.10577781652E+03  0.00000000000E+00 0.  1.
         14    1    4    4    0    0  0.36166861131E+02  0.21440310378E+02 -0.72012378791E+02  0.83387717635E+02  0.00000000000E+00 0. -1.
          5    1    5    5  501    0 -0.36191099294E+02  0.26068961853E+02  0.11476107859E+03  0.12321356094E+03  0.47000000000E+01 0.  1.
         -5    1    5    5    0  501  0.65551086289E+02  0.14266927901E+02  0.27583412114E+02  0.72687170596E+02  0.47000000000E+01 0.  1.
          1    1    1    2  502    0 -0.10162538585E+02  0.15827896832E+02 -0.56696761485E+03  0.56727953938E+03  0.00000000000E+00 0. -1.
          1    1    1    2  503    0  0.80094769807E+02 -0.10749428728E+03  0.74335398874E+03  0.75534452174E+03  0.00000000000E+00 0. -1.
<mgrwt>
<rscale>  0 0.50000794E+02</rscale>
<asrwt>0</asrwt>
<pdfrwt beam="1">  1        2 0.13882892E+00 0.13291536E+03</pdfrwt>
<pdfrwt beam="2">  1        2 0.16426241E+00 0.18809559E+02</pdfrwt>
<totfact> 0.13561613E+02</totfact>
</mgrwt>
</event>
<event>
13    1  0.1942437E-008  0.1140703E+03  0.7546771E-02  0.1290554E+00
          2   -1    0    0  503    0  0.00000000000E+00  0.00000000000E+00  0.77544202588E+03  0.77544202588E+03  0.00000000000E+00 0. -1.
          2   -1    0    0  502    0 -0.00000000000E+00 -0.00000000000E+00 -0.56037946317E+03  0.56037946317E+03  0.00000000000E+00 0. -1.
         24    2    1    2    0    0 -0.76975947167E+02  0.86522585769E+02  0.17116954725E+02  0.14106639604E+03  0.78710124270E+02 0.  0.
         24    2    1    2    0    0  0.74991556446E+01 -0.53035636780E+02  0.12467713219E+03  0.15664426706E+03  0.78256137188E+02 0.  0.
         25    2    1    2    0    0 -0.87253925580E+02 -0.20402511624E+02  0.13761212565E+03  0.20637603766E+03  0.12499784712E+03 0.  0.
        -11    1    3    3    0    0 -0.37972511139E+02  0.80363577851E+02 -0.15034461881E+02  0.90145722535E+02  0.00000000000E+00 0.  1.
         12    1    3    3    0    0 -0.39003436028E+02  0.61590079175E+01  0.32151416607E+02  0.50920673506E+02  0.00000000000E+00 0. -1.
        -13    1    4    4    0    0  0.22176432533E+02 -0.59538753216E+00  0.88569198641E+02  0.91305265972E+02  0.00000000000E+00 0.  1.
         14    1    4    4    0    0 -0.14677276888E+02 -0.52440249248E+02  0.36107933546E+02  0.65339001086E+02  0.00000000000E+00 0. -1.
          5    1    5    5  501    0 -0.72061089310E+02 -0.54690468450E+02  0.35153878849E+02  0.97168580982E+02  0.47000000000E+01 0.  1.
         -5    1    5    5    0  501 -0.15192836270E+02  0.34287956826E+02  0.10245824680E+03  0.10920745668E+03  0.47000000000E+01 0.  1.
          1    1    1    2  502    0  0.10500504517E+03  0.47392026656E+02 -0.43635508620E+03  0.45130679693E+03  0.00000000000E+00 0. -1.
          1    1    1    2  503    0  0.51725671935E+02 -0.60476464021E+02  0.37201143634E+03  0.38042799136E+03  0.00000000000E+00 0. -1.
<mgrwt>
<rscale>  0 0.95276920E+02</rscale>
<asrwt>0</asrwt>
<pdfrwt beam="1">  1        2 0.11403559E+00 0.79579821E+02</pdfrwt>
<pdfrwt beam="2">  1        2 0.82408744E-01 0.11407027E+03</pdfrwt>
<totfact> 0.37010092E+02</totfact>
</mgrwt>
</event>
<event>
13    1  0.1942437E-008  0.7125982E+02  0.7546771E-02  0.1511500E+00
          2   -1    0    0  503    0  0.00000000000E+00  0.00000000000E+00  0.12921826641E+04  0.12921826641E+04  0.00000000000E+00 0. -1.
          2   -1    0    0  502    0 -0.00000000000E+00 -0.00000000000E+00 -0.45581933570E+04  0.45581933570E+04  0.00000000000E+00 0. -1.
         24    2    1    2    0    0 -0.85942043392E+02  0.87649497036E+02 -0.26529459149E+04  0.26569929483E+04  0.80131334534E+02 0.  0.
         24    2    1    2    0    0  0.52992126408E+02 -0.63876068933E+02  0.63714470852E+02  0.13224975862E+03  0.80883541064E+02 0.  0.
         25    2    1    2    0    0  0.14128104550E+02 -0.72827255345E+02  0.38375042389E+03  0.41035718756E+03  0.12500088436E+03 0.  0.
        -11    1    3    3    0    0 -0.28642254314E+02  0.34989381307E+02 -0.37473795655E+03  0.37745618503E+03  0.00000000000E+00 0.  1.
         12    1    3    3    0    0 -0.57299789077E+02  0.52660115729E+02 -0.22782079583E+04  0.22795367632E+04  0.00000000000E+00 0. -1.
        -11    1    4    4    0    0 -0.10174235260E+02  0.12924935037E+02  0.89015643052E+01  0.18703124228E+02  0.00000000000E+00 0.  1.
         12    1    4    4    0    0  0.63166361668E+02 -0.76801003970E+02  0.54812906547E+02  0.11354663439E+03  0.00000000000E+00 0. -1.
          5    1    5    5  501    0  0.43587479044E+02 -0.91206053092E+02  0.33742634244E+03  0.35227409644E+03  0.47000000000E+01 0. -1.
         -5    1    5    5    0  501 -0.29459374494E+02  0.18378797747E+02  0.46324081447E+02  0.58083091120E+02  0.47000000000E+01 0. -1.
          1    1    1    2  502    0  0.37471876265E+02  0.60643846806E+02 -0.18548164759E+04  0.18561858681E+04  0.00000000000E+00 0. -1.
          1    1    1    2  503    0 -0.18650063831E+02 -0.11590019564E+02  0.79428680315E+03  0.79459025862E+03  0.00000000000E+00 0. -1.
<mgrwt>
<rscale>  0 0.39556575E+02</rscale>
<asrwt>0</asrwt>
<pdfrwt beam="1">  1        2 0.19002686E+00 0.21957992E+02</pdfrwt>
<pdfrwt beam="2">  1        2 0.67032256E+00 0.71259822E+02</pdfrwt>
<totfact> 0.11027865E+00</totfact>
</mgrwt>
</event>
<event>
13    1  0.1942437E-008  0.1164921E+03  0.7546771E-02  0.1444404E+00
          2   -1    0    0  503    0  0.00000000000E+00  0.00000000000E+00  0.68030829429E+03  0.68030829429E+03  0.00000000000E+00 0. -1.
          2   -1    0    0  502    0 -0.00000000000E+00 -0.00000000000E+00 -0.97066889143E+03  0.97066889143E+03  0.00000000000E+00 0. -1.
         24    2    1    2    0    0 -0.16761908157E+02  0.26294428650E+02 -0.49576881584E+03  0.50331360528E+03  0.81027822116E+02 0.  0.
         24    2    1    2    0    0  0.34612008042E+02 -0.10722309466E+03 -0.23299629524E+03  0.27052359281E+03  0.78746158928E+02 0.  0.
         25    2    1    2    0    0  0.27904811249E+02 -0.49450486029E+01  0.23150898047E+03  0.26462483629E+03  0.12500705557E+03 0.  0.
        -13    1    3    3    0    0 -0.35427796160E+02  0.16762957479E+02 -0.46137740087E+03  0.46303912525E+03  0.00000000000E+00 0.  1.
         14    1    3    3    0    0  0.18665888003E+02  0.95314711704E+01 -0.34391414977E+02  0.40274480030E+02  0.00000000000E+00 0. -1.
        -13    1    4    4    0    0  0.21574772677E+02  0.32347236145E+01 -0.17314241727E+02  0.27851700478E+02  0.00000000000E+00 0.  1.
         14    1    4    4    0    0  0.13037235365E+02 -0.11045781828E+03 -0.21568205351E+03  0.24267189234E+03  0.00000000000E+00 0. -1.
          5    1    5    5  501    0 -0.40790104687E+02  0.26903972020E+02  0.63338672031E+02  0.80134472766E+02  0.47000000000E+01 0. -1.
         -5    1    5    5    0  501  0.68694915936E+02 -0.31849020623E+02  0.16817030844E+03  0.18449036352E+03  0.47000000000E+01 0. -1.
          1    1    1    2  502    0 -0.15841789455E+01 -0.21552358239E+02 -0.19396527174E+03  0.19516541807E+03  0.00000000000E+00 0. -1.
          1    1    1    2  503    0 -0.44170732189E+02  0.10742607285E+03  0.40086080520E+03  0.41734973327E+03  0.00000000000E+00 0. -1.
<mgrwt>
<rscale>  0 0.50174234E+02</rscale>
<asrwt>0</asrwt>
<pdfrwt beam="1">  1        2 0.10004534E+00 0.11649215E+03</pdfrwt>
<pdfrwt beam="2">  1        2 0.14274542E+00 0.21610501E+02</pdfrwt>
<totfact> 0.24002034E+02</totfact>
</mgrwt>
</event>
<event>
13    1  0.1942437E-008  0.1363937E+03  0.7546771E-02  0.1339497E+00
          2   -1    0    0  502    0  0.00000000000E+00  0.00000000000E+00  0.34892231263E+04  0.34892231263E+04  0.00000000000E+00 0. -1.
          2   -1    0    0  503    0 -0.00000000000E+00 -0.00000000000E+00 -0.28102334943E+04  0.28102334943E+04  0.00000000000E+00 0. -1.
         24    2    1    2    0    0 -0.91147643259E+02  0.19628791036E+03 -0.89769987150E+03  0.92685398538E+03  0.79727123965E+02 0.  0.
         24    2    1    2    0    0  0.10493182802E+02 -0.80647748407E+02 -0.48441164639E+03  0.49630547501E+03  0.71065569437E+02 0.  0.
         25    2    1    2    0    0  0.20678009113E+03  0.10600325891E+02  0.16367357711E+03  0.29203472278E+03  0.12499946589E+03 0.  0.
        -11    1    3    3    0    0  0.23239889663E+01  0.35692624317E+02 -0.70665316455E+02  0.79201965285E+02  0.00000000000E+00 0.  1.
         12    1    3    3    0    0 -0.93471632225E+02  0.16059528605E+03 -0.82703455504E+03  0.84765202009E+03  0.00000000000E+00 0. -1.
        -13    1    4    4    0    0  0.28302962844E+01 -0.25558188055E+02 -0.34858250783E+03  0.34952967874E+03  0.00000000000E+00 0.  1.
         14    1    4    4    0    0  0.76628865180E+01 -0.55089560351E+02 -0.13582913855E+03  0.14677579627E+03  0.00000000000E+00 0. -1.
          5    1    5    5  501    0  0.83629025666E+01  0.27364780722E+02 -0.68900729836E+01  0.29804906794E+02  0.47000000000E+01 0.  1.
         -5    1    5    5    0  501  0.19841718856E+03 -0.16764454830E+02  0.17056365009E+03  0.26222981599E+03  0.47000000000E+01 0.  1.
          1    1    1    2  502    0 -0.14012650968E+02 -0.40472003227E+02  0.32369949531E+04  0.32372782803E+04  0.00000000000E+00 0. -1.
          1    1    1    2  503    0 -0.11211297970E+03 -0.85768484620E+02 -0.13395673803E+04  0.13469841571E+04  0.00000000000E+00 0. -1.
<mgrwt>
<rscale>  0 0.76430544E+02</rscale>
<asrwt>0</asrwt>
<pdfrwt beam="1">  1        2 0.51312105E+00 0.42829166E+02</pdfrwt>
<pdfrwt beam="2">  1        2 0.41326963E+00 0.13639369E+03</pdfrwt>
<totfact> 0.98289280E-01</totfact>
</mgrwt>
</event>
<event>
13    1  0.1942437E-008  0.1570085E+03  0.7546771E-02  0.1198815E+00
          2   -1    0    0  502    0  0.00000000000E+00  0.00000000000E+00  0.17054935186E+04  0.17054935186E+04  0.00000000000E+00 0. -1.
          2   -1    0    0  503    0 -0.00000000000E+00 -0.00000000000E+00 -0.19131097067E+04  0.19131097067E+04  0.00000000000E+00 0. -1.
         24    2    1    2    0    0 -0.24953980632E+02 -0.81925946712E+02 -0.33383389389E+03  0.35411374087E+03  0.81344396645E+02 0.  0.
         24    2    1    2    0    0 -0.11285699135E+03  0.96106847947E+02 -0.67382035192E+02  0.18035443190E+03  0.77550987882E+02 0.  0.
         25    2    1    2    0    0  0.36116887154E+02 -0.56059237735E+02  0.13754516889E+04  0.13827293235E+04  0.12500386296E+03 0.  0.
        -11    1    4    4    0    0 -0.11884878593E+03  0.65521040662E+02 -0.59643088662E+02  0.14824081325E+03  0.00000000000E+00 0.  1.
         12    1    4    4    0    0  0.59917945855E+01  0.30585807285E+02 -0.77389465304E+01  0.32113618654E+02  0.00000000000E+00 0. -1.
        -13    1    3    3    0    0  0.78358567367E+01 -0.84284011949E+02 -0.22376721118E+03  0.23924247140E+03  0.00000000000E+00 0.  1.
         14    1    3    3    0    0 -0.32789837369E+02  0.23580652365E+01 -0.11006668272E+03  0.11487126947E+03  0.00000000000E+00 0. -1.
          5    1    5    5  501    0 -0.10143313441E+02  0.34900328803E+02  0.49910501402E+03  0.50044862352E+03  0.47000000000E+01 0. -1.
         -5    1    5    5    0  501  0.46260200594E+02 -0.90959566537E+02  0.87634667489E+03  0.88228069994E+03  0.47000000000E+01 0. -1.
          1    1    1    2  502    0  0.64179488518E+02 -0.20967890464E+03  0.19972989462E+03  0.29660795776E+03  0.00000000000E+00 0. -1.
          1    1    1    2  503    0  0.37514596308E+02  0.25155724114E+03 -0.13815818426E+04  0.14047977713E+04  0.00000000000E+00 0. -1.
<mgrwt>
<rscale>  0 0.15135753E+03</rscale>
<asrwt>0</asrwt>
<pdfrwt beam="1">  1        2 0.25080787E+00 0.15700850E+03</pdfrwt>
<pdfrwt beam="2">  1        2 0.28133966E+00 0.14590996E+03</pdfrwt>
<totfact> 0.18508620E+01</totfact>
</mgrwt>
</event>
<event>
13    1  0.1942437E-008  0.4626437E+02  0.7546771E-02  0.1581878E+00
          2   -1    0    0  502    0  0.00000000000E+00  0.00000000000E+00  0.35410854213E+04  0.35410854213E+04  0.00000000000E+00 0. -1.
          2   -1    0    0  503    0 -0.00000000000E+00 -0.00000000000E+00 -0.10067029479E+04  0.10067029479E+04  0.00000000000E+00 0. -1.
         24    2    1    2    0    0  0.44121086423E+02  0.19782231541E+03 -0.14639007889E+03  0.26493769241E+03  0.87644662813E+02 0.  0.
         24    2    1    2    0    0  0.31373231471E+03 -0.81090940894E+03  0.47375330868E+03  0.99353809537E+03  0.81692806675E+02 0.  0.
         25    2    1    2    0    0 -0.31659559472E+03  0.58126438735E+03  0.27651518579E+03  0.72813945839E+03  0.12500145715E+03 0.  0.
        -11    1    3    3    0    0 -0.10836356938E+02  0.13554190884E+03 -0.74270909213E+02  0.15493612761E+03  0.00000000000E+00 0.  1.
         12    1    3    3    0    0  0.54957443360E+02  0.62280406577E+02 -0.72119169679E+02  0.11000156480E+03  0.00000000000E+00 0. -1.
        -13    1    4    4    0    0  0.21991010726E+03 -0.50856087577E+03  0.26373862416E+03  0.61363888526E+03  0.00000000000E+00 0.  1.
         14    1    4    4    0    0  0.93822207451E+02 -0.30234853317E+03  0.21001468452E+03  0.37989921011E+03  0.00000000000E+00 0. -1.
          5    1    5    5  501    0 -0.12976694017E+03  0.33924482917E+03  0.10780734526E+03  0.37890767553E+03  0.47000000000E+01 0. -1.
         -5    1    5    5    0  501 -0.18682865455E+03  0.24201955818E+03  0.16870784054E+03  0.34923178286E+03  0.47000000000E+01 0. -1.
          1    1    1    2  502    0  0.37553039741E+01  0.21142682742E+02  0.22440901416E+04  0.22441928792E+04  0.00000000000E+00 0. -1.
          1    1    1    2  503    0 -0.45013110390E+02  0.10680023433E+02 -0.31358608377E+03  0.31698024378E+03  0.00000000000E+00 0. -1.
<mgrwt>
<rscale>  0 0.31519240E+02</rscale>
<asrwt>0</asrwt>
<pdfrwt beam="1">  1        2 0.52074785E+00 0.21473596E+02</pdfrwt>
<pdfrwt beam="2">  1        2 0.14804455E+00 0.46264375E+02</pdfrwt>
<totfact> 0.92654232E+00</totfact>
</mgrwt>
</event>
<event>
13    1  0.1942437E-008  0.1175394E+03  0.7546771E-02  0.1311181E+00
          2   -1    0    0  503    0  0.00000000000E+00  0.00000000000E+00  0.25262882989E+04  0.25262882989E+04  0.00000000000E+00 0. -1.
          2   -1    0    0  502    0 -0.00000000000E+00 -0.00000000000E+00 -0.61058179323E+03  0.61058179323E+03  0.00000000000E+00 0. -1.
         24    2    1    2    0    0 -0.77489194747E+02  0.10239589627E+01 -0.21242085031E+02  0.11405834762E+03  0.80947246348E+02 0.  0.
         24    2    1    2    0    0  0.47395052614E+02 -0.63319856813E+02 -0.67819052711E+02  0.13180530004E+03  0.80731145972E+02 0.  0.
         25    2    1    2    0    0  0.59358003523E+02 -0.29937771346E+02  0.36119710996E+03  0.38795192166E+03  0.12499479405E+03 0.  0.
        -11    1    4    4    0    0  0.32410997834E+02  0.90532364535E+01 -0.35072936162E+01  0.33833932367E+02  0.00000000000E+00 0.  1.
         12    1    4    4    0    0  0.14984054779E+02 -0.72373093266E+02 -0.64311759095E+02  0.97971367677E+02  0.00000000000E+00 0. -1.
        -13    1    3    3    0    0 -0.50170670122E+02  0.61560742964E+01  0.27799474469E+02  0.57687123104E+02  0.00000000000E+00 0.  1.
         14    1    3    3    0    0 -0.27318524625E+02 -0.51321153337E+01 -0.49041559500E+02  0.56371224519E+02  0.00000000000E+00 0. -1.
          5    1    5    5  501    0  0.26926969024E+02 -0.75316689655E+02  0.26286115354E+03  0.27480127628E+03  0.47000000000E+01 0. -1.
         -5    1    5    5    0  501  0.32431034498E+02  0.45378918310E+02  0.98335956423E+02  0.11315064539E+03  0.47000000000E+01 0. -1.
          1    1    1    2  502    0  0.63346713600E+02  0.81871957718E+01 -0.42546999325E+03  0.43023778479E+03  0.00000000000E+00 0. -1.
          1    1    1    2  503    0 -0.92610574989E+02  0.84046473424E+02  0.20690405267E+04  0.20728167380E+04  0.00000000000E+00 0. -1.
<mgrwt>
<rscale>  0 0.86646768E+02</rscale>
<asrwt>0</asrwt>
<pdfrwt beam="1">  1        2 0.37151298E+00 0.11753937E+03</pdfrwt>
<pdfrwt beam="2">  1        2 0.89791441E-01 0.63873596E+02</pdfrwt>
<totfact> 0.41544937E+01</totfact>
</mgrwt>
</event>
<event>
13    1  0.1942437E-008  0.3153790E+03  0.7546771E-02  0.1237135E+00
          2   -1    0    0  502    0  0.00000000000E+00  0.00000000000E+00  0.87917696066E+03  0.87917696066E+03  0.00000000000E+00 0. -1.
          2   -1    0    0  503    0 -0.00000000000E+00 -0.00000000000E+00 -0.33012288513E+04  0.33012288513E+04  0.00000000000E+00 0. -1.
         24    2    1    2    0    0  0.18645397678E+03 -0.12678965089E+03 -0.83742421481E+02  0.25363822011E+03  0.80491319505E+02 0.  0.
         24    2    1    2    0    0  0.46981587408E+02 -0.70881087661E+02  0.57748198711E+01  0.11657230611E+03  0.79525818845E+02 0.  0.
         25    2    1    2    0    0 -0.17445777940E+02  0.46710732870E+00  0.34251399902E+03  0.36502841561E+03  0.12500132527E+03 0.  0.
        -11    1    4    4    0    0  0.17316532318E+02  0.14585202095E+02  0.12486533319E+02  0.25855442870E+02  0.00000000000E+00 0.  1.
         12    1    4    4    0    0  0.29665055089E+02 -0.85466289755E+02 -0.67117134476E+01  0.90716863236E+02  0.00000000000E+00 0. -1.
        -13    1    3    3    0    0 -0.71628548645E+01 -0.31722875776E+01  0.25682305371E+01  0.82441316327E+01  0.00000000000E+00 0.  1.
         14    1    3    3    0    0  0.19361683164E+03 -0.12361736331E+03 -0.86310652018E+02  0.24539408848E+03  0.00000000000E+00 0. -1.
          5    1    5    5  501    0 -0.71078403513E+02  0.60209731781E+00  0.21888406830E+03  0.23018433335E+03  0.47000000000E+01 0.  1.
         -5    1    5    5    0  501  0.53632625573E+02 -0.13498998911E+00  0.12362993073E+03  0.13484408226E+03  0.47000000000E+01 0.  1.
          1    1    1    2  502    0  0.47800060035E+02  0.82608521156E+01  0.36910773342E+03  0.37228162228E+03  0.00000000000E+00 0. -1.
          1    1    1    2  503    0 -0.26378984628E+03  0.18894277911E+03 -0.30557060215E+04  0.30728852479E+04  0.00000000000E+00 0. -1.
<mgrwt>
<rscale>  0 0.12368752E+03</rscale>
<asrwt>0</asrwt>
<pdfrwt beam="1">  1        2 0.12929073E+00 0.48508632E+02</pdfrwt>
<pdfrwt beam="2">  1        2 0.48547484E+00 0.31537897E+03</pdfrwt>
<totfact> 0.91741599E+00</totfact>
</mgrwt>
</event>
<event>
13    1  0.1942437E-008  0.1254860E+03  0.7546771E-02  0.1451527E+00
          2   -1    0    0  503    0  0.00000000000E+00  0.00000000000E+00  0.36899293510E+04  0.36899293510E+04  0.00000000000E+00 0. -1.
          2   -1    0    0  502    0 -0.00000000000E+00 -0.00000000000E+00 -0.11867887289E+04  0.11867887289E+04  0.00000000000E+00 0. -1.
         24    2    1    2    0    0 -0.12792321414E+03  0.27988947528E+02 -0.74660738692E+03  0.76200110604E+03  0.77944630989E+02 0.  0.
         24    2    1    2    0    0  0.38663176080E+02  0.20733956131E+02 -0.12670882354E+03  0.15621142776E+03  0.80138293458E+02 0.  0.
         25    2    1    2    0    0  0.89558272127E+02 -0.16746183073E+03  0.51249061471E+02  0.23305791839E+03  0.12500151265E+03 0.  0.
        -11    1    4    4    0    0 -0.23366066314E+02  0.86078074211E+01 -0.18976409409E+02  0.31307691030E+02  0.00000000000E+00 0.  1.
         12    1    4    4    0    0  0.62029242393E+02  0.12126148710E+02 -0.10773241413E+03  0.12490373673E+03  0.00000000000E+00 0. -1.
        -13    1    3    3    0    0 -0.49511009562E+01  0.23024289380E+02 -0.60106386086E+02  0.64555471886E+02  0.00000000000E+00 0.  1.
         14    1    3    3    0    0 -0.12297211318E+03  0.49646581479E+01 -0.68650100083E+03  0.69744563415E+03  0.00000000000E+00 0. -1.
          5    1    5    5  501    0  0.62395305650E+02 -0.11852349892E+02 -0.82064681803E+01  0.64211280046E+02  0.47000000000E+01 0.  1.
         -5    1    5    5    0  501  0.27162966477E+02 -0.15560948084E+03  0.59455529651E+02  0.16884663834E+03  0.47000000000E+01 0.  1.
          1    1    1    2  502    0 -0.18241011476E+02 -0.54336062892E+01 -0.19854843122E+03  0.19945861254E+03  0.00000000000E+00 0. -1.
          1    1    1    2  503    0  0.17942777409E+02  0.12417253336E+03  0.35237562023E+04  0.35259890151E+04  0.00000000000E+00 0. -1.
<mgrwt>
<rscale>  0 0.48871126E+02</rscale>
<asrwt>0</asrwt>
<pdfrwt beam="1">  1        2 0.54263666E+00 0.12548602E+03</pdfrwt>
<pdfrwt beam="2">  1        2 0.17452776E+00 0.19033092E+02</pdfrwt>
<totfact> 0.44860449E+00</totfact>
</mgrwt>
</event>
<event>
13    1  0.1942437E-008  0.1339010E+03  0.7546771E-02  0.1462745E+00
          2   -1    0    0  502    0  0.00000000000E+00  0.00000000000E+00  0.28129076058E+04  0.28129076058E+04  0.00000000000E+00 0. -1.
          2   -1    0    0  503    0 -0.00000000000E+00 -0.00000000000E+00 -0.10976115428E+04  0.10976115428E+04  0.00000000000E+00 0. -1.
         24    2    1    2    0    0 -0.22332496837E+03  0.45520673771E+02 -0.56373506467E+03  0.61356712511E+03  0.81983050925E+02 0.  0.
         24    2    1    2    0    0  0.94922038405E+02 -0.67067311277E+01 -0.11672334743E+03  0.17138118407E+03  0.81804625790E+02 0.  0.
         25    2    1    2    0    0  0.62860784818E+02 -0.17282460593E+03  0.15264383993E+04  0.15425497359E+04  0.12500271203E+03 0.  0.
        -11    1    4    4    0    0  0.10095819905E+03  0.15298458572E+02 -0.88813088639E+02  0.13533057860E+03  0.00000000000E+00 0.  1.
         12    1    4    4    0    0 -0.60361606461E+01 -0.22005189700E+02 -0.27910258790E+02  0.36050605470E+02  0.00000000000E+00 0. -1.
        -11    1    3    3    0    0 -0.95997648199E+02 -0.19844556949E+02 -0.20143595630E+03  0.22402187257E+03  0.00000000000E+00 0.  1.
         12    1    3    3    0    0 -0.12732732017E+03  0.65365230719E+02 -0.36229910837E+03  0.38954525254E+03  0.00000000000E+00 0. -1.
          5    1    5    5  501    0  0.20007930392E+02 -0.10632194533E+03  0.43644049438E+03  0.44967440273E+03  0.47000000000E+01 0.  1.
         -5    1    5    5    0  501  0.42852854426E+02 -0.66502660602E+02  0.10899979049E+04  0.10928753331E+04  0.47000000000E+01 0.  1.
          1    1    1    2  502    0  0.63018998035E+02  0.11776970915E+03  0.12223392544E+04  0.12296155299E+04  0.00000000000E+00 0. -1.
          1    1    1    2  503    0  0.25231471150E+01  0.16240954135E+02 -0.35302317861E+03  0.35340557367E+03  0.00000000000E+00 0. -1.
<mgrwt>
<rscale>  0 0.46912344E+02</rscale>
<asrwt>0</asrwt>
<pdfrwt beam="1">  1        2 0.41366288E+00 0.13390104E+03</pdfrwt>
<pdfrwt beam="2">  1        2 0.16141346E+00 0.16435780E+02</pdfrwt>
<totfact> 0.15559502E+01</totfact>
</mgrwt>
</event>
<event>
13    1  0.1942437E-008  0.2772940E+02  0.7546771E-02  0.1684646E+00
         -1   -1    0    0    0  501 -0.00000000000E+00  0.00000000000E+00  0.10319572078E+04  0.10319572078E+04  0.00000000000E+00 0.  1.
          2   -1    0    0  503    0  0.00000000000E+00 -0.00000000000E+00 -0.12162597920E+04  0.12162597920E+04  0.00000000000E+00 0. -1.
         24    2    1    2    0    0 -0.42849093892E+03 -0.20775098581E+03  0.11744153500E+03  0.49370072777E+03  0.56417529317E+02 0.  0.
         24    2    1    2    0    0  0.29619469652E+03 -0.40078481402E+03  0.11110949567E+03  0.51648383355E+03  0.77784734342E+02 0.  0.
         25    2    1    2    0    0  0.12717161722E+03  0.61464643214E+03 -0.30834524626E+03  0.71039811021E+03  0.12500330931E+03 0.  0.
        -13    1    4    4    0    0  0.26145695281E+03 -0.30746121069E+03  0.74678509040E+02  0.41044977033E+03  0.00000000000E+00 0.  1.
         14    1    4    4    0    0  0.34737743711E+02 -0.93323603333E+02  0.36430986626E+02  0.10603406322E+03  0.00000000000E+00 0. -1.
        -13    1    3    3    0    0 -0.25522957077E+03 -0.15338727531E+03  0.79208937678E+02  0.30812959259E+03  0.00000000000E+00 0.  1.
         14    1    3    3    0    0 -0.17326136815E+03 -0.54363710498E+02  0.38232597325E+02  0.18557113518E+03  0.00000000000E+00 0. -1.
          5    1    5    5  502    0  0.49206722223E+02  0.71620612438E+02 -0.72384699080E+02  0.11319208585E+03  0.47000000000E+01 0. -1.
         -5    1    5    5    0  502  0.77964895001E+02  0.54302581970E+03 -0.23596054718E+03  0.59720602437E+03  0.47000000000E+01 0. -1.
          1    1    1    2  503    0 -0.13990173061E+02  0.14005391110E+02 -0.31484922493E+03  0.31547093426E+03  0.00000000000E+00 0. -1.
         -2    1    1    2    0  501  0.19114798237E+02 -0.20116023417E+02  0.21034085636E+03  0.21216339402E+03  0.00000000000E+00 0.  1.
<mgrwt>
<rscale>  0 0.23429196E+02</rscale>
<asrwt>0</asrwt>
<pdfrwt beam="2">  1        2 0.17886173E+00 0.19795856E+02</pdfrwt>
<pdfrwt beam="1">  1       -1 0.15175841E+00 0.27729400E+02</pdfrwt>
<totfact> 0.12262799E+01</totfact>
</mgrwt>
</event>
<event>
13    1  0.1942437E-008  0.2229244E+03  0.7546771E-02  0.1272601E+00
          2   -1    0    0  503    0  0.00000000000E+00  0.00000000000E+00  0.33054235959E+03  0.33054235959E+03  0.00000000000E+00 0. -1.
          2   -1    0    0  502    0 -0.00000000000E+00 -0.00000000000E+00 -0.19577887082E+04  0.19577887082E+04  0.00000000000E+00 0. -1.
         24    2    1    2    0    0 -0.16790293444E+03 -0.40305060712E+02 -0.53165801412E+03  0.56470162282E+03  0.80073625669E+02 0.  0.
         24    2    1    2    0    0 -0.42015317120E+02  0.11725582181E+02 -0.36425416513E+02  0.10304738641E+03  0.85960320663E+02 0.  0.
         25    2    1    2    0    0 -0.80876399521E+02 -0.30239843313E+02  0.38006936817E+02  0.15659724884E+03  0.12499092357E+03 0.  0.
        -11    1    3    3    0    0 -0.14175153331E+03 -0.63539226942E+02 -0.43133199781E+03  0.45845176724E+03  0.00000000000E+00 0.  1.
         12    1    3    3    0    0 -0.26151401134E+02  0.23234166230E+02 -0.10032601631E+03  0.10624985558E+03  0.00000000000E+00 0. -1.
        -11    1    4    4    0    0 -0.16639058258E+02 -0.36716761183E+02 -0.24179025695E+02  0.47006426104E+02  0.00000000000E+00 0.  1.
         12    1    4    4    0    0 -0.25376258861E+02  0.48442343364E+02 -0.12246390819E+02  0.56040960310E+02  0.00000000000E+00 0. -1.
          5    1    5    5  501    0  0.31412235145E+02 -0.19357976895E+02  0.20081283264E+02  0.42270648491E+02  0.47000000000E+01 0.  1.
         -5    1    5    5    0  501 -0.11228863467E+03 -0.10881866418E+02  0.17925653552E+02  0.11432660035E+03  0.47000000000E+01 0.  1.
          1    1    1    2  502    0  0.26604455751E+03  0.17358315708E+02 -0.12632241665E+04  0.12910524050E+04  0.00000000000E+00 0. -1.
          1    1    1    2  503    0  0.24750093570E+02  0.41461006136E+02  0.16605431170E+03  0.17293240470E+03  0.00000000000E+00 0. -1.
<mgrwt>
<rscale>  0 0.10375080E+03</rscale>
<asrwt>0</asrwt>
<pdfrwt beam="1">  1        2 0.48609171E-01 0.48286459E+02</pdfrwt>
<pdfrwt beam="2">  1        2 0.28791010E+00 0.22292436E+03</pdfrwt>
<totfact> 0.14120029E+02</totfact>
</mgrwt>
</event>
<event>
13    1  0.1942437E-008  0.8943560E+02  0.7546771E-02  0.1330587E+00
          2   -1    0    0  503    0  0.00000000000E+00  0.00000000000E+00  0.38895070042E+04  0.38895070042E+04  0.00000000000E+00 0. -1.
          2   -1    0    0  502    0 -0.00000000000E+00 -0.00000000000E+00 -0.30954129874E+04  0.30954129874E+04  0.00000000000E+00 0. -1.
         24    2    1    2    0    0 -0.14869302268E+03 -0.20912312956E+03 -0.55146332223E+03  0.61353952405E+03  0.80478900864E+02 0.  0.
         24    2    1    2    0    0  0.28180610350E+03  0.30734216838E+03 -0.16684210049E+03  0.45484939017E+03  0.71956881632E+02 0.  0.
         25    2    1    2    0    0 -0.13645607952E+03 -0.58669814734E+02 -0.94795399128E+02  0.21604152809E+03  0.12500146145E+03 0.  0.
        -11    1    3    3    0    0 -0.41389956171E+02 -0.12742997925E+03 -0.28215582080E+03  0.31235146117E+03  0.00000000000E+00 0.  1.
         12    1    3    3    0    0 -0.10730306651E+03 -0.81693150317E+02 -0.26930750143E+03  0.30118806288E+03  0.00000000000E+00 0. -1.
        -13    1    4    4    0    0  0.17409402619E+03  0.15181191213E+03 -0.11837150566E+03  0.25955230682E+03  0.00000000000E+00 0.  1.
         14    1    4    4    0    0  0.10771207731E+03  0.15553025624E+03 -0.48470594827E+02  0.19529708336E+03  0.00000000000E+00 0. -1.
          5    1    5    5  501    0 -0.12418372366E+03 -0.17446020151E+01 -0.96878025885E+02  0.15758198742E+03  0.47000000000E+01 0. -1.
         -5    1    5    5    0  501 -0.12272355855E+02 -0.56925212719E+02  0.20826267567E+01  0.58459540671E+02  0.47000000000E+01 0. -1.
          1    1    1    2  502    0 -0.62907856793E+02 -0.63943926292E+02 -0.20453232156E+04  0.20472892517E+04  0.00000000000E+00 0. -1.
          1    1    1    2  503    0  0.66250855496E+02  0.24394702209E+02  0.36525180543E+04  0.36532002976E+04  0.00000000000E+00 0. -1.
<mgrwt>
<rscale>  0 0.79461317E+02</rscale>
<asrwt>0</asrwt>
<pdfrwt beam="1">  1        2 0.57198632E+00 0.70599415E+02</pdfrwt>
<pdfrwt beam="2">  1        2 0.45520779E+00 0.89435598E+02</pdfrwt>
<totfact> 0.38253216E-01</totfact>
</mgrwt>
</event>
<event>
13    1  0.1942437E-008  0.8700224E+02  0.7546771E-02  0.1369317E+00
          2   -1    0    0  502    0  0.00000000000E+00  0.00000000000E+00  0.32127314405E+04  0.32127314405E+04  0.00000000000E+00 0. -1.
          2   -1    0    0  503    0 -0.00000000000E+00 -0.00000000000E+00 -0.34368992787E+03  0.34368992787E+03  0.00000000000E+00 0. -1.
         24    2    1    2    0    0 -0.32607827587E+02  0.37302952488E+02  0.12109756496E+03  0.15193280902E+03  0.77228087711E+02 0.  0.
         24    2    1    2    0    0  0.26788598196E+02 -0.92024463580E+02  0.23866559043E+03  0.27140786001E+03  0.86688127969E+02 0.  0.
         25    2    1    2    0    0 -0.11032477898E+02  0.86599445839E+02  0.73040909466E+03  0.74614713277E+03  0.12496767018E+03 0.  0.
        -11    1    4    4    0    0  0.42824689453E+01  0.16612705660E+02  0.21155374803E+02  0.27237316547E+02  0.00000000000E+00 0.  1.
         12    1    4    4    0    0  0.22506129251E+02 -0.10863716924E+03  0.21751021562E+03  0.24417054346E+03  0.00000000000E+00 0. -1.
        -13    1    3    3    0    0 -0.20831553158E+02 -0.19615404359E+02  0.18678735293E+02  0.34170350412E+02  0.00000000000E+00 0.  1.
         14    1    3    3    0    0 -0.11776274429E+02  0.56918356847E+02  0.10241882967E+03  0.11776245861E+03  0.00000000000E+00 0. -1.
          5    1    5    5  501    0 -0.38983219295E+02  0.59228571421E+01  0.72138266612E+02  0.82345559280E+02  0.47000000000E+01 0. -1.
         -5    1    5    5    0  501  0.27950741397E+02  0.80676588697E+02  0.65827082805E+03  0.66380157349E+03  0.47000000000E+01 0. -1.
          1    1    1    2  502    0 -0.99770339173E+01  0.51184829851E+02  0.20763021458E+04  0.20769569154E+04  0.00000000000E+00 0. -1.
          1    1    1    2  503    0  0.26828741207E+02 -0.83062764599E+02 -0.29743288322E+03  0.30997665112E+03  0.00000000000E+00 0. -1.
<mgrwt>
<rscale>  0 0.67357291E+02</rscale>
<asrwt>0</asrwt>
<pdfrwt beam="1">  1        2 0.47246049E+00 0.52148135E+02</pdfrwt>
<pdfrwt beam="2">  1        2 0.50542638E-01 0.87002242E+02</pdfrwt>
<totfact> 0.38037478E+01</totfact>
</mgrwt>
</event>
<event>
13    1  0.1942437E-008  0.1091958E+03  0.7546771E-02  0.1345408E+00
          2   -1    0    0  502    0  0.00000000000E+00  0.00000000000E+00  0.25935554579E+04  0.25935554579E+04  0.00000000000E+00 0. -1.
          2   -1    0    0  503    0 -0.00000000000E+00 -0.00000000000E+00 -0.44359314450E+03  0.44359314450E+03  0.00000000000E+00 0. -1.
         24    2    1    2    0    0 -0.10453613944E+03  0.11629059496E+03 -0.72688860229E+02  0.19098393653E+03  0.82096812889E+02 0.  0.
         24    2    1    2    0    0 -0.57787923018E+02  0.31795646939E+02  0.11473918016E+03  0.15442291009E+03  0.79567257624E+02 0.  0.
         25    2    1    2    0    0  0.87935205521E+02 -0.51242282424E+02  0.48660096499E+03  0.51260586213E+03  0.12500359548E+03 0.  0.
        -11    1    3    3    0    0 -0.26130722609E+02  0.18723704711E+02 -0.56188405581E+02  0.64734293106E+02  0.00000000000E+00 0.  1.
         12    1    3    3    0    0 -0.78405416831E+02  0.97566890253E+02 -0.16500454647E+02  0.12624964343E+03  0.00000000000E+00 0. -1.
        -13    1    4    4    0    0 -0.49533350782E+02  0.56832016237E+02  0.96076869622E+02  0.12212369052E+03  0.00000000000E+00 0.  1.
         14    1    4    4    0    0 -0.82545722363E+01 -0.25036369297E+02  0.18662310539E+02  0.32299219573E+02  0.00000000000E+00 0. -1.
          5    1    5    5  501    0  0.56226264698E+02 -0.91131700236E+02  0.37125614566E+03  0.38641893758E+03  0.47000000000E+01 0.  1.
         -5    1    5    5    0  501  0.31708940823E+02  0.39889417812E+02  0.11534481934E+03  0.12618692456E+03  0.47000000000E+01 0.  1.
          1    1    1    2  502    0  0.49765710998E+02  0.10378914171E+02  0.18890197572E+04  0.18897036781E+04  0.00000000000E+00 0. -1.
          1    1    1    2  503    0  0.24623145939E+02 -0.10722287365E+03 -0.26770872874E+03  0.28943221554E+03  0.00000000000E+00 0. -1.
<mgrwt>
<rscale>  0 0.74505905E+02</rscale>
<asrwt>0</asrwt>
<pdfrwt beam="1">  1        2 0.38140521E+00 0.50836481E+02</pdfrwt>
<pdfrwt beam="2">  1        2 0.65234287E-01 0.10919579E+03</pdfrwt>
<totfact> 0.60445641E+01</totfact>
</mgrwt>
</event>
<event>
13    1  0.1942437E-008  0.1589138E+03  0.7546771E-02  0.1232097E+00
          2   -1    0    0  503    0  0.00000000000E+00  0.00000000000E+00  0.39506036213E+04  0.39506036213E+04  0.00000000000E+00 0. -1.
          2   -1    0    0  502    0 -0.00000000000E+00 -0.00000000000E+00 -0.30655696314E+04  0.30655696314E+04  0.00000000000E+00 0. -1.
         24    2    1    2    0    0 -0.13129863578E+03  0.15406863724E+03 -0.51992146541E+02  0.22902576201E+03  0.93665039499E+02 0.  0.
         24    2    1    2    0    0  0.78285795690E+03 -0.10092203341E+04  0.10834969988E+04  0.16779017944E+04  0.99982106823E+02 0.  0.
         25    2    1    2    0    0 -0.68679070384E+03  0.80917737557E+03  0.14526753035E+04  0.18034250118E+04  0.12500695978E+03 0.  0.
        -11    1    3    3    0    0 -0.56561262548E+02  0.56327189849E+01 -0.14441841323E+02  0.58647000989E+02  0.00000000000E+00 0.  1.
         12    1    3    3    0    0 -0.74737373228E+02  0.14843591825E+03 -0.37550305218E+02  0.17037876102E+03  0.00000000000E+00 0. -1.
        -13    1    4    4    0    0  0.20584475059E+03 -0.30767567105E+03  0.26591178788E+03  0.45579102540E+03  0.00000000000E+00 0.  1.
         14    1    4    4    0    0  0.57701320631E+03 -0.70154466308E+03  0.81758521091E+03  0.12221107690E+04  0.00000000000E+00 0. -1.
          5    1    5    5  501    0 -0.59196214349E+03  0.74372765439E+03  0.12518583611E+04  0.15718528714E+04  0.47000000000E+01 0.  1.
         -5    1    5    5    0  501 -0.94828560353E+02  0.65449721179E+02  0.20081694237E+03  0.23157214038E+03  0.47000000000E+01 0.  1.
          1    1    1    2  502    0  0.86281814660E+02  0.13355090479E+03 -0.24468836223E+04  0.24520440161E+04  0.00000000000E+00 0. -1.
          1    1    1    2  503    0 -0.51050431944E+02 -0.87576583461E+02  0.84773745644E+03  0.85377666847E+03  0.00000000000E+00 0. -1.
<mgrwt>
<rscale>  0 0.12692138E+03</rscale>
<asrwt>0</asrwt>
<pdfrwt beam="1">  1        2 0.58097112E+00 0.10136964E+03</pdfrwt>
<pdfrwt beam="2">  1        2 0.45081906E+00 0.15891381E+03</pdfrwt>
<totfact> 0.30759589E-01</totfact>
</mgrwt>
</event>
<event>
13    1  0.1942437E-008  0.1132755E+03  0.7546771E-02  0.1474338E+00
          2   -1    0    0  503    0  0.00000000000E+00  0.00000000000E+00  0.40437514600E+04  0.40437514600E+04  0.00000000000E+00 0. -1.
          2   -1    0    0  502    0 -0.00000000000E+00 -0.00000000000E+00 -0.17256538394E+03  0.17256538394E+03  0.00000000000E+00 0. -1.
         24    2    1    2    0    0 -0.77097254822E+02 -0.87757221297E+02  0.25246512961E+03  0.28948092455E+03  0.80095239664E+02 0.  0.
         24    2    1    2    0    0 -0.44445626319E+02  0.14268332020E+02  0.11150794871E+03  0.14531180735E+03  0.80638078688E+02 0.  0.
         25    2    1    2    0    0 -0.11074554402E+02 -0.40776885341E+02  0.14791738541E+04  0.14850468652E+04  0.12499400355E+03 0.  0.
        -11    1    3    3    0    0 -0.39373083506E+02 -0.21597571353E+02  0.29156515560E+02  0.53542480263E+02  0.00000000000E+00 0.  1.
         12    1    3    3    0    0 -0.37724171316E+02 -0.66159649943E+02  0.22330861405E+03  0.23593844429E+03  0.00000000000E+00 0. -1.
        -13    1    4    4    0    0  0.25860718257E+01 -0.18937782654E+02 -0.77479494551E+00  0.19129236434E+02  0.00000000000E+00 0.  1.
         14    1    4    4    0    0 -0.47031698144E+02  0.33206114674E+02  0.11228274365E+03  0.12618257092E+03  0.00000000000E+00 0. -1.
          5    1    5    5  501    0  0.42170117085E+02 -0.56196259395E+02  0.60066691704E+03  0.60478026883E+03  0.47000000000E+01 0.  1.
         -5    1    5    5    0  501 -0.53244671487E+02  0.15419374054E+02  0.87850693707E+03  0.88026659633E+03  0.47000000000E+01 0.  1.
          1    1    1    2  502    0  0.11484084074E+03  0.11616054086E+03 -0.84469191728E+02  0.18389326879E+03  0.00000000000E+00 0. -1.
          1    1    1    2  503    0  0.17776594802E+02 -0.18947662394E+01  0.21125083354E+04  0.21125839781E+04  0.00000000000E+00 0. -1.
<mgrwt>
<rscale>  0 0.45000649E+02</rscale>
<asrwt>0</asrwt>
<pdfrwt beam="1">  1        2 0.59466927E+00 0.17877289E+02</pdfrwt>
<pdfrwt beam="2">  1        2 0.25377265E-01 0.11327548E+03</pdfrwt>
<totfact> 0.33314522E+01</totfact>
</mgrwt>
</event>
<event>
13    1  0.1942437E-008  0.1085878E+03  0.7546771E-02  0.1486020E+00
          2   -1    0    0  503    0  0.00000000000E+00  0.00000000000E+00  0.16792902453E+04  0.16792902453E+04  0.00000000000E+00 0. -1.
         -3   -1    0    0    0  501 -0.00000000000E+00 -0.00000000000E+00 -0.14995141633E+04  0.14995141633E+04  0.00000000000E+00 0.  1.
         24    2    1    2    0    0  0.20925688900E+03 -0.67395357301E+02  0.56752599219E+02  0.24267507848E+03  0.85672378386E+02 0.  0.
         24    2    1    2    0    0 -0.34642969917E+03  0.51553502896E+02  0.10866069377E+03  0.37545416850E+03  0.80544311690E+02 0.  0.
         25    2    1    2    0    0  0.11796521037E+03  0.13469948118E+03  0.57677064273E+03  0.61672061812E+03  0.12498082019E+03 0.  0.
        -13    1    3    3    0    0  0.78170092216E+02 -0.30499018057E+01  0.56752556676E+02  0.96647389552E+02  0.00000000000E+00 0.  1.
         14    1    3    3    0    0  0.13108679679E+03 -0.64345455495E+02  0.42543011524E-04  0.14602768893E+03  0.00000000000E+00 0. -1.
        -13    1    4    4    0    0 -0.19274484327E+03  0.40055904264E+02  0.20556108788E+02  0.19793333141E+03  0.00000000000E+00 0.  1.
         14    1    4    4    0    0 -0.15368485590E+03  0.11497598632E+02  0.88104584981E+02  0.17752083709E+03  0.00000000000E+00 0. -1.
          5    1    5    5  502    0  0.12197934474E+02 -0.24055428685E+02  0.64847827133E+02  0.70390226158E+02  0.47000000000E+01 0.  1.
         -5    1    5    5    0  502  0.10576727590E+03  0.15875490987E+03  0.51192281559E+03  0.54633039196E+03  0.47000000000E+01 0.  1.
          1    1    1    2  503    0  0.13634779389E+02 -0.10439381281E+02  0.68831492465E+03  0.68852910133E+03  0.00000000000E+00 0. -1.
         -4    1    1    2    0  501  0.55728204055E+01 -0.10841824550E+03 -0.12507227784E+04  0.12554254422E+04  0.00000000000E+00 0.  1.
<mgrwt>
<rscale>  0 0.43182195E+02</rscale>
<asrwt>0</asrwt>
<pdfrwt beam="1">  1        2 0.24695445E+00 0.17172300E+02</pdfrwt>
<pdfrwt beam="2">  1       -3 0.22051679E+00 0.10858778E+03</pdfrwt>
<totfact> 0.11924849E+00</totfact>
</mgrwt>
</event>
<event>
13    1  0.1942437E-008  0.8753503E+02  0.7546771E-02  0.1311955E+00
         -1   -1    0    0    0  501 -0.00000000000E+00  0.00000000000E+00  0.48730846769E+03  0.48730846769E+03  0.00000000000E+00 0.  1.
          2   -1    0    0  503    0  0.00000000000E+00 -0.00000000000E+00 -0.95449833917E+03  0.95449833917E+03  0.00000000000E+00 0. -1.
         24    2    1    2    0    0 -0.38893234546E+02 -0.43975647741E+02  0.50226763319E+02  0.11113590581E+03  0.79886923328E+02 0.  0.
         24    2    1    2    0    0  0.48776451945E+02 -0.52768663035E+02 -0.57861221618E+02  0.12230784012E+03  0.80297028121E+02 0.  0.
         25    2    1    2    0    0 -0.16397480678E+03  0.82888646325E+02 -0.39255382618E+03  0.45108880197E+03  0.12499734344E+03 0.  0.
        -11    1    3    3    0    0 -0.36187474508E+02 -0.64158678109E+02  0.23062722134E+02  0.77186517218E+02  0.00000000000E+00 0.  1.
         12    1    3    3    0    0 -0.27057600383E+01  0.20183030368E+02  0.27164041185E+02  0.33949388591E+02  0.00000000000E+00 0. -1.
        -13    1    4    4    0    0  0.23197211497E+02 -0.71800478553E+02 -0.45506561600E+02  0.88115075273E+02  0.00000000000E+00 0.  1.
         14    1    4    4    0    0  0.25579240448E+02  0.19031815518E+02 -0.12354660018E+02  0.34192764848E+02  0.00000000000E+00 0. -1.
          5    1    5    5  502    0 -0.91350902119E+02 -0.21854703004E+02 -0.18357278918E+03  0.20626117979E+03  0.47000000000E+01 0. -1.
         -5    1    5    5    0  502 -0.72623904658E+02  0.10474334933E+03 -0.20898103699E+03  0.24482762217E+03  0.47000000000E+01 0. -1.
          1    1    1    2  503    0  0.61451705464E+02 -0.62338344170E+02 -0.39679986486E+03  0.40634039180E+03  0.00000000000E+00 0. -1.
         -2    1    1    2    0  501  0.92639883914E+02  0.76194008621E+02  0.32979827786E+03  0.35093386716E+03  0.00000000000E+00 0.  1.
<mgrwt>
<rscale>  0 0.86343986E+02</rscale>
<asrwt>0</asrwt>
<pdfrwt beam="2">  1        2 0.14036740E+00 0.87535029E+02</pdfrwt>
<pdfrwt beam="1">  1       -1 0.71663011E-01 0.85169148E+02</pdfrwt>
<totfact> 0.76200821E+01</totfact>
</mgrwt>
</event>
<event>
13    1  0.1942437E-008  0.2513695E+02  0.7546771E-02  0.1691175E+00
          2   -1    0    0  502    0  0.00000000000E+00  0.00000000000E+00  0.40449079204E+03  0.40449079204E+03  0.00000000000E+00 0. -1.
          2   -1    0    0  503    0 -0.00000000000E+00 -0.00000000000E+00 -0.29161923501E+04  0.29161923501E+04  0.00000000000E+00 0. -1.
         24    2    1    2    0    0  0.27655486333E+03  0.51469459987E+02 -0.14211859488E+04  0.14510095648E+04  0.80793306678E+02 0.  0.
         24    2    1    2    0    0 -0.58144246230E+02  0.44459159614E+02 -0.11999670794E+03  0.16221526899E+03  0.80976622147E+02 0.  0.
         25    2    1    2    0    0 -0.17651881383E+03 -0.10789010485E+03  0.11902834059E+03  0.26942522028E+03  0.12499214814E+03 0.  0.
        -13    1    3    3    0    0  0.52302574001E+02 -0.55294740867E+01 -0.15040763942E+03  0.15933798143E+03  0.00000000000E+00 0.  1.
         14    1    3    3    0    0  0.22425228933E+03  0.56998934074E+02 -0.12707783094E+04  0.12916715834E+04  0.00000000000E+00 0. -1.
        -13    1    4    4    0    0 -0.39042006253E+02  0.63888989448E+02 -0.11026274431E+03  0.13328148411E+03  0.00000000000E+00 0.  1.
         14    1    4    4    0    0 -0.19102239977E+02 -0.19429829834E+02 -0.97339636352E+01  0.28933784881E+02  0.00000000000E+00 0. -1.
          5    1    5    5  501    0 -0.55329739371E+02  0.19173277568E+02  0.60372984518E+02  0.84237651268E+02  0.47000000000E+01 0. -1.
         -5    1    5    5    0  501 -0.12118907445E+03 -0.12706338242E+03  0.58655356076E+02  0.18518756901E+03  0.47000000000E+01 0. -1.
          1    1    1    2  502    0 -0.20988945600E+02 -0.19845116602E+01  0.17347977425E+03  0.17475613351E+03  0.00000000000E+00 0. -1.
          1    1    1    2  503    0 -0.20902857673E+02  0.13945996909E+02 -0.12630270162E+04  0.12632769545E+04  0.00000000000E+00 0. -1.
<mgrwt>
<rscale>  0 0.23020669E+02</rscale>
<asrwt>0</asrwt>
<pdfrwt beam="1">  1        2 0.59483937E-01 0.21082555E+02</pdfrwt>
<pdfrwt beam="2">  1        2 0.42885184E+00 0.25136953E+02</pdfrwt>
<totfact> 0.51936345E+01</totfact>
</mgrwt>
</event>
<event>
13    1  0.1942437E-008  0.1428426E+03  0.7546771E-02  0.1353282E+00
          2   -1    0    0  502    0  0.00000000000E+00  0.00000000000E+00  0.18035142070E+04  0.18035142070E+04  0.00000000000E+00 0. -1.
          2   -1    0    0  503    0 -0.00000000000E+00 -0.00000000000E+00 -0.75487076137E+03  0.75487076137E+03  0.00000000000E+00 0. -1.
         24    2    1    2    0    0 -0.51330882654E+01 -0.14303253001E+03  0.19391625756E+02  0.16538577051E+03  0.80571488147E+02 0.  0.
         24    2    1    2    0    0 -0.16281050019E+02  0.62053773528E+02  0.24986025324E+03  0.27056767608E+03  0.81614813551E+02 0.  0.
         25    2    1    2    0    0  0.14952761340E+03 -0.42212737621E+01  0.86927452887E+03  0.89086526279E+03  0.12500553416E+03 0.  0.
        -13    1    4    4    0    0 -0.49751582116E+02  0.37249354772E+02  0.14992258504E+03  0.16229453429E+03  0.00000000000E+00 0.  1.
         14    1    4    4    0    0  0.33470532096E+02  0.24804418756E+02  0.99937668193E+02  0.10827314179E+03  0.00000000000E+00 0. -1.
        -13    1    3    3    0    0 -0.30141853509E+02 -0.14834757926E+02  0.25730724902E+01  0.33693056817E+02  0.00000000000E+00 0.  1.
         14    1    3    3    0    0  0.25008765243E+02 -0.12819777208E+03  0.16818553266E+02  0.13169271369E+03  0.00000000000E+00 0. -1.
          5    1    5    5  501    0  0.61669300823E+02  0.12202362215E+02  0.11369028911E+03  0.12999835440E+03  0.47000000000E+01 0. -1.
         -5    1    5    5    0  501  0.87858312580E+02 -0.16423635977E+02  0.75558423976E+03  0.76086690839E+03  0.47000000000E+01 0. -1.
          1    1    1    2  502    0 -0.11108246783E+02 -0.34594766483E+02  0.55963309373E+03  0.56081136812E+03  0.00000000000E+00 0. -1.
          1    1    1    2  503    0 -0.11700522834E+03  0.11979479673E+03 -0.64951605592E+03  0.67075489091E+03  0.00000000000E+00 0. -1.
<mgrwt>
<rscale>  0 0.72042386E+02</rscale>
<asrwt>0</asrwt>
<pdfrwt beam="1">  1        2 0.26522268E+00 0.36334433E+02</pdfrwt>
<pdfrwt beam="2">  1        2 0.11101041E+00 0.14284261E+03</pdfrwt>
<totfact> 0.80906652E+01</totfact>
</mgrwt>
</event>
<event>
13    1  0.1942437E-008  0.1521776E+03  0.7546771E-02  0.1293476E+00
          2   -1    0    0  502    0  0.00000000000E+00  0.00000000000E+00  0.97482589281E+03  0.97482589281E+03  0.00000000000E+00 0. -1.
          2   -1    0    0  503    0 -0.00000000000E+00 -0.00000000000E+00 -0.16846560808E+04  0.16846560808E+04  0.00000000000E+00 0. -1.
         24    2    1    2    0    0 -0.12310328732E+03 -0.30246757871E+02 -0.29268001845E+02  0.15272929197E+03  0.80002093614E+02 0.  0.
         24    2    1    2    0    0  0.92461721136E+02 -0.21261795009E+02 -0.18218508026E+02  0.12571202797E+03  0.80438586138E+02 0.  0.
         25    2    1    2    0    0 -0.12334984362E+03  0.38904293944E+02  0.38409022746E+03  0.42410970454E+03  0.12496003620E+03 0.  0.
        -13    1    4    4    0    0  0.82450551709E+02 -0.99758854865E+01 -0.45380649361E+02  0.94641508361E+02  0.00000000000E+00 0.  1.
         14    1    4    4    0    0  0.10011169427E+02 -0.11285909522E+02  0.27162141335E+02  0.31070519612E+02  0.00000000000E+00 0. -1.
        -13    1    3    3    0    0 -0.75301995692E+01 -0.11468966012E+02 -0.32835153142E+02  0.35586350878E+02  0.00000000000E+00 0.  1.
         14    1    3    3    0    0 -0.11557308775E+03 -0.18777791859E+02  0.35671512966E+01  0.11714294109E+03  0.00000000000E+00 0. -1.
          5    1    5    5  501    0 -0.17791921000E+02  0.67561940305E+02  0.13726489818E+03  0.15409383668E+03  0.47000000000E+01 0.  1.
         -5    1    5    5    0  501 -0.10555792262E+03 -0.28657646361E+02  0.24682532928E+03  0.27001586786E+03  0.47000000000E+01 0.  1.
          1    1    1    2  502    0  0.16024620846E+02 -0.55791167482E+02  0.44942937099E+03  0.45316244587E+03  0.00000000000E+00 0. -1.
          1    1    1    2  503    0  0.13796678895E+03  0.68395426417E+02 -0.14958632765E+04  0.15037685032E+04  0.00000000000E+00 0. -1.
<mgrwt>
<rscale>  0 0.93986358E+02</rscale>
<asrwt>0</asrwt>
<pdfrwt beam="1">  1        2 0.14335675E+00 0.58046902E+02</pdfrwt>
<pdfrwt beam="2">  1        2 0.24774354E+00 0.15217755E+03</pdfrwt>
<totfact> 0.60882484E+01</totfact>
</mgrwt>
</event>
<event>
13    1  0.1942437E-008  0.2152043E+03  0.7546771E-02  0.1325333E+00
          2   -1    0    0  502    0  0.00000000000E+00  0.00000000000E+00  0.15487814124E+04  0.15487814124E+04  0.00000000000E+00 0. -1.
          2   -1    0    0  503    0 -0.00000000000E+00 -0.00000000000E+00 -0.60393905664E+03  0.60393905664E+03  0.00000000000E+00 0. -1.
         24    2    1    2    0    0  0.64328722253E+02 -0.10590132957E+03  0.12568082790E+03  0.19349166830E+03  0.79310018840E+02 0.  0.
         24    2    1    2    0    0 -0.23712865126E+02 -0.79740450687E+01  0.32306122680E+02  0.89243273256E+02  0.79339718248E+02 0.  0.
         25    2    1    2    0    0 -0.48977880464E+01 -0.10518463223E+03  0.58692073903E+03  0.60926095911E+03  0.12504066223E+03 0.  0.
        -11    1    4    4    0    0  0.41581003737E+01 -0.40086333165E+02  0.19919166327E+02  0.44955278806E+02  0.00000000000E+00 0.  1.
         12    1    4    4    0    0 -0.27870965500E+02  0.32112288097E+02  0.12386956353E+02  0.44287994450E+02  0.00000000000E+00 0. -1.
        -11    1    3    3    0    0  0.79683048890E+02 -0.93585382395E+02  0.88623958782E+02  0.15153157476E+03  0.00000000000E+00 0.  1.
         12    1    3    3    0    0 -0.15354326637E+02 -0.12315947177E+02  0.37056869118E+02  0.41960093544E+02  0.00000000000E+00 0. -1.
          5    1    5    5  501    0 -0.14802969307E+01 -0.13372086731E+03  0.46181127897E+03  0.48080683129E+03  0.47000000000E+01 0.  1.
         -5    1    5    5    0  501 -0.34174911157E+01  0.28536235079E+02  0.12510946006E+03  0.12845412782E+03  0.47000000000E+01 0.  1.
          1    1    1    2  502    0 -0.30731283821E+02 -0.26842112836E+00  0.70729581401E+03  0.70796317162E+03  0.00000000000E+00 0. -1.
          1    1    1    2  503    0 -0.49867852596E+01  0.21932842800E+03 -0.50736114787E+03  0.55276139674E+03  0.00000000000E+00 0. -1.
<mgrwt>
<rscale>  0 0.81325008E+02</rscale>
<asrwt>0</asrwt>
<pdfrwt beam="1">  1        2 0.22776197E+00 0.30732456E+02</pdfrwt>
<pdfrwt beam="2">  1        2 0.88814567E-01 0.21520431E+03</pdfrwt>
<totfact> 0.13825339E+02</totfact>
</mgrwt>
</event>
<event>
13    1  0.1942437E-008  0.9678619E+02  0.7546771E-02  0.1376616E+00
          2   -1    0    0  502    0  0.00000000000E+00  0.00000000000E+00  0.42303857360E+04  0.42303857360E+04  0.00000000000E+00 0. -1.
          2   -1    0    0  503    0 -0.00000000000E+00 -0.00000000000E+00 -0.84111188577E+03  0.84111188577E+03  0.00000000000E+00 0. -1.
         24    2    1    2    0    0 -0.10965693861E+03 -0.21505509038E+02 -0.26638099368E+03  0.30031554315E+03  0.82118576201E+02 0.  0.
         24    2    1    2    0    0  0.57029446901E+02  0.29701803986E+01 -0.14286703819E+02  0.98023912570E+02  0.78379829956E+02 0.  0.
         25    2    1    2    0    0  0.14476352247E+03 -0.64115898022E+02  0.18243281746E+03  0.27198468111E+03  0.12500643206E+03 0.  0.
        -11    1    3    3    0    0 -0.60541084155E+02  0.27602626544E+02 -0.10105465505E+03  0.12099244262E+03  0.00000000000E+00 0.  1.
         12    1    3    3    0    0 -0.49115854452E+02 -0.49108135582E+02 -0.16532633863E+03  0.17932310053E+03  0.00000000000E+00 0. -1.
        -11    1    4    4    0    0  0.49347866162E+01  0.34950795699E+02 -0.10284376862E+02  0.36765182529E+02  0.00000000000E+00 0.  1.
         12    1    4    4    0    0  0.52094660285E+02 -0.31980615300E+02 -0.40023269578E+01  0.61258730041E+02  0.00000000000E+00 0. -1.
          5    1    5    5  501    0  0.71867041093E+02 -0.85652729638E+02  0.15470567341E+03  0.19093767851E+03  0.47000000000E+01 0. -1.
         -5    1    5    5    0  501  0.72896481375E+02  0.21536831615E+02  0.27727144048E+02  0.81047002597E+02  0.47000000000E+01 0. -1.
          1    1    1    2  502    0 -0.38192772914E+01  0.43974643110E+02  0.39391290245E+04  0.39393763247E+04  0.00000000000E+00 0. -1.
          1    1    1    2  503    0 -0.88316753472E+02  0.38676583551E+02 -0.45162029422E+03  0.46179716024E+03  0.00000000000E+00 0. -1.
<mgrwt>
<rscale>  0 0.65361766E+02</rscale>
<asrwt>0</asrwt>
<pdfrwt beam="1">  1        2 0.62211554E+00 0.44140187E+02</pdfrwt>
<pdfrwt beam="2">  1        2 0.12369293E+00 0.96786187E+02</pdfrwt>
<totfact> 0.35297936E+00</totfact>
</mgrwt>
</event>
<event>
13    1  0.1942437E-008  0.9674083E+02  0.7546771E-02  0.1321947E+00
          2   -1    0    0  503    0  0.00000000000E+00  0.00000000000E+00  0.42177926070E+03  0.42177926070E+03  0.00000000000E+00 0. -1.
          2   -1    0    0  502    0 -0.00000000000E+00 -0.00000000000E+00 -0.17547376719E+04  0.17547376719E+04  0.00000000000E+00 0. -1.
         24    2    1    2    0    0 -0.73040534091E+01 -0.25937113660E+01 -0.62610974040E+03  0.63210309000E+03  0.86491807895E+02 0.  0.
         24    2    1    2    0    0 -0.14162630526E+02 -0.40944627134E+02 -0.10270173994E+03  0.13774350264E+03  0.80923312689E+02 0.  0.
         25    2    1    2    0    0  0.27881083842E+01 -0.17968062667E+02  0.97041592414E+01  0.12668331109E+03  0.12499546303E+03 0.  0.
        -11    1    3    3    0    0  0.19291908192E+02 -0.31095899796E+02 -0.46114667662E+03  0.46259635760E+03  0.00000000000E+00 0.  1.
         12    1    3    3    0    0 -0.26595961601E+02  0.28502188430E+02 -0.16496306377E+03  0.16950673240E+03  0.00000000000E+00 0. -1.
        -13    1    4    4    0    0 -0.13413988716E+02  0.23235779452E+02 -0.38796604519E+02  0.47170044120E+02  0.00000000000E+00 0.  1.
         14    1    4    4    0    0 -0.74864180976E+00 -0.64180406586E+02 -0.63905135424E+02  0.90573458517E+02  0.00000000000E+00 0. -1.
          5    1    5    5  501    0  0.12871456770E+02  0.52228657517E+02  0.12982081608E+02  0.55534957534E+02  0.47000000000E+01 0. -1.
         -5    1    5    5    0  501 -0.10083348386E+02 -0.70196720184E+02 -0.32779223667E+01  0.71148353560E+02  0.47000000000E+01 0. -1.
          1    1    1    2  502    0  0.84128224054E+02  0.87582632611E+02 -0.93923980790E+03  0.94705844189E+03  0.00000000000E+00 0. -1.
          1    1    1    2  503    0 -0.65449648503E+02 -0.26076231443E+02  0.32538871781E+03  0.33292858696E+03  0.00000000000E+00 0. -1.
<mgrwt>
<rscale>  0 0.82557149E+02</rscale>
<asrwt>0</asrwt>
<pdfrwt beam="1">  1        2 0.62026363E-01 0.70453008E+02</pdfrwt>
<pdfrwt beam="2">  1        2 0.25804965E+00 0.96740835E+02</pdfrwt>
<totfact> 0.14940738E+02</totfact>
</mgrwt>
</event>
<event>
13    1  0.1942437E-008  0.8565040E+02  0.7546771E-02  0.1325857E+00
          2   -1    0    0  503    0  0.00000000000E+00  0.00000000000E+00  0.11428953396E+04  0.11428953396E+04  0.00000000000E+00 0. -1.
         -1   -1    0    0    0  501 -0.00000000000E+00 -0.00000000000E+00 -0.67506219507E+03  0.67506219507E+03  0.00000000000E+00 0.  1.
         24    2    1    2    0    0  0.11528277542E+03  0.88347666084E+01 -0.13098617113E+03  0.19197657585E+03  0.79557886088E+02 0.  0.
         24    2    1    2    0    0  0.21362923908E+02  0.56352318912E+02 -0.13030072036E+03  0.16584775268E+03  0.83037587751E+02 0.  0.
         25    2    1    2    0    0 -0.12978843068E+03 -0.76885055017E+02  0.37175526366E+03  0.42021862272E+03  0.12500146557E+03 0.  0.
        -11    1    4    4    0    0  0.44767762188E+02  0.45891343506E+02 -0.49263274018E+02  0.80851951783E+02  0.00000000000E+00 0.  1.
         12    1    4    4    0    0 -0.23404838281E+02  0.10460975406E+02 -0.81037446339E+02  0.84995800899E+02  0.00000000000E+00 0. -1.
        -13    1    3    3    0    0  0.59119833213E+02 -0.15244837817E+02 -0.18214308828E+02  0.63712799383E+02  0.00000000000E+00 0.  1.
         14    1    3    3    0    0  0.56162942209E+02  0.24079604426E+02 -0.11277186231E+03  0.12826377647E+03  0.00000000000E+00 0. -1.
          5    1    5    5  502    0  0.13369030492E+02 -0.39480030086E+02  0.13138871912E+03  0.13792204053E+03  0.47000000000E+01 0. -1.
         -5    1    5    5    0  502 -0.14315746118E+03 -0.37405024931E+02  0.24036654453E+03  0.28229658218E+03  0.47000000000E+01 0. -1.
          1    1    1    2  503    0 -0.22723461600E+02 -0.73424428489E+02  0.69098206780E+03  0.69524364106E+03  0.00000000000E+00 0. -1.
         -2    1    1    2    0  501  0.15866192955E+02  0.85122397986E+02 -0.33361729542E+03  0.34467094238E+03  0.00000000000E+00 0.  1.
<mgrwt>
<rscale>  0 0.81136391E+02</rscale>
<asrwt>0</asrwt>
<pdfrwt beam="1">  1        2 0.16807284E+00 0.76860278E+02</pdfrwt>
<pdfrwt beam="2">  1       -1 0.99273852E-01 0.85650404E+02</pdfrwt>
<totfact> 0.30790386E+01</totfact>
</mgrwt>
</event>
<event>
13    1  0.1942437E-008  0.1059291E+03  0.7546771E-02  0.1385762E+00
          2   -1    0    0  502    0  0.00000000000E+00  0.00000000000E+00  0.19526283496E+04  0.19526283496E+04  0.00000000000E+00 0. -1.
          2   -1    0    0  503    0 -0.00000000000E+00 -0.00000000000E+00 -0.23537790983E+04  0.23537790983E+04  0.00000000000E+00 0. -1.
         24    2    1    2    0    0  0.38648056037E+02  0.56546123529E-01 -0.10097445949E+03  0.13407920772E+03  0.79295126210E+02 0.  0.
         24    2    1    2    0    0 -0.24948590297E+02 -0.55248410764E+01  0.24119607480E+02  0.86779512082E+02  0.79347162681E+02 0.  0.
         25    2    1    2    0    0 -0.47059240468E+02  0.12775026313E+03  0.41997747777E+03  0.45884688195E+03  0.12499870955E+03 0.  0.
        -13    1    3    3    0    0  0.57162787750E+02  0.67276804195E+01 -0.98715799539E+02  0.11427009699E+03  0.00000000000E+00 0.  1.
         14    1    3    3    0    0 -0.18514731713E+02 -0.66711342960E+01 -0.22586599516E+01  0.19809110732E+02  0.00000000000E+00 0. -1.
        -13    1    4    4    0    0 -0.23115115629E+02  0.33723913950E+02  0.24155608674E+02  0.47487939238E+02  0.00000000000E+00 0.  1.
         14    1    4    4    0    0 -0.18334746675E+01 -0.39248755026E+02 -0.36001194341E-01  0.39291572844E+02  0.00000000000E+00 0. -1.
          5    1    5    5  501    0  0.17605385764E+02 -0.84915967729E+01  0.13407229425E+03  0.13557111384E+03  0.47000000000E+01 0. -1.
         -5    1    5    5    0  501 -0.64664626231E+02  0.13624185990E+03  0.28590518353E+03  0.32327576810E+03  0.47000000000E+01 0. -1.
          1    1    1    2  502    0  0.51428533778E+02 -0.89494512880E+02  0.14392054532E+04  0.14429021098E+04  0.00000000000E+00 0. -1.
          1    1    1    2  503    0 -0.18068759050E+02 -0.32787455295E+02 -0.21834788277E+04  0.21837997363E+04  0.00000000000E+00 0. -1.
<mgrwt>
<rscale>  0 0.62973192E+02</rscale>
<asrwt>0</asrwt>
<pdfrwt beam="1">  1        2 0.28715123E+00 0.10592910E+03</pdfrwt>
<pdfrwt beam="2">  1        2 0.34614398E+00 0.37436577E+02</pdfrwt>
<totfact> 0.10484622E+01</totfact>
</mgrwt>
</event>
<event>
13    1  0.1942437E-008  0.1043533E+03  0.7546771E-02  0.1296613E+00
          2   -1    0    0  503    0  0.00000000000E+00  0.00000000000E+00  0.29445832126E+03  0.29445832126E+03  0.00000000000E+00 0. -1.
          2   -1    0    0  502    0 -0.00000000000E+00 -0.00000000000E+00 -0.27846629438E+04  0.27846629438E+04  0.00000000000E+00 0. -1.
         24    2    1    2    0    0 -0.38301880216E+01 -0.23719146765E+02 -0.39210466605E+03  0.40067624035E+03  0.78855007333E+02 0.  0.
         24    2    1    2    0    0 -0.10930016686E+02 -0.29793503282E+02 -0.26172987237E+03  0.27534871094E+03  0.79418312906E+02 0.  0.
         25    2    1    2    0    0 -0.76215136685E+02 -0.12329543451E+03 -0.19415095044E+03  0.27264283134E+03  0.12501604174E+03 0.  0.
        -11    1    3    3    0    0 -0.28370185516E+02 -0.26125721976E+02 -0.34813362952E+03  0.35026339343E+03  0.00000000000E+00 0.  1.
         12    1    3    3    0    0  0.24539997495E+02  0.24065752110E+01 -0.43971036533E+02  0.50412846925E+02  0.00000000000E+00 0. -1.
        -11    1    4    4    0    0  0.20687141276E+01  0.26446257346E+02 -0.10589258069E+03  0.10916465889E+03  0.00000000000E+00 0.  1.
         12    1    4    4    0    0 -0.12998730814E+02 -0.56239760628E+02 -0.15583729168E+03  0.16618405206E+03  0.00000000000E+00 0. -1.
          5    1    5    5  501    0 -0.32407567926E+02  0.16748823761E+02 -0.75116053560E+02  0.83637820743E+02  0.47000000000E+01 0.  1.
         -5    1    5    5    0  501 -0.43807568758E+02 -0.14004425827E+03 -0.11903489688E+03  0.18900501059E+03  0.47000000000E+01 0.  1.
          1    1    1    2  502    0  0.26317266834E+02  0.97245207939E+02 -0.18741592470E+04  0.18768649691E+04  0.00000000000E+00 0. -1.
          1    1    1    2  503    0  0.64658074559E+02  0.79562876615E+02  0.23194011332E+03  0.25358851336E+03  0.00000000000E+00 0. -1.
<mgrwt>
<rscale>  0 0.92626422E+02</rscale>
<asrwt>0</asrwt>
<pdfrwt beam="1">  1        2 0.43302693E-01 0.10435328E+03</pdfrwt>
<pdfrwt beam="2">  1        2 0.40950927E+00 0.82217388E+02</pdfrwt>
<totfact> 0.69667070E+01</totfact>
</mgrwt>
</event>
<event>
13    1  0.1942437E-008  0.1183237E+03  0.7546771E-02  0.1400325E+00
          2   -1    0    0  502    0  0.00000000000E+00  0.00000000000E+00  0.70673804612E+03  0.70673804612E+03  0.00000000000E+00 0. -1.
          2   -1    0    0  503    0 -0.00000000000E+00 -0.00000000000E+00 -0.25391807791E+04  0.25391807791E+04  0.00000000000E+00 0. -1.
         24    2    1    2    0    0  0.21505550122E+02 -0.16772863667E+02 -0.72852107063E+02  0.10898760952E+03  0.76335128763E+02 0.  0.
         24    2    1    2    0    0 -0.16127434942E+02 -0.34252922001E+02  0.10187072680E+02  0.89968658085E+02  0.80976701368E+02 0.  0.
         25    2    1    2    0    0  0.63563665033E+01 -0.68400040333E+02  0.17324111817E+03  0.22439955039E+03  0.12499481699E+03 0.  0.
        -11    1    4    4    0    0 -0.46053428575E+02 -0.35286762329E+01  0.90318503475E+01  0.47063193263E+02  0.00000000000E+00 0.  1.
         12    1    4    4    0    0  0.29925993633E+02 -0.30724245768E+02  0.11552223329E+01  0.42905464822E+02  0.00000000000E+00 0. -1.
        -13    1    3    3    0    0 -0.12707002655E+02 -0.34590056502E+02 -0.55666508818E+02  0.66758521024E+02  0.00000000000E+00 0.  1.
         14    1    3    3    0    0  0.34212552776E+02  0.17817192835E+02 -0.17185598245E+02  0.42229088494E+02  0.00000000000E+00 0. -1.
          5    1    5    5  501    0  0.41185155764E+02 -0.91502390434E+02  0.12618564551E+03  0.16128797737E+03  0.47000000000E+01 0. -1.
         -5    1    5    5    0  501 -0.34828789260E+02  0.23102350101E+02  0.47055472660E+02  0.63111573018E+02  0.47000000000E+01 0. -1.
          1    1    1    2  502    0 -0.36836386788E+02  0.13554071703E+03  0.42846088812E+03  0.45089570636E+03  0.00000000000E+00 0. -1.
          1    1    1    2  503    0  0.25101905105E+02 -0.16114891031E+02 -0.23714797049E+04  0.23716673009E+04  0.00000000000E+00 0. -1.
<mgrwt>
<rscale>  0 0.59409835E+02</rscale>
<asrwt>0</asrwt>
<pdfrwt beam="1">  1        2 0.10393207E+00 0.11832367E+03</pdfrwt>
<pdfrwt beam="2">  1        2 0.37340893E+00 0.29829438E+02</pdfrwt>
<totfact> 0.41455079E+01</totfact>
</mgrwt>
</event>
<event>
13    1  0.1942437E-008  0.1082620E+03  0.7546771E-02  0.1433517E+00
          2   -1    0    0  503    0  0.00000000000E+00  0.00000000000E+00  0.20395368254E+04  0.20395368254E+04  0.00000000000E+00 0. -1.
         -3   -1    0    0    0  501 -0.00000000000E+00 -0.00000000000E+00 -0.49987259892E+03  0.49987259892E+03  0.00000000000E+00 0.  1.
         24    2    1    2    0    0  0.24755724974E+01  0.46527233642E+01  0.46458931699E+01  0.84757138799E+02  0.84465448322E+02 0.  0.
         24    2    1    2    0    0  0.51101329652E+02 -0.15511488635E+02  0.27606830464E+03  0.29236011346E+03  0.80054824605E+02 0.  0.
         25    2    1    2    0    0 -0.16713685205E+03 -0.10067790761E+02  0.91272930286E+03  0.93634317687E+03  0.12501070693E+03 0.  0.
        -11    1    3    3    0    0  0.64439103771E+01 -0.34978495428E+02  0.21442715755E+02  0.41530822076E+02  0.00000000000E+00 0.  1.
         12    1    3    3    0    0 -0.39683378797E+01  0.39631218792E+02 -0.16796822585E+02  0.43226316723E+02  0.00000000000E+00 0. -1.
        -13    1    4    4    0    0 -0.12665302681E+02 -0.28216379252E+02  0.78781007613E+02  0.84634633045E+02  0.00000000000E+00 0.  1.
         14    1    4    4    0    0  0.63766632333E+02  0.12704890617E+02  0.19728729703E+03  0.20772548042E+03  0.00000000000E+00 0. -1.
          5    1    5    5  502    0 -0.51437855791E+02 -0.26874125814E+02  0.10396826909E+03  0.11916191768E+03  0.47000000000E+01 0. -1.
         -5    1    5    5    0  502 -0.11569899626E+03  0.16806335053E+02  0.80876103377E+03  0.81718125920E+03  0.47000000000E+01 0. -1.
          1    1    1    2  503    0 -0.20460564540E+02  0.14757579480E+02  0.77564483802E+03  0.77605498233E+03  0.00000000000E+00 0. -1.
         -4    1    1    2    0  501  0.13402051444E+03  0.61689765518E+01 -0.42942411226E+03  0.44989401280E+03  0.00000000000E+00 0.  1.
<mgrwt>
<rscale>  0 0.52260566E+02</rscale>
<asrwt>0</asrwt>
<pdfrwt beam="1">  1        2 0.29993188E+00 0.25227383E+02</pdfrwt>
<pdfrwt beam="2">  1       -3 0.73510677E-01 0.10826199E+03</pdfrwt>
<totfact> 0.11194321E+01</totfact>
</mgrwt>
</event>
<event>
13    1  0.1942437E-008  0.1496365E+03  0.7546771E-02  0.1202194E+00
          2   -1    0    0  503    0  0.00000000000E+00  0.00000000000E+00  0.36632922466E+04  0.36632922466E+04  0.00000000000E+00 0. -1.
         -3   -1    0    0    0  501 -0.00000000000E+00 -0.00000000000E+00 -0.81420444382E+03  0.81420444382E+03  0.00000000000E+00 0.  1.
         24    2    1    2    0    0  0.74201103041E+02  0.67014136473E+02 -0.15171276824E+03  0.19908782051E+03  0.81378732159E+02 0.  0.
         24    2    1    2    0    0 -0.18280167591E+02  0.10341255941E+03  0.68601968489E+02  0.15200863385E+03  0.85860775170E+02 0.  0.
         25    2    1    2    0    0 -0.52162885553E+02  0.21442650394E+03  0.38356816335E+03  0.45983715831E+03  0.12500393597E+03 0.  0.
        -11    1    3    3    0    0  0.49770791624E+02  0.90818713235E+01 -0.11653402538E+03  0.12704247777E+03  0.00000000000E+00 0.  1.
         12    1    3    3    0    0  0.24430311417E+02  0.57932265150E+02 -0.35178742854E+02  0.72045342738E+02  0.00000000000E+00 0. -1.
        -13    1    4    4    0    0  0.23930267901E+02  0.16991880717E+02  0.43730988368E+02  0.52666697977E+02  0.00000000000E+00 0.  1.
         14    1    4    4    0    0 -0.42210435493E+02  0.86420678696E+02  0.24870980121E+02  0.99341935873E+02  0.00000000000E+00 0. -1.
          5    1    5    5  502    0 -0.17043425264E+02  0.11358072149E+03  0.30850461805E+03  0.32922370509E+03  0.47000000000E+01 0.  1.
         -5    1    5    5    0  502 -0.35119460288E+02  0.10084578244E+03  0.75063545307E+02  0.13061345322E+03  0.47000000000E+01 0.  1.
          1    1    1    2  503    0 -0.78775317061E+02 -0.22308720654E+03  0.30887360884E+04  0.30977837362E+04  0.00000000000E+00 0. -1.
         -4    1    1    2    0  501  0.75017267164E+02 -0.16176599328E+03 -0.54010564928E+03  0.56877934152E+03  0.00000000000E+00 0.  1.
<mgrwt>
<rscale>  0 0.14860780E+03</rscale>
<asrwt>0</asrwt>
<pdfrwt beam="1">  1        2 0.53871944E+00 0.14758617E+03</pdfrwt>
<pdfrwt beam="2">  1       -3 0.11973595E+00 0.14963650E+03</pdfrwt>
<totfact> 0.41459135E-01</totfact>
</mgrwt>
</event>
<event>
13    1  0.1942437E-008  0.9460769E+02  0.7546771E-02  0.1394415E+00
          4   -1    0    0  503    0 -0.00000000000E+00  0.00000000000E+00  0.59300723534E+03  0.59300723534E+03  0.00000000000E+00 0. -1.
          2   -1    0    0  502    0  0.00000000000E+00 -0.00000000000E+00 -0.16427841393E+04  0.16427841393E+04  0.00000000000E+00 0. -1.
         24    2    1    2    0    0 -0.14376684722E+02 -0.30509250114E+02  0.53172709100E+02  0.10204408745E+03  0.80300407127E+02 0.  0.
         24    2    1    2    0    0  0.84869464626E+02 -0.60986336698E+02  0.40639079476E+02  0.13789622520E+03  0.80260045186E+02 0.  0.
         25    2    1    2    0    0 -0.12773457913E+03  0.15002016674E+03 -0.11858881991E+04  0.12086264595E+04  0.12499969867E+03 0.  0.
        -11    1    3    3    0    0  0.42591155099E+01 -0.32440237501E+02  0.69740347113E+02  0.77033921681E+02  0.00000000000E+00 0.  1.
         12    1    3    3    0    0 -0.18635800232E+02  0.19309873876E+01 -0.16567638013E+02  0.25010165771E+02  0.00000000000E+00 0. -1.
        -13    1    4    4    0    0  0.35156870606E+01 -0.17884568743E+02 -0.20459438252E+02  0.27400847947E+02  0.00000000000E+00 0.  1.
         14    1    4    4    0    0  0.81353777566E+02 -0.43101767955E+02  0.61098517729E+02  0.11049537725E+03  0.00000000000E+00 0. -1.
          5    1    5    5  501    0 -0.21671037598E+02  0.12121130164E+03 -0.60806023717E+03  0.62042014437E+03  0.47000000000E+01 0. -1.
         -5    1    5    5    0  501 -0.10606354153E+03  0.28808865105E+02 -0.57782796197E+03  0.58820631515E+03  0.47000000000E+01 0. -1.
          1    1    1    2  502    0 -0.34402718682E+02 -0.18584429047E+02 -0.36538032095E+03  0.36746660663E+03  0.00000000000E+00 0. -1.
          3    1    1    2  503    0  0.91644517903E+02 -0.39940150883E+02  0.40767982752E+03  0.41975799586E+03  0.00000000000E+00 0. -1.
<mgrwt>
<rscale>  0 0.60821899E+02</rscale>
<asrwt>0</asrwt>
<pdfrwt beam="2">  1        2 0.24158590E+00 0.39101510E+02</pdfrwt>
<pdfrwt beam="1">  1        4 0.87206948E-01 0.94607689E+02</pdfrwt>
<totfact> 0.88480707E+00</totfact>
</mgrwt>
</event>
<event>
13    1  0.1942437E-008  0.4930332E+02  0.7546771E-02  0.1480109E+00
          2   -1    0    0  503    0  0.00000000000E+00  0.00000000000E+00  0.99826935730E+03  0.99826935730E+03  0.00000000000E+00 0. -1.
          2   -1    0    0  502    0 -0.00000000000E+00 -0.00000000000E+00 -0.26457613881E+04  0.26457613881E+04  0.00000000000E+00 0. -1.
         24    2    1    2    0    0  0.68811414641E+01  0.48952602405E+02 -0.46595616951E+03  0.47563552279E+03  0.81671850996E+02 0.  0.
         24    2    1    2    0    0 -0.68853324485E+02  0.30548162318E+02 -0.15891599234E+03  0.19331859985E+03  0.80273394806E+02 0.  0.
         25    2    1    2    0    0  0.34578758278E+02 -0.58717673213E+02 -0.12012409514E+03  0.18627475229E+03  0.12500011775E+03 0.  0.
        -13    1    4    4    0    0  0.13711670957E+02  0.17577618293E+02 -0.14919925986E+02  0.26825114664E+02  0.00000000000E+00 0.  1.
         14    1    4    4    0    0 -0.82564995442E+02  0.12970544025E+02 -0.14399606635E+03  0.16649348519E+03  0.00000000000E+00 0. -1.
        -13    1    3    3    0    0  0.22410184780E+02  0.67498075900E+02 -0.33542634763E+03  0.34288342234E+03  0.00000000000E+00 0.  1.
         14    1    3    3    0    0 -0.15529043316E+02 -0.18545473495E+02 -0.13052982188E+03  0.13275210045E+03  0.00000000000E+00 0. -1.
          5    1    5    5  501    0  0.56819659140E+02 -0.84595723131E+02 -0.11075713820E+03  0.15057936014E+03  0.47000000000E+01 0. -1.
         -5    1    5    5    0  501 -0.22240900862E+02  0.25878049918E+02 -0.93669569374E+01  0.35695392153E+02  0.47000000000E+01 0. -1.
          1    1    1    2  502    0  0.47737966065E+02  0.12988940758E+02 -0.18449050275E+04  0.18455682557E+04  0.00000000000E+00 0. -1.
          1    1    1    2  503    0 -0.20344541321E+02 -0.33772032268E+02  0.94240925371E+03  0.94323361475E+03  0.00000000000E+00 0. -1.
<mgrwt>
<rscale>  0 0.44089211E+02</rscale>
<asrwt>0</asrwt>
<pdfrwt beam="1">  1        2 0.14680432E+00 0.39426521E+02</pdfrwt>
<pdfrwt beam="2">  1        2 0.38908255E+00 0.49303324E+02</pdfrwt>
<totfact> 0.23453188E+01</totfact>
</mgrwt>
</event>
<event>
13    1  0.1942437E-008  0.1193218E+03  0.7546771E-02  0.1266396E+00
          2   -1    0    0  503    0  0.00000000000E+00  0.00000000000E+00  0.79425011895E+03  0.79425011895E+03  0.00000000000E+00 0. -1.
          2   -1    0    0  502    0 -0.00000000000E+00 -0.00000000000E+00 -0.17007901907E+04  0.17007901907E+04  0.00000000000E+00 0. -1.
         24    2    1    2    0    0  0.22444612803E+02  0.27905111206E+02 -0.25630403480E+03  0.27114361666E+03  0.80898990892E+02 0.  0.
         24    2    1    2    0    0  0.44052787104E+02 -0.62699947256E+02 -0.10711315997E+03  0.15388786460E+03  0.79600969812E+02 0.  0.
         25    2    1    2    0    0 -0.47887956631E+02  0.18062691530E+03  0.45320644035E+02  0.22934567110E+03  0.12500454854E+03 0.  0.
        -11    1    3    3    0    0 -0.53644530183E+00 -0.27282502643E+02 -0.59471753317E+02  0.65433264985E+02  0.00000000000E+00 0.  1.
         12    1    3    3    0    0  0.22981058105E+02  0.55187613849E+02 -0.19683228148E+03  0.20571035168E+03  0.00000000000E+00 0. -1.
        -13    1    4    4    0    0 -0.81269730591E+01 -0.19027370215E+02 -0.76546269670E+02  0.79293252606E+02  0.00000000000E+00 0.  1.
         14    1    4    4    0    0  0.52179760163E+02 -0.43672577041E+02 -0.30566890300E+02  0.74594611995E+02  0.00000000000E+00 0. -1.
          5    1    5    5  501    0 -0.10245986196E+02  0.16211325627E+03  0.73746787590E+02  0.17845550362E+03  0.47000000000E+01 0.  1.
         -5    1    5    5    0  501 -0.37641970435E+02  0.18513659024E+02 -0.28426143555E+02  0.50890167480E+02  0.47000000000E+01 0.  1.
          1    1    1    2  502    0  0.74297228811E+02 -0.69046459907E+02 -0.12066050437E+04  0.12108605301E+04  0.00000000000E+00 0. -1.
          1    1    1    2  503    0 -0.92906672087E+02 -0.76785619339E+02  0.61816152270E+03  0.62980262718E+03  0.00000000000E+00 0. -1.
<mgrwt>
<rscale>  0 0.10691299E+03</rscale>
<asrwt>0</asrwt>
<pdfrwt beam="1">  1        2 0.11680149E+00 0.11932179E+03</pdfrwt>
<pdfrwt beam="2">  1        2 0.25011621E+00 0.95794632E+02</pdfrwt>
<totfact> 0.77916078E+01</totfact>
</mgrwt>
</event>
<event>
13    1  0.1942437E-008  0.3853927E+03  0.7546771E-02  0.1233872E+00
         -1   -1    0    0    0  501 -0.00000000000E+00  0.00000000000E+00  0.12618716092E+04  0.12618716092E+04  0.00000000000E+00 0.  1.
          2   -1    0    0  503    0  0.00000000000E+00 -0.00000000000E+00 -0.16732672537E+04  0.16732672537E+04  0.00000000000E+00 0. -1.
         24    2    1    2    0    0  0.15697725732E+02  0.15281159685E+03  0.53170937422E+03  0.55940907550E+03  0.81399339042E+02 0.  0.
         24    2    1    2    0    0  0.51767541386E+02  0.57174142915E+01  0.53743216708E+02  0.10747548310E+03  0.77136754906E+02 0.  0.
         25    2    1    2    0    0 -0.33223783697E+03  0.15708977565E+03 -0.68537669840E+03  0.78767318487E+03  0.12501459725E+03 0.  0.
        -11    1    4    4    0    0  0.34668335871E+02  0.39856943631E+02  0.42124980317E+02  0.67564661136E+02  0.00000000000E+00 0.  1.
         12    1    4    4    0    0  0.17099205515E+02 -0.34139529340E+02  0.11618236391E+02  0.39910821961E+02  0.00000000000E+00 0. -1.
        -11    1    3    3    0    0  0.96591181715E+01  0.99007048313E+02  0.45353485876E+03  0.46431623091E+03  0.00000000000E+00 0.  1.
         12    1    3    3    0    0  0.60386075607E+01  0.53804548538E+02  0.78174515458E+02  0.95092844588E+02  0.00000000000E+00 0. -1.
          5    1    5    5  502    0 -0.33254373314E+03  0.16380198148E+03 -0.68566205436E+03  0.77946838703E+03  0.47000000000E+01 0. -1.
         -5    1    5    5    0  502  0.30589616802E+00 -0.67122058289E+01  0.28535596422E+00  0.82047978391E+01  0.47000000000E+01 0. -1.
          1    1    1    2  503    0  0.24657080694E+03 -0.35240544992E+03 -0.84357738531E+03  0.94689469794E+03  0.00000000000E+00 0. -1.
         -2    1    1    2    0  501  0.18201762918E+02  0.36786663129E+02  0.53210584822E+03  0.53368642147E+03  0.00000000000E+00 0.  1.
<mgrwt>
<rscale>  0 0.12576898E+03</rscale>
<asrwt>0</asrwt>
<pdfrwt beam="2">  1        2 0.24606871E+00 0.38539272E+03</pdfrwt>
<pdfrwt beam="1">  1       -1 0.18556936E+00 0.41043425E+02</pdfrwt>
<totfact> 0.33251189E+00</totfact>
</mgrwt>
</event>
<event>
13    1  0.1942437E-008  0.7856423E+02  0.7546771E-02  0.1428166E+00
          2   -1    0    0  503    0  0.00000000000E+00  0.00000000000E+00  0.24856932473E+04  0.24856932473E+04  0.00000000000E+00 0. -1.
         -3   -1    0    0    0  501 -0.00000000000E+00 -0.00000000000E+00 -0.96631512950E+03  0.96631512950E+03  0.00000000000E+00 0.  1.
         24    2    1    2    0    0  0.10131473377E+03  0.37622289498E+02 -0.32971965570E+03  0.35603967141E+03  0.79806543067E+02 0.  0.
         24    2    1    2    0    0  0.63894882176E+02  0.30670899170E+02 -0.11525316685E+03  0.15270570415E+03  0.70798867146E+02 0.  0.
         25    2    1    2    0    0 -0.12983963325E+03 -0.22559763898E+02  0.82464332083E+02  0.19947150865E+03  0.12498497265E+03 0.  0.
        -11    1    3    3    0    0  0.87520585657E+02  0.11175837862E+02 -0.15132433404E+03  0.17516793753E+03  0.00000000000E+00 0.  1.
         12    1    3    3    0    0  0.13794148112E+02  0.26446451636E+02 -0.17839532166E+03  0.18087173388E+03  0.00000000000E+00 0. -1.
        -13    1    4    4    0    0  0.57783872108E+02 -0.51923783736E+01 -0.44394279445E+02  0.73053327894E+02  0.00000000000E+00 0.  1.
         14    1    4    4    0    0  0.61110100680E+01  0.35863277544E+02 -0.70858887400E+02  0.79652376260E+02  0.00000000000E+00 0. -1.
          5    1    5    5  502    0  0.20231562932E+02 -0.14336170780E+02 -0.46906168261E+01  0.25669706222E+02  0.47000000000E+01 0. -1.
         -5    1    5    5    0  502 -0.15007119618E+03 -0.82235931181E+01  0.87154948909E+02  0.17380180243E+03  0.47000000000E+01 0. -1.
          1    1    1    2  503    0 -0.16766124199E+02 -0.76788015077E+02  0.23114096806E+04  0.23127456007E+04  0.00000000000E+00 0. -1.
         -4    1    1    2    0  501 -0.18603858493E+02  0.31054590307E+02 -0.42952307238E+03  0.43104589180E+03  0.00000000000E+00 0.  1.
<mgrwt>
<rscale>  0 0.53329923E+02</rscale>
<asrwt>0</asrwt>
<pdfrwt beam="1">  1        2 0.36554312E+00 0.78564232E+02</pdfrwt>
<pdfrwt beam="2">  1       -3 0.14210517E+00 0.36200706E+02</pdfrwt>
<totfact> 0.13289963E+00</totfact>
</mgrwt>
</event>
<event>
13    1  0.1942437E-008  0.1325505E+03  0.7546771E-02  0.1391802E+00
          2   -1    0    0  502    0  0.00000000000E+00  0.00000000000E+00  0.22408814907E+04  0.22408814907E+04  0.00000000000E+00 0. -1.
          2   -1    0    0  503    0 -0.00000000000E+00 -0.00000000000E+00 -0.98369450428E+03  0.98369450428E+03  0.00000000000E+00 0. -1.
         24    2    1    2    0    0 -0.91721388724E+02  0.86062076459E+02 -0.24425441729E+03  0.28692025174E+03  0.82725548286E+02 0.  0.
         24    2    1    2    0    0  0.12470176884E+03  0.76983145466E+02 -0.25014307109E+03  0.30064291215E+03  0.79609476666E+02 0.  0.
         25    2    1    2    0    0 -0.21455259541E+02 -0.28339301268E+02  0.57032035727E+03  0.58494459751E+03  0.12502570969E+03 0.  0.
        -11    1    4    4    0    0 -0.19238037633E+01  0.32493873712E+02 -0.47372971966E+02  0.57478268264E+02  0.00000000000E+00 0.  1.
         12    1    4    4    0    0  0.12662557260E+03  0.44489271753E+02 -0.20277009913E+03  0.24316464389E+03  0.00000000000E+00 0. -1.
        -13    1    3    3    0    0  0.26870016018E+01 -0.29939018120E+01 -0.67579052267E+02  0.67698683377E+02  0.00000000000E+00 0.  1.
         14    1    3    3    0    0 -0.94408390326E+02  0.89055978271E+02 -0.17667536503E+03  0.21922156837E+03  0.00000000000E+00 0. -1.
          5    1    5    5  501    0 -0.71300896145E+02 -0.20733207093E+01  0.36767559594E+03  0.37456047616E+03  0.47000000000E+01 0.  1.
         -5    1    5    5    0  501  0.49845636604E+02 -0.26265980559E+02  0.20264476132E+03  0.21038412135E+03  0.47000000000E+01 0.  1.
          1    1    1    2  502    0 -0.28315666674E+02 -0.32176705655E+01  0.16064478721E+04  0.16067006243E+04  0.00000000000E+00 0. -1.
          1    1    1    2  503    0  0.16790546100E+02 -0.13148825009E+03 -0.42518375450E+03  0.44536760933E+03  0.00000000000E+00 0. -1.
<mgrwt>
<rscale>  0 0.61460635E+02</rscale>
<asrwt>0</asrwt>
<pdfrwt beam="1">  1        2 0.32954140E+00 0.28497901E+02</pdfrwt>
<pdfrwt beam="2">  1        2 0.14466096E+00 0.13255045E+03</pdfrwt>
<totfact> 0.37863466E+01</totfact>
</mgrwt>
</event>
<event>
13    1  0.1942437E-008  0.6643955E+02  0.7546771E-02  0.1503013E+00
          2   -1    0    0  503    0  0.00000000000E+00  0.00000000000E+00  0.18493283774E+04  0.18493283774E+04  0.00000000000E+00 0. -1.
         -1   -1    0    0    0  501 -0.00000000000E+00 -0.00000000000E+00 -0.96200790055E+03  0.96200790055E+03  0.00000000000E+00 0.  1.
         24    2    1    2    0    0 -0.12061883024E+03  0.11488819198E+03 -0.12560409553E+03  0.22406878600E+03  0.81744927562E+02 0.  0.
         24    2    1    2    0    0  0.18768885981E+03 -0.72100288078E+02 -0.63893560821E+02  0.22588241352E+03  0.80715041887E+02 0.  0.
         25    2    1    2    0    0  0.85264755730E+00 -0.58366714619E+02  0.68153425207E+03  0.69535749955E+03  0.12500286019E+03 0.  0.
        -11    1    4    4    0    0  0.17670849803E+03 -0.38788040225E+02 -0.59932832439E+02  0.19058423267E+03  0.00000000000E+00 0.  1.
         12    1    4    4    0    0  0.10980361780E+02 -0.33312247852E+02 -0.39607283822E+01  0.35298180847E+02  0.00000000000E+00 0. -1.
        -13    1    3    3    0    0 -0.11041754985E+03  0.53905280058E+02 -0.93488451538E+02  0.15439528848E+03  0.00000000000E+00 0.  1.
         14    1    3    3    0    0 -0.10201280387E+02  0.60982911926E+02 -0.32115643991E+02  0.69673497525E+02  0.00000000000E+00 0. -1.
          5    1    5    5  502    0  0.16917223240E+00 -0.27333505338E+02  0.22877619846E+02  0.35953089202E+02  0.47000000000E+01 0. -1.
         -5    1    5    5    0  502  0.68347532491E+00 -0.31033209280E+02  0.65865663222E+03  0.65940441035E+03  0.47000000000E+01 0. -1.
          1    1    1    2  503    0 -0.21316618005E+01  0.24859776913E+02  0.10287670405E+04  0.10290695682E+04  0.00000000000E+00 0. -1.
         -2    1    1    2    0  501 -0.65791015325E+02 -0.92809662005E+01 -0.63348315944E+03  0.63695801064E+03  0.00000000000E+00 0.  1.
<mgrwt>
<rscale>  0 0.40715271E+02</rscale>
<asrwt>0</asrwt>
<pdfrwt beam="1">  1        2 0.27196006E+00 0.24951002E+02</pdfrwt>
<pdfrwt beam="2">  1       -1 0.14147175E+00 0.66439548E+02</pdfrwt>
<totfact> 0.69400464E+00</totfact>
</mgrwt>
</event>
<event>
13    1  0.1942437E-008  0.4453279E+02  0.7546771E-02  0.1585858E+00
          2   -1    0    0  502    0  0.00000000000E+00  0.00000000000E+00  0.18328477467E+04  0.18328477467E+04  0.00000000000E+00 0. -1.
          2   -1    0    0  503    0 -0.00000000000E+00 -0.00000000000E+00 -0.18743479881E+04  0.18743479881E+04  0.00000000000E+00 0. -1.
         24    2    1    2    0    0 -0.88018199321E+02  0.25752372889E+02 -0.55782299934E+02  0.13343217904E+03  0.79259657426E+02 0.  0.
         24    2    1    2    0    0  0.30557671423E+02 -0.15231342016E+03  0.32403861979E+02  0.17886441266E+03  0.82518595489E+02 0.  0.
         25    2    1    2    0    0  0.84103036271E+02  0.11273534754E+03  0.36267445003E+03  0.40858185877E+03  0.12499519717E+03 0.  0.
        -11    1    3    3    0    0 -0.82469439347E+02  0.11286818934E+02 -0.84939683084E+01  0.83670473916E+02  0.00000000000E+00 0.  1.
         12    1    3    3    0    0 -0.55487599742E+01  0.14465553956E+02 -0.47288331626E+02  0.49761705120E+02  0.00000000000E+00 0. -1.
        -11    1    4    4    0    0  0.48984955008E+02 -0.96760429415E+02  0.47531190495E+02  0.11841165731E+03  0.00000000000E+00 0.  1.
         12    1    4    4    0    0 -0.18427283585E+02 -0.55552990746E+02 -0.15127328516E+02  0.60452755348E+02  0.00000000000E+00 0. -1.
          5    1    5    5  501    0  0.75463347825E+00  0.38302556078E+02  0.23792639060E+03  0.24103674537E+03  0.47000000000E+01 0. -1.
         -5    1    5    5    0  501  0.83348402792E+02  0.74432791465E+02  0.12474805943E+03  0.16754511340E+03  0.47000000000E+01 0. -1.
          1    1    1    2  502    0  0.13490397870E+00 -0.21769300644E+02  0.13023749141E+04  0.13025568462E+04  0.00000000000E+00 0. -1.
          1    1    1    2  503    0 -0.26777412352E+02  0.35595000372E+02 -0.16831711675E+04  0.16837604381E+04  0.00000000000E+00 0. -1.
<mgrwt>
<rscale>  0 0.31136253E+02</rscale>
<asrwt>0</asrwt>
<pdfrwt beam="1">  1        2 0.26953644E+00 0.21769719E+02</pdfrwt>
<pdfrwt beam="2">  1        2 0.27563941E+00 0.44532787E+02</pdfrwt>
<totfact> 0.23024125E+01</totfact>
</mgrwt>
</event>
<event>
13    1  0.1942437E-008  0.8477879E+02  0.7546771E-02  0.1412726E+00
          2   -1    0    0  503    0  0.00000000000E+00  0.00000000000E+00  0.50503100988E+04  0.50503100988E+04  0.00000000000E+00 0. -1.
          2   -1    0    0  502    0 -0.00000000000E+00 -0.00000000000E+00 -0.99198057493E+03  0.99198057493E+03  0.00000000000E+00 0. -1.
         24    2    1    2    0    0 -0.33205783657E+03  0.99392896697E+02  0.50369053943E+02  0.35658592124E+03  0.66896359323E+02 0.  0.
         24    2    1    2    0    0  0.39763026155E+03 -0.90954206574E+02 -0.45762933991E+02  0.41745953363E+03  0.76129649278E+02 0.  0.
         25    2    1    2    0    0 -0.89747933651E+02  0.94875419789E+02  0.45913137668E+03  0.49343973810E+03  0.12500046882E+03 0.  0.
        -11    1    4    4    0    0  0.11396064197E+03  0.61512163870E+01 -0.25534166899E+02  0.11694810414E+03  0.00000000000E+00 0.  1.
         12    1    4    4    0    0  0.28366961958E+03 -0.97105422961E+02 -0.20228767092E+02  0.30051142950E+03  0.00000000000E+00 0. -1.
        -11    1    3    3    0    0 -0.72862307574E+02  0.10301798881E+02  0.36535232282E+02  0.82157568872E+02  0.00000000000E+00 0.  1.
         12    1    3    3    0    0 -0.25919552900E+03  0.89091097816E+02  0.13833821661E+02  0.27442835237E+03  0.00000000000E+00 0. -1.
          5    1    5    5  501    0 -0.10043749953E+02  0.54167715678E+01  0.26483543636E+03  0.26512283319E+03  0.47000000000E+01 0.  1.
         -5    1    5    5    0  501 -0.79704183698E+02  0.89458648221E+02  0.19429594032E+03  0.22831690490E+03  0.47000000000E+01 0.  1.
          1    1    1    2  502    0  0.32660534098E+02 -0.18977753385E+02 -0.58907251045E+03  0.59028238003E+03  0.00000000000E+00 0. -1.
          1    1    1    2  503    0 -0.84850254306E+01 -0.84336356526E+02  0.41836645376E+04  0.41845231007E+04  0.00000000000E+00 0. -1.
<mgrwt>
<rscale>  0 0.56589957E+02</rscale>
<asrwt>0</asrwt>
<pdfrwt beam="1">  1        2 0.74269265E+00 0.84778786E+02</pdfrwt>
<pdfrwt beam="2">  1        2 0.14587950E+00 0.37773875E+02</pdfrwt>
<totfact> 0.52514131E-01</totfact>
</mgrwt>
</event>
<event>
13    1  0.1942437E-008  0.5519113E+02  0.7546771E-02  0.1450778E+00
          2   -1    0    0  502    0  0.00000000000E+00  0.00000000000E+00  0.10117855676E+04  0.10117855676E+04  0.00000000000E+00 0. -1.
          2   -1    0    0  503    0 -0.00000000000E+00 -0.00000000000E+00 -0.23691844976E+04  0.23691844976E+04  0.00000000000E+00 0. -1.
         24    2    1    2    0    0  0.38827629243E+02  0.53719064785E+02 -0.12262522458E+04  0.12305567433E+04  0.78625729024E+02 0.  0.
         24    2    1    2    0    0  0.61656455168E+01 -0.13507340817E+02 -0.26650706924E+03  0.27896739866E+03  0.81094562839E+02 0.  0.
         25    2    1    2    0    0 -0.80449086363E+02 -0.13136445498E+03  0.11795283383E+03  0.23079682297E+03  0.12500250779E+03 0.  0.
        -11    1    3    3    0    0  0.18976801415E+02  0.49897058731E+02 -0.34790360579E+03  0.35197550253E+03  0.00000000000E+00 0.  1.
         12    1    3    3    0    0  0.19850827828E+02  0.38220060540E+01 -0.87834864004E+03  0.87858124073E+03  0.00000000000E+00 0. -1.
        -13    1    4    4    0    0 -0.34009459324E+02 -0.19075729235E+02 -0.16741056859E+03  0.17189189988E+03  0.00000000000E+00 0.  1.
         14    1    4    4    0    0  0.40175104841E+02  0.55683884175E+01 -0.99096500655E+02  0.10707549879E+03  0.00000000000E+00 0. -1.
          5    1    5    5  501    0 -0.35266683655E+02 -0.23415894086E+02  0.10457733959E+03  0.11291834673E+03  0.47000000000E+01 0. -1.
         -5    1    5    5    0  501 -0.45182402708E+02 -0.10794856089E+03  0.13375494237E+02  0.11787847624E+03  0.47000000000E+01 0. -1.
          1    1    1    2  502    0  0.25924639685E+02  0.48695435094E+02  0.82752604170E+03  0.82936281689E+03  0.00000000000E+00 0. -1.
          1    1    1    2  503    0  0.95311719181E+01  0.42457295918E+02 -0.81011849046E+03  0.81128628350E+03  0.00000000000E+00 0. -1.
<mgrwt>
<rscale>  0 0.49005969E+02</rscale>
<asrwt>0</asrwt>
<pdfrwt beam="1">  1        2 0.14879200E+00 0.55191130E+02</pdfrwt>
<pdfrwt beam="2">  1        2 0.34840949E+00 0.43513966E+02</pdfrwt>
<totfact> 0.31323660E+01</totfact>
</mgrwt>
</event>
<event>
13    1  0.1942437E-008  0.3892740E+02  0.7546771E-02  0.1553311E+00
          2   -1    0    0  503    0  0.00000000000E+00  0.00000000000E+00  0.17299600859E+04  0.17299600859E+04  0.00000000000E+00 0. -1.
          2   -1    0    0  502    0 -0.00000000000E+00 -0.00000000000E+00 -0.52717375130E+03  0.52717375130E+03  0.00000000000E+00 0. -1.
         24    2    1    2    0    0 -0.54343006598E+02 -0.20548963915E+02 -0.61572961141E+02  0.11519348793E+03  0.78120982031E+02 0.  0.
         24    2    1    2    0    0  0.19462282154E+01  0.13704624701E+02  0.14604845912E+03  0.16673710631E+03  0.79243332002E+02 0.  0.
         25    2    1    2    0    0  0.86432029590E+02  0.55702024620E+02  0.55283354697E+03  0.57604107183E+03  0.12500069796E+03 0.  0.
        -11    1    4    4    0    0 -0.16808342349E+02  0.32832081059E+02  0.29731623831E+02  0.47375472291E+02  0.00000000000E+00 0.  1.
         12    1    4    4    0    0  0.18754570565E+02 -0.19127456358E+02  0.11631683529E+03  0.11936163402E+03  0.00000000000E+00 0. -1.
        -13    1    3    3    0    0  0.19096667670E+02 -0.13231973203E+02 -0.18837400191E+02  0.29910123318E+02  0.00000000000E+00 0.  1.
         14    1    3    3    0    0 -0.73439674268E+02 -0.73169907123E+01 -0.42735560950E+02  0.85283364611E+02  0.00000000000E+00 0. -1.
          5    1    5    5  501    0  0.62904197265E+02  0.34066156792E+02  0.53369916606E+03  0.53849264705E+03  0.47000000000E+01 0. -1.
         -5    1    5    5    0  501  0.23527832325E+02  0.21635867827E+02  0.19134380912E+02  0.37548424780E+02  0.47000000000E+01 0. -1.
          1    1    1    2  502    0 -0.34323927866E+02 -0.18326890720E+02 -0.41569643463E+03  0.41751351201E+03  0.00000000000E+00 0. -1.
          1    1    1    2  503    0  0.28867665917E+00 -0.30530794685E+02  0.98117372424E+03  0.98164865909E+03  0.00000000000E+00 0. -1.
<mgrwt>
<rscale>  0 0.34475174E+02</rscale>
<asrwt>0</asrwt>
<pdfrwt beam="1">  1        2 0.25440589E+00 0.30532159E+02</pdfrwt>
<pdfrwt beam="2">  1        2 0.77525552E-01 0.38927401E+02</pdfrwt>
<totfact> 0.13658340E+02</totfact>
</mgrwt>
</event>
<event>
13    1  0.1942437E-008  0.8471696E+02  0.7546771E-02  0.1388324E+00
          2   -1    0    0  503    0  0.00000000000E+00  0.00000000000E+00  0.16561133201E+04  0.16561133201E+04  0.00000000000E+00 0. -1.
         -3   -1    0    0    0  501 -0.00000000000E+00 -0.00000000000E+00 -0.10754839810E+04  0.10754839810E+04  0.00000000000E+00 0.  1.
         24    2    1    2    0    0  0.10495295638E+02 -0.58487810829E+02  0.74414835163E+01  0.10026384860E+03  0.80414478882E+02 0.  0.
         24    2    1    2    0    0 -0.38461153848E+02  0.29276569793E+02  0.19094695077E+03  0.21255255550E+03  0.79884122002E+02 0.  0.
         25    2    1    2    0    0 -0.46380381312E+02  0.37791323747E+02  0.33678185117E+03  0.36417846855E+03  0.12499847101E+03 0.  0.
        -11    1    4    4    0    0  0.23153556041E+02  0.10305139069E+02  0.83369910446E+02  0.87136817801E+02  0.00000000000E+00 0.  1.
         12    1    4    4    0    0 -0.61614709889E+02  0.18971430723E+02  0.10757704032E+03  0.12541573770E+03  0.00000000000E+00 0. -1.
        -13    1    3    3    0    0  0.13140219998E+02  0.89208235579E+01  0.25847813493E+02  0.30337368655E+02  0.00000000000E+00 0.  1.
         14    1    3    3    0    0 -0.26449243602E+01 -0.67408634387E+02 -0.18406329977E+02  0.69926479949E+02  0.00000000000E+00 0. -1.
          5    1    5    5  502    0  0.64455058173E+01 -0.23223232636E+02  0.83384955091E+01  0.25932288497E+02  0.47000000000E+01 0.  1.
         -5    1    5    5    0  502 -0.52825887129E+02  0.61014556383E+02  0.32844335566E+03  0.33824618005E+03  0.47000000000E+01 0.  1.
          1    1    1    2  503    0 -0.18200064007E+01 -0.45815958593E+02  0.10477396588E+04  0.10487424884E+04  0.00000000000E+00 0. -1.
         -4    1    1    2    0  501  0.76166245924E+02  0.37235875883E+02 -0.10022806052E+04  0.10058599400E+04  0.00000000000E+00 0.  1.
<mgrwt>
<rscale>  0 0.62325357E+02</rscale>
<asrwt>0</asrwt>
<pdfrwt beam="1">  1        2 0.24354608E+00 0.45852094E+02</pdfrwt>
<pdfrwt beam="2">  1       -3 0.15815941E+00 0.84716964E+02</pdfrwt>
<totfact> 0.26992800E+00</totfact>
</mgrwt>
</event>
<event>
13    1  0.1942437E-008  0.7049975E+02  0.7546771E-02  0.1399656E+00
          2   -1    0    0  502    0  0.00000000000E+00  0.00000000000E+00  0.12764467843E+04  0.12764467843E+04  0.00000000000E+00 0. -1.
          2   -1    0    0  503    0 -0.00000000000E+00 -0.00000000000E+00 -0.20130870933E+04  0.20130870933E+04  0.00000000000E+00 0. -1.
         24    2    1    2    0    0 -0.10594219881E+02 -0.49459284774E+02 -0.28473980201E+02  0.10642072150E+03  0.89197220079E+02 0.  0.
         24    2    1    2    0    0 -0.34772691046E+02  0.42182954768E+02  0.40686922448E+02  0.10481396258E+03  0.79636671063E+02 0.  0.
         25    2    1    2    0    0  0.13053484922E+02 -0.41500221831E+02  0.17836231807E+03  0.22210262048E+03  0.12499518246E+03 0.  0.
        -11    1    4    4    0    0  0.10964536574E+02  0.42949185542E+02  0.38996961239E+02  0.59039110655E+02  0.00000000000E+00 0.  1.
         12    1    4    4    0    0 -0.45737227620E+02 -0.76623077408E+00  0.16899612086E+01  0.45774851926E+02  0.00000000000E+00 0. -1.
        -13    1    3    3    0    0 -0.43038514358E+02 -0.52900243566E+02 -0.99954867274E+01  0.68925026242E+02  0.00000000000E+00 0.  1.
         14    1    3    3    0    0  0.32444294477E+02  0.34409587921E+01 -0.18478493473E+02  0.37495695254E+02  0.00000000000E+00 0. -1.
          5    1    5    5  501    0  0.66009904179E+02 -0.28434502514E+02  0.68713381196E+02  0.99546206047E+02  0.47000000000E+01 0.  1.
         -5    1    5    5    0  501 -0.52956419256E+02 -0.13065719317E+02  0.10964893688E+03  0.12255641444E+03  0.47000000000E+01 0.  1.
          1    1    1    2  502    0 -0.13553794890E+02  0.69497630205E+02  0.96285549455E+03  0.96545550355E+03  0.00000000000E+00 0. -1.
          1    1    1    2  503    0  0.45867220895E+02 -0.20721078368E+02 -0.18900710639E+04  0.18907410694E+04  0.00000000000E+00 0. -1.
<mgrwt>
<rscale>  0 0.59567541E+02</rscale>
<asrwt>0</asrwt>
<pdfrwt beam="1">  1        2 0.18771276E+00 0.70499755E+02</pdfrwt>
<pdfrwt beam="2">  1        2 0.29604222E+00 0.50330558E+02</pdfrwt>
<totfact> 0.32216607E+01</totfact>
</mgrwt>
</event>
<event>
13    1  0.1942437E-008  0.9995645E+02  0.7546771E-02  0.1407774E+00
          2   -1    0    0  502    0  0.00000000000E+00  0.00000000000E+00  0.29913319985E+04  0.29913319985E+04  0.00000000000E+00 0. -1.
          4   -1    0    0  503    0 -0.00000000000E+00 -0.00000000000E+00 -0.25251080018E+03  0.25251080018E+03  0.00000000000E+00 0. -1.
         24    2    1    2    0    0  0.83761104144E+01  0.47359676925E+02  0.22731558732E+02  0.96826723800E+02  0.80904835797E+02 0.  0.
         24    2    1    2    0    0 -0.96707538388E+02  0.22171679710E+02  0.13391916104E+03  0.18525811282E+03  0.80884456541E+02 0.  0.
         25    2    1    2    0    0  0.74870316098E+02 -0.14288852921E+03  0.56095055187E+02  0.21161261445E+03  0.12494217608E+03 0.  0.
        -11    1    4    4    0    0  0.41079207851E+01 -0.53576325550E+01  0.52092676333E+02  0.52528336803E+02  0.00000000000E+00 0.  1.
         12    1    4    4    0    0 -0.10081545917E+03  0.27529312265E+02  0.81826484706E+02  0.13272977602E+03  0.00000000000E+00 0. -1.
        -11    1    3    3    0    0  0.16598910506E+02 -0.12732143741E+02 -0.14687538621E+02  0.25560811900E+02  0.00000000000E+00 0.  1.
         12    1    3    3    0    0 -0.82228000914E+01  0.60091820666E+02  0.37419097353E+02  0.71265911901E+02  0.00000000000E+00 0. -1.
          5    1    5    5  501    0  0.20571048241E+02 -0.13195879501E+02 -0.35783872457E+02  0.43587553149E+02  0.47000000000E+01 0. -1.
         -5    1    5    5    0  501  0.54299267857E+02 -0.12969264971E+03  0.91878927644E+02  0.16802506130E+03  0.47000000000E+01 0. -1.
          1    1    1    2  502    0 -0.71288346554E+01  0.99528583246E+02  0.26346704799E+04  0.26365593672E+04  0.00000000000E+00 0. -1.
          3    1    1    2  503    0  0.20589946532E+02 -0.26171410666E+02 -0.10859505655E+03  0.11358598039E+03  0.00000000000E+00 0. -1.
<mgrwt>
<rscale>  0 0.57693568E+02</rscale>
<asrwt>0</asrwt>
<pdfrwt beam="1">  1        2 0.43990174E+00 0.99956452E+02</pdfrwt>
<pdfrwt beam="2">  1        4 0.37133943E-01 0.33299979E+02</pdfrwt>
<totfact> 0.90154607E+00</totfact>
</mgrwt>
</event>
<event>
13    1  0.1942437E-008  0.8380739E+02  0.7546771E-02  0.1363740E+00
          2   -1    0    0  502    0  0.00000000000E+00  0.00000000000E+00  0.30070589247E+04  0.30070589247E+04  0.00000000000E+00 0. -1.
          2   -1    0    0  503    0 -0.00000000000E+00 -0.00000000000E+00 -0.13195290346E+04  0.13195290346E+04  0.00000000000E+00 0. -1.
         24    2    1    2    0    0  0.43076279594E+02 -0.91536962702E+02 -0.10972829597E+03  0.16818976197E+03  0.77542992528E+02 0.  0.
         24    2    1    2    0    0 -0.45437068856E+02  0.68167863467E+02 -0.13960470498E+03  0.18463815175E+03  0.88827859331E+02 0.  0.
         25    2    1    2    0    0  0.67729929070E+02  0.37742612743E+02  0.51486526065E+03  0.53546605785E+03  0.12500325746E+03 0.  0.
        -13    1    4    4    0    0 -0.69110370923E+02  0.68094267554E+02 -0.11569463706E+03  0.15099113116E+03  0.00000000000E+00 0.  1.
         14    1    4    4    0    0  0.23673302066E+02  0.73595913212E-01 -0.23910067916E+02  0.33647020594E+02  0.00000000000E+00 0. -1.
        -13    1    3    3    0    0  0.63849884232E+02 -0.80139017019E+02 -0.78982383350E+02  0.12937266576E+03  0.00000000000E+00 0.  1.
         14    1    3    3    0    0 -0.20773604639E+02 -0.11397945683E+02 -0.30745912623E+02  0.38817096214E+02  0.00000000000E+00 0. -1.
          5    1    5    5  501    0  0.56894498553E+02  0.64854953416E+02  0.18393932297E+03  0.20322134111E+03  0.47000000000E+01 0.  1.
         -5    1    5    5    0  501  0.10835430517E+02 -0.27112340673E+02  0.33092593768E+03  0.33224471674E+03  0.47000000000E+01 0.  1.
          1    1    1    2  502    0  0.73582210826E+01 -0.56228243569E+02  0.24280681332E+04  0.24287302482E+04  0.00000000000E+00 0. -1.
          1    1    1    2  503    0 -0.72727360890E+02  0.41854730062E+02 -0.10060705028E+04  0.10095637395E+04  0.00000000000E+00 0. -1.
<mgrwt>
<rscale>  0 0.68938532E+02</rscale>
<asrwt>0</asrwt>
<pdfrwt beam="1">  1        2 0.44221455E+00 0.56707661E+02</pdfrwt>
<pdfrwt beam="2">  1        2 0.19404839E+00 0.83807393E+02</pdfrwt>
<totfact> 0.97776317E+00</totfact>
</mgrwt>
</event>
<event>
13    1  0.1942437E-008  0.8266876E+02  0.7546771E-02  0.1380135E+00
          2   -1    0    0  503    0  0.00000000000E+00  0.00000000000E+00  0.19993295070E+04  0.19993295070E+04  0.00000000000E+00 0. -1.
          2   -1    0    0  502    0 -0.00000000000E+00 -0.00000000000E+00 -0.13625575412E+04  0.13625575412E+04  0.00000000000E+00 0. -1.
         24    2    1    2    0    0  0.17990832746E+02 -0.31505813454E+03 -0.51840166826E+03  0.61401219148E+03  0.93195404557E+02 0.  0.
         24    2    1    2    0    0  0.43905405082E+00 -0.79080540673E+02  0.69658495129E+02  0.13519085841E+03  0.84677845821E+02 0.  0.
         25    2    1    2    0    0 -0.95391675555E+02  0.31493885976E+03  0.63218967894E+03  0.72358509007E+03  0.12500214105E+03 0.  0.
        -11    1    4    4    0    0 -0.19835858231E+02  0.62916096962E+01 -0.33066174187E+01  0.21070817333E+02  0.00000000000E+00 0.  1.
         12    1    4    4    0    0  0.20274912282E+02 -0.85372150369E+02  0.72965112548E+02  0.11412004108E+03  0.00000000000E+00 0. -1.
        -13    1    3    3    0    0  0.50954022349E+02 -0.14485486291E+03 -0.27845848963E+03  0.31799115419E+03  0.00000000000E+00 0.  1.
         14    1    3    3    0    0 -0.32963189603E+02 -0.17020327163E+03 -0.23994317864E+03  0.29602103729E+03  0.00000000000E+00 0. -1.
          5    1    5    5  501    0 -0.92594594726E+02  0.12791500376E+03  0.36162693006E+03  0.39462910904E+03  0.47000000000E+01 0. -1.
         -5    1    5    5    0  501 -0.27970808286E+01  0.18702385600E+03  0.27056274888E+03  0.32895598103E+03  0.47000000000E+01 0. -1.
          1    1    1    2  502    0 -0.41595816727E+00  0.50210694791E+02 -0.71554841999E+03  0.71730804278E+03  0.00000000000E+00 0. -1.
          1    1    1    2  503    0  0.77377746925E+02  0.28989120659E+02  0.11688738800E+04  0.11717908654E+04  0.00000000000E+00 0. -1.
<mgrwt>
<rscale>  0 0.64428241E+02</rscale>
<asrwt>0</asrwt>
<pdfrwt beam="1">  1        2 0.29401905E+00 0.82668758E+02</pdfrwt>
<pdfrwt beam="2">  1        2 0.20037611E+00 0.50212418E+02</pdfrwt>
<totfact> 0.28726376E+01</totfact>
</mgrwt>
</event>
<event>
13    1  0.1942437E-008  0.9900910E+02  0.7546771E-02  0.1327917E+00
          2   -1    0    0  503    0  0.00000000000E+00  0.00000000000E+00  0.37416640474E+04  0.37416640474E+04  0.00000000000E+00 0. -1.
          2   -1    0    0  502    0 -0.00000000000E+00 -0.00000000000E+00 -0.47805343834E+03  0.47805343834E+03  0.00000000000E+00 0. -1.
         24    2    1    2    0    0 -0.10697168568E+02 -0.11490680048E+03 -0.25225087208E+03  0.28942843227E+03  0.82585184690E+02 0.  0.
         24    2    1    2    0    0 -0.14324660889E+02  0.46883083009E+02 -0.26489090260E+02  0.98114504024E+02  0.80756204809E+02 0.  0.
         25    2    1    2    0    0  0.12451328345E+03  0.28043142140E+02  0.52425458943E+03  0.55385737313E+03  0.12500055866E+03 0.  0.
        -11    1    3    3    0    0  0.28903637435E+02 -0.34523571267E+02 -0.13195846379E+03  0.13942859605E+03  0.00000000000E+00 0.  1.
         12    1    3    3    0    0 -0.39600806003E+02 -0.80383229217E+02 -0.12029240829E+03  0.14999983622E+03  0.00000000000E+00 0. -1.
        -13    1    4    4    0    0  0.15856835585E+02  0.49386901603E+02 -0.39454948098E+02  0.65170531792E+02  0.00000000000E+00 0.  1.
         14    1    4    4    0    0 -0.30181496474E+02 -0.25038185935E+01  0.12965857838E+02  0.32943972232E+02  0.00000000000E+00 0. -1.
          5    1    5    5  501    0  0.10524072542E+03  0.13800093583E+02  0.18206918708E+03  0.21080164078E+03  0.47000000000E+01 0. -1.
         -5    1    5    5    0  501  0.19272558027E+02  0.14243048557E+02  0.34218540234E+03  0.34305573236E+03  0.47000000000E+01 0. -1.
          1    1    1    2  502    0 -0.37140288191E+01  0.65184352990E+02 -0.12108948258E+03  0.13756982473E+03  0.00000000000E+00 0. -1.
          1    1    1    2  503    0 -0.95777425174E+02 -0.25203777655E+02  0.31391854646E+04  0.31407473516E+04  0.00000000000E+00 0. -1.
<mgrwt>
<rscale>  0 0.80400943E+02</rscale>
<asrwt>0</asrwt>
<pdfrwt beam="1">  1        2 0.55024470E+00 0.99009100E+02</pdfrwt>
<pdfrwt beam="2">  1        2 0.70301978E-01 0.65290075E+02</pdfrwt>
<totfact> 0.11814886E+01</totfact>
</mgrwt>
</event>
<event>
13    1  0.1942437E-008  0.1191853E+03  0.7546771E-02  0.1355963E+00
          2   -1    0    0  502    0  0.00000000000E+00  0.00000000000E+00  0.47428486870E+04  0.47428486870E+04  0.00000000000E+00 0. -1.
          2   -1    0    0  503    0 -0.00000000000E+00 -0.00000000000E+00 -0.87168813826E+03  0.87168813826E+03  0.00000000000E+00 0. -1.
         24    2    1    2    0    0 -0.40279428788E+03  0.31333796343E+03  0.43803515674E+03  0.67750272230E+03  0.81922051467E+02 0.  0.
         24    2    1    2    0    0  0.32771321855E+03 -0.70003934496E+03  0.92020025183E+03  0.12037227769E+04  0.68767595036E+02 0.  0.
         25    2    1    2    0    0  0.51338713030E+01  0.45059705223E+03  0.23427322227E+04  0.23889501262E+04  0.12499751114E+03 0.  0.
        -11    1    4    4    0    0  0.12041013046E+03 -0.18444704595E+03  0.25688013221E+03  0.33838840791E+03  0.00000000000E+00 0.  1.
         12    1    4    4    0    0  0.20730308808E+03 -0.51559229901E+03  0.66332011962E+03  0.86533436902E+03  0.00000000000E+00 0. -1.
        -11    1    3    3    0    0 -0.19078649792E+03  0.18549749348E+03  0.18930967018E+03  0.32656846005E+03  0.00000000000E+00 0.  1.
         12    1    3    3    0    0 -0.21200778995E+03  0.12784046995E+03  0.24872548656E+03  0.35093426225E+03  0.00000000000E+00 0. -1.
          5    1    5    5  501    0 -0.39105797483E+02  0.75512647357E+02  0.57866973730E+03  0.58490356314E+03  0.47000000000E+01 0. -1.
         -5    1    5    5    0  501  0.44239668786E+02  0.37508440488E+03  0.17640624854E+04  0.18040465630E+04  0.47000000000E+01 0. -1.
          1    1    1    2  502    0  0.12627891718E+02  0.40652518407E+02  0.75061420959E+03  0.75182031267E+03  0.00000000000E+00 0. -1.
          1    1    1    2  503    0  0.57319306309E+02 -0.10454818911E+03 -0.58042129210E+03  0.59254088724E+03  0.00000000000E+00 0. -1.
<mgrwt>
<rscale>  0 0.71228903E+02</rscale>
<asrwt>0</asrwt>
<pdfrwt beam="1">  1        2 0.69747773E+00 0.42568661E+02</pdfrwt>
<pdfrwt beam="2">  1        2 0.12818943E+00 0.11918525E+03</pdfrwt>
<totfact> 0.13689280E+00</totfact>
</mgrwt>
</event>
<event>
13    1  0.1942437E-008  0.2231569E+03  0.7546771E-02  0.1296633E+00
          2   -1    0    0  503    0  0.00000000000E+00  0.00000000000E+00  0.25197323593E+03  0.25197323593E+03  0.00000000000E+00 0. -1.
          2   -1    0    0  502    0 -0.00000000000E+00 -0.00000000000E+00 -0.11551592829E+04  0.11551592829E+04  0.00000000000E+00 0. -1.
         24    2    1    2    0    0 -0.42786331869E+02  0.28363672592E+02 -0.23133611397E+03  0.25036557945E+03  0.80816815250E+02 0.  0.
         24    2    1    2    0    0  0.93437285006E+01 -0.61667487249E+02 -0.28424673300E+03  0.30251788540E+03  0.82647937201E+02 0.  0.
         25    2    1    2    0    0  0.40870238825E+02  0.25013367141E+03 -0.36518975974E+03  0.46176325557E+03  0.12499805430E+03 0.  0.
        -11    1    4    4    0    0  0.43655924684E+02 -0.51254539348E+02 -0.17320324415E+03  0.18582849983E+03  0.00000000000E+00 0.  1.
         12    1    4    4    0    0 -0.34312196184E+02 -0.10412947901E+02 -0.11104348884E+03  0.11668938557E+03  0.00000000000E+00 0. -1.
        -11    1    3    3    0    0 -0.66401135163E+02  0.15012204806E+02 -0.15289288720E+03  0.16736401047E+03  0.00000000000E+00 0.  1.
         12    1    3    3    0    0  0.23614803294E+02  0.13351467785E+02 -0.78443226766E+02  0.83001568974E+02  0.00000000000E+00 0. -1.
          5    1    5    5  501    0 -0.38619130478E+02  0.33300620140E+02 -0.57163342039E+02  0.76747027393E+02  0.47000000000E+01 0. -1.
         -5    1    5    5    0  501  0.79489369304E+02  0.21683305127E+03 -0.30802641770E+03  0.38501622818E+03  0.47000000000E+01 0. -1.
          1    1    1    2  502    0  0.38300914783E+02 -0.32624068304E+01 -0.13948144310E+03  0.14468129230E+03  0.00000000000E+00 0. -1.
          1    1    1    2  503    0 -0.45728550240E+02 -0.21356744992E+03  0.11706800283E+03  0.24780450613E+03  0.00000000000E+00 0. -1.
<mgrwt>
<rscale>  0 0.92617837E+02</rscale>
<asrwt>0</asrwt>
<pdfrwt beam="1">  1        2 0.37054888E-01 0.22315691E+03</pdfrwt>
<pdfrwt beam="2">  1        2 0.16987636E+00 0.38439607E+02</pdfrwt>
<totfact> 0.54682482E+02</totfact>
</mgrwt>
</event>
<event>
13    1  0.1942437E-008  0.3722318E+03  0.7546771E-02  0.1163242E+00
          2   -1    0    0  503    0  0.00000000000E+00  0.00000000000E+00  0.10723112312E+04  0.10723112312E+04  0.00000000000E+00 0. -1.
          2   -1    0    0  502    0 -0.00000000000E+00 -0.00000000000E+00 -0.26741767993E+04  0.26741767993E+04  0.00000000000E+00 0. -1.
         24    2    1    2    0    0  0.31010851422E+03 -0.14672924409E+03 -0.16259507298E+03  0.38785891230E+03  0.79376422422E+02 0.  0.
         24    2    1    2    0    0 -0.17869967737E+03  0.29626446970E+01 -0.10229103534E+03  0.22118524318E+03  0.80728581895E+02 0.  0.
         25    2    1    2    0    0  0.29390700897E+03  0.15432964223E+03  0.28038203340E+03  0.45214804010E+03  0.12499918848E+03 0.  0.
        -11    1    3    3    0    0  0.22120090797E+03 -0.14192064187E+03 -0.11465047460E+03  0.28673339813E+03  0.00000000000E+00 0.  1.
         12    1    3    3    0    0  0.88907606250E+02 -0.48086022181E+01 -0.47944598376E+02  0.10112551418E+03  0.00000000000E+00 0. -1.
        -13    1    4    4    0    0 -0.14480420336E+03 -0.15692664099E+01 -0.40182030558E+02  0.15028411589E+03  0.00000000000E+00 0.  1.
         14    1    4    4    0    0 -0.33895474008E+02  0.45319111068E+01 -0.62109004784E+02  0.70901127296E+02  0.00000000000E+00 0. -1.
          5    1    5    5  501    0  0.22897985841E+03  0.60313731747E+02  0.15827345188E+03  0.28485451965E+03  0.47000000000E+01 0.  1.
         -5    1    5    5    0  501  0.64927150558E+02  0.94015910487E+02  0.12210858152E+03  0.16729352045E+03  0.47000000000E+01 0.  1.
          1    1    1    2  502    0 -0.37262400271E+03  0.64537153015E+02 -0.21306105851E+04  0.21639120031E+04  0.00000000000E+00 0. -1.
          1    1    1    2  503    0 -0.52691843114E+02 -0.75100195856E+02  0.51324909197E+03  0.52138383189E+03  0.00000000000E+00 0. -1.
<mgrwt>
<rscale>  0 0.18479458E+03</rscale>
<asrwt>0</asrwt>
<pdfrwt beam="1">  1        2 0.15769283E+00 0.91741320E+02</pdfrwt>
<pdfrwt beam="2">  1        2 0.39326129E+00 0.37223181E+03</pdfrwt>
<totfact> 0.15100755E+01</totfact>
</mgrwt>
</event>
<event>
13    1  0.1942437E-008  0.9277581E+02  0.7546771E-02  0.1324394E+00
          2   -1    0    0  503    0  0.00000000000E+00  0.00000000000E+00  0.85208565157E+03  0.85208565157E+03  0.00000000000E+00 0. -1.
          2   -1    0    0  502    0 -0.00000000000E+00 -0.00000000000E+00 -0.30332082064E+04  0.30332082064E+04  0.00000000000E+00 0. -1.
         24    2    1    2    0    0 -0.21870487856E+01 -0.59918108321E+01 -0.29841504417E+03  0.30982542808E+03  0.83063664238E+02 0.  0.
         24    2    1    2    0    0  0.11397236212E+02 -0.77266985922E+02  0.24512329610E+02  0.11483359065E+03  0.80534558613E+02 0.  0.
         25    2    1    2    0    0 -0.94838885988E+00  0.13181815730E+03  0.44269514436E+03  0.47851922617E+03  0.12499893175E+03 0.  0.
        -11    1    4    4    0    0 -0.93608779282E+01 -0.87145096898E+02  0.11444734704E+02  0.88390474042E+02  0.00000000000E+00 0.  1.
         12    1    4    4    0    0  0.20758114141E+02  0.98781109759E+01  0.13067594906E+02  0.26443116604E+02  0.00000000000E+00 0. -1.
        -11    1    3    3    0    0 -0.26510451152E+02  0.12764968968E+02 -0.40348811227E+02  0.49937711406E+02  0.00000000000E+00 0.  1.
         12    1    3    3    0    0  0.24323402366E+02 -0.18756779800E+02 -0.25806623294E+03  0.25988771667E+03  0.00000000000E+00 0. -1.
          5    1    5    5  501    0 -0.33855147379E+02  0.95424196372E+02  0.40205724927E+03  0.41463727516E+03  0.47000000000E+01 0.  1.
         -5    1    5    5    0  501  0.32906758519E+02  0.36393960926E+02  0.40637895090E+02  0.63881951015E+02  0.47000000000E+01 0.  1.
          1    1    1    2  502    0  0.54074368075E+02 -0.84356646666E+02 -0.26609734226E+04  0.26628592973E+04  0.00000000000E+00 0. -1.
          1    1    1    2  503    0 -0.62336166642E+02  0.35797286121E+02  0.31105843797E+03  0.31925631583E+03  0.00000000000E+00 0. -1.
<mgrwt>
<rscale>  0 0.81664276E+02</rscale>
<asrwt>0</asrwt>
<pdfrwt beam="1">  1        2 0.12530672E+00 0.71883540E+02</pdfrwt>
<pdfrwt beam="2">  1        2 0.44606002E+00 0.92775814E+02</pdfrwt>
<totfact> 0.15973639E+01</totfact>
</mgrwt>
</event>
<event>
13    1  0.1942437E-008  0.8150587E+02  0.7546771E-02  0.1433858E+00
          2   -1    0    0  503    0  0.00000000000E+00  0.00000000000E+00  0.10976381177E+04  0.10976381177E+04  0.00000000000E+00 0. -1.
         -3   -1    0    0    0  501 -0.00000000000E+00 -0.00000000000E+00 -0.13235162175E+04  0.13235162175E+04  0.00000000000E+00 0.  1.
         24    2    1    2    0    0  0.49610177697E+02 -0.23266243804E+03 -0.10927489280E+04  0.11214804800E+04  0.83816868675E+02 0.  0.
         24    2    1    2    0    0 -0.21508140528E+02  0.46417549209E+02  0.12438324965E+03  0.15675570507E+03  0.80523097898E+02 0.  0.
         25    2    1    2    0    0  0.43246074637E+02  0.10068885934E+03  0.47239829337E+03  0.50079584700E+03  0.12501145315E+03 0.  0.
        -11    1    3    3    0    0  0.64774224923E+02 -0.20742782898E+03 -0.86691933585E+03  0.89373997299E+03  0.00000000000E+00 0.  1.
         12    1    3    3    0    0 -0.15164047226E+02 -0.25234609054E+02 -0.22582959216E+03  0.22774050698E+03  0.00000000000E+00 0. -1.
        -11    1    4    4    0    0 -0.47863909542E+02  0.28915530839E+02  0.46625310452E+02  0.72807838418E+02  0.00000000000E+00 0.  1.
         12    1    4    4    0    0  0.26355769014E+02  0.17502018370E+02  0.77757939193E+02  0.83947866649E+02  0.00000000000E+00 0. -1.
          5    1    5    5  502    0 -0.35741188481E+02  0.21419298411E+02  0.58272702980E+02  0.71791481466E+02  0.47000000000E+01 0.  1.
         -5    1    5    5    0  502  0.78987263118E+02  0.79269560932E+02  0.41412559039E+03  0.42900436553E+03  0.47000000000E+01 0.  1.
          1    1    1    2  503    0 -0.29203199181E+02  0.16255961113E+02  0.44661002998E+03  0.44785890858E+03  0.00000000000E+00 0. -1.
         -4    1    1    2    0  501 -0.42144912624E+02  0.69300068371E+02 -0.17652074475E+03  0.19426339455E+03  0.00000000000E+00 0.  1.
<mgrwt>
<rscale>  0 0.52193427E+02</rscale>
<asrwt>0</asrwt>
<pdfrwt beam="1">  1        2 0.16141737E+00 0.33422793E+02</pdfrwt>
<pdfrwt beam="2">  1       -3 0.19463474E+00 0.81505871E+02</pdfrwt>
<totfact> 0.30229951E+00</totfact>
</mgrwt>
</event>
<event>
13    1  0.1942437E-008  0.9514153E+02  0.7546771E-02  0.1474175E+00
          2   -1    0    0  502    0  0.00000000000E+00  0.00000000000E+00  0.38152887806E+04  0.38152887806E+04  0.00000000000E+00 0. -1.
          2   -1    0    0  503    0 -0.00000000000E+00 -0.00000000000E+00 -0.24567437627E+04  0.24567437627E+04  0.00000000000E+00 0. -1.
         24    2    1    2    0    0  0.37309008127E+03 -0.31167683198E+03 -0.15524976707E+03  0.51654198012E+03  0.79840282496E+02 0.  0.
         24    2    1    2    0    0 -0.87779977398E+02  0.47977492906E+03  0.82375383938E+03  0.96175829501E+03  0.92300179600E+02 0.  0.
         25    2    1    2    0    0 -0.33270657374E+03 -0.22472923422E+03  0.68293701156E+03  0.80201299482E+03  0.12499995677E+03 0.  0.
        -13    1    4    4    0    0  0.35563873531E+01  0.23668818532E+03  0.39179607083E+03  0.45775332449E+03  0.00000000000E+00 0.  1.
         14    1    4    4    0    0 -0.91336364751E+02  0.24308674373E+03  0.43195776855E+03  0.50400497052E+03  0.00000000000E+00 0. -1.
        -13    1    3    3    0    0  0.23115995337E+03 -0.15692783756E+03 -0.11796865941E+03  0.30327854333E+03  0.00000000000E+00 0.  1.
         14    1    3    3    0    0  0.14193012790E+03 -0.15474899442E+03 -0.37281107669E+02  0.21326343678E+03  0.00000000000E+00 0. -1.
          5    1    5    5  501    0 -0.92299524276E+02 -0.15429707267E+01  0.14977933993E+03  0.17600432838E+03  0.47000000000E+01 0. -1.
         -5    1    5    5    0  501 -0.24040704946E+03 -0.22318626349E+03  0.53315767163E+03  0.62600866644E+03  0.47000000000E+01 0. -1.
          1    1    1    2  502    0 -0.13392909031E+02 -0.16574725710E+02  0.19982185851E+04  0.19983322060E+04  0.00000000000E+00 0. -1.
          1    1    1    2  503    0  0.60789378890E+02  0.73205862851E+02 -0.19911146510E+04  0.19933870674E+04  0.00000000000E+00 0. -1.
<mgrwt>
<rscale>  0 0.45026784E+02</rscale>
<asrwt>0</asrwt>
<pdfrwt beam="1">  1        2 0.56107188E+00 0.21309424E+02</pdfrwt>
<pdfrwt beam="2">  1        2 0.36128585E+00 0.95141534E+02</pdfrwt>
<totfact> 0.11807884E+00</totfact>
</mgrwt>
</event>
<event>
13    1  0.1942437E-008  0.1082982E+03  0.7546771E-02  0.1354108E+00
         -1   -1    0    0    0  501 -0.00000000000E+00  0.00000000000E+00  0.16427086280E+04  0.16427086280E+04  0.00000000000E+00 0.  1.
          2   -1    0    0  503    0  0.00000000000E+00 -0.00000000000E+00 -0.24953205855E+03  0.24953205855E+03  0.00000000000E+00 0. -1.
         24    2    1    2    0    0  0.39781315512E+02 -0.10748961822E+03  0.28913296602E+03  0.32108754501E+03  0.79766963291E+02 0.  0.
         24    2    1    2    0    0  0.23256740860E+02 -0.13377486063E+02 -0.26849284451E+02  0.80064886630E+02  0.70495878368E+02 0.  0.
         25    2    1    2    0    0  0.31671368049E+02  0.33301402495E+02 -0.73680950781E+02  0.15220404467E+03  0.12500051898E+03 0.  0.
        -11    1    4    4    0    0  0.45641664072E+02 -0.16051278199E+02 -0.30548991336E+02  0.57219279118E+02  0.00000000000E+00 0.  1.
         12    1    4    4    0    0 -0.22384923212E+02  0.26737921357E+01  0.36997068858E+01  0.22845607513E+02  0.00000000000E+00 0. -1.
        -13    1    3    3    0    0 -0.14648308032E+02  0.43292898864E+01  0.31000086932E+02  0.34558950634E+02  0.00000000000E+00 0.  1.
         14    1    3    3    0    0  0.54429623544E+02 -0.11181890811E+03  0.25813287909E+03  0.28652859438E+03  0.00000000000E+00 0. -1.
          5    1    5    5  502    0  0.17596053964E+02 -0.41093728499E+02 -0.60240435663E+02  0.75161930031E+02  0.47000000000E+01 0.  1.
         -5    1    5    5    0  502  0.14075314085E+02  0.74395130994E+02 -0.13440515118E+02  0.77042114644E+02  0.47000000000E+01 0.  1.
          1    1    1    2  503    0  0.29011031448E+02 -0.37724678598E+02 -0.51735867188E+02  0.70295030227E+02  0.00000000000E+00 0. -1.
         -2    1    1    2    0  501 -0.12372045587E+03  0.12529038039E+03  0.12563097059E+04  0.12685891800E+04  0.00000000000E+00 0.  1.
<mgrwt>
<rscale>  0 0.71790628E+02</rscale>
<asrwt>0</asrwt>
<pdfrwt beam="2">  1        2 0.36695892E-01 0.47589824E+02</pdfrwt>
<pdfrwt beam="1">  1       -1 0.24157479E+00 0.10829824E+03</pdfrwt>
<totfact> 0.15453940E+01</totfact>
</mgrwt>
</event>
<event>
13    1  0.1942437E-008  0.1467388E+03  0.7546771E-02  0.1326864E+00
          2   -1    0    0  503    0  0.00000000000E+00  0.00000000000E+00  0.16716877419E+04  0.16716877419E+04  0.00000000000E+00 0. -1.
          2   -1    0    0  502    0 -0.00000000000E+00 -0.00000000000E+00 -0.33782599148E+04  0.33782599148E+04  0.00000000000E+00 0. -1.
         24    2    1    2    0    0  0.78180940305E+02 -0.70483847435E+02 -0.11003501094E+04  0.11083015615E+04  0.80509352426E+02 0.  0.
         24    2    1    2    0    0 -0.49652335744E+02  0.24019791043E+02 -0.24537647761E+02  0.99985447887E+02  0.79703756655E+02 0.  0.
         25    2    1    2    0    0  0.54793773124E+02 -0.12478617651E+03  0.79343365444E+02  0.20123278870E+03  0.12500127273E+03 0.  0.
        -11    1    4    4    0    0 -0.23792716941E+02 -0.29037868138E+02 -0.53433064892E+01  0.37918888297E+02  0.00000000000E+00 0.  1.
         12    1    4    4    0    0 -0.25859618803E+02  0.53057659181E+02 -0.19194341272E+02  0.62066559590E+02  0.00000000000E+00 0. -1.
        -13    1    3    3    0    0  0.25573461992E+02  0.99176283079E+01 -0.45631314775E+03  0.45713679585E+03  0.00000000000E+00 0.  1.
         14    1    3    3    0    0  0.52607478313E+02 -0.80401475742E+02 -0.64403696165E+03  0.65116476567E+03  0.00000000000E+00 0. -1.
          5    1    5    5  501    0  0.21037682047E+00 -0.92943385909E+01  0.72476416169E+02  0.73221239330E+02  0.47000000000E+01 0. -1.
         -5    1    5    5    0  501  0.54583396304E+02 -0.11549183792E+03  0.68669492745E+01  0.12801154937E+03  0.47000000000E+01 0. -1.
          1    1    1    2  502    0 -0.10135976794E+02  0.43294314388E+02 -0.21468505103E+04  0.21473109345E+04  0.00000000000E+00 0. -1.
          1    1    1    2  503    0 -0.73186400891E+02  0.12795591852E+03  0.14858227292E+04  0.14931169241E+04  0.00000000000E+00 0. -1.
<mgrwt>
<rscale>  0 0.80775851E+02</rscale>
<asrwt>0</asrwt>
<pdfrwt beam="1">  1        2 0.24583643E+00 0.14673876E+03</pdfrwt>
<pdfrwt beam="2">  1        2 0.49680292E+00 0.44464994E+02</pdfrwt>
<totfact> 0.41295567E+00</totfact>
</mgrwt>
</event>
<event>
13    1  0.1942437E-008  0.4435845E+02  0.7546771E-02  0.1607049E+00
          2   -1    0    0  502    0  0.00000000000E+00  0.00000000000E+00  0.13604573377E+04  0.13604573377E+04  0.00000000000E+00 0. -1.
          2   -1    0    0  503    0 -0.00000000000E+00 -0.00000000000E+00 -0.16485096430E+04  0.16485096430E+04  0.00000000000E+00 0. -1.
         24    2    1    2    0    0  0.95827922170E+01 -0.69911970293E+02 -0.44019938268E+03  0.45664691725E+03  0.98850376933E+02 0.  0.
         24    2    1    2    0    0 -0.20683956079E+03  0.11824027794E+03  0.11140081721E+03  0.27523683232E+03  0.81128321548E+02 0.  0.
         25    2    1    2    0    0  0.14007258832E+03 -0.74541412371E+02  0.19533353751E+03  0.28099203049E+03  0.12499831266E+03 0.  0.
        -11    1    4    4    0    0 -0.24446715238E+02  0.49711575584E+02  0.12756792151E+02  0.56847325170E+02  0.00000000000E+00 0.  1.
         12    1    4    4    0    0 -0.18239284555E+03  0.68528702355E+02  0.98644025062E+02  0.21838950715E+03  0.00000000000E+00 0. -1.
        -13    1    3    3    0    0  0.28073573106E+02 -0.58820282393E+02 -0.12738710419E+03  0.14309236681E+03  0.00000000000E+00 0.  1.
         14    1    3    3    0    0 -0.18490780889E+02 -0.11091687900E+02 -0.31281227850E+03  0.31355455043E+03  0.00000000000E+00 0. -1.
          5    1    5    5  501    0  0.14141221810E+03 -0.95986536177E+02  0.19452201355E+03  0.25898211195E+03  0.47000000000E+01 0.  1.
         -5    1    5    5    0  501 -0.13396297851E+01  0.21445123806E+02  0.81152396151E+00  0.22009918541E+02  0.47000000000E+01 0.  1.
          1    1    1    2  502    0  0.18805469918E+02  0.40081049001E+01  0.92019442415E+03  0.92039528945E+03  0.00000000000E+00 0. -1.
          1    1    1    2  503    0  0.38378710332E+02  0.22204999824E+02 -0.10747817015E+04  0.10756959111E+04  0.00000000000E+00 0. -1.
<mgrwt>
<rscale>  0 0.29204760E+02</rscale>
<asrwt>0</asrwt>
<pdfrwt beam="1">  1        2 0.20006726E+00 0.19227860E+02</pdfrwt>
<pdfrwt beam="2">  1        2 0.24242789E+00 0.44358446E+02</pdfrwt>
<totfact> 0.48278450E+01</totfact>
</mgrwt>
</event>
<event>
13    1  0.1942437E-008  0.8094343E+02  0.7546771E-02  0.1338176E+00
          2   -1    0    0  502    0  0.00000000000E+00  0.00000000000E+00  0.81111578976E+03  0.81111578976E+03  0.00000000000E+00 0. -1.
          2   -1    0    0  503    0 -0.00000000000E+00 -0.00000000000E+00 -0.48076515988E+03  0.48076515988E+03  0.00000000000E+00 0. -1.
         24    2    1    2    0    0  0.17882407710E+01 -0.19528892375E+02 -0.41307428466E+02  0.85442896762E+02  0.72177624776E+02 0.  0.
         24    2    1    2    0    0 -0.70711121446E+02  0.19513332608E+02 -0.47132423011E+00  0.10858028800E+03  0.80053881541E+02 0.  0.
         25    2    1    2    0    0  0.89165976041E+02  0.37394738124E+02  0.56146231554E+02  0.16771294504E+03  0.12500517946E+03 0.  0.
        -11    1    4    4    0    0 -0.43707276437E+02 -0.24440610600E+02 -0.19297155305E+02  0.53666094164E+02  0.00000000000E+00 0.  1.
         12    1    4    4    0    0 -0.27003845010E+02  0.43953943208E+02  0.18825831075E+02  0.54914193834E+02  0.00000000000E+00 0. -1.
        -13    1    3    3    0    0  0.12468462701E+02  0.17160637721E+02 -0.42187800365E+02  0.47220340414E+02  0.00000000000E+00 0.  1.
         14    1    3    3    0    0 -0.10680221930E+02 -0.36689530096E+02  0.88037189945E+00  0.38222556349E+02  0.00000000000E+00 0. -1.
          5    1    5    5  501    0  0.80417416736E+02 -0.16840928923E+02  0.73051883628E+02  0.11004201699E+03  0.47000000000E+01 0.  1.
         -5    1    5    5    0  501  0.87485593055E+01  0.54235667047E+02 -0.16905652074E+02  0.57670928049E+02  0.47000000000E+01 0.  1.
          1    1    1    2  502    0 -0.65988413691E+02  0.31221129196E+02  0.61533231139E+03  0.61964754747E+03  0.00000000000E+00 0. -1.
          1    1    1    2  503    0  0.45745318325E+02 -0.68600307553E+02 -0.29934916036E+03  0.31049727238E+03  0.00000000000E+00 0. -1.
<mgrwt>
<rscale>  0 0.76870007E+02</rscale>
<asrwt>0</asrwt>
<pdfrwt beam="1">  1        2 0.11928174E+00 0.73001573E+02</pdfrwt>
<pdfrwt beam="2">  1        2 0.70700758E-01 0.80943435E+02</pdfrwt>
<totfact> 0.41731473E+02</totfact>
</mgrwt>
</event>
<event>
13    1  0.1942437E-008  0.1057581E+03  0.7546771E-02  0.1305878E+00
          2   -1    0    0  503    0  0.00000000000E+00  0.00000000000E+00  0.15881135911E+04  0.15881135911E+04  0.00000000000E+00 0. -1.
          2   -1    0    0  502    0 -0.00000000000E+00 -0.00000000000E+00 -0.25541016433E+04  0.25541016433E+04  0.00000000000E+00 0. -1.
         24    2    1    2    0    0  0.92077160444E+02 -0.22224933083E+03 -0.31839533639E+02  0.26489621140E+03  0.10622277712E+03 0.  0.
         24    2    1    2    0    0 -0.49592761769E+02  0.51314157682E+03 -0.16450173034E+03  0.54776939469E+03  0.84951577937E+02 0.  0.
         25    2    1    2    0    0 -0.35084120812E+02 -0.32648381866E+03  0.78119265053E+03  0.85656864029E+03  0.12500119558E+03 0.  0.
        -13    1    4    4    0    0 -0.96386648338E+01  0.42079495677E+03 -0.14569238783E+03  0.44540719726E+03  0.00000000000E+00 0.  1.
         14    1    4    4    0    0 -0.39954096935E+02  0.92346620045E+02 -0.18809342517E+02  0.10236219742E+03  0.00000000000E+00 0. -1.
        -13    1    3    3    0    0  0.70130840819E+02 -0.14950746650E+03  0.28866455665E+02  0.16764274406E+03  0.00000000000E+00 0.  1.
         14    1    3    3    0    0  0.21946319625E+02 -0.72741864330E+02 -0.60705989304E+02  0.97253467335E+02  0.00000000000E+00 0. -1.
          5    1    5    5  501    0  0.65528501406E+01 -0.26343498790E+03  0.68637667575E+03  0.73523871206E+03  0.47000000000E+01 0. -1.
         -5    1    5    5    0  501 -0.41636970953E+02 -0.63048830756E+02  0.94815974784E+02  0.12132992823E+03  0.47000000000E+01 0. -1.
          1    1    1    2  502    0  0.53396744116E+02 -0.51947839233E+02 -0.20050499569E+04  0.20064334327E+04  0.00000000000E+00 0. -1.
          1    1    1    2  503    0 -0.60797021978E+02  0.87539411911E+02  0.45421051815E+03  0.46654755526E+03  0.00000000000E+00 0. -1.
<mgrwt>
<rscale>  0 0.88761785E+02</rscale>
<asrwt>0</asrwt>
<pdfrwt beam="1">  1        2 0.23354612E+00 0.10575813E+03</pdfrwt>
<pdfrwt beam="2">  1        2 0.37560318E+00 0.74496915E+02</pdfrwt>
<totfact> 0.11481684E+01</totfact>
</mgrwt>
</event>
<event>
13    1  0.1942437E-008  0.1289166E+03  0.7546771E-02  0.1294149E+00
          2   -1    0    0  502    0  0.00000000000E+00  0.00000000000E+00  0.31997984824E+04  0.31997984824E+04  0.00000000000E+00 0. -1.
          2   -1    0    0  503    0 -0.00000000000E+00 -0.00000000000E+00 -0.38782974541E+04  0.38782974541E+04  0.00000000000E+00 0. -1.
         24    2    1    2    0    0 -0.52878693612E+02 -0.93916491582E+02 -0.14620053599E+03  0.19911922802E+03  0.81592932370E+02 0.  0.
         24    2    1    2    0    0  0.20325946663E+02 -0.74380003429E+01  0.20626635069E+03  0.22254817436E+03  0.80705727971E+02 0.  0.
         25    2    1    2    0    0 -0.82942389029E+02 -0.33562471160E+02  0.11597433198E+04  0.11698873431E+04  0.12500379403E+03 0.  0.
        -11    1    4    4    0    0  0.64406942766E+01 -0.27474775426E+02  0.19747114752E+02  0.34442624298E+02  0.00000000000E+00 0.  1.
         12    1    4    4    0    0  0.13885252386E+02  0.20036775083E+02  0.18651923594E+03  0.18810555006E+03  0.00000000000E+00 0. -1.
        -13    1    3    3    0    0 -0.45879902345E+02 -0.70416740538E+01 -0.65928402062E+02  0.80629428940E+02  0.00000000000E+00 0.  1.
         14    1    3    3    0    0 -0.69987912668E+01 -0.86874817528E+02 -0.80272133928E+02  0.11848979908E+03  0.00000000000E+00 0. -1.
          5    1    5    5  501    0 -0.24288207360E+02 -0.48757104663E+02  0.94854119020E+03  0.95011559917E+03  0.47000000000E+01 0. -1.
         -5    1    5    5    0  501 -0.58654181670E+02  0.15194633503E+02  0.21120212955E+03  0.21977174396E+03  0.47000000000E+01 0. -1.
          1    1    1    2  502    0  0.54416347885E+01  0.67874261882E+02  0.17923455039E+04  0.17936384619E+04  0.00000000000E+00 0. -1.
          1    1    1    2  503    0  0.11005350119E+03  0.67042701203E+02 -0.36906536100E+04  0.36929027290E+04  0.00000000000E+00 0. -1.
<mgrwt>
<rscale>  0 0.93692026E+02</rscale>
<asrwt>0</asrwt>
<pdfrwt beam="1">  1        2 0.47055860E+00 0.68092047E+02</pdfrwt>
<pdfrwt beam="2">  1        2 0.57033786E+00 0.12891661E+03</pdfrwt>
<totfact> 0.31658501E-01</totfact>
</mgrwt>
</event>
<event>
13    1  0.1942437E-008  0.1408184E+03  0.7546771E-02  0.1408467E+00
          2   -1    0    0  503    0  0.00000000000E+00  0.00000000000E+00  0.24275500398E+04  0.24275500398E+04  0.00000000000E+00 0. -1.
          2   -1    0    0  502    0 -0.00000000000E+00 -0.00000000000E+00 -0.19456315353E+04  0.19456315353E+04  0.00000000000E+00 0. -1.
         24    2    1    2    0    0  0.53364425337E+02 -0.11362882881E+03 -0.72267120299E+02  0.16572091242E+03  0.80508456137E+02 0.  0.
         24    2    1    2    0    0 -0.31946320829E+02 -0.21746740052E+03 -0.16083711105E+03  0.28449428025E+03  0.82193561212E+02 0.  0.
         25    2    1    2    0    0  0.14177316042E+03  0.29547125941E+03  0.14636344253E+04  0.15050768532E+04  0.12501083489E+03 0.  0.
        -11    1    3    3    0    0 -0.12451964759E+02 -0.23510493147E+02 -0.42644256270E+02  0.50262583571E+02  0.00000000000E+00 0.  1.
         12    1    3    3    0    0  0.65816390097E+02 -0.90118335663E+02 -0.29622864029E+02  0.11545832885E+03  0.00000000000E+00 0. -1.
        -13    1    4    4    0    0 -0.25212643354E+02 -0.26197790498E+02 -0.31179402548E+01  0.36492782345E+02  0.00000000000E+00 0.  1.
         14    1    4    4    0    0 -0.67336774754E+01 -0.19126961002E+03 -0.15771917079E+03  0.24800149791E+03  0.00000000000E+00 0. -1.
          5    1    5    5  501    0 -0.18631284536E+02  0.65633438172E+02  0.22746015557E+03  0.23751859999E+03  0.47000000000E+01 0. -1.
         -5    1    5    5    0  501  0.16040444495E+03  0.22983782124E+03  0.12361742697E+04  0.12675582532E+04  0.47000000000E+01 0. -1.
          1    1    1    2  502    0 -0.15094942480E+03  0.15554466489E+02 -0.15794478181E+04  0.15867208578E+04  0.00000000000E+00 0. -1.
          1    1    1    2  503    0 -0.12241840125E+02  0.20070503423E+02  0.83083612865E+03  0.83116867146E+03  0.00000000000E+00 0. -1.
<mgrwt>
<rscale>  0 0.57537320E+02</rscale>
<asrwt>0</asrwt>
<pdfrwt beam="1">  1        2 0.35699266E+00 0.23509312E+02</pdfrwt>
<pdfrwt beam="2">  1        2 0.28612228E+00 0.14081838E+03</pdfrwt>
<totfact> 0.10164065E+01</totfact>
</mgrwt>
</event>
<event>
13    1  0.1942437E-008  0.6140243E+02  0.7546771E-02  0.1401217E+00
          2   -1    0    0  503    0  0.00000000000E+00  0.00000000000E+00  0.11411595922E+04  0.11411595922E+04  0.00000000000E+00 0. -1.
          2   -1    0    0  502    0 -0.00000000000E+00 -0.00000000000E+00 -0.30398887342E+04  0.30398887342E+04  0.00000000000E+00 0. -1.
         24    2    1    2    0    0 -0.48927439219E+02  0.53591791712E+02 -0.82755599664E+03  0.83470401342E+03  0.81338109150E+02 0.  0.
         24    2    1    2    0    0  0.11969276411E+03 -0.23742801838E+02 -0.19747902437E+03  0.23884151059E+03  0.56189177765E+02 0.  0.
         25    2    1    2    0    0  0.35050077863E+02  0.94305802440E+01 -0.13548825254E+02  0.13086692629E+03  0.12500055171E+03 0.  0.
        -13    1    4    4    0    0  0.32866743319E+02  0.12927046551E+02 -0.85306191624E+02  0.92328097989E+02  0.00000000000E+00 0.  1.
         14    1    4    4    0    0  0.86826020787E+02 -0.36669848389E+02 -0.11217283274E+03  0.14651341260E+03  0.00000000000E+00 0. -1.
        -13    1    3    3    0    0 -0.37503616285E+02  0.75009603519E+02 -0.59418201677E+03  0.60007102155E+03  0.00000000000E+00 0.  1.
         14    1    3    3    0    0 -0.11423822934E+02 -0.21417811807E+02 -0.23337397987E+03  0.23463299187E+03  0.00000000000E+00 0. -1.
          5    1    5    5  501    0 -0.26165672028E+02  0.10447150403E+02  0.40164139008E+02  0.49285225032E+02  0.47000000000E+01 0.  1.
         -5    1    5    5    0  501  0.61215749891E+02 -0.10165701591E+01 -0.53712964262E+02  0.81581701254E+02  0.47000000000E+01 0.  1.
          1    1    1    2  502    0 -0.57041598049E+02 -0.20392770246E+01 -0.19170758547E+04  0.19179253727E+04  0.00000000000E+00 0. -1.
          1    1    1    2  503    0 -0.48773804702E+02 -0.37240293093E+02  0.10569305590E+04  0.10587105034E+04  0.00000000000E+00 0. -1.
<mgrwt>
<rscale>  0 0.59200761E+02</rscale>
<asrwt>0</asrwt>
<pdfrwt beam="1">  1        2 0.16781759E+00 0.61402427E+02</pdfrwt>
<pdfrwt beam="2">  1        2 0.44704246E+00 0.57078039E+02</pdfrwt>
<totfact> 0.11841798E+01</totfact>
</mgrwt>
</event>
<event>
13    1  0.1942437E-008  0.2403166E+03  0.7546771E-02  0.1261505E+00
          2   -1    0    0  503    0  0.00000000000E+00  0.00000000000E+00  0.26930879552E+04  0.26930879552E+04  0.00000000000E+00 0. -1.
          2   -1    0    0  502    0 -0.00000000000E+00 -0.00000000000E+00 -0.19165452886E+04  0.19165452886E+04  0.00000000000E+00 0. -1.
         24    2    1    2    0    0  0.34251038862E+03 -0.16232259938E+03 -0.74320236431E+03  0.84114706513E+03  0.10731560123E+03 0.  0.
         24    2    1    2    0    0 -0.32395523773E+03  0.32401762376E+03  0.91172328857E+02  0.47414403287E+03  0.81029339138E+02 0.  0.
         25    2    1    2    0    0 -0.26558670540E+01  0.83960182115E+02  0.33995708669E+03  0.37182344833E+03  0.12500196050E+03 0.  0.
        -11    1    4    4    0    0 -0.34862783736E+02  0.60293117532E+02 -0.89681211176E+01  0.70221797954E+02  0.00000000000E+00 0.  1.
         12    1    4    4    0    0 -0.28909245400E+03  0.26372450623E+03  0.10014044997E+03  0.40392223492E+03  0.00000000000E+00 0. -1.
        -13    1    3    3    0    0  0.34698802755E+03 -0.14853398956E+03 -0.69584920705E+03  0.79162437827E+03  0.00000000000E+00 0.  1.
         14    1    3    3    0    0 -0.44776389226E+01 -0.13788609821E+02 -0.47353157262E+02  0.49522686860E+02  0.00000000000E+00 0. -1.
          5    1    5    5  501    0 -0.84589915179E+01  0.82975053804E+02  0.34968239479E+03  0.35952229599E+03  0.47000000000E+01 0. -1.
         -5    1    5    5    0  501  0.58031244639E+01  0.98512831136E+00 -0.97253080980E+01  0.12301152342E+02  0.47000000000E+01 0. -1.
          1    1    1    2  502    0 -0.49387047324E+02 -0.70684079698E+01 -0.90902955844E+03  0.91039759498E+03  0.00000000000E+00 0. -1.
          1    1    1    2  503    0  0.33487763486E+02 -0.23858679852E+03  0.19976451738E+04  0.20121211025E+04  0.00000000000E+00 0. -1.
<mgrwt>
<rscale>  0 0.10949644E+03</rscale>
<asrwt>0</asrwt>
<pdfrwt beam="1">  1        2 0.39604235E+00 0.24031663E+03</pdfrwt>
<pdfrwt beam="2">  1        2 0.28184489E+00 0.49890308E+02</pdfrwt>
<totfact> 0.62632780E+00</totfact>
</mgrwt>
</event>
<event>
13    1  0.1942437E-008  0.1088939E+03  0.7546771E-02  0.1262742E+00
         -3   -1    0    0    0  501 -0.00000000000E+00  0.00000000000E+00  0.26525883104E+04  0.26525883104E+04  0.00000000000E+00 0.  1.
          2   -1    0    0  503    0  0.00000000000E+00 -0.00000000000E+00 -0.36267399897E+04  0.36267399897E+04  0.00000000000E+00 0. -1.
         24    2    1    2    0    0 -0.34322826390E+02  0.46032523317E+01  0.82292487207E+02  0.12047664203E+03  0.80890799733E+02 0.  0.
         24    2    1    2    0    0 -0.17998517017E+03 -0.11327409911E+03  0.47619918651E+03  0.52754166916E+03  0.79428360532E+02 0.  0.
         25    2    1    2    0    0  0.38472150319E+03  0.56277914238E+02 -0.10529981880E+04  0.11294285329E+04  0.12500315328E+03 0.  0.
        -11    1    3    3    0    0 -0.41240519325E+02 -0.29234632924E+02  0.33299056247E+02  0.60533225119E+02  0.00000000000E+00 0.  1.
         12    1    3    3    0    0  0.69176929347E+01  0.33837885255E+02  0.48993430960E+02  0.59943416914E+02  0.00000000000E+00 0. -1.
        -13    1    4    4    0    0 -0.15463519179E+03 -0.58181637983E+02  0.32370161495E+03  0.36342795856E+03  0.00000000000E+00 0.  1.
         14    1    4    4    0    0 -0.25349978383E+02 -0.55092461130E+02  0.15249757156E+03  0.16411371061E+03  0.00000000000E+00 0. -1.
          5    1    5    5  502    0  0.23261436305E+03 -0.28102582376E+02 -0.59509749771E+03  0.63957979863E+03  0.47000000000E+01 0. -1.
         -5    1    5    5    0  502  0.15210714014E+03  0.84380496614E+02 -0.45790069026E+03  0.48984873424E+03  0.47000000000E+01 0. -1.
          1    1    1    2  503    0 -0.67052991823E+02  0.85786116699E+02 -0.24881051484E+04  0.24904864165E+04  0.00000000000E+00 0. -1.
         -4    1    1    2    0  501 -0.10336051481E+03 -0.33393184156E+02  0.20084599833E+04  0.20113950396E+04  0.00000000000E+00 0.  1.
<mgrwt>
<rscale>  0 0.10883537E+03</rscale>
<asrwt>0</asrwt>
<pdfrwt beam="2">  1        2 0.53334411E+00 0.10889389E+03</pdfrwt>
<pdfrwt beam="1">  1       -3 0.39008652E+00 0.10877689E+03</pdfrwt>
<totfact> 0.12407411E-02</totfact>
</mgrwt>
</event>
<event>
13    1  0.1942437E-008  0.4631878E+03  0.7546771E-02  0.1164872E+00
         -1   -1    0    0    0  501 -0.00000000000E+00  0.00000000000E+00  0.13214148363E+04  0.13214148363E+04  0.00000000000E+00 0.  1.
          2   -1    0    0  503    0  0.00000000000E+00 -0.00000000000E+00 -0.18869708618E+04  0.18869708618E+04  0.00000000000E+00 0. -1.
         24    2    1    2    0    0 -0.10804701615E+03 -0.66701148064E+02  0.62344296969E+03  0.64056399824E+03  0.74282558711E+02 0.  0.
         24    2    1    2    0    0  0.68940253819E+02 -0.10344563032E+03 -0.55788586049E+02  0.15832724388E+03  0.80631214756E+02 0.  0.
         25    2    1    2    0    0 -0.43888199711E+03  0.19098496049E+03 -0.95659545234E+02  0.50384999926E+03  0.12498564170E+03 0.  0.
        -11    1    4    4    0    0  0.62318187390E+02 -0.11204314115E+03 -0.65315589313E+02  0.14388658090E+03  0.00000000000E+00 0.  1.
         12    1    4    4    0    0  0.66220664296E+01  0.85975108215E+01  0.95270032635E+01  0.14440662980E+02  0.00000000000E+00 0. -1.
        -13    1    3    3    0    0 -0.85280698111E+02 -0.11623518032E+02  0.41127744830E+03  0.42018691451E+03  0.00000000000E+00 0.  1.
         14    1    3    3    0    0 -0.22766318042E+02 -0.55077630032E+02  0.21216552139E+03  0.22037708373E+03  0.00000000000E+00 0. -1.
          5    1    5    5  502    0 -0.32911072352E+03  0.12957420535E+03 -0.14388709706E+02  0.35402325912E+03  0.47000000000E+01 0.  1.
         -5    1    5    5    0  502 -0.10977127359E+03  0.61410755148E+02 -0.81270835528E+02  0.14982674014E+03  0.47000000000E+01 0.  1.
          1    1    1    2  503    0  0.45348957939E+03 -0.88913887136E+02 -0.14319457048E+04  0.15046683952E+04  0.00000000000E+00 0. -1.
         -2    1    1    2    0  501  0.24499180057E+02  0.68075705029E+02  0.39439484091E+03  0.40097606160E+03  0.00000000000E+00 0.  1.
<mgrwt>
<rscale>  0 0.18306174E+03</rscale>
<asrwt>0</asrwt>
<pdfrwt beam="2">  1        2 0.27749571E+00 0.46318777E+03</pdfrwt>
<pdfrwt beam="1">  1       -1 0.19432571E+00 0.72349924E+02</pdfrwt>
<totfact> 0.21246747E+00</totfact>
</mgrwt>
</event>
<event>
13    1  0.1942437E-008  0.1451441E+03  0.7546771E-02  0.1225263E+00
          2   -1    0    0  502    0  0.00000000000E+00  0.00000000000E+00  0.25595298178E+04  0.25595298178E+04  0.00000000000E+00 0. -1.
          2   -1    0    0  503    0 -0.00000000000E+00 -0.00000000000E+00 -0.91939127876E+03  0.91939127876E+03  0.00000000000E+00 0. -1.
         24    2    1    2    0    0 -0.90583005428E+02  0.24067914381E+01 -0.28837286131E-01  0.13337156127E+03  0.97861631943E+02 0.  0.
         24    2    1    2    0    0  0.56960206587E+03  0.16163575740E+03  0.48587887865E+03  0.77020463475E+03  0.81020140500E+02 0.  0.
         25    2    1    2    0    0 -0.76475810650E+03 -0.16100162873E+03  0.11912994795E+04  0.14302430011E+04  0.12499642660E+03 0.  0.
        -13    1    4    4    0    0  0.34734188501E+03  0.57597974418E+02  0.29387759856E+03  0.45861525779E+03  0.00000000000E+00 0.  1.
         14    1    4    4    0    0  0.22226018086E+03  0.10403778298E+03  0.19200128009E+03  0.31158937697E+03  0.00000000000E+00 0. -1.
        -13    1    3    3    0    0  0.79658185721E+01 -0.47747339314E+01 -0.28960253626E+02  0.30412968282E+02  0.00000000000E+00 0.  1.
         14    1    3    3    0    0 -0.98548824000E+02  0.71815253695E+01  0.28931416340E+02  0.10295859299E+03  0.00000000000E+00 0. -1.
          5    1    5    5  501    0 -0.61617839696E+03 -0.89899915842E+02  0.99678587665E+03  0.11753135691E+04  0.47000000000E+01 0.  1.
         -5    1    5    5    0  501 -0.14857970953E+03 -0.71101712889E+02  0.19451360280E+03  0.25492943207E+03  0.47000000000E+01 0.  1.
          1    1    1    2  502    0  0.13323961660E+03  0.54169578160E+02  0.53310971947E+03  0.55217127019E+03  0.00000000000E+00 0. -1.
          1    1    1    2  503    0  0.15249942945E+03 -0.57210498264E+02 -0.57012070123E+03  0.59293062922E+03  0.00000000000E+00 0. -1.
<mgrwt>
<rscale>  0 0.13148900E+03</rscale>
<asrwt>0</asrwt>
<pdfrwt beam="1">  1        2 0.37640144E+00 0.14514412E+03</pdfrwt>
<pdfrwt beam="2">  1        2 0.13520460E+00 0.11911855E+03</pdfrwt>
<totfact> 0.23555993E+01</totfact>
</mgrwt>
</event>
<event>
13    1  0.1942437E-008  0.1346658E+03  0.7546771E-02  0.1266373E+00
          2   -1    0    0  502    0  0.00000000000E+00  0.00000000000E+00  0.19963513250E+04  0.19963513250E+04  0.00000000000E+00 0. -1.
          2   -1    0    0  503    0 -0.00000000000E+00 -0.00000000000E+00 -0.25036871935E+04  0.25036871935E+04  0.00000000000E+00 0. -1.
         24    2    1    2    0    0  0.28397026747E+02 -0.71916821795E+02 -0.33142187881E+03  0.34971801085E+03  0.80522077523E+02 0.  0.
         24    2    1    2    0    0 -0.28204501993E+03  0.22003696001E+03 -0.18391872180E+03  0.41015171534E+03  0.80203967059E+02 0.  0.
         25    2    1    2    0    0  0.39993987939E+03 -0.13009154955E+03  0.11956309254E+03  0.45474736327E+03  0.12499645159E+03 0.  0.
        -11    1    4    4    0    0 -0.24561275150E+03  0.22035123699E+03 -0.16960808158E+03  0.37100834584E+03  0.00000000000E+00 0.  1.
         12    1    4    4    0    0 -0.36432268431E+02 -0.31427697613E+00 -0.14310640213E+02  0.39143369507E+02  0.00000000000E+00 0. -1.
        -13    1    3    3    0    0 -0.11645783964E+02 -0.89386241582E+01 -0.60190122568E+01  0.15866688203E+02  0.00000000000E+00 0.  1.
         14    1    3    3    0    0  0.40042810711E+02 -0.62978197637E+02 -0.32540286656E+03  0.33385132264E+03  0.00000000000E+00 0. -1.
          5    1    5    5  501    0  0.99389912691E+01 -0.34309949149E+02  0.11898846269E+01  0.36048051036E+02  0.47000000000E+01 0.  1.
         -5    1    5    5    0  501  0.39000088812E+03 -0.95781600401E+02  0.11837320792E+03  0.41869931223E+03  0.47000000000E+01 0.  1.
          1    1    1    2  502    0 -0.72574772173E+02 -0.11340182218E+03  0.15819296841E+04  0.15876487635E+04  0.00000000000E+00 0. -1.
          1    1    1    2  503    0 -0.73717114029E+02  0.95373233511E+02 -0.16934880446E+04  0.16977726655E+04  0.00000000000E+00 0. -1.
<mgrwt>
<rscale>  0 0.10692489E+03</rscale>
<asrwt>0</asrwt>
<pdfrwt beam="1">  1        2 0.29358108E+00 0.13466575E+03</pdfrwt>
<pdfrwt beam="2">  1        2 0.36818929E+00 0.84898583E+02</pdfrwt>
<totfact> 0.73910651E+00</totfact>
</mgrwt>
</event>
<event>
13    1  0.1942437E-008  0.4032322E+02  0.7546771E-02  0.1521113E+00
          2   -1    0    0  503    0  0.00000000000E+00  0.00000000000E+00  0.42085946678E+03  0.42085946678E+03  0.00000000000E+00 0. -1.
         -1   -1    0    0    0  501 -0.00000000000E+00 -0.00000000000E+00 -0.34226792559E+03  0.34226792559E+03  0.00000000000E+00 0.  1.
         24    2    1    2    0    0  0.13684997239E+02 -0.15605704788E+02  0.31394133517E+02  0.88881773834E+02  0.80520562152E+02 0.  0.
         24    2    1    2    0    0  0.40095349193E+02 -0.19002420226E+02  0.42796864136E+02  0.10138213738E+03  0.80486254712E+02 0.  0.
         25    2    1    2    0    0  0.13576020356E+02  0.48993841899E+02  0.10801626341E+03  0.17284990134E+03  0.12499948143E+03 0.  0.
        -11    1    3    3    0    0 -0.15608323473E+02  0.20624720184E+02  0.33404018172E+02  0.42247216172E+02  0.00000000000E+00 0.  1.
         12    1    3    3    0    0  0.29293320712E+02 -0.36230424971E+02 -0.20098846550E+01  0.46634557662E+02  0.00000000000E+00 0. -1.
        -11    1    4    4    0    0  0.63614470448E+02 -0.22645091157E+02  0.36523978436E+02  0.76769798780E+02  0.00000000000E+00 0.  1.
         12    1    4    4    0    0 -0.23519121255E+02  0.36426709306E+01  0.62728857004E+01  0.24612338596E+02  0.00000000000E+00 0. -1.
          5    1    5    5  502    0  0.12419550116E+01  0.48534639928E+02 -0.13505409080E+02  0.50612644661E+02  0.47000000000E+01 0.  1.
         -5    1    5    5    0  502  0.12334065345E+02  0.45920197132E+00  0.12152167249E+03  0.12223725668E+03  0.47000000000E+01 0.  1.
          1    1    1    2  503    0 -0.38799096872E+02  0.81478564010E+01  0.14419567526E+03  0.14954648189E+03  0.00000000000E+00 0. -1.
         -2    1    1    2    0  501 -0.28557269916E+02 -0.22533573286E+02 -0.24781139513E+03  0.25046709793E+03  0.00000000000E+00 0.  1.
<mgrwt>
<rscale>  0 0.38299269E+02</rscale>
<asrwt>0</asrwt>
<pdfrwt beam="1">  1        2 0.61891098E-01 0.40323216E+02</pdfrwt>
<pdfrwt beam="2">  1       -1 0.50333519E-01 0.36376910E+02</pdfrwt>
<totfact> 0.37665151E+02</totfact>
</mgrwt>
</event>
<event>
13    1  0.1942437E-008  0.1884133E+03  0.7546771E-02  0.1256321E+00
          2   -1    0    0  503    0  0.00000000000E+00  0.00000000000E+00  0.16030533381E+04  0.16030533381E+04  0.00000000000E+00 0. -1.
          2   -1    0    0  502    0 -0.00000000000E+00 -0.00000000000E+00 -0.31342151591E+04  0.31342151591E+04  0.00000000000E+00 0. -1.
         24    2    1    2    0    0  0.54370475765E+02 -0.14304500747E+03 -0.40986020783E+03  0.44822373854E+03  0.97473622222E+02 0.  0.
         24    2    1    2    0    0 -0.76411812927E+02 -0.20652778656E+03  0.24042462034E+02  0.23995084933E+03  0.92227318819E+02 0.  0.
         25    2    1    2    0    0 -0.64031114187E+02  0.19673132025E+03  0.29627408080E+03  0.38237316773E+03  0.12501084951E+03 0.  0.
        -11    1    3    3    0    0  0.36129831737E+01 -0.77012262636E+02 -0.94027439592E+02  0.12159400331E+03  0.00000000000E+00 0.  1.
         12    1    3    3    0    0  0.50757492591E+02 -0.66032744833E+02 -0.31583276824E+03  0.32662973523E+03  0.00000000000E+00 0. -1.
        -13    1    4    4    0    0 -0.95100729165E+02 -0.16924393381E+03  0.33962919562E+02  0.19708155094E+03  0.00000000000E+00 0.  1.
         14    1    4    4    0    0  0.18688916237E+02 -0.37283852753E+02 -0.99204575282E+01  0.42869298382E+02  0.00000000000E+00 0. -1.
          5    1    5    5  501    0 -0.79682425864E+02  0.11815803890E+03  0.11179331454E+03  0.18119173911E+03  0.47000000000E+01 0. -1.
         -5    1    5    5    0  501  0.15651311677E+02  0.78573281355E+02  0.18448076627E+03  0.20118142862E+03  0.47000000000E+01 0. -1.
          1    1    1    2  502    0  0.13658280230E+03  0.19680850577E+03 -0.25475372881E+04  0.25587760129E+04  0.00000000000E+00 0. -1.
          1    1    1    2  503    0 -0.50510350952E+02 -0.43967031999E+02  0.11059191320E+04  0.11079447288E+04  0.00000000000E+00 0. -1.
<mgrwt>
<rscale>  0 0.11232639E+03</rscale>
<asrwt>0</asrwt>
<pdfrwt beam="1">  1        2 0.23574314E+00 0.66965629E+02</pdfrwt>
<pdfrwt beam="2">  1        2 0.46091399E+00 0.18841334E+03</pdfrwt>
<totfact> 0.50987088E+00</totfact>
</mgrwt>
</event>
<event>
13    1  0.1942437E-008  0.5742975E+02  0.7546771E-02  0.1461780E+00
         -3   -1    0    0    0  501 -0.00000000000E+00  0.00000000000E+00  0.18782837094E+04  0.18782837094E+04  0.00000000000E+00 0.  1.
          2   -1    0    0  503    0  0.00000000000E+00 -0.00000000000E+00 -0.28704279398E+04  0.28704279398E+04  0.00000000000E+00 0. -1.
         24    2    1    2    0    0 -0.12363652284E+02 -0.64103687490E+01  0.34134068180E+03  0.35056593437E+03  0.78670582563E+02 0.  0.
         24    2    1    2    0    0  0.13332145546E+02  0.10383301862E+03  0.94246309424E+02  0.16090228295E+03  0.77769762497E+02 0.  0.
         25    2    1    2    0    0 -0.15000023996E+02 -0.16291904092E+03  0.15258594942E+03  0.25627402981E+03  0.12500516703E+03 0.  0.
        -11    1    4    4    0    0  0.11855385624E+02  0.13536941775E+02 -0.11872539387E+02  0.21558203831E+02  0.00000000000E+00 0.  1.
         12    1    4    4    0    0  0.14767599224E+01  0.90296076841E+02  0.10611884881E+03  0.13934407912E+03  0.00000000000E+00 0. -1.
        -13    1    3    3    0    0  0.13838488273E+02 -0.31508026065E+02  0.24876572994E+03  0.25113472053E+03  0.00000000000E+00 0.  1.
         14    1    3    3    0    0 -0.26202140557E+02  0.25097657316E+02  0.92574951859E+02  0.99431213832E+02  0.00000000000E+00 0. -1.
          5    1    5    5  502    0 -0.42804211295E+02 -0.46375723335E+02  0.13861540787E+01  0.63300234143E+02  0.47000000000E+01 0. -1.
         -5    1    5    5    0  502  0.27804187299E+02 -0.11654331758E+03  0.15119979534E+03  0.19297379567E+03  0.47000000000E+01 0. -1.
          1    1    1    2  503    0  0.42122832517E+02  0.39038120507E+02 -0.27800364774E+04  0.27806296272E+04  0.00000000000E+00 0. -1.
         -4    1    1    2    0  501 -0.28091301783E+02  0.26458270542E+02  0.11997193063E+04  0.12003397749E+04  0.00000000000E+00 0.  1.
<mgrwt>
<rscale>  0 0.47076473E+02</rscale>
<asrwt>0</asrwt>
<pdfrwt beam="2">  1        2 0.42212175E+00 0.57429754E+02</pdfrwt>
<pdfrwt beam="1">  1       -3 0.27621819E+00 0.38589653E+02</pdfrwt>
<totfact> 0.15243166E-01</totfact>
</mgrwt>
</event>
<event>
13    1  0.1942437E-008  0.1556812E+03  0.7546771E-02  0.1245723E+00
          2   -1    0    0  502    0  0.00000000000E+00  0.00000000000E+00  0.16338906943E+04  0.16338906943E+04  0.00000000000E+00 0. -1.
          2   -1    0    0  503    0 -0.00000000000E+00 -0.00000000000E+00 -0.11951804221E+04  0.11951804221E+04  0.00000000000E+00 0. -1.
         24    2    1    2    0    0 -0.59215593236E+02  0.10909580161E+03 -0.10864258040E+03  0.18361939644E+03  0.80650431245E+02 0.  0.
         24    2    1    2    0    0 -0.34987429634E+02  0.34859829979E+02 -0.54314356370E+01  0.94942945404E+02  0.80903241037E+02 0.  0.
         25    2    1    2    0    0 -0.24984750795E+02 -0.18522803379E+03  0.44825310404E+03  0.50148737626E+03  0.12500032395E+03 0.  0.
        -11    1    4    4    0    0 -0.20698080069E+02  0.57444147106E+02  0.13064844406E+02  0.62441418263E+02  0.00000000000E+00 0.  1.
         12    1    4    4    0    0 -0.14289349565E+02 -0.22584317127E+02 -0.18496280042E+02  0.32501527141E+02  0.00000000000E+00 0. -1.
        -13    1    3    3    0    0  0.14057100267E+02  0.47279124022E+01  0.17759833715E+01  0.14936845066E+02  0.00000000000E+00 0.  1.
         14    1    3    3    0    0 -0.73272693503E+02  0.10436788921E+03 -0.11041856378E+03  0.16868255137E+03  0.00000000000E+00 0. -1.
          5    1    5    5  501    0 -0.57550221615E+02 -0.18228991169E+03  0.39441221403E+03  0.43832034460E+03  0.47000000000E+01 0.  1.
         -5    1    5    5    0  501  0.32565470820E+02 -0.29381220979E+01  0.53840890011E+02  0.63167031657E+02  0.47000000000E+01 0.  1.
          1    1    1    2  502    0 -0.69236792755E+02  0.57625826886E+02  0.10656599361E+04  0.10694604101E+04  0.00000000000E+00 0. -1.
          1    1    1    2  503    0  0.18842456642E+03 -0.16353424690E+02 -0.96112875194E+03  0.97956098817E+03  0.00000000000E+00 0. -1.
<mgrwt>
<rscale>  0 0.11842220E+03</rscale>
<asrwt>0</asrwt>
<pdfrwt beam="1">  1        2 0.24027804E+00 0.90080350E+02</pdfrwt>
<pdfrwt beam="2">  1        2 0.17576183E+00 0.15568120E+03</pdfrwt>
<totfact> 0.48300599E+01</totfact>
</mgrwt>
</event>
<event>
13    1  0.1942437E-008  0.3975300E+03  0.7546771E-02  0.1156371E+00
          2   -1    0    0  502    0  0.00000000000E+00  0.00000000000E+00  0.17839600599E+04  0.17839600599E+04  0.00000000000E+00 0. -1.
          2   -1    0    0  503    0 -0.00000000000E+00 -0.00000000000E+00 -0.94026739634E+03  0.94026739634E+03  0.00000000000E+00 0. -1.
         24    2    1    2    0    0  0.44755833712E+02 -0.19413897951E+01 -0.40435422770E+02  0.93766734938E+02  0.71765754513E+02 0.  0.
         24    2    1    2    0    0  0.10190325873E+03 -0.36492486803E+02 -0.68177534948E+02  0.14749518365E+03  0.73421231236E+02 0.  0.
         25    2    1    2    0    0  0.34731284861E+03  0.16966958812E+03  0.54859132204E+03  0.68263630622E+03  0.12500361602E+03 0.  0.
        -11    1    4    4    0    0  0.60779245915E+02  0.10796779581E+02 -0.11083440377E+02  0.62717858971E+02  0.00000000000E+00 0.  1.
         12    1    4    4    0    0  0.41124012811E+02 -0.47289266384E+02 -0.57094094571E+02  0.84777324679E+02  0.00000000000E+00 0. -1.
        -13    1    3    3    0    0  0.26779439094E+02  0.34542684130E+02 -0.17561426823E+02  0.47103493471E+02  0.00000000000E+00 0.  1.
         14    1    3    3    0    0  0.17976394618E+02 -0.36484073925E+02 -0.22873995947E+02  0.46663241467E+02  0.00000000000E+00 0. -1.
          5    1    5    5  501    0  0.24584761623E+03  0.12975289160E+03  0.28893455480E+03  0.40097647094E+03  0.47000000000E+01 0.  1.
         -5    1    5    5    0  501  0.10146523238E+03  0.39916696518E+02  0.25965676724E+03  0.28165983529E+03  0.47000000000E+01 0.  1.
          1    1    1    2  502    0 -0.41047127720E+03 -0.43214818133E+02  0.10575989513E+04  0.11352839873E+04  0.00000000000E+00 0. -1.
          1    1    1    2  503    0 -0.83500663842E+02 -0.88020893387E+02 -0.65388465209E+03  0.66504524416E+03  0.00000000000E+00 0. -1.
<mgrwt>
<rscale>  0 0.19233658E+03</rscale>
<asrwt>0</asrwt>
<pdfrwt beam="1">  1        2 0.26234707E+00 0.39752997E+03</pdfrwt>
<pdfrwt beam="2">  1        2 0.13827462E+00 0.93058040E+02</pdfrwt>
<totfact> 0.51380256E+01</totfact>
</mgrwt>
</event>
<event>
13    1  0.1942437E-008  0.4396685E+02  0.7546771E-02  0.1539294E+00
          2   -1    0    0  503    0  0.00000000000E+00  0.00000000000E+00  0.10564382311E+03  0.10564382311E+03  0.00000000000E+00 0. -1.
          2   -1    0    0  502    0 -0.00000000000E+00 -0.00000000000E+00 -0.21602541467E+04  0.21602541467E+04  0.00000000000E+00 0. -1.
         24    2    1    2    0    0 -0.10581924678E+03  0.45022081861E+02 -0.15362167874E+04  0.15426786302E+04  0.81673969736E+02 0.  0.
         24    2    1    2    0    0  0.63049201491E+02 -0.33104720279E+02 -0.85539762498E+02  0.13108678862E+03  0.69250060430E+02 0.  0.
         25    2    1    2    0    0  0.40671182064E+02  0.28540985196E+01 -0.42179947788E+02  0.13807807881E+03  0.12499646765E+03 0.  0.
        -13    1    3    3    0    0  0.43967115935E+01 -0.94340448047E+01 -0.37180250159E+02  0.38609626728E+02  0.00000000000E+00 0.  1.
         14    1    3    3    0    0 -0.11021595837E+03  0.54456126666E+02 -0.14990365372E+04  0.15040690035E+04  0.00000000000E+00 0. -1.
        -13    1    4    4    0    0  0.14245825947E+02  0.21437597796E+02 -0.17241183434E+02  0.30980196294E+02  0.00000000000E+00 0.  1.
         14    1    4    4    0    0  0.48803375544E+02 -0.54542318075E+02 -0.68298579064E+02  0.10010659233E+03  0.00000000000E+00 0. -1.
          5    1    5    5  501    0  0.82968111109E+02 -0.10456355548E+02 -0.12925497233E+02  0.84747869065E+02  0.47000000000E+01 0.  1.
         -5    1    5    5    0  501 -0.42296929046E+02  0.13310454067E+02 -0.29254450555E+02  0.53330209745E+02  0.47000000000E+01 0.  1.
          1    1    1    2  502    0  0.98838060720E+01 -0.43321444990E+02 -0.41399767582E+03  0.41637544692E+03  0.00000000000E+00 0. -1.
          1    1    1    2  503    0 -0.77849428506E+01  0.28549984888E+02  0.23323849894E+02  0.37679025282E+02  0.00000000000E+00 0. -1.
<mgrwt>
<rscale>  0 0.36070519E+02</rscale>
<asrwt>0</asrwt>
<pdfrwt beam="1">  1        2 0.15535857E-01 0.29592347E+02</pdfrwt>
<pdfrwt beam="2">  1        2 0.31768442E+00 0.43966852E+02</pdfrwt>
<totfact> 0.43677595E+02</totfact>
</mgrwt>
</event>
<event>
13    1  0.1942437E-008  0.3861499E+02  0.7546771E-02  0.1572933E+00
          2   -1    0    0  503    0  0.00000000000E+00  0.00000000000E+00  0.11022706486E+04  0.11022706486E+04  0.00000000000E+00 0. -1.
          2   -1    0    0  502    0 -0.00000000000E+00 -0.00000000000E+00 -0.56852175099E+03  0.56852175099E+03  0.00000000000E+00 0. -1.
         24    2    1    2    0    0  0.11662703184E+03  0.12317727398E+03 -0.40103125987E+03  0.44295768679E+03  0.81307659672E+02 0.  0.
         24    2    1    2    0    0 -0.29161306724E+02 -0.42896160212E+02  0.33357090610E+02  0.99681163988E+02  0.78314600103E+02 0.  0.
         25    2    1    2    0    0 -0.61839264045E+02 -0.36338448517E+02  0.61895593087E+03  0.63551037475E+03  0.12498965815E+03 0.  0.
        -11    1    3    3    0    0  0.52111805060E+02  0.13283281724E+02 -0.70193844251E+02  0.88426588596E+02  0.00000000000E+00 0.  1.
         12    1    3    3    0    0  0.64515226779E+02  0.10989399225E+03 -0.33083741561E+03  0.35453109820E+03  0.00000000000E+00 0. -1.
        -11    1    4    4    0    0 -0.48317617095E+02 -0.36042053086E+02  0.45912665350E+02  0.75773310288E+02  0.00000000000E+00 0.  1.
         12    1    4    4    0    0  0.19156310371E+02 -0.68541071257E+01 -0.12555574740E+02  0.23907853700E+02  0.00000000000E+00 0. -1.
          5    1    5    5  501    0 -0.61650773564E+01  0.42199545728E+02  0.27412603139E+03  0.27746347674E+03  0.47000000000E+01 0. -1.
         -5    1    5    5    0  501 -0.55674186689E+02 -0.78537994245E+02  0.34482989948E+03  0.35804689801E+03  0.47000000000E+01 0. -1.
          1    1    1    2  502    0  0.10324842190E+01 -0.38577908903E+02 -0.10104724265E+03  0.10816592036E+03  0.00000000000E+00 0. -1.
          1    1    1    2  503    0 -0.26658945289E+02 -0.53647563431E+01  0.38351437866E+03  0.38447725370E+03  0.00000000000E+00 0. -1.
<mgrwt>
<rscale>  0 0.32404817E+02</rscale>
<asrwt>0</asrwt>
<pdfrwt beam="1">  1        2 0.16209863E+00 0.27193381E+02</pdfrwt>
<pdfrwt beam="2">  1        2 0.83606140E-01 0.38614992E+02</pdfrwt>
<totfact> 0.25237233E+02</totfact>
</mgrwt>
</event>
<event>
13    1  0.1942437E-008  0.1368209E+03  0.7546771E-02  0.1439086E+00
          2   -1    0    0  503    0  0.00000000000E+00  0.00000000000E+00  0.37580348735E+04  0.37580348735E+04  0.00000000000E+00 0. -1.
          2   -1    0    0  502    0 -0.00000000000E+00 -0.00000000000E+00 -0.18671993557E+04  0.18671993557E+04  0.00000000000E+00 0. -1.
         24    2    1    2    0    0 -0.17379589000E+02 -0.11719480581E+03 -0.34212534405E+03  0.36953078209E+03  0.73936291827E+02 0.  0.
         24    2    1    2    0    0 -0.95466608906E+02 -0.42817884900E+02  0.66151508924E+01  0.12792223833E+03  0.73301392584E+02 0.  0.
         25    2    1    2    0    0  0.33989007861E+02  0.27351082698E+03  0.26999167568E+04  0.27168251429E+04  0.12499975238E+03 0.  0.
        -11    1    4    4    0    0 -0.42246915174E+02  0.16670350818E+02  0.14595405343E+02  0.47704594069E+02  0.00000000000E+00 0.  1.
         12    1    4    4    0    0 -0.53219693732E+02 -0.59488235718E+02 -0.79802544508E+01  0.80217644261E+02  0.00000000000E+00 0. -1.
        -13    1    3    3    0    0 -0.22651604421E+02 -0.43701931866E+01 -0.95900913392E+02  0.98636600513E+02  0.00000000000E+00 0.  1.
         14    1    3    3    0    0  0.52720154208E+01 -0.11282461262E+03 -0.24622443066E+03  0.27089418158E+03  0.00000000000E+00 0. -1.
          5    1    5    5  501    0  0.35946603746E+02  0.94219274622E+01  0.41686419635E+03  0.41854364078E+03  0.47000000000E+01 0.  1.
         -5    1    5    5    0  501 -0.19575958854E+01  0.26408889952E+03  0.22830525605E+04  0.22982815021E+04  0.47000000000E+01 0.  1.
          1    1    1    2  502    0  0.97737316740E+02 -0.11033238159E+03 -0.14384024338E+04  0.14459347769E+04  0.00000000000E+00 0. -1.
          1    1    1    2  503    0 -0.18880126695E+02 -0.31657546786E+01  0.96483138787E+03  0.96502128899E+03  0.00000000000E+00 0. -1.
<mgrwt>
<rscale>  0 0.51178679E+02</rscale>
<asrwt>0</asrwt>
<pdfrwt beam="1">  1        2 0.55265219E+00 0.19143698E+02</pdfrwt>
<pdfrwt beam="2">  1        2 0.27458814E+00 0.13682085E+03</pdfrwt>
<totfact> 0.24435850E+00</totfact>
</mgrwt>
</event>
<event>
13    1  0.1942437E-008  0.3445673E+03  0.7546771E-02  0.1128225E+00
          2   -1    0    0  503    0  0.00000000000E+00  0.00000000000E+00  0.23116258761E+04  0.23116258761E+04  0.00000000000E+00 0. -1.
          2   -1    0    0  502    0 -0.00000000000E+00 -0.00000000000E+00 -0.31710325793E+04  0.31710325793E+04  0.00000000000E+00 0. -1.
         24    2    1    2    0    0  0.18963182028E+03 -0.20452143268E+03 -0.49385036847E+03  0.57286911007E+03  0.80632419949E+02 0.  0.
         24    2    1    2    0    0 -0.18529037947E+03 -0.10127750129E+03  0.12157389685E+02  0.22552033002E+03  0.78242955816E+02 0.  0.
         25    2    1    2    0    0 -0.31198763426E+03 -0.78490021614E+02  0.75922873070E+03  0.83399676837E+03  0.12500150683E+03 0.  0.
        -13    1    3    3    0    0  0.11411143549E+03 -0.64088253357E+02 -0.22209257569E+03  0.25778641567E+03  0.00000000000E+00 0.  1.
         14    1    3    3    0    0  0.75520384795E+02 -0.14043317933E+03 -0.27175779279E+03  0.31508269441E+03  0.00000000000E+00 0. -1.
        -13    1    4    4    0    0 -0.20025942816E+02  0.38549018615E+01 -0.18172754787E+02  0.27315703736E+02  0.00000000000E+00 0.  1.
         14    1    4    4    0    0 -0.16526443665E+03 -0.10513240315E+03  0.30330144472E+02  0.19820462628E+03  0.00000000000E+00 0. -1.
          5    1    5    5  501    0 -0.19394083700E+03 -0.99745833555E+02  0.40542152190E+03  0.46038134192E+03  0.47000000000E+01 0.  1.
         -5    1    5    5    0  501 -0.11804679727E+03  0.21255811941E+02  0.35380720880E+03  0.37361542645E+03  0.47000000000E+01 0.  1.
          1    1    1    2  502    0  0.24055159457E+03  0.24951312583E+03 -0.24773296832E+04  0.25014564215E+04  0.00000000000E+00 0. -1.
          1    1    1    2  503    0  0.67094598878E+02  0.13477582976E+03  0.13403872281E+04  0.13488158254E+04  0.00000000000E+00 0. -1.
<mgrwt>
<rscale>  0 0.22776226E+03</rscale>
<asrwt>0</asrwt>
<pdfrwt beam="1">  1        2 0.33994498E+00 0.15055301E+03</pdfrwt>
<pdfrwt beam="2">  1        2 0.46632832E+00 0.34456732E+03</pdfrwt>
<totfact> 0.18633398E+00</totfact>
</mgrwt>
</event>
<event>
13    1  0.1942437E-008  0.3086784E+02  0.7546771E-02  0.1661634E+00
          2   -1    0    0  503    0  0.00000000000E+00  0.00000000000E+00  0.13549492459E+04  0.13549492459E+04  0.00000000000E+00 0. -1.
          2   -1    0    0  502    0 -0.00000000000E+00 -0.00000000000E+00 -0.23207116887E+04  0.23207116887E+04  0.00000000000E+00 0. -1.
         24    2    1    2    0    0  0.53633815689E+02 -0.12034604592E+03 -0.14554608809E+04  0.14636802840E+04  0.81448394255E+02 0.  0.
         24    2    1    2    0    0 -0.17932621383E+02  0.24065409230E+03  0.30630227199E+03  0.39808482995E+03  0.80090442371E+02 0.  0.
         25    2    1    2    0    0 -0.30733810439E+01 -0.85796292205E+02  0.35220175142E+03  0.38345999218E+03  0.12500016990E+03 0.  0.
        -11    1    4    4    0    0  0.14333676965E+02  0.33792724371E+01  0.15506450374E+02  0.21385129897E+02  0.00000000000E+00 0.  1.
         12    1    4    4    0    0 -0.32266298347E+02  0.23727481986E+03  0.29079582162E+03  0.37669970005E+03  0.00000000000E+00 0. -1.
        -13    1    3    3    0    0  0.73768595728E+02 -0.74623096726E+02 -0.99301420200E+03  0.99854274703E+03  0.00000000000E+00 0.  1.
         14    1    3    3    0    0 -0.20134780039E+02 -0.45722949192E+02 -0.46244667891E+03  0.46513753695E+03  0.00000000000E+00 0. -1.
          5    1    5    5  501    0  0.23863290462E+02 -0.10608325193E+03  0.20206841426E+03  0.22951437213E+03  0.47000000000E+01 0.  1.
         -5    1    5    5    0  501 -0.26936671506E+02  0.20286959729E+02  0.15013333716E+03  0.15394562006E+03  0.47000000000E+01 0.  1.
          1    1    1    2  502    0 -0.13642106439E+02 -0.27682988919E+02 -0.79916145269E+03  0.79975713964E+03  0.00000000000E+00 0. -1.
          1    1    1    2  503    0 -0.18985706824E+02 -0.68287652532E+01  0.63035586733E+03  0.63067868885E+03  0.00000000000E+00 0. -1.
<mgrwt>
<rscale>  0 0.24956029E+02</rscale>
<asrwt>0</asrwt>
<pdfrwt beam="1">  1        2 0.19925725E+00 0.20176449E+02</pdfrwt>
<pdfrwt beam="2">  1        2 0.34128113E+00 0.30867838E+02</pdfrwt>
<totfact> 0.24794000E+01</totfact>
</mgrwt>
</event>
<event>
13    1  0.1942437E-008  0.1717979E+03  0.7546771E-02  0.1186670E+00
          2   -1    0    0  503    0  0.00000000000E+00  0.00000000000E+00  0.24973325553E+04  0.24973325553E+04  0.00000000000E+00 0. -1.
          2   -1    0    0  502    0 -0.00000000000E+00 -0.00000000000E+00 -0.33378598888E+04  0.33378598888E+04  0.00000000000E+00 0. -1.
         24    2    1    2    0    0 -0.41409013642E+02  0.99616419646E+02 -0.30448511650E+03  0.33269724275E+03  0.79612384021E+02 0.  0.
         24    2    1    2    0    0 -0.91780479308E+02  0.13852863159E+03  0.18657276910E+03  0.26255040951E+03  0.80681356040E+02 0.  0.
         25    2    1    2    0    0 -0.12037181420E+03 -0.12226312272E+02  0.43427819044E+02  0.17930469734E+03  0.12500137062E+03 0.  0.
        -11    1    3    3    0    0  0.18705026065E+02  0.53154155032E+02 -0.15674518252E+03  0.16656618636E+03  0.00000000000E+00 0.  1.
         12    1    3    3    0    0 -0.60114039707E+02  0.46462264614E+02 -0.14773993398E+03  0.16613105638E+03  0.00000000000E+00 0. -1.
        -13    1    4    4    0    0 -0.63386826232E+02  0.14142245225E+03  0.16763961081E+03  0.22830076403E+03  0.00000000000E+00 0.  1.
         14    1    4    4    0    0 -0.28393653076E+02 -0.28938206660E+01  0.18933158285E+02  0.34249645482E+02  0.00000000000E+00 0. -1.
          5    1    5    5  501    0 -0.42996286245E+02  0.24857431570E+02 -0.36605257154E+02  0.61875741503E+02  0.47000000000E+01 0.  1.
         -5    1    5    5    0  501 -0.77375527950E+02 -0.37083743842E+02  0.80033076198E+02  0.11742895584E+03  0.47000000000E+01 0.  1.
          1    1    1    2  502    0  0.26262692434E+03 -0.14242679552E+02 -0.29021539097E+04  0.29140475410E+04  0.00000000000E+00 0. -1.
          1    1    1    2  503    0 -0.90656171956E+01 -0.21167605941E+03  0.21361111046E+04  0.21465925535E+04  0.00000000000E+00 0. -1.
<mgrwt>
<rscale>  0 0.16180868E+03</rscale>
<asrwt>0</asrwt>
<pdfrwt beam="1">  1        2 0.36725479E+00 0.15240026E+03</pdfrwt>
<pdfrwt beam="2">  1        2 0.49086174E+00 0.17179793E+03</pdfrwt>
<totfact> 0.13357838E+00</totfact>
</mgrwt>
</event>
<event>
13    1  0.1942437E-008  0.9246272E+02  0.7546771E-02  0.1423386E+00
          2   -1    0    0  502    0  0.00000000000E+00  0.00000000000E+00  0.58276950220E+03  0.58276950220E+03  0.00000000000E+00 0. -1.
          2   -1    0    0  503    0 -0.00000000000E+00 -0.00000000000E+00 -0.12443584223E+04  0.12443584223E+04  0.00000000000E+00 0. -1.
         24    2    1    2    0    0  0.10016931570E+03  0.13574906698E+03 -0.66601408616E+03  0.69170118606E+03  0.80087869450E+02 0.  0.
         24    2    1    2    0    0 -0.10298975126E+02  0.32349930163E+01 -0.70715876879E+02  0.10712977782E+03  0.79746598572E+02 0.  0.
         25    2    1    2    0    0 -0.31428523328E+02 -0.53032485955E+02  0.10621421111E+03  0.17523510552E+03  0.12500274764E+03 0.  0.
        -11    1    4    4    0    0 -0.16263120972E+02  0.39769540070E+02 -0.32072907197E+02  0.53616945057E+02  0.00000000000E+00 0.  1.
         12    1    4    4    0    0  0.59641458463E+01 -0.36534547054E+02 -0.38642969682E+02  0.53512832760E+02  0.00000000000E+00 0. -1.
        -13    1    3    3    0    0  0.54185987897E+02  0.42471151175E+02 -0.14637426005E+03  0.16175705231E+03  0.00000000000E+00 0.  1.
         14    1    3    3    0    0  0.45983327808E+02  0.93277915800E+02 -0.51963982611E+03  0.52994413375E+03  0.00000000000E+00 0. -1.
          5    1    5    5  501    0 -0.39691038448E+02 -0.90030728120E+02  0.60247851162E+02  0.11546776221E+03  0.47000000000E+01 0. -1.
         -5    1    5    5    0  501  0.82625151200E+01  0.36998242165E+02  0.45966359950E+02  0.59767343311E+02  0.47000000000E+01 0. -1.
          1    1    1    2  502    0 -0.26641828211E+02 -0.88490856854E+02  0.40520961767E+03  0.41561430799E+03  0.00000000000E+00 0. -1.
          1    1    1    2  503    0 -0.31799989039E+02  0.25392828170E+01 -0.43628278580E+03  0.43744754708E+03  0.00000000000E+00 0. -1.
<mgrwt>
<rscale>  0 0.54310890E+02</rscale>
<asrwt>0</asrwt>
<pdfrwt beam="1">  1        2 0.85701397E-01 0.92462722E+02</pdfrwt>
<pdfrwt beam="2">  1        2 0.18299389E+00 0.31901211E+02</pdfrwt>
<totfact> 0.20344585E+02</totfact>
</mgrwt>
</event>
<event>
13    1  0.1942437E-008  0.1218465E+03  0.7546771E-02  0.1548262E+00
          2   -1    0    0  502    0  0.00000000000E+00  0.00000000000E+00  0.25862084323E+04  0.25862084323E+04  0.00000000000E+00 0. -1.
          2   -1    0    0  503    0 -0.00000000000E+00 -0.00000000000E+00 -0.65861835273E+03  0.65861835273E+03  0.00000000000E+00 0. -1.
         24    2    1    2    0    0 -0.14505686154E+03  0.90640360338E+00  0.15288746649E+03  0.22557927444E+03  0.80430821215E+02 0.  0.
         24    2    1    2    0    0  0.36694182263E+02 -0.18131625845E+02  0.16757739171E+03  0.19045845843E+03  0.80728082515E+02 0.  0.
         25    2    1    2    0    0 -0.16607687318E+02  0.38908340835E+02  0.12997608305E+04  0.13064425235E+04  0.12499670584E+03 0.  0.
        -13    1    3    3    0    0 -0.79012425575E+02 -0.24800460145E+02  0.39227589378E+02  0.91634218429E+02  0.00000000000E+00 0.  1.
         14    1    3    3    0    0 -0.66044435965E+02  0.25706863748E+02  0.11365987711E+03  0.13394505601E+03  0.00000000000E+00 0. -1.
        -13    1    4    4    0    0  0.53776054556E+02  0.50214205879E+01  0.68179676260E+02  0.86980152697E+02  0.00000000000E+00 0.  1.
         14    1    4    4    0    0 -0.17081872293E+02 -0.23153046433E+02  0.99397715448E+02  0.10347830573E+03  0.00000000000E+00 0. -1.
          5    1    5    5  501    0 -0.40097398390E+02  0.19386889003E+02  0.12212220293E+04  0.12220429565E+04  0.47000000000E+01 0. -1.
         -5    1    5    5    0  501  0.23489711072E+02  0.19521451831E+02  0.78538801183E+02  0.84399566936E+02  0.47000000000E+01 0. -1.
          1    1    1    2  502    0  0.39338782168E+01 -0.92758411519E+01  0.90873507579E+03  0.90879093008E+03  0.00000000000E+00 0. -1.
          1    1    1    2  503    0  0.12103648838E+03 -0.12407277441E+02 -0.60137068484E+03  0.61355559865E+03  0.00000000000E+00 0. -1.
<mgrwt>
<rscale>  0 0.35038120E+02</rscale>
<asrwt>0</asrwt>
<pdfrwt beam="1">  1        2 0.38032477E+00 0.10075546E+02</pdfrwt>
<pdfrwt beam="2">  1        2 0.96855641E-01 0.12184648E+03</pdfrwt>
<totfact> 0.51510301E+01</totfact>
</mgrwt>
</event>
<event>
13    1  0.1942437E-008  0.2253611E+03  0.7546771E-02  0.1241019E+00
          2   -1    0    0  502    0  0.00000000000E+00  0.00000000000E+00  0.14125298898E+04  0.14125298898E+04  0.00000000000E+00 0. -1.
          2   -1    0    0  503    0 -0.00000000000E+00 -0.00000000000E+00 -0.20391098359E+04  0.20391098359E+04  0.00000000000E+00 0. -1.
         24    2    1    2    0    0 -0.76993864295E+02  0.57717343624E+01 -0.18235356600E+03  0.21341687749E+03  0.79577462318E+02 0.  0.
         24    2    1    2    0    0  0.10162036170E+03 -0.50268157400E+01 -0.15792996094E+02  0.12320737235E+03  0.67665878314E+02 0.  0.
         25    2    1    2    0    0 -0.31068026149E+03 -0.11038863919E+02 -0.57485584314E+02  0.33996092139E+03  0.12499901707E+03 0.  0.
        -13    1    4    4    0    0  0.42960863425E+02 -0.26580298150E+02  0.16130994606E+02  0.53031660571E+02  0.00000000000E+00 0.  1.
         14    1    4    4    0    0  0.58659498271E+02  0.21553482410E+02 -0.31923990700E+02  0.70175711779E+02  0.00000000000E+00 0. -1.
        -13    1    3    3    0    0 -0.87211998072E+02 -0.13432206297E+02 -0.15617897783E+03  0.17938291416E+03  0.00000000000E+00 0.  1.
         14    1    3    3    0    0  0.10218133777E+02  0.19203940659E+02 -0.26174588161E+02  0.34033963333E+02  0.00000000000E+00 0. -1.
          5    1    5    5  501    0 -0.20502932379E+03 -0.55683490440E+02 -0.21312617778E+01  0.21251895680E+03  0.47000000000E+01 0.  1.
         -5    1    5    5    0  501 -0.10565093770E+03  0.44644626521E+02 -0.55354322536E+02  0.12744196458E+03  0.47000000000E+01 0.  1.
          1    1    1    2  502    0  0.22086864899E+03  0.72606262298E+01  0.11912097184E+04  0.12115346755E+04  0.00000000000E+00 0. -1.
          1    1    1    2  503    0  0.65185115100E+02  0.30333190666E+01 -0.15621575181E+04  0.15635198789E+04  0.00000000000E+00 0. -1.
<mgrwt>
<rscale>  0 0.12126864E+03</rscale>
<asrwt>0</asrwt>
<pdfrwt beam="1">  1        2 0.20772498E+00 0.22536106E+03</pdfrwt>
<pdfrwt beam="2">  1        2 0.29986909E+00 0.65255653E+02</pdfrwt>
<totfact> 0.23948704E+01</totfact>
</mgrwt>
</event>
<event>
13    1  0.1942437E-008  0.1008048E+03  0.7546771E-02  0.1288083E+00
          2   -1    0    0  503    0  0.00000000000E+00  0.00000000000E+00  0.15910463452E+04  0.15910463452E+04  0.00000000000E+00 0. -1.
         -1   -1    0    0    0  501 -0.00000000000E+00 -0.00000000000E+00 -0.11383435827E+04  0.11383435827E+04  0.00000000000E+00 0.  1.
         24    2    1    2    0    0  0.52128500533E+01 -0.37401811376E+02 -0.20806162180E+03  0.22609552300E+03  0.80021733017E+02 0.  0.
         24    2    1    2    0    0 -0.19093280448E+02 -0.50906854310E+02 -0.16030503708E+03  0.18743421654E+03  0.80484901961E+02 0.  0.
         25    2    1    2    0    0 -0.15242408390E+02  0.14874706010E+03  0.15379322836E+03  0.24825075329E+03  0.12497223898E+03 0.  0.
        -13    1    3    3    0    0  0.45334584699E+01 -0.62711566276E+02 -0.15633003888E+03  0.16850036750E+03  0.00000000000E+00 0.  1.
         14    1    3    3    0    0  0.67939158342E+00  0.25309754901E+02 -0.51731582921E+02  0.57595155504E+02  0.00000000000E+00 0. -1.
        -13    1    4    4    0    0  0.19936374542E+02 -0.54051112784E+02 -0.87394420184E+02  0.10467457429E+03  0.00000000000E+00 0.  1.
         14    1    4    4    0    0 -0.39029654989E+02  0.31442584741E+01 -0.72910616893E+02  0.82759642252E+02  0.00000000000E+00 0. -1.
          5    1    5    5  502    0  0.63257813847E+01  0.92481498250E+02  0.11341346192E+02  0.93507000605E+02  0.47000000000E+01 0. -1.
         -5    1    5    5    0  502 -0.21568189775E+02  0.56265561850E+02  0.14245188217E+03  0.15474375268E+03  0.47000000000E+01 0. -1.
          1    1    1    2  503    0 -0.62477062757E+02 -0.79591992880E+02  0.13624314211E+04  0.13661836062E+04  0.00000000000E+00 0. -1.
         -2    1    1    2    0  501  0.91599901541E+02  0.19153598467E+02 -0.69515522807E+03  0.70142582887E+03  0.00000000000E+00 0.  1.
<mgrwt>
<rscale>  0 0.96386704E+02</rscale>
<asrwt>0</asrwt>
<pdfrwt beam="1">  1        2 0.23397740E+00 0.10080482E+03</pdfrwt>
<pdfrwt beam="2">  1       -1 0.16740347E+00 0.92162226E+02</pdfrwt>
<totfact> 0.50652581E+00</totfact>
</mgrwt>
</event>
<event>
13    1  0.2162182E-008  0.1754758E+03  0.7546771E-02  0.1302329E+00
          2   -1    0    0  502    0  0.00000000000E+00  0.00000000000E+00  0.10140151700E+04  0.10140151700E+04  0.00000000000E+00 0. -1.
          2   -1    0    0  503    0 -0.00000000000E+00 -0.00000000000E+00 -0.37348005440E+04  0.37348005440E+04  0.00000000000E+00 0. -1.
         24    2    1    2    0    0  0.40329234412E+02  0.85263180971E+02 -0.32612158296E+03  0.34891960246E+03  0.80581293916E+02 0.  0.
         24    2    1    2    0    0 -0.36007623719E+02 -0.44754141938E+01 -0.15275612191E+03  0.17656372529E+03  0.80769660197E+02 0.  0.
         25    2    1    2    0    0 -0.47081200554E+02  0.30778332528E+03  0.22029496273E+03  0.40137507462E+03  0.12499946065E+03 0.  0.
        -11    1    4    4    0    0 -0.15508998563E-01 -0.22813692068E+02 -0.12614520885E+03  0.12819156955E+03  0.00000000000E+00 0.  1.
         12    1    4    4    0    0 -0.35992114720E+02  0.18338277874E+02 -0.26610913061E+02  0.48372155744E+02  0.00000000000E+00 0. -1.
        -13    1    3    3    0    0 -0.17483841339E+02  0.49595460921E+02 -0.18451517095E+03  0.19186256217E+03  0.00000000000E+00 0.  1.
         14    1    3    3    0    0  0.57813075751E+02  0.35667720050E+02 -0.14160641201E+03  0.15705704029E+03  0.00000000000E+00 0. -1.
          5    1    5    5  501    0  0.55229806863E+01  0.24522271738E+03  0.12370268438E+03  0.27475284995E+03  0.47000000000E+01 0.  1.
         -5    1    5    5    0  501 -0.52604181240E+02  0.62560607896E+02  0.96592278346E+02  0.12662222467E+03  0.47000000000E+01 0.  1.
          1    1    1    2  502    0  0.21055409351E+02 -0.41327619819E+02  0.66944115921E+03  0.67104602529E+03  0.00000000000E+00 0. -1.
          1    1    1    2  503    0  0.21704180510E+02 -0.34724347223E+03 -0.31316437910E+04  0.31509112863E+04  0.00000000000E+00 0. -1.
<mgrwt>
<rscale>  0 0.90216097E+02</rscale>
<asrwt>0</asrwt>
<pdfrwt beam="1">  1        2 0.14911988E+00 0.46382135E+02</pdfrwt>
<pdfrwt beam="2">  1        2 0.54923537E+00 0.17547584E+03</pdfrwt>
<totfact> 0.46069546E+00</totfact>
</mgrwt>
</event>
<event>
13    1  0.1942437E-008  0.1396682E+03  0.7546771E-02  0.1301672E+00
          2   -1    0    0  502    0  0.00000000000E+00  0.00000000000E+00  0.24705547962E+04  0.24705547962E+04  0.00000000000E+00 0. -1.
          2   -1    0    0  503    0 -0.00000000000E+00 -0.00000000000E+00 -0.24733641350E+04  0.24733641350E+04  0.00000000000E+00 0. -1.
         24    2    1    2    0    0  0.58721731823E+02  0.12368618961E+02 -0.85329968325E+02  0.13127979905E+03  0.79699169504E+02 0.  0.
         24    2    1    2    0    0 -0.23971152228E+02  0.24206432635E+02 -0.19712964022E+03  0.21619799846E+03  0.81981168372E+02 0.  0.
         25    2    1    2    0    0  0.19070681689E+03  0.18644112452E+02  0.25735660651E+03  0.34434620580E+03  0.12500077440E+03 0.  0.
        -11    1    3    3    0    0 -0.81208518679E+01  0.76037329560E-01  0.10823836272E+02  0.13531793983E+02  0.00000000000E+00 0.  1.
         12    1    3    3    0    0  0.66842583691E+02  0.12292581631E+02 -0.96153804597E+02  0.11774800506E+03  0.00000000000E+00 0. -1.
        -13    1    4    4    0    0 -0.50612860254E+02  0.15115262364E+02 -0.16612524552E+03  0.17432076749E+03  0.00000000000E+00 0.  1.
         14    1    4    4    0    0  0.26641708026E+02  0.90911702714E+01 -0.31004394694E+02  0.41877230971E+02  0.00000000000E+00 0. -1.
          5    1    5    5  501    0 -0.13782229750E+02 -0.15632866746E+02  0.25513053960E+02  0.33276753176E+02  0.47000000000E+01 0. -1.
         -5    1    5    5    0  501  0.20448904664E+03  0.34276979198E+02  0.23184355255E+03  0.31106945262E+03  0.47000000000E+01 0. -1.
          1    1    1    2  502    0 -0.26909653071E+02 -0.52085614909E+02  0.21321293812E+04  0.21329352402E+04  0.00000000000E+00 0. -1.
          1    1    1    2  503    0 -0.19854774341E+03 -0.31335491395E+01 -0.21098357179E+04  0.21191596878E+04  0.00000000000E+00 0. -1.
<mgrwt>
<rscale>  0 0.90488811E+02</rscale>
<asrwt>0</asrwt>
<pdfrwt beam="1">  1        2 0.36331688E+00 0.58626280E+02</pdfrwt>
<pdfrwt beam="2">  1        2 0.36373002E+00 0.13966816E+03</pdfrwt>
<totfact> 0.46691543E+00</totfact>
</mgrwt>
</event>
<event>
13    1  0.1942437E-008  0.9341422E+02  0.7546771E-02  0.1302630E+00
          2   -1    0    0  502    0  0.00000000000E+00  0.00000000000E+00  0.99550010519E+03  0.99550010519E+03  0.00000000000E+00 0. -1.
          2   -1    0    0  503    0 -0.00000000000E+00 -0.00000000000E+00 -0.11523608925E+04  0.11523608925E+04  0.00000000000E+00 0. -1.
         24    2    1    2    0    0 -0.48472807221E+02  0.68087399189E+02 -0.75592322467E+02  0.13848766842E+03  0.80493031500E+02 0.  0.
         24    2    1    2    0    0  0.70422647371E+01  0.75709539188E+01  0.95245166596E+02  0.12447112017E+03  0.79463860722E+02 0.  0.
         25    2    1    2    0    0  0.58141409732E+02 -0.50856963914E+02  0.20024688589E+03  0.24837499516E+03  0.12499787440E+03 0.  0.
        -11    1    4    4    0    0  0.84387938318E+01  0.42854666048E+02  0.42098692181E+02  0.60663296372E+02  0.00000000000E+00 0.  1.
         12    1    4    4    0    0 -0.13965290947E+01 -0.35283712129E+02  0.53146474416E+02  0.63807823799E+02  0.00000000000E+00 0. -1.
        -13    1    3    3    0    0 -0.14572518252E+02  0.50534309689E+01  0.16016063186E+02  0.22235326234E+02  0.00000000000E+00 0.  1.
         14    1    3    3    0    0 -0.33900288969E+02  0.63033968221E+02 -0.91608385653E+02  0.11625234219E+03  0.00000000000E+00 0. -1.
          5    1    5    5  501    0  0.32551704017E+01  0.38803480008E+02  0.76231130435E+02  0.85729699886E+02  0.47000000000E+01 0.  1.
         -5    1    5    5    0  501  0.54886239330E+02 -0.89660443922E+02  0.12401575546E+03  0.16264529527E+03  0.47000000000E+01 0.  1.
          1    1    1    2  502    0 -0.10776670298E+03 -0.40006079065E+01  0.62307496099E+03  0.63233857557E+03  0.00000000000E+00 0. -1.
          1    1    1    2  503    0  0.91055835732E+02 -0.20800781288E+02 -0.99983547832E+03  0.10041886384E+04  0.00000000000E+00 0. -1.
<mgrwt>
<rscale>  0 0.90091808E+02</rscale>
<asrwt>0</asrwt>
<pdfrwt beam="1">  1        2 0.14639707E+00 0.86887564E+02</pdfrwt>
<pdfrwt beam="2">  1        2 0.16946484E+00 0.93414218E+02</pdfrwt>
<totfact> 0.11234609E+02</totfact>
</mgrwt>
</event>
<event>
13    1  0.1942437E-008  0.7601456E+02  0.7546771E-02  0.1353694E+00
          2   -1    0    0  503    0  0.00000000000E+00  0.00000000000E+00  0.21785558808E+04  0.21785558808E+04  0.00000000000E+00 0. -1.
          2   -1    0    0  502    0 -0.00000000000E+00 -0.00000000000E+00 -0.12544366480E+04  0.12544366480E+04  0.00000000000E+00 0. -1.
         24    2    1    2    0    0 -0.19162426257E+02  0.90102769165E+02 -0.42551969452E+03  0.44303161408E+03  0.82001786921E+02 0.  0.
         24    2    1    2    0    0 -0.29752037136E+02 -0.36141419749E+02  0.35239552834E+02  0.10119118261E+03  0.82501172223E+02 0.  0.
         25    2    1    2    0    0 -0.40699371440E+02  0.32283878565E+02  0.89844525453E+02  0.16246270499E+03  0.12499361627E+03 0.  0.
        -11    1    3    3    0    0 -0.49980468097E+02  0.71786641448E+02 -0.30389019860E+03  0.31622874931E+03  0.00000000000E+00 0.  1.
         12    1    3    3    0    0  0.30818041840E+02  0.18316127717E+02 -0.12162949592E+03  0.12680286478E+03  0.00000000000E+00 0. -1.
        -11    1    4    4    0    0 -0.55172001249E+00  0.14897985196E+02  0.39515169189E+02  0.42233907632E+02  0.00000000000E+00 0.  1.
         12    1    4    4    0    0 -0.29200317123E+02 -0.51039404945E+02 -0.42756163551E+01  0.58957274975E+02  0.00000000000E+00 0. -1.
          5    1    5    5  501    0  0.10604223794E+02  0.15287922117E+02  0.10451691360E+03  0.10626403603E+03  0.47000000000E+01 0. -1.
         -5    1    5    5    0  501 -0.51303595235E+02  0.16995956448E+02 -0.14672388145E+02  0.56198668965E+02  0.47000000000E+01 0. -1.
          1    1    1    2  502    0  0.72930376655E+02 -0.20282821517E+02 -0.74838031279E+03  0.75219899312E+03  0.00000000000E+00 0. -1.
          1    1    1    2  503    0  0.16683458177E+02 -0.65962406465E+02  0.19729351619E+04  0.19741080340E+04  0.00000000000E+00 0. -1.
<mgrwt>
<rscale>  0 0.71916580E+02</rscale>
<asrwt>0</asrwt>
<pdfrwt beam="1">  1        2 0.32037587E+00 0.68039524E+02</pdfrwt>
<pdfrwt beam="2">  1        2 0.18447598E+00 0.76014559E+02</pdfrwt>
<totfact> 0.26558255E+01</totfact>
</mgrwt>
</event>
<event>
13    1  0.1942437E-008  0.2165849E+03  0.7546771E-02  0.1384018E+00
          2   -1    0    0  502    0  0.00000000000E+00  0.00000000000E+00  0.21374024585E+04  0.21374024585E+04  0.00000000000E+00 0. -1.
          2   -1    0    0  503    0 -0.00000000000E+00 -0.00000000000E+00 -0.69780552721E+03  0.69780552721E+03  0.00000000000E+00 0. -1.
         24    2    1    2    0    0 -0.12015975441E+03  0.18346038225E+03 -0.37684718854E+02  0.23623076002E+03  0.79301674054E+02 0.  0.
         24    2    1    2    0    0  0.20367723674E+03 -0.26323333278E+03  0.75293472252E+02  0.34921856301E+03  0.74217878800E+02 0.  0.
         25    2    1    2    0    0  0.12711848531E+03  0.15065392326E+03  0.11300041652E+04  0.11538589488E+04  0.12500138596E+03 0.  0.
        -13    1    4    4    0    0  0.30769848531E+02 -0.73702139621E+02  0.42812384366E+02  0.90618371308E+02  0.00000000000E+00 0.  1.
         14    1    4    4    0    0  0.17290738821E+03 -0.18953119316E+03  0.32481087886E+02  0.25860019170E+03  0.00000000000E+00 0. -1.
        -13    1    3    3    0    0 -0.19167331962E+02 -0.45077529973E+01 -0.54331148647E+01  0.20426090883E+02  0.00000000000E+00 0.  1.
         14    1    3    3    0    0 -0.10099242245E+03  0.18796813524E+03 -0.32251603989E+02  0.21580466913E+03  0.00000000000E+00 0. -1.
          5    1    5    5  501    0  0.14533013723E+03  0.15203887847E+03  0.95820935789E+03  0.98103207537E+03  0.47000000000E+01 0. -1.
         -5    1    5    5    0  501 -0.18211651922E+02 -0.13849552143E+01  0.17179480731E+03  0.17282687344E+03  0.47000000000E+01 0. -1.
          1    1    1    2  502    0 -0.11671738001E+02  0.14443654598E+02  0.65535959932E+03  0.65562264531E+03  0.00000000000E+00 0. -1.
          1    1    1    2  503    0 -0.19896422964E+03 -0.85324627320E+02 -0.38337558661E+03  0.44027706857E+03  0.00000000000E+00 0. -1.
<mgrwt>
<rscale>  0 0.63419270E+02</rscale>
<asrwt>0</asrwt>
<pdfrwt beam="1">  1        2 0.31432389E+00 0.18570100E+02</pdfrwt>
<pdfrwt beam="2">  1        2 0.10261846E+00 0.21658493E+03</pdfrwt>
<totfact> 0.67532915E+01</totfact>
</mgrwt>
</event>
<event>
13    1  0.1942437E-008  0.4848626E+02  0.7546771E-02  0.1466099E+00
          2   -1    0    0  503    0  0.00000000000E+00  0.00000000000E+00  0.34143800922E+03  0.34143800922E+03  0.00000000000E+00 0. -1.
          2   -1    0    0  502    0 -0.00000000000E+00 -0.00000000000E+00 -0.99965508181E+03  0.99965508181E+03  0.00000000000E+00 0. -1.
         24    2    1    2    0    0 -0.82998773880E+02  0.30548489008E+00 -0.46262236795E+03  0.47690205539E+03  0.80791245370E+02 0.  0.
         24    2    1    2    0    0  0.12468727190E+03 -0.54841280234E+02 -0.16246387712E+03  0.22649702596E+03  0.79698868312E+02 0.  0.
         25    2    1    2    0    0 -0.12209891996E+03  0.91061259034E+02 -0.16804838032E+02  0.19774468177E+03  0.12498102831E+03 0.  0.
        -11    1    4    4    0    0  0.11504649326E+03 -0.31350850562E+02 -0.16193363751E+03  0.20109966285E+03  0.00000000000E+00 0.  1.
         12    1    4    4    0    0  0.96407786464E+01 -0.23490429672E+02 -0.53023960789E+00  0.25397363113E+02  0.00000000000E+00 0. -1.
        -13    1    3    3    0    0 -0.76364471841E+02 -0.31940975492E+02 -0.32053327449E+03  0.33104884614E+03  0.00000000000E+00 0.  1.
         14    1    3    3    0    0 -0.66343020397E+01  0.32246460382E+02 -0.14208909346E+03  0.14585320925E+03  0.00000000000E+00 0. -1.
          5    1    5    5  501    0  0.41572421787E+01  0.56642384617E+02  0.22124107336E+02  0.61132712381E+02  0.47000000000E+01 0.  1.
         -5    1    5    5    0  501 -0.12625616214E+03  0.34418874417E+02 -0.38928945368E+02  0.13661196939E+03  0.47000000000E+01 0.  1.
          1    1    1    2  502    0  0.36470933357E+02 -0.30856084588E+02 -0.22326607996E+03  0.22831988393E+03  0.00000000000E+00 0. -1.
          1    1    1    2  503    0  0.43939488581E+02 -0.56693791012E+01  0.20694009046E+03  0.21162944397E+03  0.00000000000E+00 0. -1.
<mgrwt>
<rscale>  0 0.46347841E+02</rscale>
<asrwt>0</asrwt>
<pdfrwt beam="1">  1        2 0.50211471E-01 0.44303730E+02</pdfrwt>
<pdfrwt beam="2">  1        2 0.14700810E+00 0.48486264E+02</pdfrwt>
<totfact> 0.46788384E+02</totfact>
</mgrwt>
</event>
<event>
13    1  0.1942437E-008  0.1673039E+03  0.7546771E-02  0.1252066E+00
          2   -1    0    0  503    0  0.00000000000E+00  0.00000000000E+00  0.18882281220E+04  0.18882281220E+04  0.00000000000E+00 0. -1.
          2   -1    0    0  502    0 -0.00000000000E+00 -0.00000000000E+00 -0.67567642669E+03  0.67567642669E+03  0.00000000000E+00 0. -1.
         24    2    1    2    0    0 -0.18577460456E+02 -0.65263981019E+02 -0.79333093961E+02  0.13183889582E+03  0.80518602808E+02 0.  0.
         24    2    1    2    0    0 -0.16431449835E+03 -0.31841631714E+03 -0.96605785008E+02  0.37903070704E+03  0.77093409554E+02 0.  0.
         25    2    1    2    0    0  0.27286890803E+03  0.28238344895E+03  0.60359797176E+03  0.73085707290E+03  0.12499478504E+03 0.  0.
        -13    1    3    3    0    0  0.18368665673E+02 -0.52401856774E+02 -0.73756931793E+02  0.92322518702E+02  0.00000000000E+00 0.  1.
         14    1    3    3    0    0 -0.36946126129E+02 -0.12862124244E+02 -0.55761621679E+01  0.39516377118E+02  0.00000000000E+00 0. -1.
        -13    1    4    4    0    0 -0.50813260810E+02 -0.36948110921E+02 -0.21267344874E+02  0.66328352405E+02  0.00000000000E+00 0.  1.
         14    1    4    4    0    0 -0.11350123754E+03 -0.28146820622E+03 -0.75338440134E+02  0.31270235464E+03  0.00000000000E+00 0. -1.
          5    1    5    5  501    0  0.27185505748E+03  0.26959042751E+03  0.51786839608E+03  0.64404498022E+03  0.47000000000E+01 0. -1.
         -5    1    5    5    0  501  0.10138505533E+01  0.12793021438E+02  0.85729575675E+02  0.86812092682E+02  0.47000000000E+01 0. -1.
          1    1    1    2  502    0 -0.47225418118E+02 -0.62914433997E+02 -0.25586143156E+03  0.26768178549E+03  0.00000000000E+00 0. -1.
          1    1    1    2  503    0 -0.42751531110E+02  0.16421128321E+03  0.10407540341E+04  0.10544960874E+04  0.00000000000E+00 0. -1.
<mgrwt>
<rscale>  0 0.11472254E+03</rscale>
<asrwt>0</asrwt>
<pdfrwt beam="1">  1        2 0.27768060E+00 0.16730389E+03</pdfrwt>
<pdfrwt beam="2">  1        2 0.99364181E-01 0.78666804E+02</pdfrwt>
<totfact> 0.73430680E+01</totfact>
</mgrwt>
</event>
<event>
13    1  0.1942437E-008  0.9809560E+02  0.7546771E-02  0.1329487E+00
          2   -1    0    0  503    0  0.00000000000E+00  0.00000000000E+00  0.31072672020E+04  0.31072672020E+04  0.00000000000E+00 0. -1.
          2   -1    0    0  502    0 -0.00000000000E+00 -0.00000000000E+00 -0.13738520419E+04  0.13738520419E+04  0.00000000000E+00 0. -1.
         24    2    1    2    0    0  0.28303279820E+02  0.16454002160E+02 -0.14103625635E+03  0.16558194986E+03  0.80338948699E+02 0.  0.
         24    2    1    2    0    0 -0.63839276863E+02 -0.80436335206E+02 -0.20489332990E+03  0.24304556020E+03  0.80897530260E+02 0.  0.
         25    2    1    2    0    0  0.66929316975E+02  0.22844660241E+03  0.35323023539E+03  0.44391713141E+03  0.12499374681E+03 0.  0.
        -11    1    3    3    0    0  0.21804791165E+02  0.56387761248E+01  0.14211373235E+01  0.22566886033E+02  0.00000000000E+00 0.  1.
         12    1    3    3    0    0  0.64984886555E+01  0.10815226035E+02 -0.14245739367E+03  0.14301506382E+03  0.00000000000E+00 0. -1.
        -11    1    4    4    0    0 -0.43411636929E+02 -0.89235848778E+02 -0.19480082217E+03  0.21862060114E+03  0.00000000000E+00 0.  1.
         12    1    4    4    0    0 -0.20427639934E+02  0.87995135719E+01 -0.10092507734E+02  0.24424959053E+02  0.00000000000E+00 0. -1.
          5    1    5    5  501    0 -0.70100017543E+00  0.17020573570E+03  0.17296891561E+03  0.24271551173E+03  0.47000000000E+01 0.  1.
         -5    1    5    5    0  501  0.67630317151E+02  0.58240866711E+02  0.18026131978E+03  0.20120161968E+03  0.47000000000E+01 0.  1.
          1    1    1    2  502    0 -0.69583796515E+02 -0.11187592293E+03 -0.94627103029E+03  0.95539886416E+03  0.00000000000E+00 0. -1.
          1    1    1    2  503    0  0.38190476583E+02 -0.52588346430E+02  0.26723855413E+04  0.26731757383E+04  0.00000000000E+00 0. -1.
<mgrwt>
<rscale>  0 0.79846694E+02</rscale>
<asrwt>0</asrwt>
<pdfrwt beam="1">  1        2 0.45695106E+00 0.64992666E+02</pdfrwt>
<pdfrwt beam="2">  1        2 0.20203707E+00 0.98095598E+02</pdfrwt>
<totfact> 0.78551164E+00</totfact>
</mgrwt>
</event>
<event>
13    1  0.1942437E-008  0.5561380E+02  0.7546771E-02  0.1472347E+00
          2   -1    0    0  502    0  0.00000000000E+00  0.00000000000E+00  0.17595833074E+04  0.17595833074E+04  0.00000000000E+00 0. -1.
          2   -1    0    0  503    0 -0.00000000000E+00 -0.00000000000E+00 -0.10604190510E+04  0.10604190510E+04  0.00000000000E+00 0. -1.
         24    2    1    2    0    0 -0.14268288124E+02  0.62420170749E+01 -0.29955809500E+03  0.30951359176E+03  0.76295900193E+02 0.  0.
         24    2    1    2    0    0  0.73509783675E+02 -0.39891736235E+02  0.46778579759E+02  0.12040920296E+03  0.72904744139E+02 0.  0.
         25    2    1    2    0    0 -0.78016465345E+02  0.77553718323E+02  0.53793678966E+03  0.56311833856E+03  0.12500050181E+03 0.  0.
        -11    1    4    4    0    0  0.84159308646E+02 -0.45230457522E+02  0.30612598016E+02  0.10032803535E+03  0.00000000000E+00 0.  1.
         12    1    4    4    0    0 -0.10649524970E+02  0.53387212872E+01  0.16165981742E+02  0.20081167615E+02  0.00000000000E+00 0. -1.
        -13    1    3    3    0    0  0.18622682100E+02  0.15342664026E+02 -0.23723281252E+03  0.23845672346E+03  0.00000000000E+00 0.  1.
         14    1    3    3    0    0 -0.32890970225E+02 -0.91006469510E+01 -0.62325282473E+02  0.71056868300E+02  0.00000000000E+00 0. -1.
          5    1    5    5  501    0  0.93578849824E+01 -0.26876345560E+02  0.68880405829E+02  0.74676022049E+02  0.47000000000E+01 0.  1.
         -5    1    5    5    0  501 -0.87374350328E+02  0.10443006388E+03  0.46905638384E+03  0.48844231651E+03  0.47000000000E+01 0.  1.
          1    1    1    2  502    0 -0.31292753485E+02 -0.19617209897E+02  0.11190831861E+04  0.11196924795E+04  0.00000000000E+00 0. -1.
          1    1    1    2  503    0  0.50067723280E+02 -0.24286789266E+02 -0.70507620405E+03  0.70726874564E+03  0.00000000000E+00 0. -1.
<mgrwt>
<rscale>  0 0.45321113E+02</rscale>
<asrwt>0</asrwt>
<pdfrwt beam="1">  1        2 0.25876225E+00 0.36933336E+02</pdfrwt>
<pdfrwt beam="2">  1        2 0.15594398E+00 0.55613802E+02</pdfrwt>
<totfact> 0.57407458E+01</totfact>
</mgrwt>
</event>
<event>
13    1  0.1942437E-008  0.3077363E+03  0.7546771E-02  0.1210243E+00
          2   -1    0    0  502    0  0.00000000000E+00  0.00000000000E+00  0.13167526713E+04  0.13167526713E+04  0.00000000000E+00 0. -1.
          2   -1    0    0  503    0 -0.00000000000E+00 -0.00000000000E+00 -0.41553650213E+04  0.41553650213E+04  0.00000000000E+00 0. -1.
         24    2    1    2    0    0 -0.21418575435E+01 -0.33626128181E+02 -0.12411058675E+04  0.12442420751E+04  0.81604308084E+02 0.  0.
         24    2    1    2    0    0  0.10677160175E+03  0.26811439592E+02 -0.30862492524E+02  0.13974849877E+03  0.80362436684E+02 0.  0.
         25    2    1    2    0    0 -0.25097804094E+03  0.19912688574E+03 -0.14600246980E+03  0.37360664708E+03  0.12499484748E+03 0.  0.
        -11    1    4    4    0    0  0.68692651531E+02 -0.27070330204E+01 -0.52923370447E+02  0.86757659844E+02  0.00000000000E+00 0.  1.
         12    1    4    4    0    0  0.38078950221E+02  0.29518472613E+02  0.22060877923E+02  0.52990838926E+02  0.00000000000E+00 0. -1.
        -11    1    3    3    0    0 -0.15959811049E+02  0.24112529996E+02 -0.41028955282E+03  0.41130724140E+03  0.00000000000E+00 0.  1.
         12    1    3    3    0    0  0.13817953505E+02 -0.57738658177E+02 -0.83081631467E+03  0.83293483371E+03  0.00000000000E+00 0. -1.
          5    1    5    5  501    0 -0.10727559373E+02  0.11289027047E+02 -0.51944742361E+02  0.54432241555E+02  0.47000000000E+01 0. -1.
         -5    1    5    5    0  501 -0.24025048157E+03  0.18783785869E+03 -0.94057727441E+02  0.31917440552E+03  0.47000000000E+01 0. -1.
          1    1    1    2  502    0  0.18551561750E+03 -0.24520748161E+03  0.11258990060E+04  0.11671295237E+04  0.00000000000E+00 0. -1.
          1    1    1    2  503    0 -0.39167320768E+02  0.52895284459E+02 -0.25465405262E+04  0.25473909479E+04  0.00000000000E+00 0. -1.
<mgrwt>
<rscale>  0 0.14231846E+03</rscale>
<asrwt>0</asrwt>
<pdfrwt beam="1">  1        2 0.19364010E+00 0.30773630E+03</pdfrwt>
<pdfrwt beam="2">  1        2 0.61108309E+00 0.65817856E+02</pdfrwt>
<totfact> 0.18201772E+00</totfact>
</mgrwt>
</event>
<event>
13    1  0.1942437E-008  0.8955122E+02  0.7546771E-02  0.1337489E+00
          2   -1    0    0  503    0  0.00000000000E+00  0.00000000000E+00  0.34740822075E+04  0.34740822075E+04  0.00000000000E+00 0. -1.
         -1   -1    0    0    0  501 -0.00000000000E+00 -0.00000000000E+00 -0.19292200010E+04  0.19292200010E+04  0.00000000000E+00 0.  1.
         24    2    1    2    0    0  0.24722693972E+03  0.80998014320E+03 -0.57647715938E+03  0.10297872569E+04  0.10462737245E+03 0.  0.
         24    2    1    2    0    0  0.41923459561E+02 -0.98134187794E+03  0.11449788689E+04  0.15106352697E+04  0.79074965328E+02 0.  0.
         25    2    1    2    0    0 -0.28071274897E+03  0.27029477255E+03  0.67970952960E+03  0.79340352263E+03  0.12500077431E+03 0.  0.
        -11    1    4    4    0    0  0.50742615742E+02 -0.42022554804E+03  0.52529835551E+03  0.67461299023E+03  0.00000000000E+00 0.  1.
         12    1    4    4    0    0 -0.88191561812E+01 -0.56111632990E+03  0.61968051334E+03  0.83602227950E+03  0.00000000000E+00 0. -1.
        -11    1    3    3    0    0  0.23726506464E+03  0.63267310082E+03 -0.45345542540E+03  0.81375167356E+03  0.00000000000E+00 0.  1.
         12    1    3    3    0    0  0.99618750805E+01  0.17730704238E+03 -0.12302173398E+03  0.21603558333E+03  0.00000000000E+00 0. -1.
          5    1    5    5  502    0 -0.23289977780E+03  0.24937947031E+03  0.49375193951E+03  0.60020454386E+03  0.47000000000E+01 0. -1.
         -5    1    5    5    0  502 -0.47812971168E+02  0.20915302249E+02  0.18595759010E+03  0.19319897876E+03  0.47000000000E+01 0. -1.
          1    1    1    2  503    0 -0.64022338165E+02 -0.62647638405E+02  0.11801211520E+04  0.11835157455E+04  0.00000000000E+00 0. -1.
         -2    1    1    2    0  501  0.55584687849E+02 -0.36285399409E+02 -0.88347018456E+03  0.88596041376E+03  0.00000000000E+00 0.  1.
<mgrwt>
<rscale>  0 0.77099925E+02</rscale>
<asrwt>0</asrwt>
<pdfrwt beam="1">  1        2 0.51089444E+00 0.89551216E+02</pdfrwt>
<pdfrwt beam="2">  1       -1 0.28370882E+00 0.66379874E+02</pdfrwt>
<totfact> 0.10687611E-01</totfact>
</mgrwt>
</event>
<event>
13    1  0.1942437E-008  0.7933070E+02  0.7546771E-02  0.1417291E+00
          2   -1    0    0  502    0  0.00000000000E+00  0.00000000000E+00  0.41974336408E+04  0.41974336408E+04  0.00000000000E+00 0. -1.
          2   -1    0    0  503    0 -0.00000000000E+00 -0.00000000000E+00 -0.29484179347E+04  0.29484179347E+04  0.00000000000E+00 0. -1.
         24    2    1    2    0    0 -0.10653194791E+03 -0.42232418707E+02 -0.12092927065E+04  0.12172721400E+04  0.78930221722E+02 0.  0.
         24    2    1    2    0    0 -0.96921801565E+02 -0.57160696235E+02 -0.38188400660E+03  0.40213464159E+03  0.56707095339E+02 0.  0.
         25    2    1    2    0    0  0.20541973505E+03 -0.67526718702E+01  0.16859846199E+03  0.29377788613E+03  0.12504854604E+03 0.  0.
        -11    1    3    3    0    0 -0.66944298133E+02  0.15832518310E+02 -0.57723788830E+03  0.58132244699E+03  0.00000000000E+00 0.  1.
         12    1    3    3    0    0 -0.39587649775E+02 -0.58064937017E+02 -0.63205481816E+03  0.63594969304E+03  0.00000000000E+00 0. -1.
        -13    1    4    4    0    0 -0.80734917580E+02 -0.65569370569E+02 -0.28134024283E+03  0.29994966496E+03  0.00000000000E+00 0.  1.
         14    1    4    4    0    0 -0.16186883984E+02  0.84086743340E+01 -0.10054376377E+03  0.10218497663E+03  0.00000000000E+00 0. -1.
          5    1    5    5  501    0  0.19694074081E+03 -0.10247080728E+02  0.94078273769E+02  0.21854855216E+03  0.47000000000E+01 0. -1.
         -5    1    5    5    0  501  0.84789942380E+01  0.34944088583E+01  0.74520188224E+02  0.75229333969E+02  0.47000000000E+01 0. -1.
          1    1    1    2  502    0 -0.24592719831E+02  0.30224285999E+02  0.39508089908E+04  0.39510011379E+04  0.00000000000E+00 0. -1.
          1    1    1    2  503    0  0.22626734251E+02  0.75921500813E+02 -0.12792150337E+04  0.12816657699E+04  0.00000000000E+00 0. -1.
<mgrwt>
<rscale>  0 0.55598198E+02</rscale>
<asrwt>0</asrwt>
<pdfrwt beam="1">  1        2 0.61726965E+00 0.38965489E+02</pdfrwt>
<pdfrwt beam="2">  1        2 0.43359087E+00 0.79330703E+02</pdfrwt>
<totfact> 0.33441804E-01</totfact>
</mgrwt>
</event>
<event>
13    1  0.1942437E-008  0.1446772E+03  0.7546771E-02  0.1302406E+00
          2   -1    0    0  503    0  0.00000000000E+00  0.00000000000E+00  0.21415799553E+04  0.21415799553E+04  0.00000000000E+00 0. -1.
          2   -1    0    0  502    0 -0.00000000000E+00 -0.00000000000E+00 -0.57758169765E+03  0.57758169765E+03  0.00000000000E+00 0. -1.
         24    2    1    2    0    0  0.35694497854E+02  0.84934027563E+02 -0.31578798577E+02  0.12634648756E+03  0.80488062374E+02 0.  0.
         24    2    1    2    0    0 -0.80371879857E+02 -0.63696576565E+02 -0.10876233599E+03  0.16964664643E+03  0.80211258413E+02 0.  0.
         25    2    1    2    0    0  0.13638825350E+03 -0.42495909545E+02  0.66701400159E+03  0.69349839743E+03  0.12499876361E+03 0.  0.
        -11    1    4    4    0    0  0.33210443945E+01 -0.13721380735E+02 -0.58096909198E+02  0.59787594729E+02  0.00000000000E+00 0.  1.
         12    1    4    4    0    0 -0.83692924252E+02 -0.49975195830E+02 -0.50665426792E+02  0.10985905170E+03  0.00000000000E+00 0. -1.
        -11    1    3    3    0    0  0.39838077065E+02  0.41691506511E+02  0.18018793543E+02  0.60414658984E+02  0.00000000000E+00 0.  1.
         12    1    3    3    0    0 -0.41435792115E+01  0.43242521052E+02 -0.49597592120E+02  0.65931828578E+02  0.00000000000E+00 0. -1.
          5    1    5    5  501    0  0.97451026605E+02  0.13445167606E+02  0.21668842094E+03  0.23801982457E+03  0.47000000000E+01 0.  1.
         -5    1    5    5    0  501  0.38937226897E+02 -0.55941077152E+02  0.45032558065E+03  0.45547857286E+03  0.47000000000E+01 0.  1.
          1    1    1    2  502    0  0.40824091885E+02 -0.38647685940E+02 -0.34003556588E+03  0.34465118043E+03  0.00000000000E+00 0. -1.
          1    1    1    2  503    0 -0.13253496338E+03  0.59906144487E+02  0.13773609565E+04  0.13850189411E+04  0.00000000000E+00 0. -1.
<mgrwt>
<rscale>  0 0.90184178E+02</rscale>
<asrwt>0</asrwt>
<pdfrwt beam="1">  1        2 0.31493823E+00 0.14467716E+03</pdfrwt>
<pdfrwt beam="2">  1        2 0.84938486E-01 0.56216102E+02</pdfrwt>
<totfact> 0.66974139E+01</totfact>
</mgrwt>
</event>
<event>
13    1  0.1942437E-008  0.3794790E+02  0.7546771E-02  0.1540442E+00
          2   -1    0    0  503    0  0.00000000000E+00  0.00000000000E+00  0.39608042441E+03  0.39608042441E+03  0.00000000000E+00 0. -1.
          2   -1    0    0  502    0 -0.00000000000E+00 -0.00000000000E+00 -0.33532145024E+04  0.33532145024E+04  0.00000000000E+00 0. -1.
         24    2    1    2    0    0 -0.27862689531E+02  0.10204659682E+03 -0.52479130619E+03  0.54138069601E+03  0.80605865596E+02 0.  0.
         24    2    1    2    0    0 -0.11122654433E+03  0.24792173705E+02 -0.36027272364E+03  0.38620628580E+03  0.79830218291E+02 0.  0.
         25    2    1    2    0    0  0.14725599193E+03 -0.55573565375E+02  0.40202439401E+02  0.20497535841E+03  0.12500365232E+03 0.  0.
        -11    1    4    4    0    0 -0.69229126312E+02  0.53273573503E+02 -0.24989247156E+03  0.26472059404E+03  0.00000000000E+00 0.  1.
         12    1    4    4    0    0 -0.41997418017E+02 -0.28481399797E+02 -0.11038025207E+03  0.12148569176E+03  0.00000000000E+00 0. -1.
        -13    1    3    3    0    0  0.55511053925E+01  0.98171112479E+02 -0.35970387915E+03  0.37290114343E+03  0.00000000000E+00 0.  1.
         14    1    3    3    0    0 -0.33413794924E+02  0.38754843362E+01 -0.16508742704E+03  0.16847955258E+03  0.00000000000E+00 0. -1.
          5    1    5    5  501    0  0.12380695306E+03 -0.93619026957E+02  0.38571825077E+02  0.16000799832E+03  0.47000000000E+01 0.  1.
         -5    1    5    5    0  501  0.23449038867E+02  0.38045461582E+02  0.16306143244E+01  0.44967360095E+02  0.47000000000E+01 0.  1.
          1    1    1    2  502    0 -0.70395741401E+01 -0.37253109653E+02 -0.23632019451E+04  0.23635060362E+04  0.00000000000E+00 0. -1.
          1    1    1    2  503    0 -0.11271839304E+01 -0.34012095493E+02  0.25092945752E+03  0.25322655041E+03  0.00000000000E+00 0. -1.
<mgrwt>
<rscale>  0 0.35936004E+02</rscale>
<asrwt>0</asrwt>
<pdfrwt beam="1">  1        2 0.58247120E-01 0.34030768E+02</pdfrwt>
<pdfrwt beam="2">  1        2 0.49311979E+00 0.37947905E+02</pdfrwt>
<totfact> 0.29194912E+01</totfact>
</mgrwt>
</event>
<event>
13    1  0.1942437E-008  0.1235118E+03  0.7546771E-02  0.1387392E+00
          2   -1    0    0  502    0  0.00000000000E+00  0.00000000000E+00  0.21727837416E+04  0.21727837416E+04  0.00000000000E+00 0. -1.
          2   -1    0    0  503    0 -0.00000000000E+00 -0.00000000000E+00 -0.68245549992E+03  0.68245549992E+03  0.00000000000E+00 0. -1.
         24    2    1    2    0    0 -0.64645187728E+01  0.46089122583E+02  0.47367541665E+02  0.10275823140E+03  0.78419212532E+02 0.  0.
         24    2    1    2    0    0 -0.53803885747E+02 -0.30308556581E+02  0.75089582895E+02  0.12475797879E+03  0.78183381153E+02 0.  0.
         25    2    1    2    0    0  0.91450411503E+02  0.10966613789E+03  0.63477486141E+03  0.66253598552E+03  0.12499987146E+03 0.  0.
        -13    1    3    3    0    0  0.10764140881E+02  0.11507597966E+01 -0.18348198661E+02  0.21303693837E+02  0.00000000000E+00 0.  1.
         14    1    3    3    0    0 -0.17228659654E+02  0.44938362786E+02  0.65715740326E+02  0.81454537565E+02  0.00000000000E+00 0. -1.
        -13    1    4    4    0    0 -0.52263805371E+02  0.10448923549E+02  0.21639154896E+02  0.57523372466E+02  0.00000000000E+00 0.  1.
         14    1    4    4    0    0 -0.15400803758E+01 -0.40757480130E+02  0.53450427999E+02  0.67234606323E+02  0.00000000000E+00 0. -1.
          5    1    5    5  501    0  0.11096072297E+03  0.41298348709E+02  0.39038028275E+03  0.40796653148E+03  0.47000000000E+01 0. -1.
         -5    1    5    5    0  501 -0.19510311467E+02  0.68367789184E+02  0.24439457866E+03  0.25456945404E+03  0.47000000000E+01 0. -1.
          1    1    1    2  502    0  0.26959273719E+02 -0.16651789118E+02  0.13427776901E+04  0.13431515215E+04  0.00000000000E+00 0. -1.
          1    1    1    2  503    0 -0.58141280702E+02 -0.10879491478E+03 -0.60968143444E+03  0.62203552431E+03  0.00000000000E+00 0. -1.
<mgrwt>
<rscale>  0 0.62560009E+02</rscale>
<asrwt>0</asrwt>
<pdfrwt beam="1">  1        2 0.31952702E+00 0.31687293E+02</pdfrwt>
<pdfrwt beam="2">  1        2 0.10036110E+00 0.12351180E+03</pdfrwt>
<totfact> 0.63152696E+01</totfact>
</mgrwt>
</event>
<event>
13    1  0.1942437E-008  0.4985848E+02  0.7546771E-02  0.1528605E+00
          2   -1    0    0  503    0  0.00000000000E+00  0.00000000000E+00  0.65641775605E+03  0.65641775605E+03  0.00000000000E+00 0. -1.
         -1   -1    0    0    0  501 -0.00000000000E+00 -0.00000000000E+00 -0.70581122126E+03  0.70581122126E+03  0.00000000000E+00 0.  1.
         24    2    1    2    0    0  0.57639653310E+01 -0.11975469162E+03 -0.19027549649E+03  0.23890602079E+03  0.80603428848E+02 0.  0.
         24    2    1    2    0    0  0.92394388678E+02  0.20601660322E+03 -0.18145839366E+03  0.30078567750E+03  0.81026608578E+02 0.  0.
         25    2    1    2    0    0 -0.12080716983E+03 -0.74869752082E+02  0.13149321447E+03  0.23046617757E+03  0.12499736594E+03 0.  0.
        -11    1    4    4    0    0  0.73796800672E+02  0.20521867699E+03 -0.17874150281E+03  0.28197375410E+03  0.00000000000E+00 0.  1.
         12    1    4    4    0    0  0.18597588005E+02  0.79792622149E+00 -0.27168908521E+01  0.18811923394E+02  0.00000000000E+00 0. -1.
        -13    1    3    3    0    0 -0.36668564739E+02 -0.69542652195E+02 -0.10827696573E+03  0.13380831597E+03  0.00000000000E+00 0.  1.
         14    1    3    3    0    0  0.42432530070E+02 -0.50212039421E+02 -0.81998530761E+02  0.10509770482E+03  0.00000000000E+00 0. -1.
          5    1    5    5  502    0 -0.13001197749E+03 -0.54539429406E+02  0.56293059883E+02  0.15188371289E+03  0.47000000000E+01 0. -1.
         -5    1    5    5    0  502  0.92048076602E+01 -0.20330322675E+02  0.75200154592E+02  0.78582464677E+02  0.47000000000E+01 0. -1.
          1    1    1    2  503    0  0.33177783052E+02 -0.37328234502E+02  0.38887800724E+03  0.39207176243E+03  0.00000000000E+00 0. -1.
         -2    1    1    2    0  501 -0.10528967228E+02  0.25936074984E+02 -0.19803079678E+03  0.19999933902E+03  0.00000000000E+00 0.  1.
<mgrwt>
<rscale>  0 0.37358091E+02</rscale>
<asrwt>0</asrwt>
<pdfrwt beam="1">  1        2 0.96532023E-01 0.49858476E+02</pdfrwt>
<pdfrwt beam="2">  1       -1 0.10379577E+00 0.27991769E+02</pdfrwt>
<totfact> 0.58932612E+01</totfact>
</mgrwt>
</event>
<event>
13    1  0.1942437E-008  0.3045038E+03  0.7546771E-02  0.1239743E+00
          2   -1    0    0  503    0  0.00000000000E+00  0.00000000000E+00  0.18117912476E+04  0.18117912476E+04  0.00000000000E+00 0. -1.
          2   -1    0    0  502    0 -0.00000000000E+00 -0.00000000000E+00 -0.74485102651E+03  0.74485102651E+03  0.00000000000E+00 0. -1.
         24    2    1    2    0    0  0.58348517472E+02  0.12276407394E+03  0.98208163142E+02  0.18579160151E+03  0.79988177525E+02 0.  0.
         24    2    1    2    0    0  0.19120681569E+03  0.23775739760E+03  0.23944561106E+03  0.39606906430E+03  0.80298670945E+02 0.  0.
         25    2    1    2    0    0 -0.55514619124E+03 -0.47222487693E+03  0.48486708195E+03  0.88425408872E+03  0.12500231287E+03 0.  0.
        -11    1    3    3    0    0  0.26622874655E+02  0.36183828204E+02  0.80075587628E+02  0.91815829857E+02  0.00000000000E+00 0.  1.
         12    1    3    3    0    0  0.31725642818E+02  0.86580245731E+02  0.18132575514E+02  0.93975771653E+02  0.00000000000E+00 0. -1.
        -13    1    4    4    0    0  0.49127215037E+02  0.88990234974E+02  0.39083335579E+02  0.10890478547E+03  0.00000000000E+00 0.  1.
         14    1    4    4    0    0  0.14207960066E+03  0.14876716262E+03  0.20036227548E+03  0.28716427883E+03  0.00000000000E+00 0. -1.
          5    1    5    5  501    0 -0.49030028691E+03 -0.41039590836E+03  0.37085180708E+03  0.73917002493E+03  0.47000000000E+01 0. -1.
         -5    1    5    5    0  501 -0.64845904336E+02 -0.61828968564E+02  0.11401527487E+03  0.14508406379E+03  0.47000000000E+01 0. -1.
          1    1    1    2  502    0  0.21418195017E+02  0.43987052926E+02 -0.38948658364E+03  0.39254732039E+03  0.00000000000E+00 0. -1.
          1    1    1    2  503    0  0.28417266306E+03  0.67716352467E+02  0.63390594863E+03  0.69798019924E+03  0.00000000000E+00 0. -1.
<mgrwt>
<rscale>  0 0.12205603E+03</rscale>
<asrwt>0</asrwt>
<pdfrwt beam="1">  1        2 0.26643989E+00 0.30450380E+03</pdfrwt>
<pdfrwt beam="2">  1        2 0.10953692E+00 0.48924431E+02</pdfrwt>
<totfact> 0.68995789E+01</totfact>
</mgrwt>
</event>
<event>
13    1  0.1942437E-008  0.7024250E+02  0.7546771E-02  0.1387275E+00
          2   -1    0    0  503    0  0.00000000000E+00  0.00000000000E+00  0.31467290897E+04  0.31467290897E+04  0.00000000000E+00 0. -1.
          2   -1    0    0  502    0 -0.00000000000E+00 -0.00000000000E+00 -0.29834936026E+04  0.29834936026E+04  0.00000000000E+00 0. -1.
         24    2    1    2    0    0  0.16006267588E+03 -0.44244318322E+00 -0.47291413014E+03  0.50571697534E+03  0.80508562856E+02 0.  0.
         24    2    1    2    0    0 -0.86216838233E+03 -0.12118392234E+02 -0.95881968542E+03  0.12923360063E+04  0.85533555796E+02 0.  0.
         25    2    1    2    0    0  0.66818290296E+03  0.12422375524E+02  0.66503437253E+03  0.95106180661E+03  0.12500054447E+03 0.  0.
        -11    1    3    3    0    0  0.10869316805E+03  0.18120254703E+02 -0.20963804555E+03  0.23683466501E+03  0.00000000000E+00 0.  1.
         12    1    3    3    0    0  0.51369507836E+02 -0.18562697886E+02 -0.26327608459E+03  0.26888231032E+03  0.00000000000E+00 0. -1.
        -11    1    4    4    0    0 -0.49340500124E+03  0.35279364128E+02 -0.55213936748E+03  0.74131707784E+03  0.00000000000E+00 0.  1.
         12    1    4    4    0    0 -0.36876338110E+03 -0.47397756362E+02 -0.40668031794E+03  0.55101892848E+03  0.00000000000E+00 0. -1.
          5    1    5    5  501    0  0.31246934726E+03  0.61672001398E+02  0.35103937367E+03  0.47401609741E+03  0.47000000000E+01 0.  1.
         -5    1    5    5    0  501  0.35571355570E+03 -0.49249625874E+02  0.31399499886E+03  0.47704570920E+03  0.47000000000E+01 0.  1.
          1    1    1    2  502    0  0.43719774985E+02  0.55041787435E+02 -0.12242173900E+04  0.12262337604E+04  0.00000000000E+00 0. -1.
          1    1    1    2  503    0 -0.97969714974E+01 -0.54903327541E+02  0.21541523202E+04  0.21548741435E+04  0.00000000000E+00 0. -1.
<mgrwt>
<rscale>  0 0.62589647E+02</rscale>
<asrwt>0</asrwt>
<pdfrwt beam="1">  1        2 0.46275428E+00 0.55770566E+02</pdfrwt>
<pdfrwt beam="2">  1        2 0.43874906E+00 0.70242499E+02</pdfrwt>
<totfact> 0.12931447E+00</totfact>
</mgrwt>
</event>
<event>
13    1  0.1942437E-008  0.1453543E+03  0.7546771E-02  0.1237882E+00
          2   -1    0    0  502    0  0.00000000000E+00  0.00000000000E+00  0.19124023612E+04  0.19124023612E+04  0.00000000000E+00 0. -1.
          2   -1    0    0  503    0 -0.00000000000E+00 -0.00000000000E+00 -0.89706198147E+03  0.89706198147E+03  0.00000000000E+00 0. -1.
         24    2    1    2    0    0 -0.28816367780E+02 -0.14673756574E+02  0.40848511544E+01  0.86859950123E+02  0.80512500535E+02 0.  0.
         24    2    1    2    0    0  0.47953877884E+02 -0.60194413435E+02  0.86849883554E+02  0.14138878383E+03  0.80777126142E+02 0.  0.
         25    2    1    2    0    0 -0.56074391481E+02  0.12578922021E+03  0.26490662442E+03  0.32367613252E+03  0.12499381507E+03 0.  0.
        -11    1    3    3    0    0  0.23068228534E+02 -0.91237124769E+01  0.20475448871E+02  0.32165654098E+02  0.00000000000E+00 0.  1.
         12    1    3    3    0    0 -0.51884596314E+02 -0.55500440971E+01 -0.16390597717E+02  0.54694296025E+02  0.00000000000E+00 0. -1.
        -11    1    4    4    0    0  0.17333373037E+02 -0.66219647292E+02  0.86333354649E+02  0.11017683801E+03  0.00000000000E+00 0.  1.
         12    1    4    4    0    0  0.30620504847E+02  0.60252338574E+01  0.51652890475E+00  0.31211945826E+02  0.00000000000E+00 0. -1.
          5    1    5    5  501    0  0.91120262662E+01  0.11756819855E+03  0.14588625642E+03  0.18764381190E+03  0.47000000000E+01 0. -1.
         -5    1    5    5    0  501 -0.65186417747E+02  0.82210216544E+01  0.11902036800E+03  0.13603232062E+03  0.47000000000E+01 0. -1.
          1    1    1    2  502    0  0.21332765246E+02 -0.19147185911E+03  0.14458221041E+04  0.14586014248E+04  0.00000000000E+00 0. -1.
          1    1    1    2  503    0  0.15604116131E+02  0.14055080891E+03 -0.78632308349E+03  0.79893805139E+03  0.00000000000E+00 0. -1.
<mgrwt>
<rscale>  0 0.12321698E+03</rscale>
<asrwt>0</asrwt>
<pdfrwt beam="1">  1        2 0.28123564E+00 0.14535427E+03</pdfrwt>
<pdfrwt beam="2">  1        2 0.13192088E+00 0.10445117E+03</pdfrwt>
<totfact> 0.51148473E+01</totfact>
</mgrwt>
</event>
<event>
13    1  0.1942437E-008  0.1038652E+03  0.7546771E-02  0.1403421E+00
          2   -1    0    0  502    0  0.00000000000E+00  0.00000000000E+00  0.56606062511E+04  0.56606062511E+04  0.00000000000E+00 0. -1.
          4   -1    0    0  503    0 -0.00000000000E+00 -0.00000000000E+00 -0.55479117548E+02  0.55479117548E+02  0.00000000000E+00 0. -1.
         24    2    1    2    0    0  0.69066327273E+02  0.45068074259E+02  0.86568455571E+03  0.87341365771E+03  0.81488518203E+02 0.  0.
         24    2    1    2    0    0 -0.95720702020E+02 -0.81258938844E+01  0.61760590149E+03  0.63003399681E+03  0.79229442978E+02 0.  0.
         25    2    1    2    0    0  0.95760813707E+02 -0.69830554303E+02  0.26058130140E+04  0.26115001406E+04  0.12500032208E+03 0.  0.
        -11    1    4    4    0    0  0.23861733313E+01 -0.24026415586E+02  0.92096128696E+02  0.95208504819E+02  0.00000000000E+00 0.  1.
         12    1    4    4    0    0 -0.98106875352E+02  0.15900521701E+02  0.52550977280E+03  0.53482549199E+03  0.00000000000E+00 0. -1.
        -13    1    3    3    0    0  0.35639801868E+02  0.26552057332E+01  0.65311146016E+03  0.65408854522E+03  0.00000000000E+00 0.  1.
         14    1    3    3    0    0  0.33426525405E+02  0.42412868526E+02  0.21257309554E+03  0.21932511248E+03  0.00000000000E+00 0. -1.
          5    1    5    5  501    0  0.81902330022E+02  0.98073925894E+00  0.79015675147E+03  0.79440464211E+03  0.47000000000E+01 0.  1.
         -5    1    5    5    0  501  0.13858483685E+02 -0.70811293562E+02  0.18156562625E+04  0.18170954984E+04  0.47000000000E+01 0.  1.
          1    1    1    2  502    0  0.32190090832E+02  0.79660961432E+01  0.14941923842E+04  0.14945603171E+04  0.00000000000E+00 0. -1.
          3    1    1    2  503    0 -0.10129652979E+03  0.24922277785E+02  0.21831278171E+02  0.10657725641E+03  0.00000000000E+00 0. -1.
<mgrwt>
<rscale>  0 0.58688062E+02</rscale>
<asrwt>0</asrwt>
<pdfrwt beam="1">  1        2 0.83244170E+00 0.33161131E+02</pdfrwt>
<pdfrwt beam="2">  1        4 0.81586976E-02 0.10386523E+03</pdfrwt>
<totfact> 0.14298933E+00</totfact>
</mgrwt>
</event>
<event>
13    1  0.1942437E-008  0.1590920E+03  0.7546771E-02  0.1269663E+00
          2   -1    0    0  503    0  0.00000000000E+00  0.00000000000E+00  0.13717150350E+04  0.13717150350E+04  0.00000000000E+00 0. -1.
          2   -1    0    0  502    0 -0.00000000000E+00 -0.00000000000E+00 -0.19956294345E+04  0.19956294345E+04  0.00000000000E+00 0. -1.
         24    2    1    2    0    0  0.16618471105E+03 -0.17220322870E+02 -0.96311772894E+03  0.98078058302E+03  0.80130484323E+02 0.  0.
         24    2    1    2    0    0 -0.28884495328E+02 -0.45147149390E+02  0.55784743054E+01  0.95911221899E+02  0.79342699363E+02 0.  0.
         25    2    1    2    0    0 -0.24820394719E+03 -0.84245579651E+02  0.23904103459E+03  0.37612165451E+03  0.12499746270E+03 0.  0.
        -11    1    4    4    0    0  0.23994283604E+02 -0.80404582374E+01 -0.13329550389E+02  0.28601600094E+02  0.00000000000E+00 0.  1.
         12    1    4    4    0    0 -0.52878778933E+02 -0.37106691153E+02  0.18908024695E+02  0.67309621805E+02  0.00000000000E+00 0. -1.
        -13    1    3    3    0    0  0.37906529806E+02  0.30245235534E+02 -0.25911931041E+03  0.26361808797E+03  0.00000000000E+00 0.  1.
         14    1    3    3    0    0  0.12827818124E+03 -0.47465558403E+02 -0.70399841853E+03  0.71716249505E+03  0.00000000000E+00 0. -1.
          5    1    5    5  501    0 -0.65808393939E+02 -0.51040349119E+02  0.14114285043E+02  0.84600029511E+02  0.47000000000E+01 0. -1.
         -5    1    5    5    0  501 -0.18239555325E+03 -0.33205230531E+02  0.22492674954E+03  0.29152162500E+03  0.47000000000E+01 0. -1.
          1    1    1    2  502    0  0.41737867337E+02  0.15443113403E+03 -0.90171922069E+03  0.91579942001E+03  0.00000000000E+00 0. -1.
          1    1    1    2  503    0  0.69165864134E+02 -0.78180821230E+01  0.99630304121E+03  0.99873159011E+03  0.00000000000E+00 0. -1.
<mgrwt>
<rscale>  0 0.10523215E+03</rscale>
<asrwt>0</asrwt>
<pdfrwt beam="1">  1        2 0.20172280E+00 0.69606316E+02</pdfrwt>
<pdfrwt beam="2">  1        2 0.29347491E+00 0.15909195E+03</pdfrwt>
<totfact> 0.26067670E+01</totfact>
</mgrwt>
</event>
<event>
13    1  0.1942437E-008  0.7809752E+02  0.7546771E-02  0.1335247E+00
          2   -1    0    0  503    0  0.00000000000E+00  0.00000000000E+00  0.20354131129E+04  0.20354131129E+04  0.00000000000E+00 0. -1.
          2   -1    0    0  502    0 -0.00000000000E+00 -0.00000000000E+00 -0.88869623601E+03  0.88869623601E+03  0.00000000000E+00 0. -1.
         24    2    1    2    0    0  0.94380562819E+01 -0.80093569896E+02 -0.39845788263E+03  0.41454738590E+03  0.81097435752E+02 0.  0.
         24    2    1    2    0    0  0.58990978046E+01  0.23175881169E+00  0.17520956180E+03  0.19329115773E+03  0.81413930297E+02 0.  0.
         25    2    1    2    0    0 -0.87213029451E+02 -0.57057788934E+02  0.66370557468E+03  0.68335732365E+03  0.12494173897E+03 0.  0.
        -11    1    4    4    0    0  0.23310931609E+02  0.14783336111E+02  0.14870008803E+02  0.31353846987E+02  0.00000000000E+00 0.  1.
         12    1    4    4    0    0 -0.17411833804E+02 -0.14551577300E+02  0.16033955299E+03  0.16193731075E+03  0.00000000000E+00 0. -1.
        -13    1    3    3    0    0  0.26012544126E+02  0.44047180086E+01 -0.12882081052E+03  0.13149469653E+03  0.00000000000E+00 0.  1.
         14    1    3    3    0    0 -0.16574487844E+02 -0.84498287904E+02 -0.26963707211E+03  0.28305268938E+03  0.00000000000E+00 0. -1.
          5    1    5    5  501    0 -0.47037064098E+02  0.31617322585E+02  0.14857301608E+03  0.15908542232E+03  0.47000000000E+01 0. -1.
         -5    1    5    5    0  501 -0.40175965353E+02 -0.88675111518E+02  0.51513255861E+03  0.52427190134E+03  0.47000000000E+01 0. -1.
          1    1    1    2  502    0  0.43041688846E+02  0.64588865372E+02 -0.45876759073E+03  0.46528701982E+03  0.00000000000E+00 0. -1.
          1    1    1    2  503    0  0.28834186519E+02  0.72330734646E+02  0.11650272138E+04  0.11676264618E+04  0.00000000000E+00 0. -1.
<mgrwt>
<rscale>  0 0.77856596E+02</rscale>
<asrwt>0</asrwt>
<pdfrwt beam="1">  1        2 0.29932546E+00 0.78097517E+02</pdfrwt>
<pdfrwt beam="2">  1        2 0.13069062E+00 0.77616419E+02</pdfrwt>
<totfact> 0.48675904E+01</totfact>
</mgrwt>
</event>
<event>
13    1  0.1942437E-008  0.1695167E+03  0.7546771E-02  0.1287760E+00
          2   -1    0    0  502    0  0.00000000000E+00  0.00000000000E+00  0.31430221645E+04  0.31430221645E+04  0.00000000000E+00 0. -1.
          2   -1    0    0  503    0 -0.00000000000E+00 -0.00000000000E+00 -0.10863516386E+04  0.10863516386E+04  0.00000000000E+00 0. -1.
         24    2    1    2    0    0  0.20768894897E+03  0.22861309144E+02 -0.10565600242E+03  0.25542468123E+03  0.10208446479E+03 0.  0.
         24    2    1    2    0    0  0.89173806521E+02  0.40408453736E+01 -0.15889351254E+02  0.12016651498E+03  0.78862054490E+02 0.  0.
         25    2    1    2    0    0 -0.15339247983E+03  0.25334830813E+03  0.18580802691E+04  0.18856830416E+04  0.12499451534E+03 0.  0.
        -13    1    4    4    0    0  0.53024081890E+02 -0.29546295602E+02 -0.31531954751E+02  0.68401761779E+02  0.00000000000E+00 0.  1.
         14    1    4    4    0    0  0.36149724631E+02  0.33587140975E+02  0.15642603497E+02  0.51764753201E+02  0.00000000000E+00 0. -1.
        -13    1    3    3    0    0  0.17333809690E+02  0.19499234432E+02  0.14934310998E+02  0.30061848692E+02  0.00000000000E+00 0.  1.
         14    1    3    3    0    0  0.19035513928E+03  0.33620747120E+01 -0.12059031342E+03  0.22536283254E+03  0.00000000000E+00 0. -1.
          5    1    5    5  501    0 -0.48017186141E+02  0.48038102615E+02  0.19250875161E+03  0.20419358196E+03  0.47000000000E+01 0. -1.
         -5    1    5    5    0  501 -0.10537529369E+03  0.20531020552E+03  0.16655715174E+04  0.16814894596E+04  0.47000000000E+01 0. -1.
          1    1    1    2  502    0 -0.40303991780E+02 -0.37383164777E+02  0.11223021753E+04  0.11236476696E+04  0.00000000000E+00 0. -1.
          1    1    1    2  503    0 -0.10316628388E+03 -0.24286729787E+03 -0.80216656480E+03  0.84445189573E+03  0.00000000000E+00 0. -1.
<mgrwt>
<rscale>  0 0.96533208E+02</rscale>
<asrwt>0</asrwt>
<pdfrwt beam="1">  1        2 0.46220914E+00 0.54971927E+02</pdfrwt>
<pdfrwt beam="2">  1        2 0.15975759E+00 0.16951671E+03</pdfrwt>
<totfact> 0.10654420E+01</totfact>
</mgrwt>
</event>
<event>
13    1  0.1942437E-008  0.1184750E+03  0.7546771E-02  0.1260605E+00
          2   -1    0    0  503    0  0.00000000000E+00  0.00000000000E+00  0.20125303006E+04  0.20125303006E+04  0.00000000000E+00 0. -1.
          2   -1    0    0  502    0 -0.00000000000E+00 -0.00000000000E+00 -0.19240999129E+04  0.19240999129E+04  0.00000000000E+00 0. -1.
         24    2    1    2    0    0 -0.11308521588E+02 -0.14977619217E+02 -0.13677779197E+03  0.16009810364E+03  0.81061869426E+02 0.  0.
         24    2    1    2    0    0  0.92186658206E+02 -0.35935887078E+02  0.16136568264E+03  0.20642332491E+03  0.82352520302E+02 0.  0.
         25    2    1    2    0    0  0.12878070007E+03  0.15661260222E+03  0.84599807943E+03  0.87889123452E+03  0.12500030339E+03 0.  0.
        -11    1    4    4    0    0  0.16733427230E+01  0.13692506147E+02 -0.12072646085E+01  0.13847103968E+02  0.00000000000E+00 0.  1.
         12    1    4    4    0    0  0.90513315483E+02 -0.49628393225E+02  0.16257294725E+03  0.19257622094E+03  0.00000000000E+00 0. -1.
        -11    1    3    3    0    0  0.26471884889E+02 -0.22474683296E+02 -0.27702341582E+02  0.44421749267E+02  0.00000000000E+00 0.  1.
         12    1    3    3    0    0 -0.37780406477E+02  0.74970640790E+01 -0.10907545039E+03  0.11567635437E+03  0.00000000000E+00 0. -1.
          5    1    5    5  501    0  0.13223440743E+03  0.67524712741E+02  0.50454217051E+03  0.52595666852E+03  0.47000000000E+01 0.  1.
         -5    1    5    5    0  501 -0.34537073634E+01  0.89087889479E+02  0.34145590891E+03  0.35293456600E+03  0.47000000000E+01 0.  1.
          1    1    1    2  502    0 -0.15424330649E+03 -0.19984882503E+02 -0.17304602833E+04  0.17374358075E+04  0.00000000000E+00 0. -1.
          1    1    1    2  503    0 -0.55415530192E+02 -0.85714213422E+02  0.94830470086E+03  0.95378174287E+03  0.00000000000E+00 0. -1.
<mgrwt>
<rscale>  0 0.10998128E+03</rscale>
<asrwt>0</asrwt>
<pdfrwt beam="1">  1        2 0.29596034E+00 0.10209653E+03</pdfrwt>
<pdfrwt beam="2">  1        2 0.28295587E+00 0.11847497E+03</pdfrwt>
<totfact> 0.13763023E+01</totfact>
</mgrwt>
</event>
<event>
13    1  0.1942437E-008  0.3387720E+02  0.7546771E-02  0.1592430E+00
          2   -1    0    0  502    0  0.00000000000E+00  0.00000000000E+00  0.12854336953E+04  0.12854336953E+04  0.00000000000E+00 0. -1.
          2   -1    0    0  503    0 -0.00000000000E+00 -0.00000000000E+00 -0.10626769091E+04  0.10626769091E+04  0.00000000000E+00 0. -1.
         24    2    1    2    0    0 -0.27654832881E+02 -0.91146413343E+02 -0.10561600196E+03  0.16316444581E+03  0.79971482790E+02 0.  0.
         24    2    1    2    0    0 -0.64979309579E+03 -0.14416112348E+03 -0.54473631545E+02  0.67084618930E+03  0.63668958683E+02 0.  0.
         25    2    1    2    0    0  0.62860489533E+03  0.23998989320E+03  0.43327979539E+03  0.81000045629E+03  0.12502037760E+03 0.  0.
        -11    1    3    3    0    0 -0.18308279261E+02 -0.17799815039E+02 -0.81476332755E+02  0.85383952263E+02  0.00000000000E+00 0.  1.
         12    1    3    3    0    0 -0.93465536197E+01 -0.73346598304E+02 -0.24139669210E+02  0.77780493550E+02  0.00000000000E+00 0. -1.
        -13    1    4    4    0    0 -0.44039056304E+03 -0.11023971682E+03 -0.64175363029E+02  0.45849222502E+03  0.00000000000E+00 0.  1.
         14    1    4    4    0    0 -0.20940253275E+03 -0.33921406654E+02  0.97017314844E+01  0.21235396428E+03  0.00000000000E+00 0. -1.
          5    1    5    5  501    0  0.16516907577E+02  0.23852620518E+02 -0.26347747500E+00  0.29392433752E+02  0.47000000000E+01 0.  1.
         -5    1    5    5    0  501  0.61208798776E+03  0.21613727268E+03  0.43354327287E+03  0.78060802254E+03  0.47000000000E+01 0.  1.
          1    1    1    2  502    0  0.22194202905E+02  0.16224675241E+02  0.32549215988E+03  0.32665114246E+03  0.00000000000E+00 0. -1.
          1    1    1    2  503    0  0.26648830433E+02 -0.20907031623E+02 -0.37592553560E+03  0.37744837058E+03  0.00000000000E+00 0. -1.
<mgrwt>
<rscale>  0 0.30518190E+02</rscale>
<asrwt>0</asrwt>
<pdfrwt beam="1">  1        2 0.18903437E+00 0.27492230E+02</pdfrwt>
<pdfrwt beam="2">  1        2 0.15627602E+00 0.33877205E+02</pdfrwt>
<totfact> 0.10034750E+02</totfact>
</mgrwt>
</event>
<event>
13    1  0.1942437E-008  0.1488709E+03  0.7546771E-02  0.1312271E+00
          2   -1    0    0  502    0  0.00000000000E+00  0.00000000000E+00  0.16746130166E+04  0.16746130166E+04  0.00000000000E+00 0. -1.
          2   -1    0    0  503    0 -0.00000000000E+00 -0.00000000000E+00 -0.25351592636E+04  0.25351592636E+04  0.00000000000E+00 0. -1.
         24    2    1    2    0    0 -0.87882478560E+02  0.14133439133E+03 -0.65887629682E+03  0.68371905541E+03  0.75199946824E+02 0.  0.
         24    2    1    2    0    0  0.96076581770E+02 -0.56677681528E+02 -0.59157682490E+02  0.15004179984E+03  0.81054556642E+02 0.  0.
         25    2    1    2    0    0  0.12646545563E+03 -0.11378941641E+03  0.25415181718E+03  0.33037905420E+03  0.12496251647E+03 0.  0.
        -11    1    3    3    0    0 -0.69945194646E+01  0.37477480793E+02 -0.64371745181E+02  0.74814480194E+02  0.00000000000E+00 0.  1.
         12    1    3    3    0    0 -0.80887959096E+02  0.10385691054E+03 -0.59450455164E+03  0.60890457521E+03  0.00000000000E+00 0. -1.
        -11    1    4    4    0    0  0.93117855081E+02 -0.26874691220E+02 -0.68485081731E+02  0.11867346116E+03  0.00000000000E+00 0.  1.
         12    1    4    4    0    0  0.29587266889E+01 -0.29802990308E+02  0.93273992411E+01  0.31368338680E+02  0.00000000000E+00 0. -1.
          5    1    5    5  501    0  0.76506826793E+02 -0.48587721985E+02  0.22580092143E+03  0.24335613284E+03  0.47000000000E+01 0.  1.
         -5    1    5    5    0  501  0.49958628833E+02 -0.65201694430E+02  0.28350895750E+02  0.87022921355E+02  0.47000000000E+01 0.  1.
          1    1    1    2  502    0  0.14185251928E+02  0.47878871353E+02  0.13207423392E+04  0.13216860195E+04  0.00000000000E+00 0. -1.
          1    1    1    2  503    0 -0.14884481076E+03 -0.18746164739E+02 -0.17174064240E+04  0.17239463512E+04  0.00000000000E+00 0. -1.
<mgrwt>
<rscale>  0 0.86220781E+02</rscale>
<asrwt>0</asrwt>
<pdfrwt beam="1">  1        2 0.24626662E+00 0.49936036E+02</pdfrwt>
<pdfrwt beam="2">  1        2 0.37281753E+00 0.14887091E+03</pdfrwt>
<totfact> 0.10403368E+01</totfact>
</mgrwt>
</event>
<event>
13    1  0.1942437E-008  0.1449041E+03  0.7546771E-02  0.1256452E+00
          2   -1    0    0  503    0  0.00000000000E+00  0.00000000000E+00  0.40852688333E+04  0.40852688333E+04  0.00000000000E+00 0. -1.
         -3   -1    0    0    0  501 -0.00000000000E+00 -0.00000000000E+00 -0.13206444652E+04  0.13206444652E+04  0.00000000000E+00 0.  1.
         24    2    1    2    0    0 -0.72959808558E+02  0.11932188714E+03 -0.30181907501E+03  0.34262364442E+03  0.82069246732E+02 0.  0.
         24    2    1    2    0    0 -0.90497992021E+01  0.57031237516E+02 -0.36073232773E+02  0.10349182368E+03  0.77941122183E+02 0.  0.
         25    2    1    2    0    0  0.42592166754E+02 -0.22256239688E+03  0.86055452324E+03  0.89862615480E+03  0.12500706157E+03 0.  0.
        -11    1    4    4    0    0 -0.31018398209E+02  0.24368302436E+02 -0.48218248288E+02  0.62297308602E+02  0.00000000000E+00 0.  1.
         12    1    4    4    0    0  0.21968599007E+02  0.32662935081E+02  0.12145015516E+02  0.41194515076E+02  0.00000000000E+00 0. -1.
        -13    1    3    3    0    0 -0.36213521465E+02  0.19749499720E+02 -0.16150333408E+03  0.16668769839E+03  0.00000000000E+00 0.  1.
         14    1    3    3    0    0 -0.36746287093E+02  0.99572387420E+02 -0.14031574093E+03  0.17593594603E+03  0.00000000000E+00 0. -1.
          5    1    5    5  502    0  0.76251834842E+02 -0.97608690632E+02  0.51212640381E+03  0.52691303105E+03  0.47000000000E+01 0. -1.
         -5    1    5    5    0  502 -0.33659668089E+02 -0.12495370625E+03  0.34842811943E+03  0.37171312375E+03  0.47000000000E+01 0. -1.
          1    1    1    2  503    0  0.67116428471E+02  0.12864061263E+03  0.31478135212E+04  0.31511558176E+04  0.00000000000E+00 0. -1.
         -4    1    1    2    0  501 -0.27698987464E+02 -0.82431340410E+02 -0.90585136863E+03  0.91001585801E+03  0.00000000000E+00 0.  1.
<mgrwt>
<rscale>  0 0.11225398E+03</rscale>
<asrwt>0</asrwt>
<pdfrwt beam="1">  1        2 0.60077483E+00 0.14490405E+03</pdfrwt>
<pdfrwt beam="2">  1       -3 0.19421242E+00 0.86960680E+02</pdfrwt>
<totfact> 0.66054719E-02</totfact>
</mgrwt>
</event>
<event>
13    1  0.1942437E-008  0.1177117E+03  0.7546771E-02  0.1551090E+00
         -1   -1    0    0    0  501 -0.00000000000E+00  0.00000000000E+00  0.81139471270E+03  0.81139471270E+03  0.00000000000E+00 0.  1.
          2   -1    0    0  503    0  0.00000000000E+00 -0.00000000000E+00 -0.20345638643E+04  0.20345638643E+04  0.00000000000E+00 0. -1.
         24    2    1    2    0    0 -0.24250085432E+03 -0.13552369184E+03  0.49779864553E+03  0.57637164187E+03  0.85014367394E+02 0.  0.
         24    2    1    2    0    0  0.35370105678E+02 -0.63588927349E+02  0.79216192131E+02  0.13778960442E+03  0.86117210435E+02 0.  0.
         25    2    1    2    0    0  0.10891393817E+03  0.12612362634E+03 -0.70450022912E+03  0.73465259872E+03  0.12499781165E+03 0.  0.
        -11    1    4    4    0    0 -0.27874044488E+02 -0.19046777014E+02  0.35267765892E+02  0.48821689665E+02  0.00000000000E+00 0.  1.
         12    1    4    4    0    0  0.63244150166E+02 -0.44542150335E+02  0.43948426240E+02  0.88967914754E+02  0.00000000000E+00 0. -1.
        -13    1    3    3    0    0 -0.23848172910E+03 -0.14442752686E+03  0.49041066171E+03  0.56412362364E+03  0.00000000000E+00 0.  1.
         14    1    3    3    0    0 -0.40191252239E+01  0.89038350213E+01  0.73879838193E+01  0.12248018230E+02  0.00000000000E+00 0. -1.
          5    1    5    5  502    0  0.33510543408E+02  0.77755398460E+02 -0.54584350218E+03  0.55239123579E+03  0.47000000000E+01 0.  1.
         -5    1    5    5    0  502  0.75403394766E+02  0.48368227885E+02 -0.15865672694E+03  0.18226136293E+03  0.47000000000E+01 0.  1.
          1    1    1    2  503    0 -0.62801389074E+01  0.80901823261E+01 -0.12212923057E+04  0.12213352477E+04  0.00000000000E+00 0. -1.
         -2    1    1    2    0  501  0.10449694938E+03  0.64898810516E+02  0.12560854562E+03  0.17580948429E+03  0.00000000000E+00 0.  1.
<mgrwt>
<rscale>  0 0.34721190E+02</rscale>
<asrwt>0</asrwt>
<pdfrwt beam="2">  1        2 0.29920057E+00 0.10241640E+02</pdfrwt>
<pdfrwt beam="1">  1       -1 0.11932275E+00 0.11771171E+03</pdfrwt>
<totfact> 0.94290936E+00</totfact>
</mgrwt>
</event>
<event>
13    1  0.1942437E-008  0.1570245E+03  0.7546771E-02  0.1339017E+00
          2   -1    0    0  502    0  0.00000000000E+00  0.00000000000E+00  0.51125486130E+04  0.51125486130E+04  0.00000000000E+00 0. -1.
          2   -1    0    0  503    0 -0.00000000000E+00 -0.00000000000E+00 -0.27660225243E+04  0.27660225243E+04  0.00000000000E+00 0. -1.
         24    2    1    2    0    0 -0.33597186280E+03  0.10761191826E+04 -0.42035949540E+03  0.12058666354E+04  0.80639005301E+02 0.  0.
         24    2    1    2    0    0  0.46858435968E+03 -0.95409782393E+03 -0.12310714012E+03  0.10748872443E+04  0.10175097125E+03 0.  0.
         25    2    1    2    0    0 -0.54950107564E+01 -0.46437952023E+02  0.25315228040E+03  0.28617846284E+03  0.12500142795E+03 0.  0.
        -11    1    3    3    0    0 -0.19953116784E+03  0.69897157646E+03 -0.23412335499E+03  0.76366726851E+03  0.00000000000E+00 0.  1.
         12    1    3    3    0    0 -0.13644069495E+03  0.37714760611E+03 -0.18623614042E+03  0.44219936684E+03  0.00000000000E+00 0. -1.
        -13    1    4    4    0    0  0.18510656098E+03 -0.46252270493E+03 -0.91745016263E+02  0.50656573068E+03  0.00000000000E+00 0.  1.
         14    1    4    4    0    0  0.28347779870E+03 -0.49157511900E+03 -0.31362123852E+02  0.56832151357E+03  0.00000000000E+00 0. -1.
          5    1    5    5  501    0  0.55830234166E+02 -0.18605571658E+02  0.73583446534E+02  0.94338729838E+02  0.47000000000E+01 0.  1.
         -5    1    5    5    0  501 -0.61325244922E+02 -0.27832380365E+02  0.17956883386E+03  0.19183973300E+03  0.47000000000E+01 0.  1.
          1    1    1    2  502    0  0.22953053849E+02 -0.29474240719E+02  0.39695441212E+04  0.39697199024E+04  0.00000000000E+00 0. -1.
          1    1    1    2  503    0 -0.15007053997E+03 -0.46109165905E+02 -0.13327036774E+04  0.13419188924E+04  0.00000000000E+00 0. -1.
<mgrwt>
<rscale>  0 0.76589959E+02</rscale>
<asrwt>0</asrwt>
<pdfrwt beam="1">  1        2 0.75184538E+00 0.37357376E+02</pdfrwt>
<pdfrwt beam="2">  1        2 0.40676802E+00 0.15702446E+03</pdfrwt>
<totfact> 0.67356901E-02</totfact>
</mgrwt>
</event>
<event>
13    1  0.1942437E-008  0.9781999E+02  0.7546771E-02  0.1411707E+00
          4   -1    0    0  503    0 -0.00000000000E+00  0.00000000000E+00  0.94745363838E+03  0.94745363838E+03  0.00000000000E+00 0. -1.
          2   -1    0    0  502    0  0.00000000000E+00 -0.00000000000E+00 -0.38437913951E+04  0.38437913951E+04  0.00000000000E+00 0. -1.
         24    2    1    2    0    0  0.16794174601E+01 -0.86650680134E+02  0.41187318409E+02  0.12247926904E+03  0.76115802146E+02 0.  0.
         24    2    1    2    0    0  0.68486292117E+02 -0.11416113427E+03  0.23359464292E+02  0.15844767644E+03  0.82685336132E+02 0.  0.
         25    2    1    2    0    0 -0.11254484677E+03  0.32040095417E+03 -0.99927611435E+03  0.10627800221E+04  0.12500203509E+03 0.  0.
        -11    1    4    4    0    0 -0.14849999279E+02 -0.41263403960E+02 -0.50405266075E+01  0.44142925746E+02  0.00000000000E+00 0.  1.
         12    1    4    4    0    0  0.83336291396E+02 -0.72897730311E+02  0.28399990899E+02  0.11430475069E+03  0.00000000000E+00 0. -1.
        -13    1    3    3    0    0  0.30065123473E+02 -0.73350540643E+02  0.44581349853E+02  0.90948942912E+02  0.00000000000E+00 0.  1.
         14    1    3    3    0    0 -0.28385706013E+02 -0.13300139491E+02 -0.33940314442E+01  0.31530326129E+02  0.00000000000E+00 0. -1.
          5    1    5    5  501    0 -0.89295192552E+02  0.31915844260E+03 -0.97009093654E+03  0.10251508465E+04  0.47000000000E+01 0.  1.
         -5    1    5    5    0  501 -0.23249654216E+02  0.12425115619E+01 -0.29185177809E+02  0.37629175647E+02  0.47000000000E+01 0.  1.
          1    1    1    2  502    0 -0.27394913126E+01 -0.32884473177E+02 -0.27012574194E+04  0.27014589650E+04  0.00000000000E+00 0. -1.
          3    1    1    2  503    0  0.45118628504E+02 -0.86704666584E+02  0.73964899438E+03  0.74607910086E+03  0.00000000000E+00 0. -1.
<mgrwt>
<rscale>  0 0.56814626E+02</rscale>
<asrwt>0</asrwt>
<pdfrwt beam="2">  1        2 0.56526345E+00 0.32998385E+02</pdfrwt>
<pdfrwt beam="1">  1        4 0.13933142E+00 0.97819992E+02</pdfrwt>
<totfact> 0.23681610E-01</totfact>
</mgrwt>
</event>
<event>
13    1  0.1942437E-008  0.1442491E+03  0.7546771E-02  0.1348522E+00
          2   -1    0    0  503    0  0.00000000000E+00  0.00000000000E+00  0.18642470511E+04  0.18642470511E+04  0.00000000000E+00 0. -1.
          2   -1    0    0  502    0 -0.00000000000E+00 -0.00000000000E+00 -0.97421108437E+03  0.97421108437E+03  0.00000000000E+00 0. -1.
         24    2    1    2    0    0  0.12058827378E+03 -0.17460403620E+03  0.97985086752E+02  0.24898353612E+03  0.85811554014E+02 0.  0.
         24    2    1    2    0    0 -0.52259784236E+02  0.41766092851E+02 -0.11920050814E+02  0.10440865601E+03  0.79269087780E+02 0.  0.
         25    2    1    2    0    0  0.37056356388E+02  0.18347992771E+02  0.10928408398E+04  0.11007437133E+04  0.12500319509E+03 0.  0.
        -11    1    4    4    0    0 -0.61187542075E+02  0.55560382916E+02 -0.21485194005E+02  0.85396048014E+02  0.00000000000E+00 0.  1.
         12    1    4    4    0    0  0.89277578389E+01 -0.13794290065E+02  0.95651431916E+01  0.19012607993E+02  0.00000000000E+00 0. -1.
        -13    1    3    3    0    0  0.36279188104E+02 -0.11664539711E+03  0.28887223918E+02  0.12552609235E+03  0.00000000000E+00 0.  1.
         14    1    3    3    0    0  0.84309085673E+02 -0.57958639089E+02  0.69097862834E+02  0.12345744376E+03  0.00000000000E+00 0. -1.
          5    1    5    5  501    0  0.77812177023E+02  0.37364177213E+02  0.71766530931E+03  0.72285296071E+03  0.47000000000E+01 0.  1.
         -5    1    5    5    0  501 -0.40755820636E+02 -0.19016184442E+02  0.37517553048E+03  0.37789075254E+03  0.47000000000E+01 0.  1.
          1    1    1    2  502    0 -0.11584304348E+03  0.78509603696E+02 -0.83009169845E+03  0.84180496342E+03  0.00000000000E+00 0. -1.
          1    1    1    2  503    0  0.10458197555E+02  0.35980346880E+02  0.54122178946E+03  0.54251726668E+03  0.00000000000E+00 0. -1.
<mgrwt>
<rscale>  0 0.73518266E+02</rscale>
<asrwt>0</asrwt>
<pdfrwt beam="1">  1        2 0.27415398E+00 0.37469444E+02</pdfrwt>
<pdfrwt beam="2">  1        2 0.14326634E+00 0.14424915E+03</pdfrwt>
<totfact> 0.54821560E+01</totfact>
</mgrwt>
</event>
<event>
13    1  0.1942437E-008  0.1208959E+03  0.7546771E-02  0.1482869E+00
          2   -1    0    0  503    0  0.00000000000E+00  0.00000000000E+00  0.95291308264E+03  0.95291308264E+03  0.00000000000E+00 0. -1.
          2   -1    0    0  502    0 -0.00000000000E+00 -0.00000000000E+00 -0.13815910057E+04  0.13815910057E+04  0.00000000000E+00 0. -1.
         24    2    1    2    0    0  0.13121282144E+03  0.10214601041E+03 -0.36961551286E+03  0.41297417006E+03  0.79255446771E+02 0.  0.
         24    2    1    2    0    0 -0.10953588933E+03 -0.91787438077E+01  0.25654588722E+02  0.14015531382E+03  0.83084256511E+02 0.  0.
         25    2    1    2    0    0  0.89789234469E+02 -0.16147677434E+02  0.46816033283E+03  0.49307614771E+03  0.12500854408E+03 0.  0.
        -11    1    3    3    0    0 -0.49022112335E-01  0.36807910893E+02 -0.90277980183E+02  0.97493273683E+02  0.00000000000E+00 0.  1.
         12    1    3    3    0    0  0.13126184355E+03  0.65338099513E+02 -0.27933753268E+03  0.31548089638E+03  0.00000000000E+00 0. -1.
        -13    1    4    4    0    0 -0.56530559950E+01 -0.73944740294E+01  0.34640592050E+02  0.35869289173E+02  0.00000000000E+00 0.  1.
         14    1    4    4    0    0 -0.10388283334E+03 -0.17842697783E+01 -0.89860033277E+01  0.10428602465E+03  0.00000000000E+00 0. -1.
          5    1    5    5  501    0  0.13818992006E+02 -0.60552295164E+02  0.13887487765E+03  0.15220337260E+03  0.47000000000E+01 0. -1.
         -5    1    5    5    0  501  0.75970242463E+02  0.44404617731E+02  0.32928545518E+03  0.34087277511E+03  0.47000000000E+01 0. -1.
          1    1    1    2  502    0 -0.10258159717E+03 -0.63791719593E+02 -0.91645347105E+03  0.92438051264E+03  0.00000000000E+00 0. -1.
          1    1    1    2  503    0 -0.88845694057E+01 -0.13027869571E+02  0.36357613930E+03  0.36391794409E+03  0.00000000000E+00 0. -1.
<mgrwt>
<rscale>  0 0.43662412E+02</rscale>
<asrwt>0</asrwt>
<pdfrwt beam="1">  1        2 0.14013428E+00 0.15768987E+02</pdfrwt>
<pdfrwt beam="2">  1        2 0.20317515E+00 0.12089592E+03</pdfrwt>
<totfact> 0.96231044E+01</totfact>
</mgrwt>
</event>
<event>
13    1  0.1942437E-008  0.9341006E+02  0.7546771E-02  0.1313079E+00
          4   -1    0    0  503    0 -0.00000000000E+00  0.00000000000E+00  0.51748194640E+03  0.51748194640E+03  0.00000000000E+00 0. -1.
          2   -1    0    0  502    0  0.00000000000E+00 -0.00000000000E+00 -0.27100552964E+04  0.27100552964E+04  0.00000000000E+00 0. -1.
         24    2    1    2    0    0 -0.25799128139E+01  0.33341414475E+02  0.93929846903E+02  0.12816775342E+03  0.80534781359E+02 0.  0.
         24    2    1    2    0    0 -0.11540892890E+03 -0.19114992395E+02 -0.29020401753E+02  0.14647737858E+03  0.83239623445E+02 0.  0.
         25    2    1    2    0    0  0.21037067068E+02  0.10910399154E+03 -0.11270955345E+03  0.20166645542E+03  0.12497870476E+03 0.  0.
        -11    1    3    3    0    0  0.31710614870E+02  0.40860529672E+02  0.61701972811E+02  0.80512604164E+02  0.00000000000E+00 0.  1.
         12    1    3    3    0    0 -0.34290527684E+02 -0.75191151968E+01  0.32227874091E+02  0.47655149257E+02  0.00000000000E+00 0. -1.
        -13    1    4    4    0    0 -0.36346839410E+02  0.22835727021E+02 -0.36931619280E+02  0.56626033468E+02  0.00000000000E+00 0.  1.
         14    1    4    4    0    0 -0.79062089495E+02 -0.41950719416E+02  0.79112175275E+01  0.89851345107E+02  0.00000000000E+00 0. -1.
          5    1    5    5  501    0 -0.24793808270E+02  0.54277838992E+01 -0.79303516791E+02  0.83398630337E+02  0.47000000000E+01 0. -1.
         -5    1    5    5    0  501  0.45830875338E+02  0.10367620764E+03 -0.33406036654E+02  0.11826782508E+03  0.47000000000E+01 0. -1.
          1    1    1    2  502    0 -0.40951773399E+01 -0.78899591042E+02 -0.24372923272E+04  0.24385724931E+04  0.00000000000E+00 0. -1.
          3    1    1    2  503    0  0.10104695199E+03 -0.44430822573E+02  0.29251908550E+03  0.31265316228E+03  0.00000000000E+00 0. -1.
<mgrwt>
<rscale>  0 0.85906555E+02</rscale>
<asrwt>0</asrwt>
<pdfrwt beam="2">  1        2 0.39853753E+00 0.79005797E+02</pdfrwt>
<pdfrwt beam="1">  1        4 0.76100289E-01 0.93410060E+02</pdfrwt>
<totfact> 0.34100078E+00</totfact>
</mgrwt>
</event>
<event>
13    1  0.1942437E-008  0.7248985E+02  0.7546771E-02  0.1438314E+00
          2   -1    0    0  503    0  0.00000000000E+00  0.00000000000E+00  0.96027060352E+03  0.96027060352E+03  0.00000000000E+00 0. -1.
          2   -1    0    0  502    0 -0.00000000000E+00 -0.00000000000E+00 -0.21770919704E+04  0.21770919704E+04  0.00000000000E+00 0. -1.
         24    2    1    2    0    0 -0.23348791320E+02  0.85264876659E+01 -0.19076042588E+03  0.20877488716E+03  0.81114403036E+02 0.  0.
         24    2    1    2    0    0  0.13971010110E+02 -0.29428843384E+02 -0.72778189717E+02  0.11342437543E+03  0.80667081862E+02 0.  0.
         25    2    1    2    0    0  0.95393238249E+01  0.79582381740E+02 -0.54418944825E+02  0.15817540531E+03  0.12503472760E+03 0.  0.
        -11    1    3    3    0    0 -0.31786977254E+02 -0.30220904268E+02 -0.81701009356E+02  0.92729552504E+02  0.00000000000E+00 0.  1.
         12    1    3    3    0    0  0.84381859346E+01  0.38747391934E+02 -0.10905941652E+03  0.11604533466E+03  0.00000000000E+00 0. -1.
        -11    1    4    4    0    0  0.45586951684E+02 -0.26151353232E+02 -0.31307362284E+02  0.61173641162E+02  0.00000000000E+00 0.  1.
         12    1    4    4    0    0 -0.31615941574E+02 -0.32774901522E+01 -0.41470827433E+02  0.52250734266E+02  0.00000000000E+00 0. -1.
          5    1    5    5  501    0 -0.37686484102E+02  0.25329468073E+01  0.18159473057E+02  0.42172779908E+02  0.47000000000E+01 0.  1.
         -5    1    5    5    0  501  0.47225807927E+02  0.77049434933E+02 -0.72578417881E+02  0.11600262540E+03  0.47000000000E+01 0.  1.
          1    1    1    2  502    0  0.36100707001E+02  0.41814388501E+01 -0.17762419033E+04  0.17766136452E+04  0.00000000000E+00 0. -1.
          1    1    1    2  503    0 -0.36262249617E+02 -0.62861464872E+02  0.87737809675E+03  0.88037426085E+03  0.00000000000E+00 0. -1.
<mgrwt>
<rscale>  0 0.51326704E+02</rscale>
<asrwt>0</asrwt>
<pdfrwt beam="1">  1        2 0.14121626E+00 0.72489847E+02</pdfrwt>
<pdfrwt beam="2">  1        2 0.32016059E+00 0.36342062E+02</pdfrwt>
<totfact> 0.41606666E+01</totfact>
</mgrwt>
</event>
<event>
13    1  0.1942437E-008  0.1486556E+03  0.7546771E-02  0.1236622E+00
          2   -1    0    0  502    0  0.00000000000E+00  0.00000000000E+00  0.75732037975E+03  0.75732037975E+03  0.00000000000E+00 0. -1.
          2   -1    0    0  503    0 -0.00000000000E+00 -0.00000000000E+00 -0.11937610357E+04  0.11937610357E+04  0.00000000000E+00 0. -1.
         24    2    1    2    0    0  0.38799343418E+02 -0.13019316104E+03 -0.20242760904E+03  0.25559852545E+03  0.76798574704E+02 0.  0.
         24    2    1    2    0    0 -0.12213757102E+03 -0.14798917382E+03 -0.31884833611E+03  0.38085283080E+03  0.81032311282E+02 0.  0.
         25    2    1    2    0    0  0.26401755381E+03  0.17948299991E+03  0.68917963843E+02  0.34970659166E+03  0.12500239411E+03 0.  0.
        -13    1    4    4    0    0 -0.16420062803E+02 -0.82583127663E+01 -0.16194709667E+01  0.18451040036E+02  0.00000000000E+00 0.  1.
         14    1    4    4    0    0 -0.10571750821E+03 -0.13973086105E+03 -0.31722886514E+03  0.36240179077E+03  0.00000000000E+00 0. -1.
        -13    1    3    3    0    0  0.17435280986E+02 -0.34332926370E+02 -0.12422073789E+03  0.13005203027E+03  0.00000000000E+00 0.  1.
         14    1    3    3    0    0  0.21364062433E+02 -0.95860234672E+02 -0.78206871149E+02  0.12554649517E+03  0.00000000000E+00 0. -1.
          5    1    5    5  501    0  0.13965952980E+03  0.48411741417E+02  0.80903595060E+02  0.16857034930E+03  0.47000000000E+01 0.  1.
         -5    1    5    5    0  501  0.12435802401E+03  0.13107125850E+03 -0.11985631217E+02  0.18113624236E+03  0.47000000000E+01 0.  1.
          1    1    1    2  502    0 -0.74306132076E+02 -0.71979733261E+02  0.46314424560E+03  0.47455776834E+03  0.00000000000E+00 0. -1.
          1    1    1    2  503    0 -0.10637319413E+03  0.17067906821E+03 -0.44722692029E+03  0.49036569924E+03  0.00000000000E+00 0. -1.
<mgrwt>
<rscale>  0 0.12401144E+03</rscale>
<asrwt>0</asrwt>
<pdfrwt beam="1">  1        2 0.11137065E+00 0.10345281E+03</pdfrwt>
<pdfrwt beam="2">  1        2 0.17555309E+00 0.14865558E+03</pdfrwt>
<totfact> 0.14500682E+02</totfact>
</mgrwt>
</event>
<event>
13    1  0.1942437E-008  0.1834377E+03  0.7546771E-02  0.1335712E+00
          2   -1    0    0  503    0  0.00000000000E+00  0.00000000000E+00  0.11912356722E+04  0.11912356722E+04  0.00000000000E+00 0. -1.
          2   -1    0    0  502    0 -0.00000000000E+00 -0.00000000000E+00 -0.19536644463E+04  0.19536644463E+04  0.00000000000E+00 0. -1.
         24    2    1    2    0    0  0.66235710571E+02  0.98866078775E+02  0.38128340505E+02  0.14914086753E+03  0.81409809797E+02 0.  0.
         24    2    1    2    0    0 -0.16065162023E+02  0.68879921223E+02  0.10135033489E+03  0.14850837717E+03  0.82342666508E+02 0.  0.
         25    2    1    2    0    0 -0.11293698143E+03 -0.48505480241E+01  0.45631572455E+03  0.48644881393E+03  0.12502047235E+03 0.  0.
        -11    1    4    4    0    0  0.16236691565E+01  0.75228963577E+02  0.41830595099E+02  0.86091997007E+02  0.00000000000E+00 0.  1.
         12    1    4    4    0    0 -0.17688831179E+02 -0.63490423536E+01  0.59519739794E+02  0.62416380161E+02  0.00000000000E+00 0. -1.
        -13    1    3    3    0    0 -0.17418713052E+02  0.61564965233E+01 -0.33866737196E+00  0.18477789625E+02  0.00000000000E+00 0.  1.
         14    1    3    3    0    0  0.83654423623E+02  0.92709582252E+02  0.38467007877E+02  0.13066307791E+03  0.00000000000E+00 0. -1.
          5    1    5    5  501    0 -0.11944175958E+03  0.82796649871E+01  0.45554669383E+03  0.47104115217E+03  0.47000000000E+01 0. -1.
         -5    1    5    5    0  501  0.65047781481E+01 -0.13130213011E+02  0.76903072397E+00  0.15407661754E+02  0.47000000000E+01 0. -1.
          1    1    1    2  502    0  0.35679707157E+02 -0.18158844571E+03 -0.18543617391E+04  0.18635731444E+04  0.00000000000E+00 0. -1.
          1    1    1    2  503    0  0.27086725724E+02  0.18692993740E+02  0.49613856501E+03  0.49722891551E+03  0.00000000000E+00 0. -1.
<mgrwt>
<rscale>  0 0.77698623E+02</rscale>
<asrwt>0</asrwt>
<pdfrwt beam="1">  1        2 0.17518172E+00 0.32910769E+02</pdfrwt>
<pdfrwt beam="2">  1        2 0.28730359E+00 0.18343771E+03</pdfrwt>
<totfact> 0.34932180E+01</totfact>
</mgrwt>
</event>
<event>
13    1  0.1942437E-008  0.1614151E+03  0.7546771E-02  0.1229357E+00
          2   -1    0    0  502    0  0.00000000000E+00  0.00000000000E+00  0.60862044176E+03  0.60862044176E+03  0.00000000000E+00 0. -1.
          2   -1    0    0  503    0 -0.00000000000E+00 -0.00000000000E+00 -0.89075316670E+03  0.89075316670E+03  0.00000000000E+00 0. -1.
         24    2    1    2    0    0  0.52286064496E+02 -0.73769677697E+02 -0.33814197650E+02  0.12361943075E+03  0.77217652182E+02 0.  0.
         24    2    1    2    0    0 -0.61261579619E+02  0.40314748745E+03  0.61123695661E+02  0.41988798776E+03  0.79302826666E+02 0.  0.
         25    2    1    2    0    0 -0.20208047553E+03 -0.25730727326E+03 -0.11270868095E+03  0.36792693690E+03  0.12499373055E+03 0.  0.
        -11    1    4    4    0    0  0.96530968251E+01  0.48257585651E+02  0.27620972162E+02  0.56434873565E+02  0.00000000000E+00 0.  1.
         12    1    4    4    0    0 -0.70914676444E+02  0.35488990180E+03  0.33502723499E+02  0.36345311419E+03  0.00000000000E+00 0. -1.
        -13    1    3    3    0    0  0.40817972264E+02 -0.38995399743E+02 -0.57045258925E+02  0.80255277875E+02  0.00000000000E+00 0.  1.
         14    1    3    3    0    0  0.11468092231E+02 -0.34774277954E+02  0.23231061276E+02  0.43364152876E+02  0.00000000000E+00 0. -1.
          5    1    5    5  501    0 -0.18776507390E+03 -0.15836408992E+03 -0.52811324822E+02  0.25128874623E+03  0.47000000000E+01 0.  1.
         -5    1    5    5    0  501 -0.14315401633E+02 -0.98943183339E+02 -0.59897356129E+02  0.11663819068E+03  0.47000000000E+01 0.  1.
          1    1    1    2  502    0  0.15372728249E+03  0.13089702454E+02  0.15669588311E+03  0.21990229075E+03  0.00000000000E+00 0. -1.
          1    1    1    2  503    0  0.57328708163E+02 -0.85160238952E+02 -0.35342942511E+03  0.36803696229E+03  0.00000000000E+00 0. -1.
<mgrwt>
<rscale>  0 0.12872722E+03</rscale>
<asrwt>0</asrwt>
<pdfrwt beam="1">  1        2 0.89503007E-01 0.16141513E+03</pdfrwt>
<pdfrwt beam="2">  1        2 0.13099311E+00 0.10265889E+03</pdfrwt>
<totfact> 0.28037840E+02</totfact>
</mgrwt>
</event>
<event>
13    1  0.1942437E-008  0.1433850E+03  0.7546771E-02  0.1359516E+00
          2   -1    0    0  502    0  0.00000000000E+00  0.00000000000E+00  0.13525958532E+04  0.13525958532E+04  0.00000000000E+00 0. -1.
          2   -1    0    0  503    0 -0.00000000000E+00 -0.00000000000E+00 -0.13111250013E+04  0.13111250013E+04  0.00000000000E+00 0. -1.
         24    2    1    2    0    0 -0.61917222000E+02  0.38174749282E+02 -0.73400567010E+03  0.74203860170E+03  0.81030295641E+02 0.  0.
         24    2    1    2    0    0 -0.25049762978E+02 -0.46237558315E+02 -0.31243429442E+03  0.32693544345E+03  0.80660978383E+02 0.  0.
         25    2    1    2    0    0  0.15961226391E+02 -0.12688850999E+03  0.35762352604E+03  0.39984354145E+03  0.12499926619E+03 0.  0.
        -11    1    4    4    0    0  0.23984396545E+02 -0.31218905194E+02 -0.19271132171E+03  0.19669144576E+03  0.00000000000E+00 0.  1.
         12    1    4    4    0    0 -0.49034159524E+02 -0.15018653121E+02 -0.11972297271E+03  0.13024399770E+03  0.00000000000E+00 0. -1.
        -13    1    3    3    0    0 -0.53272759547E+02 -0.13375506130E+02 -0.31065680679E+03  0.31547510628E+03  0.00000000000E+00 0.  1.
         14    1    3    3    0    0 -0.86444624535E+01  0.51550255412E+02 -0.42334886331E+03  0.42656349543E+03  0.00000000000E+00 0. -1.
          5    1    5    5  501    0  0.31004143212E+02  0.15682713521E+02  0.60997437982E+02  0.70356107340E+02  0.47000000000E+01 0. -1.
         -5    1    5    5    0  501 -0.15042916821E+02 -0.14257122351E+03  0.29662608806E+03  0.32948743412E+03  0.47000000000E+01 0. -1.
          1    1    1    2  502    0  0.10247789830E+03  0.12121335674E+03  0.95473717252E+03  0.96784165341E+03  0.00000000000E+00 0. -1.
          1    1    1    2  503    0 -0.31472139714E+02  0.13737962281E+02 -0.22444988209E+03  0.22706161445E+03  0.00000000000E+00 0. -1.
<mgrwt>
<rscale>  0 0.70169959E+02</rscale>
<asrwt>0</asrwt>
<pdfrwt beam="1">  1        2 0.19891116E+00 0.14338500E+03</pdfrwt>
<pdfrwt beam="2">  1        2 0.19281250E+00 0.34339877E+02</pdfrwt>
<totfact> 0.61994809E+01</totfact>
</mgrwt>
</event>
<event>
13    1  0.1942437E-008  0.7272090E+02  0.7546771E-02  0.1490459E+00
          2   -1    0    0  503    0  0.00000000000E+00  0.00000000000E+00  0.17639252204E+04  0.17639252204E+04  0.00000000000E+00 0. -1.
          2   -1    0    0  502    0 -0.00000000000E+00 -0.00000000000E+00 -0.25456080074E+04  0.25456080074E+04  0.00000000000E+00 0. -1.
         24    2    1    2    0    0 -0.69200631283E+03 -0.33878852930E+03 -0.42829245424E+03  0.88497377358E+03  0.78062468516E+02 0.  0.
         24    2    1    2    0    0  0.73213524569E+03  0.61278618751E+03 -0.10132674044E+04  0.13938870129E+04  0.68419603862E+02 0.  0.
         25    2    1    2    0    0  0.24631625143E+02 -0.30750908353E+03  0.84455528246E+03  0.90777498045E+03  0.12495293752E+03 0.  0.
        -11    1    4    4    0    0  0.38305618432E+03  0.27905561273E+03 -0.48375168384E+03  0.67721471259E+03  0.00000000000E+00 0.  1.
         12    1    4    4    0    0  0.34907906138E+03  0.33373057478E+03 -0.52951572058E+03  0.71667230027E+03  0.00000000000E+00 0. -1.
        -11    1    3    3    0    0 -0.65357044097E+03 -0.33358210052E+03 -0.41940542151E+03  0.84518178322E+03  0.00000000000E+00 0.  1.
         12    1    3    3    0    0 -0.38435871863E+02 -0.52064287795E+01 -0.88870327317E+01  0.39791990365E+02  0.00000000000E+00 0. -1.
          5    1    5    5  501    0  0.64674374111E+02 -0.97344363999E+02  0.25382052683E+03  0.27947388019E+03  0.47000000000E+01 0. -1.
         -5    1    5    5    0  501 -0.40042748969E+02 -0.21016471953E+03  0.59073475563E+03  0.62830110026E+03  0.47000000000E+01 0. -1.
          1    1    1    2  502    0 -0.15174487918E+02 -0.19690336539E+02 -0.65073033275E+03  0.65120499107E+03  0.00000000000E+00 0. -1.
          1    1    1    2  503    0 -0.49586070091E+02  0.53201761858E+02  0.46605212186E+03  0.47169246984E+03  0.00000000000E+00 0. -1.
<mgrwt>
<rscale>  0 0.42517942E+02</rscale>
<asrwt>0</asrwt>
<pdfrwt beam="1">  1        2 0.25940077E+00 0.72720895E+02</pdfrwt>
<pdfrwt beam="2">  1        2 0.37435412E+00 0.24859092E+02</pdfrwt>
<totfact> 0.11585492E+01</totfact>
</mgrwt>
</event>
<event>
13    1  0.1942437E-008  0.8647368E+02  0.7546771E-02  0.1403265E+00
          2   -1    0    0  503    0  0.00000000000E+00  0.00000000000E+00  0.12805763237E+04  0.12805763237E+04  0.00000000000E+00 0. -1.
          2   -1    0    0  502    0 -0.00000000000E+00 -0.00000000000E+00 -0.70288348972E+03  0.70288348972E+03  0.00000000000E+00 0. -1.
         24    2    1    2    0    0  0.44378858301E+02  0.22929544471E+02 -0.15243344650E+03  0.17969453462E+03  0.80987178518E+02 0.  0.
         24    2    1    2    0    0  0.12029584773E+02  0.33551907270E+02 -0.50701100484E+02  0.10589099144E+03  0.85859531130E+02 0.  0.
         25    2    1    2    0    0 -0.22980839000E+02 -0.23811704682E+02  0.11038532407E+04  0.11114008447E+04  0.12499897765E+03 0.  0.
        -11    1    3    3    0    0  0.10131428084E+02 -0.26928593300E+02 -0.81737886569E+02  0.86653777026E+02  0.00000000000E+00 0.  1.
         12    1    3    3    0    0  0.34247430218E+02  0.49858137771E+02 -0.70695559934E+02  0.93040757589E+02  0.00000000000E+00 0. -1.
        -13    1    4    4    0    0  0.10422981201E+02  0.43000438239E+02  0.92302292996E+01  0.45198156586E+02  0.00000000000E+00 0.  1.
         14    1    4    4    0    0  0.16066035720E+01 -0.94485309691E+01 -0.59931329784E+02  0.60692834850E+02  0.00000000000E+00 0. -1.
          5    1    5    5  501    0  0.96205402422E+01  0.48588309481E+02  0.41785603537E+03  0.42080771726E+03  0.47000000000E+01 0. -1.
         -5    1    5    5    0  501 -0.32601379242E+02 -0.72400014163E+02  0.68599720534E+03  0.69059312747E+03  0.47000000000E+01 0. -1.
          1    1    1    2  502    0 -0.62425701925E+02 -0.60046573574E+02 -0.44747997071E+03  0.45578600619E+03  0.00000000000E+00 0. -1.
          1    1    1    2  503    0  0.28998097851E+02  0.27376826516E+02  0.12445411100E+03  0.13068743648E+03  0.00000000000E+00 0. -1.
<mgrwt>
<rscale>  0 0.58724214E+02</rscale>
<asrwt>0</asrwt>
<pdfrwt beam="1">  1        2 0.18832005E+00 0.39879573E+02</pdfrwt>
<pdfrwt beam="2">  1        2 0.10336522E+00 0.86473679E+02</pdfrwt>
<totfact> 0.15597516E+02</totfact>
</mgrwt>
</event>
<event>
13    1  0.1942437E-008  0.1233009E+03  0.7546771E-02  0.1442772E+00
          2   -1    0    0  503    0  0.00000000000E+00  0.00000000000E+00  0.27064291454E+04  0.27064291454E+04  0.00000000000E+00 0. -1.
          2   -1    0    0  502    0 -0.00000000000E+00 -0.00000000000E+00 -0.65612878973E+03  0.65612878973E+03  0.00000000000E+00 0. -1.
         24    2    1    2    0    0 -0.12579190936E+03 -0.12656111672E+03 -0.13752814444E+03  0.23880160203E+03  0.79188975839E+02 0.  0.
         24    2    1    2    0    0  0.11451567204E+03  0.19312723557E+03  0.18044868423E+03  0.29906146251E+03  0.80399393418E+02 0.  0.
         25    2    1    2    0    0 -0.65387361660E+02  0.32622363220E+02  0.20202853454E+04  0.20254673359E+04  0.12500130654E+03 0.  0.
        -11    1    4    4    0    0  0.38402127343E+02  0.77995384193E+02  0.12049956090E+03  0.14858717144E+03  0.00000000000E+00 0.  1.
         12    1    4    4    0    0  0.76113544697E+02  0.11513185137E+03  0.59949123333E+02  0.15047429108E+03  0.00000000000E+00 0. -1.
        -11    1    3    3    0    0 -0.80021517296E+01 -0.35202076056E+02 -0.61874948413E+02  0.71636093082E+02  0.00000000000E+00 0.  1.
         12    1    3    3    0    0 -0.11778975763E+03 -0.91359040668E+02 -0.75653196027E+02  0.16716550895E+03  0.00000000000E+00 0. -1.
          5    1    5    5  501    0 -0.58027738989E+02  0.78670782484E+02  0.13918717038E+04  0.13953082958E+04  0.47000000000E+01 0.  1.
         -5    1    5    5    0  501 -0.73596226704E+01 -0.46048419265E+02  0.62841364156E+03  0.63015904014E+03  0.47000000000E+01 0.  1.
          1    1    1    2  502    0  0.90451066584E+02 -0.83793528030E+02 -0.39642214126E+03  0.41515450723E+03  0.00000000000E+00 0. -1.
          1    1    1    2  503    0 -0.13787467606E+02 -0.15394954030E+02  0.38351661176E+03  0.38407302739E+03  0.00000000000E+00 0. -1.
<mgrwt>
<rscale>  0 0.50479515E+02</rscale>
<asrwt>0</asrwt>
<pdfrwt beam="1">  1        2 0.39800428E+00 0.20666371E+02</pdfrwt>
<pdfrwt beam="2">  1        2 0.96489529E-01 0.12330087E+03</pdfrwt>
<totfact> 0.40002251E+01</totfact>
</mgrwt>
</event>
<event>
13    1  0.1942437E-008  0.8962568E+02  0.7546771E-02  0.1447427E+00
          2   -1    0    0  502    0  0.00000000000E+00  0.00000000000E+00  0.54677342737E+03  0.54677342737E+03  0.00000000000E+00 0. -1.
          2   -1    0    0  503    0 -0.00000000000E+00 -0.00000000000E+00 -0.18348869013E+04  0.18348869013E+04  0.00000000000E+00 0. -1.
         24    2    1    2    0    0  0.25856276208E+01 -0.34689337501E+02 -0.74850709661E+03  0.75377240713E+03  0.81853115236E+02 0.  0.
         24    2    1    2    0    0 -0.17230687226E+02  0.21738719505E+02 -0.64780758817E+03  0.65356145382E+03  0.81966054659E+02 0.  0.
         25    2    1    2    0    0  0.11114799163E+02 -0.82316822100E+02  0.17586125167E+02  0.15110416623E+03  0.12499439704E+03 0.  0.
        -13    1    3    3    0    0  0.41481938449E+02 -0.11510990332E+02 -0.32088949357E+03  0.32376429883E+03  0.00000000000E+00 0.  1.
         14    1    3    3    0    0 -0.38896310828E+02 -0.23178347170E+02 -0.42761760304E+03  0.43000810830E+03  0.00000000000E+00 0. -1.
        -13    1    4    4    0    0 -0.55064889024E+00  0.51504426506E+02 -0.34213772631E+03  0.34599311110E+03  0.00000000000E+00 0.  1.
         14    1    4    4    0    0 -0.16680038336E+02 -0.29765707001E+02 -0.30566986186E+03  0.30756834271E+03  0.00000000000E+00 0. -1.
          5    1    5    5  501    0 -0.25189555545E+02 -0.87419745845E+02  0.48243064512E+02  0.10308350472E+03  0.47000000000E+01 0.  1.
         -5    1    5    5    0  501  0.36304354708E+02  0.51029237453E+01 -0.30656939344E+02  0.48020661506E+02  0.47000000000E+01 0.  1.
          1    1    1    2  502    0  0.29298191347E+02  0.85758965389E+02  0.45189860817E+03  0.46089623152E+03  0.00000000000E+00 0. -1.
          1    1    1    2  503    0 -0.25767930905E+02  0.95084747069E+01 -0.36128352249E+03  0.36232606997E+03  0.00000000000E+00 0. -1.
<mgrwt>
<rscale>  0 0.49615373E+02</rscale>
<asrwt>0</asrwt>
<pdfrwt beam="1">  1        2 0.80407859E-01 0.89625677E+02</pdfrwt>
<pdfrwt beam="2">  1        2 0.26983630E+00 0.27466295E+02</pdfrwt>
<totfact> 0.11782440E+02</totfact>
</mgrwt>
</event>
<event>
13    1  0.1942437E-008  0.2216816E+03  0.7546771E-02  0.1205203E+00
          2   -1    0    0  503    0  0.00000000000E+00  0.00000000000E+00  0.12943450909E+04  0.12943450909E+04  0.00000000000E+00 0. -1.
          2   -1    0    0  502    0 -0.00000000000E+00 -0.00000000000E+00 -0.12972274485E+04  0.12972274485E+04  0.00000000000E+00 0. -1.
         24    2    1    2    0    0 -0.21758346150E+03  0.90617170233E+02  0.39228994123E+02  0.25248153459E+03  0.81571913499E+02 0.  0.
         24    2    1    2    0    0  0.76902158875E+02 -0.76850639818E+02  0.69197292952E+02  0.15395772901E+03  0.84230363222E+02 0.  0.
         25    2    1    2    0    0 -0.12677490875E+03 -0.60102653221E+02  0.18216199427E+03  0.26171033481E+03  0.12500040310E+03 0.  0.
        -13    1    3    3    0    0 -0.20100672598E+03  0.61740588588E+02  0.52349279254E+02  0.21669344984E+03  0.00000000000E+00 0.  1.
         14    1    3    3    0    0 -0.16576735521E+02  0.28876581645E+02 -0.13120285131E+02  0.35788084748E+02  0.00000000000E+00 0. -1.
        -13    1    4    4    0    0  0.49433224391E+02  0.60259289168E+01  0.19397405310E+02  0.53443566739E+02  0.00000000000E+00 0.  1.
         14    1    4    4    0    0  0.27468934484E+02 -0.82876568735E+02  0.49799887642E+02  0.10051416227E+03  0.00000000000E+00 0. -1.
          5    1    5    5  501    0 -0.13199391205E+03 -0.74598714631E+02  0.19054590464E+03  0.24355121190E+03  0.47000000000E+01 0. -1.
         -5    1    5    5    0  501  0.52190033047E+01  0.14496061410E+02 -0.83839103617E+01  0.18159122910E+02  0.47000000000E+01 0. -1.
          1    1    1    2  502    0  0.19645041702E+03  0.11159407424E+03 -0.10940097321E+04  0.11170959214E+04  0.00000000000E+00 0. -1.
          1    1    1    2  503    0  0.71005794353E+02 -0.65257951435E+02  0.80053909312E+03  0.80632701968E+03  0.00000000000E+00 0. -1.
<mgrwt>
<rscale>  0 0.14621453E+03</rscale>
<asrwt>0</asrwt>
<pdfrwt beam="1">  1        2 0.19034487E+00 0.96438701E+02</pdfrwt>
<pdfrwt beam="2">  1        2 0.19076874E+00 0.22168163E+03</pdfrwt>
<totfact> 0.61180608E+01</totfact>
</mgrwt>
</event>
<event>
13    1  0.1942437E-008  0.4016880E+02  0.7546771E-02  0.1714280E+00
          2   -1    0    0  502    0  0.00000000000E+00  0.00000000000E+00  0.62880845286E+03  0.62880845286E+03  0.00000000000E+00 0. -1.
          2   -1    0    0  503    0 -0.00000000000E+00 -0.00000000000E+00 -0.27110401824E+04  0.27110401824E+04  0.00000000000E+00 0. -1.
         24    2    1    2    0    0  0.12428008706E+02  0.43051576907E+02 -0.30790501863E+03  0.32167774073E+03  0.81628271511E+02 0.  0.
         24    2    1    2    0    0  0.74507543588E+02 -0.18697846848E+03 -0.10221268929E+03  0.23835889761E+03  0.76519334091E+02 0.  0.
         25    2    1    2    0    0 -0.54290202677E+02  0.18396342568E+03  0.32280215760E+03  0.39574669445E+03  0.12499698043E+03 0.  0.
        -11    1    3    3    0    0 -0.30050904402E+02  0.12550055662E+02 -0.18893787166E+03  0.19172396851E+03  0.00000000000E+00 0.  1.
         12    1    3    3    0    0  0.42478913108E+02  0.30501521246E+02 -0.11896714696E+03  0.12995377222E+03  0.00000000000E+00 0. -1.
        -11    1    4    4    0    0  0.38432447305E+02 -0.10844664375E+03 -0.99150358248E+02  0.15188324821E+03  0.00000000000E+00 0.  1.
         12    1    4    4    0    0  0.36075096283E+02 -0.78531824731E+02 -0.30623310474E+01  0.86475649398E+02  0.00000000000E+00 0. -1.
          5    1    5    5  501    0 -0.88692207305E+02  0.90594019827E+02  0.20910986222E+03  0.24458660745E+03  0.47000000000E+01 0. -1.
         -5    1    5    5    0  501  0.34402004628E+02  0.93369405849E+02  0.11369229538E+03  0.15116008699E+03  0.47000000000E+01 0. -1.
          1    1    1    2  502    0 -0.58955186705E+01 -0.10076740740E+02  0.19421506650E+03  0.19456564419E+03  0.00000000000E+00 0. -1.
          1    1    1    2  503    0 -0.26749830946E+02 -0.29959793366E+02 -0.21891312457E+04  0.21894996583E+04  0.00000000000E+00 0. -1.
<mgrwt>
<rscale>  0 0.21655423E+02</rscale>
<asrwt>0</asrwt>
<pdfrwt beam="1">  1        2 0.92471831E-01 0.11674667E+02</pdfrwt>
<pdfrwt beam="2">  1        2 0.39868238E+00 0.40168800E+02</pdfrwt>
<totfact> 0.39197047E+01</totfact>
</mgrwt>
</event>
<event>
13    1  0.1942437E-008  0.1774885E+03  0.7546771E-02  0.1353340E+00
          2   -1    0    0  503    0  0.00000000000E+00  0.00000000000E+00  0.34981499192E+04  0.34981499192E+04  0.00000000000E+00 0. -1.
          2   -1    0    0  502    0 -0.00000000000E+00 -0.00000000000E+00 -0.17057822721E+04  0.17057822721E+04  0.00000000000E+00 0. -1.
         24    2    1    2    0    0 -0.10078091844E+02 -0.88123289516E+02  0.26618976221E+01  0.11698762727E+03  0.76234750252E+02 0.  0.
         24    2    1    2    0    0  0.71125336086E+02  0.11136677763E+03  0.19984497507E+03  0.25223701847E+03  0.78893135516E+02 0.  0.
         25    2    1    2    0    0 -0.26663046407E+02 -0.22660291223E+03  0.41274157597E+03  0.48789461273E+03  0.12500298686E+03 0.  0.
        -11    1    4    4    0    0  0.53210687796E+02  0.10210438224E+03  0.10684323883E+03  0.15707374017E+03  0.00000000000E+00 0.  1.
         12    1    4    4    0    0  0.17914648290E+02  0.92623953894E+01  0.93001736244E+02  0.95163278297E+02  0.00000000000E+00 0. -1.
        -13    1    3    3    0    0 -0.72564298291E+01 -0.10122893829E+03  0.95110312771E+01  0.10193337744E+03  0.00000000000E+00 0.  1.
         14    1    3    3    0    0 -0.28216620153E+01  0.13105648771E+02 -0.68491336551E+01  0.15054249834E+02  0.00000000000E+00 0. -1.
          5    1    5    5  501    0 -0.52122137134E+02 -0.16337914908E+03  0.36856695647E+03  0.40653801168E+03  0.47000000000E+01 0. -1.
         -5    1    5    5    0  501  0.25459090727E+02 -0.63223763152E+02  0.44174619495E+02  0.81356601055E+02  0.47000000000E+01 0. -1.
          1    1    1    2  502    0 -0.30420538117E+02  0.17440190712E+03 -0.15798252429E+04  0.15897135693E+04  0.00000000000E+00 0. -1.
          1    1    1    2  503    0 -0.39636597183E+01  0.28957516998E+02  0.27569444413E+04  0.27570993636E+04  0.00000000000E+00 0. -1.
<mgrwt>
<rscale>  0 0.72024646E+02</rscale>
<asrwt>0</asrwt>
<pdfrwt beam="1">  1        2 0.51443381E+00 0.29227528E+02</pdfrwt>
<pdfrwt beam="2">  1        2 0.25085033E+00 0.17748848E+03</pdfrwt>
<totfact> 0.36538895E+00</totfact>
</mgrwt>
</event>
<event>
13    1  0.1942437E-008  0.7604377E+02  0.7546771E-02  0.1383339E+00
          2   -1    0    0  503    0  0.00000000000E+00  0.00000000000E+00  0.21342182838E+04  0.21342182838E+04  0.00000000000E+00 0. -1.
         -3   -1    0    0    0  501 -0.00000000000E+00 -0.00000000000E+00 -0.17733023102E+04  0.17733023102E+04  0.00000000000E+00 0.  1.
         24    2    1    2    0    0 -0.23286895644E+02 -0.69960806535E+01  0.37315402865E+02  0.90773713629E+02  0.79096163887E+02 0.  0.
         24    2    1    2    0    0 -0.17034471643E+01  0.58922211622E+02  0.29217716213E+03  0.30844489953E+03  0.79347547023E+02 0.  0.
         25    2    1    2    0    0  0.40685983432E+02  0.18911552840E+02  0.10064250464E+04  0.10151499382E+04  0.12500010806E+03 0.  0.
        -13    1    3    3    0    0 -0.47568582618E+01  0.30853409430E+02  0.37289200690E+02  0.48631728964E+02  0.00000000000E+00 0.  1.
         14    1    3    3    0    0 -0.18530037382E+02 -0.37849490083E+02  0.26202175952E-01  0.42141984665E+02  0.00000000000E+00 0. -1.
        -13    1    4    4    0    0 -0.25554791301E+01 -0.19314206282E+02  0.41589453094E+02  0.45926589755E+02  0.00000000000E+00 0.  1.
         14    1    4    4    0    0  0.85203196579E+00  0.78236417904E+02  0.25058770904E+03  0.26251830977E+03  0.00000000000E+00 0. -1.
          5    1    5    5  502    0  0.64680051043E+02  0.53813584428E+02  0.51167274218E+03  0.51856580678E+03  0.47000000000E+01 0.  1.
         -5    1    5    5    0  502 -0.23994067611E+02 -0.34902031588E+02  0.49475230423E+03  0.49658413147E+03  0.47000000000E+01 0.  1.
          1    1    1    2  503    0  0.46106268721E+02 -0.26507016465E+02  0.75730822535E+03  0.75917333865E+03  0.00000000000E+00 0. -1.
         -4    1    1    2    0  501 -0.61801909345E+02 -0.44330667344E+02 -0.17323098631E+04  0.17339787040E+04  0.00000000000E+00 0.  1.
<mgrwt>
<rscale>  0 0.63594184E+02</rscale>
<asrwt>0</asrwt>
<pdfrwt beam="1">  1        2 0.31385563E+00 0.53182797E+02</pdfrwt>
<pdfrwt beam="2">  1       -3 0.26077975E+00 0.76043766E+02</pdfrwt>
<totfact> 0.40294614E-01</totfact>
</mgrwt>
</event>
<event>
13    1  0.1942437E-008  0.1231281E+03  0.7546771E-02  0.1259779E+00
          2   -1    0    0  503    0  0.00000000000E+00  0.00000000000E+00  0.21286912751E+04  0.21286912751E+04  0.00000000000E+00 0. -1.
          2   -1    0    0  502    0 -0.00000000000E+00 -0.00000000000E+00 -0.21200088324E+04  0.21200088324E+04  0.00000000000E+00 0. -1.
         24    2    1    2    0    0  0.97025453313E+02  0.62819472530E+02 -0.31011896484E+03  0.33993925392E+03  0.77618936369E+02 0.  0.
         24    2    1    2    0    0 -0.75527480568E+02 -0.13852640803E+02 -0.92228444193E+02  0.14387139921E+03  0.79351103429E+02 0.  0.
         25    2    1    2    0    0  0.42194210296E+00  0.40982389060E+01  0.12996917820E+04  0.13056955558E+04  0.12500072996E+03 0.  0.
        -11    1    3    3    0    0  0.41005612222E+01  0.80650130051E+01 -0.12769926884E+03  0.12801938252E+03  0.00000000000E+00 0.  1.
         12    1    3    3    0    0  0.92924892090E+02  0.54754459525E+02 -0.18241969600E+03  0.21191987141E+03  0.00000000000E+00 0. -1.
        -13    1    4    4    0    0 -0.99788008256E+01  0.29481249709E+02 -0.33828526375E+02  0.45968355932E+02  0.00000000000E+00 0.  1.
         14    1    4    4    0    0 -0.65548679742E+02 -0.43333890513E+02 -0.58399917818E+02  0.97903043283E+02  0.00000000000E+00 0. -1.
          5    1    5    5  501    0  0.49626283621E+02  0.21653844141E+02  0.31857552228E+03  0.32317814033E+03  0.47000000000E+01 0.  1.
         -5    1    5    5    0  501 -0.49204341518E+02 -0.17555605235E+02  0.98111625975E+03  0.98251741544E+03  0.47000000000E+01 0.  1.
          1    1    1    2  502    0  0.44866606216E+02 -0.12619603412E+03 -0.16681103916E+04  0.16734786315E+04  0.00000000000E+00 0. -1.
          1    1    1    2  503    0 -0.66786521064E+02  0.73130963491E+02  0.77944846129E+03  0.78571526714E+03  0.00000000000E+00 0. -1.
<mgrwt>
<rscale>  0 0.11042822E+03</rscale>
<asrwt>0</asrwt>
<pdfrwt beam="1">  1        2 0.31304284E+00 0.99038261E+02</pdfrwt>
<pdfrwt beam="2">  1        2 0.31176600E+00 0.12312808E+03</pdfrwt>
<totfact> 0.97085248E+00</totfact>
</mgrwt>
</event>
<event>
13    1  0.1942437E-008  0.1617802E+03  0.7546771E-02  0.1457460E+00
          2   -1    0    0  502    0  0.00000000000E+00  0.00000000000E+00  0.81889910198E+03  0.81889910198E+03  0.00000000000E+00 0. -1.
          2   -1    0    0  503    0 -0.00000000000E+00 -0.00000000000E+00 -0.25622550629E+04  0.25622550629E+04  0.00000000000E+00 0. -1.
         24    2    1    2    0    0  0.28116047654E+03  0.34637959903E+03 -0.21350611553E+02  0.45546308354E+03  0.89222932382E+02 0.  0.
         24    2    1    2    0    0 -0.12826686095E+03 -0.29316083034E+03  0.18505184239E+03  0.37913518379E+03  0.84283113108E+02 0.  0.
         25    2    1    2    0    0 -0.75603910259E+01 -0.12693907660E+02  0.18803155998E+03  0.22626613672E+03  0.12498880860E+03 0.  0.
        -13    1    3    3    0    0  0.24609845317E+03  0.26069307940E+03  0.72054139083E+01  0.35857669791E+03  0.00000000000E+00 0.  1.
         14    1    3    3    0    0  0.35062023371E+02  0.85686519635E+02 -0.28556025461E+02  0.96886385628E+02  0.00000000000E+00 0. -1.
        -13    1    4    4    0    0  0.10661194505E+01 -0.77223121864E+02  0.61580168855E+02  0.98775828811E+02  0.00000000000E+00 0.  1.
         14    1    4    4    0    0 -0.12933298040E+03 -0.21593770847E+03  0.12347167354E+03  0.28035935498E+03  0.00000000000E+00 0. -1.
          5    1    5    5  501    0 -0.84228445434E+01  0.51655883722E+02  0.12702629528E+03  0.13746652074E+03  0.47000000000E+01 0.  1.
         -5    1    5    5    0  501  0.86245351755E+00 -0.64349791382E+02  0.61005264699E+02  0.88799615978E+02  0.47000000000E+01 0.  1.
          1    1    1    2  502    0  0.12749443506E+02 -0.61049373893E+01  0.10918019481E+03  0.11009147792E+03  0.00000000000E+00 0. -1.
          1    1    1    2  503    0 -0.15808266807E+03 -0.34419923649E+02 -0.22042689465E+04  0.22101982829E+04  0.00000000000E+00 0. -1.
<mgrwt>
<rscale>  0 0.47821327E+02</rscale>
<asrwt>0</asrwt>
<pdfrwt beam="1">  1        2 0.12042634E+00 0.14135720E+02</pdfrwt>
<pdfrwt beam="2">  1        2 0.37680221E+00 0.16178019E+03</pdfrwt>
<totfact> 0.28940136E+01</totfact>
</mgrwt>
</event>
