<event>
13    1  0.1589573E-008  0.2050520E+03  0.7546771E-02  0.1256030E+00
          2   -1    0    0  502    0  0.00000000000E+00  0.00000000000E+00  0.77714816223E+03  0.77714816223E+03  0.00000000000E+00 0. -1.
          2   -1    0    0  503    0 -0.00000000000E+00 -0.00000000000E+00 -0.35499601600E+04  0.35499601600E+04  0.00000000000E+00 0. -1.
         24    2    1    2    0    0  0.26333588769E+02 -0.14440405990E+03 -0.10306595207E+04  0.10442413871E+04  0.81455733182E+02 0.  0.
         25    2    1    2    0    0 -0.16520799013E+03  0.29008681709E+03 -0.76712924793E+03  0.84590616585E+03  0.12500366771E+03 0.  0.
         24    2    1    2    0    0 -0.10347517675E+03 -0.52937071656E+02 -0.45720323642E+03  0.47825270827E+03  0.78621929618E+02 0.  0.
        -13    1    5    5    0    0 -0.25488185878E+02 -0.26488380807E+02 -0.28512344110E+03  0.28748331883E+03  0.00000000000E+00 0.  1.
         14    1    5    5    0    0 -0.77986990870E+02 -0.26448690848E+02 -0.17207979532E+03  0.19076938944E+03  0.00000000000E+00 0. -1.
        -13    1    3    3    0    0  0.55735335660E+02 -0.86915545552E+02 -0.62158821472E+03  0.63010526770E+03  0.00000000000E+00 0.  1.
         14    1    3    3    0    0 -0.29401746891E+02 -0.57488514345E+02 -0.40907130595E+03  0.41413611936E+03  0.00000000000E+00 0. -1.
          5    1    4    4  501    0 -0.62084328006E+02  0.18357241014E+03 -0.31297128519E+03  0.36813911624E+03  0.47000000000E+01 0.  1.
         -5    1    4    4    0  501 -0.10312366212E+03  0.10651440695E+03 -0.45415796274E+03  0.47776704962E+03  0.47000000000E+01 0.  1.
          1    1    1    2  502    0  0.18065468131E+03 -0.94068502831E+02  0.70525496592E+03  0.73407735564E+03  0.00000000000E+00 0. -1.
          1    1    1    2  503    0  0.61694896798E+02  0.13228172953E+01 -0.12230749587E+04  0.12246307054E+04  0.00000000000E+00 0. -1.
<mgrwt>
<rscale>  0 0.11248809E+03</rscale>
<asrwt>0</asrwt>
<pdfrwt beam="1">  1        2 0.11428649E+00 0.20505201E+03</pdfrwt>
<pdfrwt beam="2">  1        2 0.52205296E+00 0.61709077E+02</pdfrwt>
<totfact> 0.95308394E+00</totfact>
</mgrwt>
</event>
<event>
13    1  0.1589573E-008  0.8095417E+02  0.7546771E-02  0.1354216E+00
          2   -1    0    0  503    0  0.00000000000E+00  0.00000000000E+00  0.19129000868E+04  0.19129000868E+04  0.00000000000E+00 0. -1.
         -3   -1    0    0    0  501 -0.00000000000E+00 -0.00000000000E+00 -0.19958930945E+04  0.19958930945E+04  0.00000000000E+00 0.  1.
         24    2    1    2    0    0  0.10690140672E+02 -0.30820803161E+02 -0.49805645367E+03  0.50554953364E+03  0.80348608621E+02 0.  0.
         25    2    1    2    0    0 -0.13140189098E+03  0.69340145165E+02  0.11500565605E+02  0.19450300747E+03  0.12499857687E+03 0.  0.
         24    2    1    2    0    0 -0.16275150478E+02 -0.14672533717E+02 -0.67680945193E+02  0.11361805924E+03  0.88590006623E+02 0.  0.
        -13    1    3    3    0    0 -0.21310116288E+02 -0.41535378844E+02 -0.19003434158E+03  0.19568433696E+03  0.00000000000E+00 0.  1.
         14    1    3    3    0    0  0.32000256960E+02  0.10714575682E+02 -0.30802211209E+03  0.30986519668E+03  0.00000000000E+00 0. -1.
        -13    1    5    5    0    0  0.25050472286E+02  0.22085040491E+02 -0.38904497176E+02  0.51272166677E+02  0.00000000000E+00 0.  1.
         14    1    5    5    0    0 -0.41325622764E+02 -0.36757574208E+02 -0.28776448017E+02  0.62345892559E+02  0.00000000000E+00 0. -1.
          5    1    4    4  502    0 -0.10595824927E+03 -0.13921927600E+02  0.60624566598E+01  0.10714389407E+03  0.47000000000E+01 0. -1.
         -5    1    4    4    0  502 -0.25443641718E+02  0.83262072765E+02  0.54381089448E+01  0.87359113400E+02  0.47000000000E+01 0. -1.
          1    1    1    2  503    0  0.63105562082E+02  0.79604985463E+01  0.17813821401E+04  0.17825173241E+04  0.00000000000E+00 0. -1.
         -4    1    1    2    0  501  0.73881338708E+02 -0.31807306833E+02 -0.13101383146E+04  0.13126052569E+04  0.00000000000E+00 0.  1.
<mgrwt>
<rscale>  0 0.71757541E+02</rscale>
<asrwt>0</asrwt>
<pdfrwt beam="1">  1        2 0.28130884E+00 0.63605672E+02</pdfrwt>
<pdfrwt beam="2">  1       -3 0.29351369E+00 0.80954174E+02</pdfrwt>
<totfact> 0.33807192E-01</totfact>
</mgrwt>
</event>
<event>
13    1  0.1589573E-008  0.1512537E+03  0.7546771E-02  0.1212878E+00
          2   -1    0    0  503    0  0.00000000000E+00  0.00000000000E+00  0.90860565158E+03  0.90860565158E+03  0.00000000000E+00 0. -1.
         -1   -1    0    0    0  501 -0.00000000000E+00 -0.00000000000E+00 -0.54144957935E+03  0.54144957935E+03  0.00000000000E+00 0.  1.
         24    2    1    2    0    0  0.70736374851E+02 -0.26855934404E+02  0.36855980012E+02  0.11346153243E+03  0.76093890288E+02 0.  0.
         25    2    1    2    0    0  0.17003444866E+03  0.19080619395E+03 -0.21091445771E+03  0.35415260060E+03  0.12498175330E+03 0.  0.
         24    2    1    2    0    0 -0.12435569162E+03 -0.19786981468E+02  0.17265899860E+03  0.22809328507E+03  0.79746813264E+02 0.  0.
        -11    1    3    3    0    0 -0.15751283243E+02  0.22808464245E+01  0.35209904214E+01  0.16300385203E+02  0.00000000000E+00 0.  1.
         12    1    3    3    0    0  0.86487658094E+02 -0.29136780829E+02  0.33334989590E+02  0.97161147228E+02  0.00000000000E+00 0. -1.
        -13    1    5    5    0    0 -0.21738333434E+01  0.19720864826E+02  0.31853609361E+02  0.37527196674E+02  0.00000000000E+00 0.  1.
         14    1    5    5    0    0 -0.12218185827E+03 -0.39507846293E+02  0.14080538924E+03  0.19056608840E+03  0.00000000000E+00 0. -1.
          5    1    4    4  502    0  0.11236130987E+03  0.44394379937E+02 -0.12856100473E+03  0.17648214319E+03  0.47000000000E+01 0.  1.
         -5    1    4    4    0  502  0.57673138795E+02  0.14641181401E+03 -0.82353452982E+02  0.17767045742E+03  0.47000000000E+01 0.  1.
          1    1    1    2  503    0 -0.23705805493E+03 -0.65159040611E+02  0.50130237185E+03  0.55834244868E+03  0.00000000000E+00 0. -1.
         -2    1    1    2    0  501  0.12064292302E+03 -0.79004237466E+02 -0.13274682052E+03  0.19600536414E+03  0.00000000000E+00 0.  1.
<mgrwt>
<rscale>  0 0.14033572E+03</rscale>
<asrwt>0</asrwt>
<pdfrwt beam="1">  1        2 0.13361848E+00 0.15125370E+03</pdfrwt>
<pdfrwt beam="2">  1       -1 0.79624938E-01 0.13020583E+03</pdfrwt>
<totfact> 0.63506803E+01</totfact>
</mgrwt>
</event>
<event>
13    1  0.1589573E-008  0.1077935E+03  0.7546771E-02  0.1268998E+00
          2   -1    0    0  502    0  0.00000000000E+00  0.00000000000E+00  0.12702072943E+04  0.12702072943E+04  0.00000000000E+00 0. -1.
          4   -1    0    0  503    0 -0.00000000000E+00 -0.00000000000E+00 -0.24239057064E+04  0.24239057064E+04  0.00000000000E+00 0. -1.
         24    2    1    2    0    0  0.38891148516E+02  0.30532479227E+03 -0.59422038827E+03  0.67405801417E+03  0.80750148109E+02 0.  0.
         25    2    1    2    0    0 -0.44306892452E+02 -0.28047535001E+03  0.13608894539E+03  0.33878303766E+03  0.12499689142E+03 0.  0.
         24    2    1    2    0    0  0.57856531539E+02 -0.30404323802E+01  0.21358528661E+03  0.23578345467E+03  0.81354412126E+02 0.  0.
        -13    1    3    3    0    0  0.17984084933E+02  0.10425346129E+03 -0.29094238736E+03  0.30957985119E+03  0.00000000000E+00 0.  1.
         14    1    3    3    0    0  0.20907063583E+02  0.20107133098E+03 -0.30327800092E+03  0.36447816298E+03  0.00000000000E+00 0. -1.
        -13    1    5    5    0    0  0.51355665063E+02 -0.62476977727E+01  0.22006275922E+03  0.22606206240E+03  0.00000000000E+00 0.  1.
         14    1    5    5    0    0  0.65008664753E+01  0.32072653925E+01 -0.64774726145E+01  0.97213922717E+01  0.00000000000E+00 0. -1.
          5    1    4    4  501    0 -0.80881446737E+02 -0.14275088961E+03  0.47291133806E+02  0.17081617677E+03  0.47000000000E+01 0. -1.
         -5    1    4    4    0  501  0.36574554285E+02 -0.13772446041E+03  0.88797811582E+02  0.16796686089E+03  0.47000000000E+01 0. -1.
          1    1    1    2  502    0 -0.14823345482E+03  0.27427952649E+02  0.75901867202E+03  0.77384416660E+03  0.00000000000E+00 0. -1.
          3    1    1    2  503    0  0.95792667218E+02 -0.49236962525E+02 -0.16681709278E+04  0.16716443276E+04  0.00000000000E+00 0. -1.
<mgrwt>
<rscale>  0 0.10557154E+03</rscale>
<asrwt>0</asrwt>
<pdfrwt beam="1">  1        2 0.18679519E+00 0.10339541E+03</pdfrwt>
<pdfrwt beam="2">  1        4 0.35645671E+00 0.10779347E+03</pdfrwt>
<totfact> 0.19795862E-01</totfact>
</mgrwt>
</event>
<event>
13    1  0.1589573E-008  0.7958424E+02  0.7546771E-02  0.1427329E+00
          2   -1    0    0  502    0  0.00000000000E+00  0.00000000000E+00  0.16708826867E+04  0.16708826867E+04  0.00000000000E+00 0. -1.
          2   -1    0    0  503    0 -0.00000000000E+00 -0.00000000000E+00 -0.36029933487E+03  0.36029933487E+03  0.00000000000E+00 0. -1.
         24    2    1    2    0    0  0.38745156947E+00 -0.42469147682E+02 -0.20369137566E+03  0.22302099877E+03  0.80277087333E+02 0.  0.
         25    2    1    2    0    0 -0.48070531377E+02 -0.88876618850E+02  0.14695690034E+03  0.21778329408E+03  0.12499361287E+03 0.  0.
         24    2    1    2    0    0 -0.90996677826E+01  0.14112355835E+03 -0.12154020274E+02  0.16380323819E+03  0.81762570633E+02 0.  0.
        -11    1    3    3    0    0 -0.22189451554E+01  0.23764814183E+02 -0.66548209633E+02  0.70699040418E+02  0.00000000000E+00 0.  1.
         12    1    3    3    0    0  0.26063967248E+01 -0.66233961865E+02 -0.13714316603E+03  0.15232195835E+03  0.00000000000E+00 0. -1.
        -13    1    5    5    0    0  0.26939398942E+02  0.13669675113E+02  0.35813552858E+01  0.30420672884E+02  0.00000000000E+00 0.  1.
         14    1    5    5    0    0 -0.36039066725E+02  0.12745388324E+03 -0.15735375559E+02  0.13338256530E+03  0.00000000000E+00 0. -1.
          5    1    4    4  501    0 -0.21021592215E+02 -0.96897429503E+02  0.39917434379E+02  0.10698836736E+03  0.47000000000E+01 0.  1.
         -5    1    4    4    0  501 -0.27048939161E+02  0.80208106532E+01  0.10703946596E+03  0.11079492672E+03  0.47000000000E+01 0.  1.
          1    1    1    2  502    0  0.77162208735E+02  0.19855708569E+02  0.13874496321E+04  0.13897354918E+04  0.00000000000E+00 0. -1.
          1    1    1    2  503    0 -0.20379461145E+02 -0.29633500386E+02 -0.79777846307E+01  0.36838998756E+02  0.00000000000E+00 0. -1.
<mgrwt>
<rscale>  0 0.53499825E+02</rscale>
<asrwt>0</asrwt>
<pdfrwt beam="1">  1        2 0.24571804E+00 0.79584242E+02</pdfrwt>
<pdfrwt beam="2">  1        2 0.52985197E-01 0.35964799E+02</pdfrwt>
<totfact> 0.19579690E+02</totfact>
</mgrwt>
</event>
<event>
13    1  0.1589573E-008  0.1155979E+03  0.7546771E-02  0.1412358E+00
          2   -1    0    0  503    0  0.00000000000E+00  0.00000000000E+00  0.32889309570E+03  0.32889309570E+03  0.00000000000E+00 0. -1.
          2   -1    0    0  502    0 -0.00000000000E+00 -0.00000000000E+00 -0.20585843320E+04  0.20585843320E+04  0.00000000000E+00 0. -1.
         24    2    1    2    0    0  0.79353963161E+02  0.87062534526E+02 -0.46853226836E+03  0.48967892145E+03  0.79912597415E+02 0.  0.
         25    2    1    2    0    0  0.97210149687E+02 -0.16941253225E+03  0.18917460834E+03  0.29926447274E+03  0.12498709100E+03 0.  0.
         24    2    1    2    0    0 -0.56576532088E+02  0.89236861748E+02 -0.49185153625E+03  0.50965326878E+03  0.81635771495E+02 0.  0.
        -11    1    3    3    0    0  0.87484922884E+02  0.91456707533E+02 -0.37690868072E+03  0.39759036041E+03  0.00000000000E+00 0.  1.
         12    1    3    3    0    0 -0.81309597234E+01 -0.43941730070E+01 -0.91623587639E+02  0.92088561040E+02  0.00000000000E+00 0. -1.
        -13    1    5    5    0    0 -0.43415318385E+02  0.22024800131E+02 -0.33475685748E+03  0.33827819220E+03  0.00000000000E+00 0.  1.
         14    1    5    5    0    0 -0.13161213704E+02  0.67212061617E+02 -0.15709467877E+03  0.17137507658E+03  0.00000000000E+00 0. -1.
          5    1    4    4  501    0  0.77361273114E+02 -0.14221394383E+03  0.20541633098E+03  0.26158656585E+03  0.47000000000E+01 0.  1.
         -5    1    4    4    0  501  0.19848876574E+02 -0.27198588425E+02 -0.16241722641E+02  0.37677906894E+02  0.47000000000E+01 0.  1.
          1    1    1    2  502    0 -0.11380224414E+03  0.20198306046E+02 -0.10172929400E+04  0.10238378036E+04  0.00000000000E+00 0. -1.
          1    1    1    2  503    0 -0.61853366224E+01 -0.27085170069E+02  0.58810900007E+02  0.65042961082E+02  0.00000000000E+00 0. -1.
<mgrwt>
<rscale>  0 0.56670932E+02</rscale>
<asrwt>0</asrwt>
<pdfrwt beam="1">  1        2 0.48366630E-01 0.27782455E+02</pdfrwt>
<pdfrwt beam="2">  1        2 0.30273300E+00 0.11559794E+03</pdfrwt>
<totfact> 0.13418818E+02</totfact>
</mgrwt>
</event>
<event>
13    1  0.1589573E-008  0.5008065E+02  0.7546771E-02  0.1451567E+00
          2   -1    0    0  503    0  0.00000000000E+00  0.00000000000E+00  0.12335512195E+04  0.12335512195E+04  0.00000000000E+00 0. -1.
          2   -1    0    0  502    0 -0.00000000000E+00 -0.00000000000E+00 -0.41473912303E+03  0.41473912303E+03  0.00000000000E+00 0. -1.
         24    2    1    2    0    0 -0.67017838614E+02  0.18097082988E+03 -0.27628819035E+03  0.34624044575E+03  0.79406864834E+02 0.  0.
         25    2    1    2    0    0 -0.14648323941E+02 -0.20552779290E+03  0.39717332307E+03  0.46457436171E+03  0.12500576767E+03 0.  0.
         24    2    1    2    0    0  0.76879388282E+02 -0.88320739750E+01  0.95408861807E+02  0.14618564482E+03  0.79239800389E+02 0.  0.
        -11    1    3    3    0    0 -0.36852198164E+02  0.13573980952E+03 -0.24761677990E+03  0.28477614030E+03  0.00000000000E+00 0.  1.
         12    1    3    3    0    0 -0.30165640450E+02  0.45231020358E+02 -0.28671410456E+02  0.61464305446E+02  0.00000000000E+00 0. -1.
        -13    1    5    5    0    0  0.88874828185E+02 -0.17960161603E+02  0.62901522946E+02  0.11035354131E+03  0.00000000000E+00 0.  1.
         14    1    5    5    0    0 -0.11995439903E+02  0.91280876277E+01  0.32507338860E+02  0.35832103511E+02  0.00000000000E+00 0. -1.
          5    1    4    4  501    0 -0.29064871823E+02 -0.20664307519E+03  0.39793004714E+03  0.44935124314E+03  0.47000000000E+01 0.  1.
         -5    1    4    4    0  501  0.14416547882E+02  0.11152822891E+01 -0.75672407383E+00  0.15223118562E+02  0.47000000000E+01 0.  1.
          1    1    1    2  502    0  0.48747927666E+02  0.14935988060E+02 -0.28542754642E+02  0.58430583034E+02  0.00000000000E+00 0. -1.
          1    1    1    2  503    0 -0.43961153393E+02  0.18453048934E+02  0.63106085659E+03  0.63285930723E+03  0.00000000000E+00 0. -1.
<mgrwt>
<rscale>  0 0.48864059E+02</rscale>
<asrwt>0</asrwt>
<pdfrwt beam="1">  1        2 0.18140459E+00 0.47677018E+02</pdfrwt>
<pdfrwt beam="2">  1        2 0.60991048E-01 0.50080654E+02</pdfrwt>
<totfact> 0.28925731E+02</totfact>
</mgrwt>
</event>
<event>
13    1  0.1589573E-008  0.2044543E+03  0.7546771E-02  0.1190353E+00
          2   -1    0    0  503    0  0.00000000000E+00  0.00000000000E+00  0.25172626568E+04  0.25172626568E+04  0.00000000000E+00 0. -1.
          2   -1    0    0  502    0 -0.00000000000E+00 -0.00000000000E+00 -0.54530489498E+03  0.54530489498E+03  0.00000000000E+00 0. -1.
         24    2    1    2    0    0 -0.41551842693E+02  0.12844323710E+03  0.87149241806E+03  0.88583000204E+03  0.83495730347E+02 0.  0.
         25    2    1    2    0    0 -0.21410862604E+03  0.23861178748E+03  0.50755045794E+03  0.61319490465E+03  0.12498973907E+03 0.  0.
         24    2    1    2    0    0 -0.66539276956E+02 -0.11888794557E+03  0.28255613758E+03  0.32343078102E+03  0.78788833241E+02 0.  0.
        -11    1    3    3    0    0  0.22723271855E+02  0.51994075131E+02  0.24963096053E+03  0.25599872536E+03  0.00000000000E+00 0.  1.
         12    1    3    3    0    0 -0.64275114548E+02  0.76449161970E+02  0.62186145754E+03  0.62983127668E+03  0.00000000000E+00 0. -1.
        -13    1    5    5    0    0 -0.26882380869E+02 -0.10338462010E+03  0.14960665681E+03  0.18382925185E+03  0.00000000000E+00 0.  1.
         14    1    5    5    0    0 -0.39656896087E+02 -0.15503325476E+02  0.13294948077E+03  0.13960152917E+03  0.00000000000E+00 0. -1.
          5    1    4    4  501    0 -0.90063049892E+02  0.10189380802E+03  0.33028881555E+03  0.35722050998E+03  0.47000000000E+01 0.  1.
         -5    1    4    4    0  501 -0.12404557615E+03  0.13671797946E+03  0.17726164238E+03  0.25597439468E+03  0.47000000000E+01 0.  1.
          1    1    1    2  502    0  0.16911784662E+03 -0.80672927143E+02 -0.42824281077E+03  0.46744076865E+03  0.00000000000E+00 0. -1.
          1    1    1    2  503    0  0.15308189907E+03 -0.16749415186E+03  0.73860155900E+03  0.77267109541E+03  0.00000000000E+00 0. -1.
<mgrwt>
<rscale>  0 0.15854167E+03</rscale>
<asrwt>0</asrwt>
<pdfrwt beam="1">  1        2 0.37018568E+00 0.20445433E+03</pdfrwt>
<pdfrwt beam="2">  1        2 0.80191897E-01 0.12293926E+03</pdfrwt>
<totfact> 0.43859255E+01</totfact>
</mgrwt>
</event>
<event>
13    1  0.1589573E-008  0.7725490E+02  0.7546771E-02  0.1508120E+00
         -1   -1    0    0    0  501  0.00000000000E+00  0.00000000000E+00  0.11021173607E+04  0.11021173607E+04  0.00000000000E+00 0.  1.
         -3   -1    0    0    0  502 -0.00000000000E+00 -0.00000000000E+00 -0.69193555911E+03  0.69193555911E+03  0.00000000000E+00 0.  1.
         24    2    1    2    0    0 -0.90642205687E+02 -0.19692253502E+02 -0.27779429584E+03  0.30176150030E+03  0.72708582433E+02 0.  0.
         25    2    1    2    0    0  0.37796403129E+02  0.28440841795E+02  0.36982563493E+03  0.39323957834E+03  0.12501566361E+03 0.  0.
         24    2    1    2    0    0  0.96358043517E+02 -0.46964335610E+02 -0.33803212157E+03  0.36393121223E+03  0.81790529114E+02 0.  0.
        -11    1    3    3    0    0 -0.92575196111E+02 -0.35635550765E+02 -0.25705440100E+03  0.27553044204E+03  0.00000000000E+00 0.  1.
         12    1    3    3    0    0  0.19329904241E+01  0.15943297263E+02 -0.20739894840E+02  0.26231058262E+02  0.00000000000E+00 0. -1.
        -13    1    5    5    0    0  0.75022741134E+02  0.83774761164E+01 -0.19328598009E+03  0.20750437078E+03  0.00000000000E+00 0.  1.
         14    1    5    5    0    0  0.21335302384E+02 -0.55341811727E+02 -0.14474614148E+03  0.15642684145E+03  0.00000000000E+00 0. -1.
          5    1    4    4  503    0 -0.27835241917E+02 -0.31250034699E+02  0.84658701086E+02  0.94554487100E+02  0.47000000000E+01 0. -1.
         -5    1    4    4    0  503  0.65631645046E+02  0.59690876494E+02  0.28516693384E+03  0.29868509124E+03  0.47000000000E+01 0. -1.
         -2    1    1    2    0  501 -0.63283823602E+02  0.44424525410E+02  0.69061664844E+03  0.69493146129E+03  0.00000000000E+00 0.  1.
         -4    1    1    2    0  502  0.19771582643E+02 -0.62087780929E+01 -0.34434064382E+02  0.40189167639E+02  0.00000000000E+00 0.  1.
<mgrwt>
<rscale>  0 0.40012420E+02</rscale>
<asrwt>0</asrwt>
<pdfrwt beam="1">  1       -1 0.16207608E+00 0.77254905E+02</pdfrwt>
<pdfrwt beam="2">  1       -3 0.10175523E+00 0.20723523E+02</pdfrwt>
<totfact> 0.12494087E+00</totfact>
</mgrwt>
</event>
<event>
13    1  0.1589573E-008  0.1034562E+03  0.7546771E-02  0.1346112E+00
          2   -1    0    0  503    0  0.00000000000E+00  0.00000000000E+00  0.18625635955E+04  0.18625635955E+04  0.00000000000E+00 0. -1.
          2   -1    0    0  502    0 -0.00000000000E+00 -0.00000000000E+00 -0.38253332876E+03  0.38253332876E+03  0.00000000000E+00 0. -1.
         24    2    1    2    0    0 -0.85897861914E+02 -0.14320571896E+03 -0.13009626825E+02  0.18575935846E+03  0.80317919815E+02 0.  0.
         25    2    1    2    0    0 -0.58338582258E+01  0.13677754200E+03  0.53151728709E+01  0.18545698936E+03  0.12499565570E+03 0.  0.
         24    2    1    2    0    0 -0.14474075261E+02  0.28356359407E+02  0.10200924218E+04  0.10234787923E+04  0.76855106132E+02 0.  0.
        -11    1    3    3    0    0 -0.94292235850E+02 -0.10751065418E+03 -0.28735710292E+02  0.14586057572E+03  0.00000000000E+00 0.  1.
         12    1    3    3    0    0  0.83943739362E+01 -0.35695064771E+02  0.15726083466E+02  0.39898782738E+02  0.00000000000E+00 0. -1.
        -13    1    5    5    0    0 -0.11956463398E+02 -0.24940647043E+02  0.24607713578E+03  0.24762663355E+03  0.00000000000E+00 0.  1.
         14    1    5    5    0    0 -0.25176118625E+01  0.53297006450E+02  0.77401528604E+03  0.77585215878E+03  0.00000000000E+00 0. -1.
          5    1    4    4  501    0 -0.11089770152E+02  0.31807277057E+02 -0.54643706469E+02  0.64363891527E+02  0.47000000000E+01 0. -1.
         -5    1    4    4    0  501  0.52559119263E+01  0.10497026494E+03  0.59958879340E+02  0.12109309784E+03  0.47000000000E+01 0. -1.
          1    1    1    2  502    0 -0.27144137761E+02 -0.45908908335E+02 -0.18052310604E+03  0.18823661677E+03  0.00000000000E+00 0. -1.
          1    1    1    2  503    0  0.13334993316E+03  0.23980725884E+02  0.64815540496E+03  0.66216516736E+03  0.00000000000E+00 0. -1.
<mgrwt>
<rscale>  0 0.74280907E+02</rscale>
<asrwt>0</asrwt>
<pdfrwt beam="1">  1        2 0.27390641E+00 0.10345622E+03</pdfrwt>
<pdfrwt beam="2">  1        2 0.56254902E-01 0.53333217E+02</pdfrwt>
<totfact> 0.14572694E+02</totfact>
</mgrwt>
</event>
<event>
13    1  0.1589573E-008  0.6714785E+02  0.7546771E-02  0.1379664E+00
          2   -1    0    0  503    0  0.00000000000E+00  0.00000000000E+00  0.40024454299E+04  0.40024454299E+04  0.00000000000E+00 0. -1.
          2   -1    0    0  502    0 -0.00000000000E+00 -0.00000000000E+00 -0.88859170175E+03  0.88859170175E+03  0.00000000000E+00 0. -1.
         24    2    1    2    0    0  0.49535093081E+02 -0.59806906362E+02  0.29662559465E+03  0.31676027650E+03  0.79496779004E+02 0.  0.
         25    2    1    2    0    0  0.25537242187E+02  0.48475455277E+02  0.24792483765E+04  0.24830028390E+04  0.12501426176E+03 0.  0.
         24    2    1    2    0    0  0.40978275336E+02 -0.22250044974E+02  0.27349700387E+02  0.94471083697E+02  0.77475776813E+02 0.  0.
        -11    1    3    3    0    0  0.61741280368E+02 -0.60114413578E+02  0.18072196380E+03  0.20021527569E+03  0.00000000000E+00 0.  1.
         12    1    3    3    0    0 -0.12206187287E+02  0.30750721653E+00  0.11590363085E+03  0.11654500081E+03  0.00000000000E+00 0. -1.
        -13    1    5    5    0    0  0.13949347123E+02  0.25446185026E+02 -0.69021142936E+01  0.29828372387E+02  0.00000000000E+00 0.  1.
         14    1    5    5    0    0  0.27028928213E+02 -0.47696230000E+02  0.34251814680E+02  0.64642711310E+02  0.00000000000E+00 0. -1.
          5    1    4    4  501    0  0.90587866231E+01 -0.36424487821E+02  0.13121264659E+04  0.13126716107E+04  0.47000000000E+01 0. -1.
         -5    1    4    4    0  501  0.16478455564E+02  0.84899943098E+02  0.11671219106E+04  0.11703312283E+04  0.47000000000E+01 0. -1.
          1    1    1    2  502    0 -0.63408496565E+02  0.66442452722E+02 -0.83974635815E+03  0.84475391860E+03  0.00000000000E+00 0. -1.
          1    1    1    2  503    0 -0.52642114040E+02 -0.32860956663E+02  0.11503764148E+04  0.11520490139E+04  0.00000000000E+00 0. -1.
<mgrwt>
<rscale>  0 0.64552106E+02</rscale>
<asrwt>0</asrwt>
<pdfrwt beam="1">  1        2 0.58859491E+00 0.62056705E+02</pdfrwt>
<pdfrwt beam="2">  1        2 0.13067525E+00 0.67147850E+02</pdfrwt>
<totfact> 0.44103455E+00</totfact>
</mgrwt>
</event>
<event>
13    1  0.1589573E-008  0.8775186E+02  0.7546771E-02  0.1361954E+00
         -1   -1    0    0    0  501 -0.00000000000E+00  0.00000000000E+00  0.13191323173E+04  0.13191323173E+04  0.00000000000E+00 0.  1.
          2   -1    0    0  503    0  0.00000000000E+00 -0.00000000000E+00 -0.55601698596E+03  0.55601698596E+03  0.00000000000E+00 0. -1.
         24    2    1    2    0    0 -0.38401197663E+02 -0.14256067557E+03  0.74304573781E+02  0.18449344100E+03  0.81966224073E+02 0.  0.
         25    2    1    2    0    0 -0.73325298532E+02  0.10316119251E+03  0.89634932073E+02  0.19919605947E+03  0.12500327203E+03 0.  0.
         24    2    1    2    0    0  0.59810450650E+02 -0.23619940365E+02 -0.29952893793E+03  0.31690020913E+03  0.81073832422E+02 0.  0.
        -11    1    5    5    0    0 -0.90012961377E+01 -0.25353317009E+02 -0.38641093521E+02  0.47084478589E+02  0.00000000000E+00 0.  1.
         12    1    5    5    0    0  0.68811746787E+02  0.17333766441E+01 -0.26088784441E+03  0.26981573054E+03  0.00000000000E+00 0. -1.
        -11    1    3    3    0    0 -0.57867648232E+02 -0.77837995768E+02  0.63802677650E+02  0.11609565010E+03  0.00000000000E+00 0.  1.
         12    1    3    3    0    0  0.19466450569E+02 -0.64722679798E+02  0.10501896131E+02  0.68397790903E+02  0.00000000000E+00 0. -1.
          5    1    4    4  502    0 -0.76458537199E+02  0.31947943204E+01  0.49877354442E+02  0.91465595212E+02  0.47000000000E+01 0.  1.
         -5    1    4    4    0  502  0.31332386664E+01  0.99966398187E+02  0.39757577631E+02  0.10773046426E+03  0.47000000000E+01 0.  1.
          1    1    1    2  503    0  0.49067634422E+02 -0.24789289766E+02 -0.13050283479E+03  0.14160907995E+03  0.00000000000E+00 0. -1.
         -2    1    1    2    0  501  0.28484111234E+01  0.87808713190E+02  0.10292075982E+04  0.10329505137E+04  0.00000000000E+00 0.  1.
<mgrwt>
<rscale>  0 0.69455537E+02</rscale>
<asrwt>0</asrwt>
<pdfrwt beam="2">  1        2 0.81767204E-01 0.54974009E+02</pdfrwt>
<pdfrwt beam="1">  1       -1 0.19399005E+00 0.87751861E+02</pdfrwt>
<totfact> 0.13849220E+01</totfact>
</mgrwt>
</event>
<event>
13    1  0.1589573E-008  0.6023656E+02  0.7546771E-02  0.1403010E+00
          2   -1    0    0  503    0  0.00000000000E+00  0.00000000000E+00  0.27355770440E+03  0.27355770440E+03  0.00000000000E+00 0. -1.
          2   -1    0    0  502    0 -0.00000000000E+00 -0.00000000000E+00 -0.20715591250E+04  0.20715591250E+04  0.00000000000E+00 0. -1.
         24    2    1    2    0    0 -0.50117475442E+01  0.12837909667E+03 -0.33769222935E+03  0.37088748838E+03  0.83756654643E+02 0.  0.
         25    2    1    2    0    0 -0.15282059391E+02 -0.10253618405E+03  0.80123553615E+02  0.18109708712E+03  0.12501664186E+03 0.  0.
         24    2    1    2    0    0 -0.22934874927E+02 -0.96829633114E+00 -0.50712326523E+02  0.97900343500E+02  0.80534409480E+02 0.  0.
        -13    1    5    5    0    0 -0.17368176023E+01 -0.34180380810E+02 -0.69926915616E+00  0.34231622004E+02  0.00000000000E+00 0.  1.
         14    1    5    5    0    0 -0.21198057325E+02  0.33212084478E+02 -0.50013057367E+02  0.63668721496E+02  0.00000000000E+00 0. -1.
        -13    1    3    3    0    0  0.22544071022E+02  0.49662862847E+00 -0.49608557468E+02  0.54493033980E+02  0.00000000000E+00 0.  1.
         14    1    3    3    0    0 -0.27555818566E+02  0.12788246804E+03 -0.28808367188E+03  0.31639445440E+03  0.00000000000E+00 0. -1.
          5    1    4    4  501    0  0.30182398650E+02 -0.33151341873E+02  0.86733030065E+02  0.97748131238E+02  0.47000000000E+01 0. -1.
         -5    1    4    4    0  501 -0.45464458041E+02 -0.69384842172E+02 -0.66094764502E+01  0.83348955885E+02  0.47000000000E+01 0. -1.
          1    1    1    2  502    0  0.51222487461E+02  0.31930849865E+02 -0.15838499841E+04  0.15849997143E+04  0.00000000000E+00 0. -1.
          1    1    1    2  503    0 -0.79938055992E+01 -0.56805466160E+02  0.94129565708E+02  0.11023219609E+03  0.00000000000E+00 0. -1.
<mgrwt>
<rscale>  0 0.58783334E+02</rscale>
<asrwt>0</asrwt>
<pdfrwt beam="1">  1        2 0.40229073E-01 0.57365163E+02</pdfrwt>
<pdfrwt beam="2">  1        2 0.30464106E+00 0.60236565E+02</pdfrwt>
<totfact> 0.17314597E+02</totfact>
</mgrwt>
</event>
<event>
13    1  0.1589573E-008  0.8598180E+02  0.7546771E-02  0.1329008E+00
          2   -1    0    0  503    0  0.00000000000E+00  0.00000000000E+00  0.24560191444E+04  0.24560191444E+04  0.00000000000E+00 0. -1.
         -1   -1    0    0    0  501 -0.00000000000E+00 -0.00000000000E+00 -0.63993206399E+03  0.63993206399E+03  0.00000000000E+00 0.  1.
         24    2    1    2    0    0 -0.45628015803E+01 -0.19922695592E+02 -0.12481351707E+03  0.14953590652E+03  0.79779949458E+02 0.  0.
         25    2    1    2    0    0  0.60826768460E+02  0.59925981800E+02  0.10166242499E+04  0.10278267697E+04  0.12494792517E+03 0.  0.
         24    2    1    2    0    0 -0.62454295610E+02 -0.23171787257E+02 -0.80223192432E+02  0.13202808341E+03  0.80982611960E+02 0.  0.
        -11    1    5    5    0    0 -0.30978797959E+02 -0.48186653382E+02 -0.70172075533E+02  0.90585648266E+02  0.00000000000E+00 0.  1.
         12    1    5    5    0    0 -0.31475497651E+02  0.25014866125E+02 -0.10051116899E+02  0.41442435143E+02  0.00000000000E+00 0. -1.
        -13    1    3    3    0    0 -0.17102287328E+02  0.19415355755E+02 -0.10373708310E+02  0.27875761784E+02  0.00000000000E+00 0.  1.
         14    1    3    3    0    0  0.12539485748E+02 -0.39338051347E+02 -0.11443980876E+03  0.12166014473E+03  0.00000000000E+00 0. -1.
          5    1    4    4  502    0  0.80657510109E+02  0.62161405888E+01  0.37604205817E+03  0.38467387987E+03  0.47000000000E+01 0.  1.
         -5    1    4    4    0  502 -0.19830741649E+02  0.53709841211E+02  0.64058219171E+03  0.64315288982E+03  0.47000000000E+01 0.  1.
          1    1    1    2  503    0 -0.71855006458E+02  0.19533797729E+02  0.13897814641E+04  0.13917748486E+04  0.00000000000E+00 0. -1.
         -2    1    1    2    0  501  0.78045335188E+02 -0.36365296679E+02 -0.38528192403E+03  0.39478560021E+03  0.00000000000E+00 0.  1.
<mgrwt>
<rscale>  0 0.80015294E+02</rscale>
<asrwt>0</asrwt>
<pdfrwt beam="1">  1        2 0.36117928E+00 0.74462818E+02</pdfrwt>
<pdfrwt beam="2">  1       -1 0.94107658E-01 0.85981802E+02</pdfrwt>
<totfact> 0.79439486E+00</totfact>
</mgrwt>
</event>
<event>
13    1  0.1589573E-008  0.1888466E+03  0.7546771E-02  0.1325095E+00
          2   -1    0    0  502    0  0.00000000000E+00  0.00000000000E+00  0.23123442998E+04  0.23123442998E+04  0.00000000000E+00 0. -1.
          2   -1    0    0  503    0 -0.00000000000E+00 -0.00000000000E+00 -0.18068630731E+04  0.18068630731E+04  0.00000000000E+00 0. -1.
         24    2    1    2    0    0 -0.67235966496E+02  0.14254874238E+03 -0.49846018741E+03  0.52884366822E+03  0.79826360609E+02 0.  0.
         25    2    1    2    0    0 -0.14317205769E+03 -0.31041564873E+03 -0.29529299725E+03  0.46869785370E+03  0.12499444292E+03 0.  0.
         24    2    1    2    0    0  0.11509085162E+03  0.16024413999E+01 -0.31269188997E+03  0.34304667307E+03  0.81586334052E+02 0.  0.
        -11    1    5    5    0    0  0.11721295505E+03  0.11735863333E+02 -0.31099213675E+03  0.33255483224E+03  0.00000000000E+00 0.  1.
         12    1    5    5    0    0 -0.21221034367E+01 -0.10133421933E+02 -0.16997532203E+01  0.10491840834E+02  0.00000000000E+00 0. -1.
        -11    1    3    3    0    0  0.14574856207E+02  0.36631376926E+01 -0.32928104946E+02  0.36195374104E+02  0.00000000000E+00 0.  1.
         12    1    3    3    0    0 -0.81810822702E+02  0.13888560469E+03 -0.46553208246E+03  0.49264829412E+03  0.00000000000E+00 0. -1.
          5    1    4    4  501    0 -0.93851641496E+02 -0.20446730558E+03 -0.26544061224E+03  0.34798824447E+03  0.47000000000E+01 0. -1.
         -5    1    4    4    0  501 -0.49320416198E+02 -0.10594834315E+03 -0.29852385008E+02  0.12070960923E+03  0.47000000000E+01 0. -1.
          1    1    1    2  502    0  0.12137205292E+03  0.14275159560E+03  0.21907419905E+04  0.21987404718E+04  0.00000000000E+00 0. -1.
          1    1    1    2  503    0 -0.26054880343E+02  0.23512869356E+02 -0.57881568914E+03  0.57987870612E+03  0.00000000000E+00 0. -1.
<mgrwt>
<rscale>  0 0.81410777E+02</rscale>
<asrwt>0</asrwt>
<pdfrwt beam="1">  1        2 0.34005063E+00 0.18884663E+03</pdfrwt>
<pdfrwt beam="2">  1        2 0.26571516E+00 0.35095752E+02</pdfrwt>
<totfact> 0.11789606E+01</totfact>
</mgrwt>
</event>
<event>
13    1  0.1589573E-008  0.1008552E+03  0.7546771E-02  0.1280981E+00
          2   -1    0    0  503    0  0.00000000000E+00  0.00000000000E+00  0.45626942853E+04  0.45626942853E+04  0.00000000000E+00 0. -1.
          2   -1    0    0  502    0 -0.00000000000E+00 -0.00000000000E+00 -0.22384121775E+04  0.22384121775E+04  0.00000000000E+00 0. -1.
         24    2    1    2    0    0  0.57262672767E+03 -0.31213989464E+03 -0.55913977003E+03  0.86565622655E+03  0.10672739605E+03 0.  0.
         25    2    1    2    0    0 -0.71090182053E+02  0.62566089930E+02  0.60973457959E+02  0.16825927440E+03  0.12500036500E+03 0.  0.
         24    2    1    2    0    0 -0.62001080180E+03  0.40432172449E+03  0.40613197114E+03  0.84810867454E+03  0.80347337233E+02 0.  0.
        -11    1    5    5    0    0 -0.52894050082E+03  0.36907140977E+03  0.37256314095E+03  0.74484565711E+03  0.00000000000E+00 0.  1.
         12    1    5    5    0    0 -0.91070300984E+02  0.35250314719E+02  0.33568830195E+02  0.10326301743E+03  0.00000000000E+00 0. -1.
        -11    1    3    3    0    0  0.30102766528E+03 -0.19730327528E+03 -0.36496815489E+03  0.51258949636E+03  0.00000000000E+00 0.  1.
         12    1    3    3    0    0  0.27159906239E+03 -0.11483661937E+03 -0.19417161514E+03  0.35306673018E+03  0.00000000000E+00 0. -1.
          5    1    4    4  501    0 -0.73075931259E+02 -0.33224075440E+00  0.73688684509E+02  0.10388606421E+03  0.47000000000E+01 0. -1.
         -5    1    4    4    0  501  0.19857492061E+01  0.62898330684E+02 -0.12715226550E+02  0.64373210181E+02  0.47000000000E+01 0. -1.
          1    1    1    2  502    0  0.75075013365E+02 -0.63777840487E+02 -0.12487503822E+04  0.12526297887E+04  0.00000000000E+00 0. -1.
          1    1    1    2  503    0  0.43399242820E+02 -0.90970079288E+02  0.36650668309E+04  0.36664524986E+04  0.00000000000E+00 0. -1.
<mgrwt>
<rscale>  0 0.99674789E+02</rscale>
<asrwt>0</asrwt>
<pdfrwt beam="1">  1        2 0.67098446E+00 0.10085517E+03</pdfrwt>
<pdfrwt beam="2">  1        2 0.32917826E+00 0.98508226E+02</pdfrwt>
<totfact> 0.31177416E-01</totfact>
</mgrwt>
</event>
<event>
13    1  0.1589573E-008  0.1401150E+03  0.7546771E-02  0.1291879E+00
          2   -1    0    0  502    0  0.00000000000E+00  0.00000000000E+00  0.15627743407E+04  0.15627743407E+04  0.00000000000E+00 0. -1.
          2   -1    0    0  503    0 -0.00000000000E+00 -0.00000000000E+00 -0.14286344612E+04  0.14286344612E+04  0.00000000000E+00 0. -1.
         24    2    1    2    0    0  0.14572227366E+03  0.11143395428E+03 -0.41875667091E+03  0.46414193032E+03  0.80112888114E+02 0.  0.
         25    2    1    2    0    0 -0.17106848492E+03  0.10071996352E+03  0.31336321750E+03  0.39144709504E+03  0.12500153822E+03 0.  0.
         24    2    1    2    0    0  0.63142881923E+00 -0.79218847543E+02 -0.31254411063E+01  0.11319566686E+03  0.80792735473E+02 0.  0.
        -11    1    3    3    0    0  0.13997545556E+02  0.28723491788E+02 -0.24348667546E+02  0.40172476564E+02  0.00000000000E+00 0.  1.
         12    1    3    3    0    0  0.13172472810E+03  0.82710462493E+02 -0.39440800336E+03  0.42396945375E+03  0.00000000000E+00 0. -1.
        -13    1    5    5    0    0 -0.16598063319E+02 -0.65524461771E+02  0.29573019931E+02  0.73780175550E+02  0.00000000000E+00 0.  1.
         14    1    5    5    0    0  0.17229492138E+02 -0.13694385772E+02 -0.32698461037E+02  0.39415491310E+02  0.00000000000E+00 0. -1.
          5    1    4    4  501    0 -0.19030620576E+03  0.86253141857E+02  0.26775245216E+03  0.33966089276E+03  0.47000000000E+01 0. -1.
         -5    1    4    4    0  501  0.19237720849E+02  0.14466821663E+02  0.45610765337E+02  0.51786202285E+02  0.47000000000E+01 0. -1.
          1    1    1    2  502    0 -0.60028166067E+02 -0.22165606426E+02  0.11262637434E+04  0.11280801011E+04  0.00000000000E+00 0. -1.
          1    1    1    2  503    0  0.84742948503E+02 -0.11076946383E+03 -0.88360496936E+03  0.89454400859E+03  0.00000000000E+00 0. -1.
<mgrwt>
<rscale>  0 0.94688604E+02</rscale>
<asrwt>0</asrwt>
<pdfrwt beam="1">  1        2 0.22981976E+00 0.63989803E+02</pdfrwt>
<pdfrwt beam="2">  1        2 0.21009330E+00 0.14011501E+03</pdfrwt>
<totfact> 0.40880552E+01</totfact>
</mgrwt>
</event>
<event>
13    1  0.1589573E-008  0.1393671E+03  0.7546771E-02  0.1304183E+00
          2   -1    0    0  503    0  0.00000000000E+00  0.00000000000E+00  0.35181882768E+04  0.35181882768E+04  0.00000000000E+00 0. -1.
         -1   -1    0    0    0  501 -0.00000000000E+00 -0.00000000000E+00 -0.11816662195E+03  0.11816662195E+03  0.00000000000E+00 0.  1.
         24    2    1    2    0    0  0.10162291683E+03 -0.22677747488E+02  0.69703752446E+01  0.13092423027E+03  0.79063711563E+02 0.  0.
         25    2    1    2    0    0 -0.14490319667E+02 -0.17363445144E+02  0.14017560040E+04  0.14074998383E+04  0.12499776552E+03 0.  0.
         24    2    1    2    0    0  0.21131739142E+02  0.99360728531E+01  0.16245172614E+03  0.18123533043E+03  0.76879163161E+02 0.  0.
        -11    1    5    5    0    0 -0.27365551228E+02  0.12836664187E+02  0.80193763127E+02  0.85701184274E+02  0.00000000000E+00 0.  1.
         12    1    5    5    0    0  0.48497290370E+02 -0.29005913340E+01  0.82257963015E+02  0.95534146161E+02  0.00000000000E+00 0. -1.
        -13    1    3    3    0    0  0.13848583474E+02  0.11384890077E+02  0.29125396296E+02  0.34200697298E+02  0.00000000000E+00 0.  1.
         14    1    3    3    0    0  0.87774333352E+02 -0.34062637565E+02 -0.22155021051E+02  0.96723532975E+02  0.00000000000E+00 0. -1.
          5    1    4    4  502    0  0.43651920016E+02 -0.42046806178E+02  0.53772496006E+03  0.54115029955E+03  0.47000000000E+01 0. -1.
         -5    1    4    4    0  502 -0.58142239682E+02  0.24683361034E+02  0.86403104399E+03  0.86634953876E+03  0.47000000000E+01 0. -1.
          1    1    1    2  503    0 -0.14003845689E+03 -0.17716362412E+02  0.18500962777E+04  0.18554732214E+04  0.00000000000E+00 0. -1.
         -2    1    1    2    0  501  0.31774120588E+02  0.47821482191E+02 -0.21252728249E+02  0.61222278266E+02  0.00000000000E+00 0.  1.
<mgrwt>
<rscale>  0 0.89452610E+02</rscale>
<asrwt>0</asrwt>
<pdfrwt beam="1">  1        2 0.51738056E+00 0.13936709E+03</pdfrwt>
<pdfrwt beam="2">  1       -1 0.17377447E-01 0.57415058E+02</pdfrwt>
<totfact> 0.38030295E+01</totfact>
</mgrwt>
</event>
<event>
13    1  0.1589573E-008  0.4813948E+02  0.7546771E-02  0.1469315E+00
          2   -1    0    0  502    0  0.00000000000E+00  0.00000000000E+00  0.11799027917E+04  0.11799027917E+04  0.00000000000E+00 0. -1.
          2   -1    0    0  503    0 -0.00000000000E+00 -0.00000000000E+00 -0.21018689610E+04  0.21018689610E+04  0.00000000000E+00 0. -1.
         24    2    1    2    0    0 -0.22689781159E+03 -0.51254303587E+02 -0.46047707420E+03  0.52222804068E+03  0.81076322528E+02 0.  0.
         25    2    1    2    0    0  0.52062646739E+02 -0.90409542551E+02  0.25483807969E+03  0.30241141795E+03  0.12500325706E+03 0.  0.
         24    2    1    2    0    0  0.17297976489E+03  0.14957936376E+03 -0.12910570402E+04  0.13136183684E+04  0.80429792650E+02 0.  0.
        -11    1    3    3    0    0 -0.17616207976E+02 -0.60252117256E+01 -0.10968678210E+03  0.11125567009E+03  0.00000000000E+00 0.  1.
         12    1    3    3    0    0 -0.20928160361E+03 -0.45229091862E+02 -0.35079029210E+03  0.41097237060E+03  0.00000000000E+00 0. -1.
        -13    1    5    5    0    0  0.92592689085E+02  0.12939167582E+03 -0.88496454733E+03  0.89915397006E+03  0.00000000000E+00 0.  1.
         14    1    5    5    0    0  0.80387075808E+02  0.20187687933E+02 -0.40609249287E+03  0.41446439831E+03  0.00000000000E+00 0. -1.
          5    1    4    4  501    0 -0.59652347057E+01 -0.77490267311E+02  0.21994277525E+03  0.23331789459E+03  0.47000000000E+01 0. -1.
         -5    1    4    4    0  501  0.58027881445E+02 -0.12919275240E+02  0.34895304438E+02  0.69093523354E+02  0.47000000000E+01 0. -1.
          1    1    1    2  502    0 -0.30074883884E+02 -0.37609244423E+02  0.85677045292E+03  0.85812269688E+03  0.00000000000E+00 0. -1.
          1    1    1    2  503    0  0.31930283841E+02  0.29693726805E+02 -0.28204058759E+03  0.28539122882E+03  0.00000000000E+00 0. -1.
<mgrwt>
<rscale>  0 0.45815359E+02</rscale>
<asrwt>0</asrwt>
<pdfrwt beam="1">  1        2 0.17351512E+00 0.48139478E+02</pdfrwt>
<pdfrwt beam="2">  1        2 0.30909837E+00 0.43603445E+02</pdfrwt>
<totfact> 0.34215960E+01</totfact>
</mgrwt>
</event>
<event>
13    1  0.1589573E-008  0.1375553E+03  0.7546771E-02  0.1258836E+00
          2   -1    0    0  502    0  0.00000000000E+00  0.00000000000E+00  0.12500896806E+04  0.12500896806E+04  0.00000000000E+00 0. -1.
          2   -1    0    0  503    0 -0.00000000000E+00 -0.00000000000E+00 -0.48475734246E+03  0.48475734246E+03  0.00000000000E+00 0. -1.
         24    2    1    2    0    0  0.10723027847E+03  0.22384708708E+02 -0.45036882284E+02  0.14217020131E+03  0.78642466701E+02 0.  0.
         25    2    1    2    0    0 -0.20177045585E+03 -0.21439439044E+02  0.91971464065E+02  0.25544992454E+03  0.12499978936E+03 0.  0.
         24    2    1    2    0    0  0.12520992373E+01 -0.88005329514E+02  0.27693163002E+03  0.29993441775E+03  0.74317033517E+02 0.  0.
        -11    1    5    5    0    0 -0.14394023695E+02 -0.90860948771E+02  0.26356665025E+03  0.27915995246E+03  0.00000000000E+00 0.  1.
         12    1    5    5    0    0  0.15646122932E+02  0.28556192570E+01  0.13364979769E+02  0.20774465297E+02  0.00000000000E+00 0. -1.
        -13    1    3    3    0    0  0.91316302799E+02  0.49007097822E+02 -0.37858175110E+02  0.11033405737E+03  0.00000000000E+00 0.  1.
         14    1    3    3    0    0  0.15913975670E+02 -0.26622389114E+02 -0.71787071745E+01  0.31836143932E+02  0.00000000000E+00 0. -1.
          5    1    4    4  501    0 -0.17340809919E+03  0.27101234976E+02  0.43049020700E+02  0.18077653051E+03  0.47000000000E+01 0. -1.
         -5    1    4    4    0  501 -0.28362356665E+02 -0.48540674021E+02  0.48922443365E+02  0.74673394022E+02  0.47000000000E+01 0. -1.
          1    1    1    2  502    0  0.15680415062E+03  0.24038055847E+02  0.72387207787E+03  0.74105071008E+03  0.00000000000E+00 0. -1.
          1    1    1    2  503    0 -0.63516072469E+02  0.63022004004E+02 -0.28240595155E+03  0.29624176938E+03  0.00000000000E+00 0. -1.
<mgrwt>
<rscale>  0 0.11094136E+03</rscale>
<asrwt>0</asrwt>
<pdfrwt beam="1">  1        2 0.18383672E+00 0.13755534E+03</pdfrwt>
<pdfrwt beam="2">  1        2 0.71287845E-01 0.89476614E+02</pdfrwt>
<totfact> 0.22443822E+02</totfact>
</mgrwt>
</event>
<event>
13    1  0.1589573E-008  0.1240337E+03  0.7546771E-02  0.1419960E+00
          2   -1    0    0  502    0  0.00000000000E+00  0.00000000000E+00  0.40372334683E+04  0.40372334683E+04  0.00000000000E+00 0. -1.
          2   -1    0    0  503    0 -0.00000000000E+00 -0.00000000000E+00 -0.12642832915E+04  0.12642832915E+04  0.00000000000E+00 0. -1.
         24    2    1    2    0    0 -0.29263914588E+02 -0.25320530841E+02 -0.34471115271E+03  0.35630854859E+03  0.81440143736E+02 0.  0.
         25    2    1    2    0    0 -0.43881643472E+02  0.47043673036E+02  0.26296227658E+03  0.29818445784E+03  0.12500442465E+03 0.  0.
         24    2    1    2    0    0 -0.27463955658E+02  0.56812384966E+01  0.64192366897E+02  0.10578846561E+03  0.79271647880E+02 0.  0.
        -13    1    3    3    0    0  0.82101824694E+01  0.25470979628E+02 -0.90114747763E+02  0.94004498104E+02  0.00000000000E+00 0.  1.
         14    1    3    3    0    0 -0.37474097057E+02 -0.50791510469E+02 -0.25459640495E+03  0.26230405048E+03  0.00000000000E+00 0. -1.
        -13    1    5    5    0    0  0.12952072027E+02 -0.31396044367E+01  0.63010185908E+02  0.64404167675E+02  0.00000000000E+00 0.  1.
         14    1    5    5    0    0 -0.40416027685E+02  0.88208429333E+01  0.11821809893E+01  0.41384297938E+02  0.00000000000E+00 0. -1.
          5    1    4    4  501    0 -0.38306638892E+02  0.65753619115E+02  0.67911921267E+02  0.10210316381E+03  0.47000000000E+01 0. -1.
         -5    1    4    4    0  501 -0.55750045804E+01 -0.18709946079E+02  0.19505035531E+03  0.19608129403E+03  0.47000000000E+01 0. -1.
          1    1    1    2  502    0  0.12482012441E+03 -0.30553937678E+02  0.36645743073E+04  0.36668267562E+04  0.00000000000E+00 0. -1.
          1    1    1    2  503    0 -0.24210610690E+02  0.31495569866E+01 -0.87406762132E+03  0.87440853154E+03  0.00000000000E+00 0. -1.
<mgrwt>
<rscale>  0 0.55029393E+02</rscale>
<asrwt>0</asrwt>
<pdfrwt beam="1">  1        2 0.59371080E+00 0.12403367E+03</pdfrwt>
<pdfrwt beam="2">  1        2 0.18592401E+00 0.24414614E+02</pdfrwt>
<totfact> 0.24096437E+00</totfact>
</mgrwt>
</event>
<event>
13    1  0.1589573E-008  0.2908912E+02  0.7546771E-02  0.1649828E+00
          2   -1    0    0  503    0  0.00000000000E+00  0.00000000000E+00  0.13249719623E+04  0.13249719623E+04  0.00000000000E+00 0. -1.
          2   -1    0    0  502    0 -0.00000000000E+00 -0.00000000000E+00 -0.33332519815E+03  0.33332519815E+03  0.00000000000E+00 0. -1.
         24    2    1    2    0    0 -0.77311180868E+02 -0.52276265399E+02 -0.40326010554E+02  0.13029648392E+03  0.81493312506E+02 0.  0.
         25    2    1    2    0    0  0.84617860748E+02  0.46356620955E+02  0.67981455999E+03  0.69791338137E+03  0.12500453295E+03 0.  0.
         24    2    1    2    0    0 -0.18714570841E+01 -0.13165507852E+02  0.19296249698E+03  0.20960284053E+03  0.80758854446E+02 0.  0.
        -11    1    5    5    0    0  0.27927992479E+01 -0.47071408603E+02  0.10059656846E+03  0.11109989569E+03  0.00000000000E+00 0.  1.
         12    1    5    5    0    0 -0.46642563320E+01  0.33905900750E+02  0.92365928514E+02  0.98502944844E+02  0.00000000000E+00 0. -1.
        -13    1    3    3    0    0 -0.37834483048E+02 -0.49162624075E+02  0.13486014700E+02  0.63484520208E+02  0.00000000000E+00 0.  1.
         14    1    3    3    0    0 -0.39476697819E+02 -0.31136413240E+01 -0.53812025254E+02  0.66811963711E+02  0.00000000000E+00 0. -1.
          5    1    4    4  501    0 -0.16835503925E+02  0.43185679195E+02  0.11583013873E+03  0.12484850067E+03  0.47000000000E+01 0. -1.
         -5    1    4    4    0  501  0.10145336467E+03  0.31709417602E+01  0.56398442125E+03  0.57306488070E+03  0.47000000000E+01 0. -1.
          1    1    1    2  502    0 -0.26887833482E+02  0.11143627333E+02 -0.22938843143E+03  0.23122756862E+03  0.00000000000E+00 0. -1.
          1    1    1    2  503    0  0.21452610686E+02  0.79415249635E+01  0.38858414920E+03  0.38925688605E+03  0.00000000000E+00 0. -1.
<mgrwt>
<rscale>  0 0.25795820E+02</rscale>
<asrwt>0</asrwt>
<pdfrwt beam="1">  1        2 0.19484882E+00 0.22875365E+02</pdfrwt>
<pdfrwt beam="2">  1        2 0.49018412E-01 0.29089123E+02</pdfrwt>
<totfact> 0.34188713E+02</totfact>
</mgrwt>
</event>
<event>
13    1  0.1377239E-007  0.7414711E+03  0.7546771E-02  0.1186986E+00
          2   -1    0    0  503    0  0.00000000000E+00  0.00000000000E+00  0.19171058019E+04  0.19171058019E+04  0.00000000000E+00 0. -1.
          2   -1    0    0  502    0 -0.00000000000E+00 -0.00000000000E+00 -0.20671635720E+04  0.20671635720E+04  0.00000000000E+00 0. -1.
         24    2    1    2    0    0  0.72118091783E+03 -0.22582522063E+02 -0.60452008494E+03  0.94473326002E+03  0.80402194908E+02 0.  0.
         25    2    1    2    0    0  0.13247182840E+03 -0.52005814679E+02  0.13019339148E+04  0.13156407835E+04  0.12500145115E+03 0.  0.
         24    2    1    2    0    0 -0.75379152200E+02 -0.43098199195E+02  0.49115995058E+02  0.12819215200E+03  0.80506990399E+02 0.  0.
        -11    1    5    5    0    0 -0.85945163382E+02 -0.14609175130E+02  0.42965234686E+02  0.97190588527E+02  0.00000000000E+00 0.  1.
         12    1    5    5    0    0  0.10566011182E+02 -0.28489024065E+02  0.61507603721E+01  0.31001563471E+02  0.00000000000E+00 0. -1.
        -13    1    3    3    0    0  0.44375171414E+03  0.20501411983E+02 -0.39461750752E+03  0.59418757050E+03  0.00000000000E+00 0.  1.
         14    1    3    3    0    0  0.27742920369E+03 -0.43083934046E+02 -0.20990257742E+03  0.35054568952E+03  0.00000000000E+00 0. -1.
          5    1    4    4  501    0  0.28253848058E+02  0.25199474340E+02  0.63806696087E+03  0.63920640641E+03  0.47000000000E+01 0.  1.
         -5    1    4    4    0  501  0.10421798034E+03 -0.77205289019E+02  0.66386695391E+03  0.67643437714E+03  0.47000000000E+01 0.  1.
          1    1    1    2  502    0 -0.74641400089E+03  0.13262354994E+03 -0.11294007670E+04  0.13602459187E+04  0.00000000000E+00 0. -1.
          1    1    1    2  503    0 -0.31859593142E+02 -0.14937014004E+02  0.23281317199E+03  0.23545725964E+03  0.00000000000E+00 0. -1.
<mgrwt>
<rscale>  0 0.16152519E+03</rscale>
<asrwt>0</asrwt>
<pdfrwt beam="1">  1        2 0.28192732E+00 0.35187328E+02</pdfrwt>
<pdfrwt beam="2">  1        2 0.30399464E+00 0.74147113E+03</pdfrwt>
<totfact> 0.12231698E+01</totfact>
</mgrwt>
</event>
<event>
13    1  0.1589573E-008  0.1262548E+03  0.7546771E-02  0.1298886E+00
          2   -1    0    0  503    0  0.00000000000E+00  0.00000000000E+00  0.19832419219E+04  0.19832419219E+04  0.00000000000E+00 0. -1.
          2   -1    0    0  502    0 -0.00000000000E+00 -0.00000000000E+00 -0.17340572521E+04  0.17340572521E+04  0.00000000000E+00 0. -1.
         24    2    1    2    0    0 -0.32103867619E+03  0.19790557396E+03 -0.16128322343E+03  0.41789438253E+03  0.79943661267E+02 0.  0.
         25    2    1    2    0    0  0.19748556790E+03 -0.21072743310E+03  0.88613879057E+02  0.32693171224E+03  0.12500129726E+03 0.  0.
         24    2    1    2    0    0 -0.51793587059E+02  0.18618094067E+02  0.23803924805E+03  0.25722572725E+03  0.80456087779E+02 0.  0.
        -11    1    3    3    0    0 -0.22887720725E+03  0.14242856290E+03 -0.74495566248E+02  0.27967885318E+03  0.00000000000E+00 0.  1.
         12    1    3    3    0    0 -0.92161468940E+02  0.55477011064E+02 -0.86787657182E+02  0.13821552935E+03  0.00000000000E+00 0. -1.
        -13    1    5    5    0    0  0.17441079807E+02  0.10325783508E+02  0.10584645900E+03  0.10776959661E+03  0.00000000000E+00 0.  1.
         14    1    5    5    0    0 -0.69234666865E+02  0.82923105585E+01  0.13219278904E+03  0.14945613064E+03  0.00000000000E+00 0. -1.
          5    1    4    4  501    0  0.14692652331E+03 -0.14719744301E+03  0.11952997542E+03  0.23992497891E+03  0.47000000000E+01 0.  1.
         -5    1    4    4    0  501  0.50559044589E+02 -0.63529990090E+02 -0.30916096361E+02  0.87006733330E+02  0.47000000000E+01 0.  1.
          1    1    1    2  502    0  0.12173238246E+03  0.33615503473E+02 -0.13118913731E+04  0.13179558983E+04  0.00000000000E+00 0. -1.
          1    1    1    2  503    0  0.53614312891E+02 -0.39411738402E+02  0.13957061392E+04  0.13972914537E+04  0.00000000000E+00 0. -1.
<mgrwt>
<rscale>  0 0.91658013E+02</rscale>
<asrwt>0</asrwt>
<pdfrwt beam="1">  1        2 0.29165322E+00 0.66541563E+02</pdfrwt>
<pdfrwt beam="2">  1        2 0.25500842E+00 0.12625479E+03</pdfrwt>
<totfact> 0.18294768E+01</totfact>
</mgrwt>
</event>
<event>
13    1  0.1589573E-008  0.5397881E+02  0.7546771E-02  0.1559469E+00
         -1   -1    0    0    0  501 -0.00000000000E+00  0.00000000000E+00  0.24884801800E+03  0.24884801800E+03  0.00000000000E+00 0.  1.
          2   -1    0    0  503    0  0.00000000000E+00 -0.00000000000E+00 -0.18511344254E+04  0.18511344254E+04  0.00000000000E+00 0. -1.
         24    2    1    2    0    0 -0.25834110159E+02 -0.10811093437E+03 -0.16663849177E+02  0.13727711905E+03  0.78815913163E+02 0.  0.
         25    2    1    2    0    0 -0.18713169780E+02 -0.32393790179E+02 -0.10967353055E+04  0.11044715548E+04  0.12501817668E+03 0.  0.
         24    2    1    2    0    0  0.18269100032E+02  0.10154007085E+03 -0.35161621588E+03  0.37531603405E+03  0.81141950542E+02 0.  0.
        -11    1    3    3    0    0  0.10232245612E+02 -0.96295350042E+02 -0.20967474318E+02  0.99081422423E+02  0.00000000000E+00 0.  1.
         12    1    3    3    0    0 -0.36066355771E+02 -0.11815584327E+02  0.43036251412E+01  0.38195696629E+02  0.00000000000E+00 0. -1.
        -13    1    5    5    0    0  0.42557347680E+02  0.29828424093E+02 -0.10210068077E+03  0.11456618934E+03  0.00000000000E+00 0.  1.
         14    1    5    5    0    0 -0.24288247648E+02  0.71711646761E+02 -0.24951553511E+03  0.26074984471E+03  0.00000000000E+00 0. -1.
          5    1    4    4  502    0  0.49918791957E+02 -0.29611767010E+02 -0.63002325176E+03  0.63270856663E+03  0.47000000000E+01 0.  1.
         -5    1    4    4    0  502 -0.68631961737E+02 -0.27820231687E+01 -0.46671205378E+03  0.47176298813E+03  0.47000000000E+01 0.  1.
          1    1    1    2  503    0 -0.18948436706E+02  0.94447344232E+01 -0.30549960531E+03  0.30623235477E+03  0.00000000000E+00 0. -1.
         -2    1    1    2    0  501  0.45226616612E+02  0.29519919271E+02  0.16822856856E+03  0.17668538073E+03  0.00000000000E+00 0.  1.
<mgrwt>
<rscale>  0 0.33805769E+02</rscale>
<asrwt>0</asrwt>
<pdfrwt beam="2">  1        2 0.27222565E+00 0.21171827E+02</pdfrwt>
<pdfrwt beam="1">  1       -1 0.36595296E-01 0.53978808E+02</pdfrwt>
<totfact> 0.10431576E+02</totfact>
</mgrwt>
</event>
<event>
13    1  0.1599580E-008  0.2082317E+03  0.7546771E-02  0.1238341E+00
          2   -1    0    0  502    0  0.00000000000E+00  0.00000000000E+00  0.15497148086E+04  0.15497148086E+04  0.00000000000E+00 0. -1.
          2   -1    0    0  503    0 -0.00000000000E+00 -0.00000000000E+00 -0.36475973951E+04  0.36475973951E+04  0.00000000000E+00 0. -1.
         24    2    1    2    0    0 -0.73979143778E+02 -0.82168656671E+02 -0.29599890045E+04  0.29633250210E+04  0.86808244886E+02 0.  0.
         25    2    1    2    0    0  0.33997242058E+03 -0.77758957243E+02  0.95355877797E+01  0.37060000851E+03  0.12500294672E+03 0.  0.
         24    2    1    2    0    0 -0.59101576216E+02  0.30301915791E+01  0.94393707928E+02  0.13788219566E+03  0.81235148859E+02 0.  0.
        -11    1    5    5    0    0  0.19371395908E+02 -0.85044554678E+01  0.18449533415E+02  0.28070661293E+02  0.00000000000E+00 0.  1.
         12    1    5    5    0    0 -0.78472972124E+02  0.11534647047E+02  0.75944174514E+02  0.10981153436E+03  0.00000000000E+00 0. -1.
        -13    1    3    3    0    0 -0.11213419005E+02 -0.57063091800E+02 -0.73041143707E+03  0.73272287026E+03  0.00000000000E+00 0.  1.
         14    1    3    3    0    0 -0.62765724774E+02 -0.25105564872E+02 -0.22295775675E+04  0.22306021507E+04  0.00000000000E+00 0. -1.
          5    1    4    4  501    0  0.25099979494E+03 -0.29731498837E+01 -0.15768802276E+02  0.25155612059E+03  0.47000000000E+01 0.  1.
         -5    1    4    4    0  501  0.88972625639E+02 -0.74785807359E+02  0.25304390056E+02  0.11904388792E+03  0.47000000000E+01 0.  1.
          1    1    1    2  502    0  0.40778363840E+02  0.60031346300E+02  0.12041096966E+04  0.12062946567E+04  0.00000000000E+00 0. -1.
          1    1    1    2  503    0 -0.24767006443E+03  0.96866076035E+02 -0.44593257423E+03  0.51921032180E+03  0.00000000000E+00 0. -1.
<mgrwt>
<rscale>  0 0.12292969E+03</rscale>
<asrwt>0</asrwt>
<pdfrwt beam="1">  1        2 0.22789924E+00 0.72571603E+02</pdfrwt>
<pdfrwt beam="2">  1        2 0.53641137E+00 0.20823172E+03</pdfrwt>
<totfact> 0.26319050E+00</totfact>
</mgrwt>
</event>
<event>
13    1  0.1589573E-008  0.4840397E+02  0.7546771E-02  0.1526483E+00
          2   -1    0    0  502    0  0.00000000000E+00  0.00000000000E+00  0.25487367650E+03  0.25487367650E+03  0.00000000000E+00 0. -1.
          2   -1    0    0  503    0 -0.00000000000E+00 -0.00000000000E+00 -0.20083060274E+04  0.20083060274E+04  0.00000000000E+00 0. -1.
         24    2    1    2    0    0 -0.10783385892E+02 -0.70675536274E+01 -0.20327176082E+03  0.21872750049E+03  0.79725021158E+02 0.  0.
         25    2    1    2    0    0  0.41865119585E+02 -0.24693939595E+02  0.10351276235E+03  0.16942011117E+03  0.12500321280E+03 0.  0.
         24    2    1    2    0    0  0.92467566358E+01 -0.33184458230E+02 -0.13951557326E+03  0.16556676720E+03  0.82225594818E+02 0.  0.
        -11    1    5    5    0    0 -0.31048458985E+02 -0.35926803644E+02 -0.89151167602E+02  0.10100828040E+03  0.00000000000E+00 0.  1.
         12    1    5    5    0    0  0.40295215620E+02  0.27423454137E+01 -0.50364405657E+02  0.64558486796E+02  0.00000000000E+00 0. -1.
        -13    1    3    3    0    0 -0.50207699582E+01  0.35518590157E+02 -0.11649142044E+03  0.12188941469E+03  0.00000000000E+00 0.  1.
         14    1    3    3    0    0 -0.57626159342E+01 -0.42586143784E+02 -0.86780340381E+02  0.96838085800E+02  0.00000000000E+00 0. -1.
          5    1    4    4  501    0  0.82347233584E+02 -0.37972469292E+02  0.63679513547E+02  0.11090602215E+03  0.47000000000E+01 0.  1.
         -5    1    4    4    0  501 -0.40482113999E+02  0.13278529697E+02  0.39833248798E+02  0.58514089026E+02  0.47000000000E+01 0.  1.
          1    1    1    2  502    0 -0.20485249186E+02  0.20865615146E+02  0.95093753350E+02  0.99487895021E+02  0.00000000000E+00 0. -1.
          1    1    1    2  503    0 -0.19843241142E+02  0.44080336307E+02 -0.16092515325E+04  0.16099774300E+04  0.00000000000E+00 0. -1.
<mgrwt>
<rscale>  0 0.37621358E+02</rscale>
<asrwt>0</asrwt>
<pdfrwt beam="1">  1        2 0.37481424E-01 0.29240714E+02</pdfrwt>
<pdfrwt beam="2">  1        2 0.29533911E+00 0.48403968E+02</pdfrwt>
<totfact> 0.20134487E+02</totfact>
</mgrwt>
</event>
<event>
13    1  0.1589573E-008  0.2104354E+03  0.7546771E-02  0.1329080E+00
          2   -1    0    0  502    0  0.00000000000E+00  0.00000000000E+00  0.22073307857E+04  0.22073307857E+04  0.00000000000E+00 0. -1.
          2   -1    0    0  503    0 -0.00000000000E+00 -0.00000000000E+00 -0.28641472711E+04  0.28641472711E+04  0.00000000000E+00 0. -1.
         24    2    1    2    0    0 -0.48956467649E+03  0.13046716377E+04  0.30946292936E+03  0.14305416626E+04  0.94023876393E+02 0.  0.
         25    2    1    2    0    0 -0.29989718593E+02 -0.70331290631E+03 -0.21098616873E+03  0.74544568380E+03  0.12500270675E+03 0.  0.
         24    2    1    2    0    0  0.72021311969E+03 -0.53664776660E+03 -0.30557622655E+03  0.95215368212E+03  0.80759154129E+02 0.  0.
        -11    1    5    5    0    0  0.66742158350E+03 -0.48120549739E+03 -0.29847178122E+03  0.87526893297E+03  0.00000000000E+00 0.  1.
         12    1    5    5    0    0  0.52791536191E+02 -0.55442269214E+02 -0.71044453300E+01  0.76884749154E+02  0.00000000000E+00 0. -1.
        -13    1    3    3    0    0 -0.12290488182E+03  0.32487371615E+03  0.35807962628E+02  0.34918584108E+03  0.00000000000E+00 0.  1.
         14    1    3    3    0    0 -0.36665979467E+03  0.97979792150E+03  0.27365496673E+03  0.10813558216E+04  0.00000000000E+00 0. -1.
          5    1    4    4  501    0  0.27598909469E+02 -0.63416412110E+02 -0.42160783473E+02  0.81135459522E+02  0.47000000000E+01 0.  1.
         -5    1    4    4    0  501 -0.57588628062E+02 -0.63989649420E+03 -0.16882538525E+03  0.66431022428E+03  0.47000000000E+01 0.  1.
          1    1    1    2  502    0 -0.18890837560E+03 -0.92754090178E+02  0.73178424272E+03  0.76144459648E+03  0.00000000000E+00 0. -1.
          1    1    1    2  503    0 -0.11750349012E+02  0.28043125434E+02 -0.11815012623E+04  0.11818924318E+04  0.00000000000E+00 0. -1.
<mgrwt>
<rscale>  0 0.79989805E+02</rscale>
<asrwt>0</asrwt>
<pdfrwt beam="1">  1        2 0.32460747E+00 0.21043537E+03</pdfrwt>
<pdfrwt beam="2">  1        2 0.42119813E+00 0.30405387E+02</pdfrwt>
<totfact> 0.43121318E+00</totfact>
</mgrwt>
</event>
<event>
13    1  0.1589573E-008  0.9148834E+02  0.7546771E-02  0.1317864E+00
          2   -1    0    0  502    0  0.00000000000E+00  0.00000000000E+00  0.31404425200E+04  0.31404425200E+04  0.00000000000E+00 0. -1.
          2   -1    0    0  503    0 -0.00000000000E+00 -0.00000000000E+00 -0.48903441428E+03  0.48903441428E+03  0.00000000000E+00 0. -1.
         24    2    1    2    0    0 -0.12475968487E+03 -0.23375313247E+02 -0.16321612278E+02  0.14999044449E+03  0.78226301038E+02 0.  0.
         25    2    1    2    0    0  0.14157848425E+03  0.26948832545E+03  0.49110950578E+03  0.59116997132E+03  0.12499985429E+03 0.  0.
         24    2    1    2    0    0 -0.34306678157E+01 -0.17104594134E+03  0.13543444862E+02  0.19204580230E+03  0.86195601707E+02 0.  0.
        -11    1    3    3    0    0 -0.71661714017E+02 -0.38956618523E+02 -0.38723136486E+02  0.90291199360E+02  0.00000000000E+00 0.  1.
         12    1    3    3    0    0 -0.53097970852E+02  0.15581305276E+02  0.22401524208E+02  0.59699245133E+02  0.00000000000E+00 0. -1.
        -13    1    5    5    0    0  0.20334533522E+02 -0.35565399234E+02 -0.26493492402E+02  0.48788277443E+02  0.00000000000E+00 0.  1.
         14    1    5    5    0    0 -0.23765201338E+02 -0.13548054211E+03  0.40036937264E+02  0.14325752486E+03  0.00000000000E+00 0. -1.
          5    1    4    4  501    0  0.75082170991E+02  0.32009823206E+02  0.10648924318E+03  0.13425352917E+03  0.47000000000E+01 0. -1.
         -5    1    4    4    0  501  0.66496313254E+02  0.23747850224E+03  0.38462026260E+03  0.45691644215E+03  0.47000000000E+01 0. -1.
          1    1    1    2  502    0 -0.82362623505E+02 -0.40244771524E+02  0.24231904258E+04  0.24249237273E+04  0.00000000000E+00 0. -1.
          1    1    1    2  503    0  0.68974491944E+02 -0.34822299340E+02 -0.26011365845E+03  0.27134698889E+03  0.00000000000E+00 0. -1.
<mgrwt>
<rscale>  0 0.84077110E+02</rscale>
<asrwt>0</asrwt>
<pdfrwt beam="1">  1        2 0.46182977E+00 0.91488335E+02</pdfrwt>
<pdfrwt beam="2">  1        2 0.71916827E-01 0.77266248E+02</pdfrwt>
<totfact> 0.26113761E+01</totfact>
</mgrwt>
</event>
<event>
13    1  0.1589573E-008  0.1820593E+03  0.7546771E-02  0.1371257E+00
          2   -1    0    0  502    0  0.00000000000E+00  0.00000000000E+00  0.11430062702E+04  0.11430062702E+04  0.00000000000E+00 0. -1.
          2   -1    0    0  503    0 -0.00000000000E+00 -0.00000000000E+00 -0.29986911646E+04  0.29986911646E+04  0.00000000000E+00 0. -1.
         24    2    1    2    0    0 -0.82129292676E+02  0.26628729829E+02 -0.14082643139E+03  0.18373385288E+03  0.80447094089E+02 0.  0.
         25    2    1    2    0    0  0.20203806005E+03 -0.80957461185E+02  0.33747282075E+03  0.42057939825E+03  0.12500254898E+03 0.  0.
         24    2    1    2    0    0 -0.29392449452E+02 -0.12214867815E+03  0.16756432830E+03  0.22503296804E+03  0.82327498000E+02 0.  0.
        -11    1    5    5    0    0  0.14222509731E+02 -0.86219683085E+02  0.13187017868E+03  0.15819563066E+03  0.00000000000E+00 0.  1.
         12    1    5    5    0    0 -0.43614959183E+02 -0.35928995066E+02  0.35694149619E+02  0.66837337380E+02  0.00000000000E+00 0. -1.
        -13    1    3    3    0    0 -0.72609358392E+02  0.51400308784E+02 -0.90875565103E+02  0.12717106197E+03  0.00000000000E+00 0.  1.
         14    1    3    3    0    0 -0.95199342841E+01 -0.24771578955E+02 -0.49950866285E+02  0.56562790908E+02  0.00000000000E+00 0. -1.
          5    1    4    4  501    0  0.56995621288E+02 -0.64123377945E+02  0.20923222601E+03  0.22618692015E+03  0.47000000000E+01 0.  1.
         -5    1    4    4    0  501  0.14504243876E+03 -0.16834083240E+02  0.12824059474E+03  0.19439247809E+03  0.47000000000E+01 0.  1.
          1    1    1    2  502    0  0.12749310597E+02 -0.20949231288E+02  0.54146329365E+03  0.54201837015E+03  0.00000000000E+00 0. -1.
          1    1    1    2  503    0 -0.10326562852E+03  0.19742664079E+03 -0.27613589057E+04  0.27703328454E+04  0.00000000000E+00 0. -1.
<mgrwt>
<rscale>  0 0.66819017E+02</rscale>
<asrwt>0</asrwt>
<pdfrwt beam="1">  1        2 0.16808916E+00 0.24523768E+02</pdfrwt>
<pdfrwt beam="2">  1        2 0.44098398E+00 0.18205934E+03</pdfrwt>
<totfact> 0.10978651E+01</totfact>
</mgrwt>
</event>
<event>
13    1  0.1589573E-008  0.1022433E+03  0.7546771E-02  0.1391500E+00
         -3   -1    0    0    0  501 -0.00000000000E+00  0.00000000000E+00  0.49709077066E+03  0.49709077066E+03  0.00000000000E+00 0.  1.
          2   -1    0    0  503    0  0.00000000000E+00 -0.00000000000E+00 -0.10210938276E+04  0.10210938276E+04  0.00000000000E+00 0. -1.
         24    2    1    2    0    0  0.41864193486E+02 -0.18173749444E+02  0.79426209488E+02  0.12249509379E+03  0.81324223850E+02 0.  0.
         25    2    1    2    0    0  0.40931590822E+02  0.30702646255E+01  0.22904220862E+02  0.13355302268E+03  0.12500793927E+03 0.  0.
         24    2    1    2    0    0  0.19646175641E+02 -0.14055348984E+02 -0.45385002941E+03  0.46092210242E+03  0.76719034494E+02 0.  0.
        -13    1    5    5    0    0 -0.18459921047E+02  0.13936230301E+02 -0.61017114030E+02  0.65253930185E+02  0.00000000000E+00 0.  1.
         14    1    5    5    0    0  0.38106096688E+02 -0.27991579285E+02 -0.39283291538E+03  0.39566817224E+03  0.00000000000E+00 0. -1.
        -13    1    3    3    0    0  0.28554036140E+02  0.27001575605E+02  0.13660388940E+02  0.41605580047E+02  0.00000000000E+00 0.  1.
         14    1    3    3    0    0  0.13310157347E+02 -0.45175325050E+02  0.65765820547E+02  0.80889513747E+02  0.00000000000E+00 0. -1.
          5    1    4    4  502    0  0.32505977636E+02 -0.57667590217E+02  0.27598936656E+02  0.71874758073E+02  0.47000000000E+01 0.  1.
         -5    1    4    4    0  502  0.84256131860E+01  0.60737854842E+02 -0.46947157947E+01  0.61678264606E+02  0.47000000000E+01 0.  1.
          1    1    1    2  503    0 -0.70893546592E+01 -0.36350001711E+02 -0.47546110182E+03  0.47690129054E+03  0.00000000000E+00 0. -1.
         -4    1    1    2    0  501 -0.95352605291E+02  0.65508835514E+02  0.30297764394E+03  0.32431308884E+03  0.00000000000E+00 0.  1.
<mgrwt>
<rscale>  0 0.61535082E+02</rscale>
<asrwt>0</asrwt>
<pdfrwt beam="2">  1        2 0.15016085E+00 0.37034870E+02</pdfrwt>
<pdfrwt beam="1">  1       -3 0.73101585E-01 0.10224327E+03</pdfrwt>
<totfact> 0.33038332E+01</totfact>
</mgrwt>
</event>
<event>
13    1  0.1589573E-008  0.1751040E+03  0.7546771E-02  0.1298436E+00
          2   -1    0    0  502    0  0.00000000000E+00  0.00000000000E+00  0.15400536377E+04  0.15400536377E+04  0.00000000000E+00 0. -1.
          2   -1    0    0  503    0 -0.00000000000E+00 -0.00000000000E+00 -0.59424311652E+03  0.59424311652E+03  0.00000000000E+00 0. -1.
         24    2    1    2    0    0 -0.48035487415E+02  0.23059427224E+02  0.75940128915E+02  0.12245305533E+03  0.79929358469E+02 0.  0.
         25    2    1    2    0    0 -0.57585937687E+00 -0.14161477709E+03  0.12039387799E+03  0.22399616668E+03  0.12499808049E+03 0.  0.
         24    2    1    2    0    0  0.88443227276E+02 -0.52022070470E+02  0.20559330129E+03  0.24099683317E+03  0.72679899555E+02 0.  0.
        -13    1    3    3    0    0 -0.79068841871E+01 -0.15456746465E+02  0.62996199649E+02  0.65344862071E+02  0.00000000000E+00 0.  1.
         14    1    3    3    0    0 -0.40128603228E+02  0.38516173689E+02  0.12943929266E+02  0.57108193261E+02  0.00000000000E+00 0. -1.
        -13    1    5    5    0    0  0.39001953874E+02 -0.30967336621E+02  0.16848668391E+03  0.17569260371E+03  0.00000000000E+00 0.  1.
         14    1    5    5    0    0  0.49441273402E+02 -0.21054733849E+02  0.37106617381E+02  0.65304229469E+02  0.00000000000E+00 0. -1.
          5    1    4    4  501    0  0.54994175187E+02 -0.40726926493E+02  0.20860305212E+02  0.71695775187E+02  0.47000000000E+01 0. -1.
         -5    1    4    4    0  501 -0.55570034564E+02 -0.10088785059E+03  0.99533572777E+02  0.15230039149E+03  0.47000000000E+01 0. -1.
          1    1    1    2  502    0 -0.86973863740E+02  0.16064058561E+03  0.10362017008E+04  0.10521805051E+04  0.00000000000E+00 0. -1.
          1    1    1    2  503    0  0.47141983255E+02  0.99368347221E+01 -0.49231848781E+03  0.49467019388E+03  0.00000000000E+00 0. -1.
<mgrwt>
<rscale>  0 0.91848462E+02</rscale>
<asrwt>0</asrwt>
<pdfrwt beam="1">  1        2 0.22647848E+00 0.17510404E+03</pdfrwt>
<pdfrwt beam="2">  1        2 0.87388694E-01 0.48177871E+02</pdfrwt>
<totfact> 0.12692049E+02</totfact>
</mgrwt>
</event>
<event>
13    1  0.1589573E-008  0.1684477E+03  0.7546771E-02  0.1214898E+00
          2   -1    0    0  503    0  0.00000000000E+00  0.00000000000E+00  0.18376129660E+04  0.18376129660E+04  0.00000000000E+00 0. -1.
          2   -1    0    0  502    0 -0.00000000000E+00 -0.00000000000E+00 -0.32019195998E+04  0.32019195998E+04  0.00000000000E+00 0. -1.
         24    2    1    2    0    0 -0.32676479634E+02 -0.49774473891E+02 -0.43658434600E+03  0.44764656542E+03  0.78970284223E+02 0.  0.
         25    2    1    2    0    0  0.79954502320E+02  0.42795485059E+02  0.21258665907E+03  0.26276228749E+03  0.12500702431E+03 0.  0.
         24    2    1    2    0    0  0.60161582193E+02  0.17773738519E+03 -0.24213184731E+03  0.31655351675E+03  0.79801650481E+02 0.  0.
        -11    1    5    5    0    0  0.45423177037E+02  0.10611007943E+03 -0.85338748432E+02  0.14354551875E+03  0.00000000000E+00 0.  1.
         12    1    5    5    0    0  0.14738405157E+02  0.71627305760E+02 -0.15679309888E+03  0.17300799800E+03  0.00000000000E+00 0. -1.
        -13    1    3    3    0    0 -0.13304371162E+02 -0.86206278845E+01 -0.10217817794E+02  0.18860681791E+02  0.00000000000E+00 0.  1.
         14    1    3    3    0    0 -0.19372108472E+02 -0.41153846007E+02 -0.42636652821E+03  0.42878588363E+03  0.00000000000E+00 0. -1.
          5    1    4    4  501    0  0.79435691107E+02 -0.25595047740E+02  0.13894174698E+03  0.16214818699E+03  0.47000000000E+01 0.  1.
         -5    1    4    4    0  501  0.51881121343E+00  0.68390532799E+02  0.73644912094E+02  0.10061410050E+03  0.47000000000E+01 0.  1.
          1    1    1    2  502    0  0.57256014757E+02 -0.85179311000E+02 -0.24487643628E+04  0.24509142520E+04  0.00000000000E+00 0. -1.
          1    1    1    2  503    0 -0.16469561964E+03 -0.85579085361E+02  0.15505872632E+04  0.15616559441E+04  0.00000000000E+00 0. -1.
<mgrwt>
<rscale>  0 0.13884023E+03</rscale>
<asrwt>0</asrwt>
<pdfrwt beam="1">  1        2 0.27023720E+00 0.16844767E+03</pdfrwt>
<pdfrwt beam="2">  1        2 0.47087052E+00 0.11443678E+03</pdfrwt>
<totfact> 0.35800779E+00</totfact>
</mgrwt>
</event>
<event>
13    1  0.1589573E-008  0.1305828E+03  0.7546771E-02  0.1259625E+00
          2   -1    0    0  502    0  0.00000000000E+00  0.00000000000E+00  0.75687747407E+03  0.75687747407E+03  0.00000000000E+00 0. -1.
          2   -1    0    0  503    0 -0.00000000000E+00 -0.00000000000E+00 -0.11038444037E+04  0.11038444037E+04  0.00000000000E+00 0. -1.
         24    2    1    2    0    0 -0.65285290373E+01  0.10307827489E+02 -0.29452523041E+02  0.89477993187E+02  0.83606143029E+02 0.  0.
         25    2    1    2    0    0 -0.18590236022E+03  0.62151790811E+01 -0.10038841300E+03  0.24556341624E+03  0.12500096776E+03 0.  0.
         24    2    1    2    0    0  0.16077249981E+02  0.70431684037E+02 -0.20758538811E+03  0.23775728137E+03  0.90651703812E+02 0.  0.
        -13    1    5    5    0    0 -0.34017412030E+02  0.69660775819E+01 -0.54260639126E+02  0.64419931050E+02  0.00000000000E+00 0.  1.
         14    1    5    5    0    0  0.50094662011E+02  0.63465606455E+02 -0.15332474899E+03  0.17333735032E+03  0.00000000000E+00 0. -1.
        -13    1    3    3    0    0 -0.31951955752E+02 -0.22751429828E+02 -0.27161512951E+02  0.47710615395E+02  0.00000000000E+00 0.  1.
         14    1    3    3    0    0  0.25423426715E+02  0.33059257317E+02 -0.22910100903E+01  0.41767377791E+02  0.00000000000E+00 0. -1.
          5    1    4    4  501    0 -0.28152438337E+00 -0.49843998166E+01  0.21900639640E+02  0.22948889171E+02  0.47000000000E+01 0. -1.
         -5    1    4    4    0  501 -0.18562083584E+03  0.11199578898E+02 -0.12228905264E+03  0.22261452707E+03  0.47000000000E+01 0. -1.
          1    1    1    2  502    0  0.72508307124E+02 -0.10802798806E+03  0.62815322269E+03  0.64148575353E+03  0.00000000000E+00 0. -1.
          1    1    1    2  503    0  0.10384533216E+03  0.21073297457E+02 -0.63769382819E+03  0.64643743347E+03  0.00000000000E+00 0. -1.
<mgrwt>
<rscale>  0 0.11051196E+03</rscale>
<asrwt>0</asrwt>
<pdfrwt beam="1">  1        2 0.11130551E+00 0.13058281E+03</pdfrwt>
<pdfrwt beam="2">  1        2 0.16233006E+00 0.93526052E+02</pdfrwt>
<totfact> 0.16546525E+02</totfact>
</mgrwt>
</event>
<event>
13    1  0.1589573E-008  0.3839082E+02  0.7546771E-02  0.1583489E+00
          2   -1    0    0  502    0  0.00000000000E+00  0.00000000000E+00  0.72168378101E+03  0.72168378101E+03  0.00000000000E+00 0. -1.
          2   -1    0    0  503    0 -0.00000000000E+00 -0.00000000000E+00 -0.13977498440E+04  0.13977498440E+04  0.00000000000E+00 0. -1.
         24    2    1    2    0    0 -0.78694344685E+02  0.17253574558E+03 -0.56346245811E+02  0.21333378419E+03  0.79843726573E+02 0.  0.
         25    2    1    2    0    0 -0.53793540074E+02  0.55524634438E+02  0.16782399241E+03  0.22308482444E+03  0.12500086592E+03 0.  0.
         24    2    1    2    0    0  0.13062670840E+03 -0.16816336311E+03  0.31517719603E+03  0.38887897203E+03  0.80919320009E+02 0.  0.
        -11    1    3    3    0    0 -0.68078552485E+02  0.11205359789E+03 -0.72520081838E+02  0.14983277472E+03  0.00000000000E+00 0.  1.
         12    1    3    3    0    0 -0.10615792200E+02  0.60482147687E+02  0.16173836027E+02  0.63501009478E+02  0.00000000000E+00 0. -1.
        -13    1    5    5    0    0  0.10460040980E+02  0.87366133826E+00 -0.12187834721E+01  0.10566985123E+02  0.00000000000E+00 0.  1.
         14    1    5    5    0    0  0.12016666742E+03 -0.16903702445E+03  0.31639597950E+03  0.37831198691E+03  0.00000000000E+00 0. -1.
          5    1    4    4  501    0 -0.10010828323E+02  0.80429144417E+02  0.14789278810E+03  0.16871108656E+03  0.47000000000E+01 0.  1.
         -5    1    4    4    0  501 -0.43782711751E+02 -0.24904509980E+02  0.19931204311E+02  0.54373737878E+02  0.47000000000E+01 0.  1.
          1    1    1    2  502    0  0.11696116008E+02 -0.22797005096E+02  0.93679372924E+02  0.97120170318E+02  0.00000000000E+00 0. -1.
          1    1    1    2  503    0 -0.98349396525E+01 -0.37100011809E+02 -0.11964003786E+04  0.11970158741E+04  0.00000000000E+00 0. -1.
<mgrwt>
<rscale>  0 0.31363377E+02</rscale>
<asrwt>0</asrwt>
<pdfrwt beam="1">  1        2 0.10612997E+00 0.25622306E+02</pdfrwt>
<pdfrwt beam="2">  1        2 0.20555145E+00 0.38390822E+02</pdfrwt>
<totfact> 0.13785324E+02</totfact>
</mgrwt>
</event>
<event>
13    1  0.1589573E-008  0.1478591E+03  0.7546771E-02  0.1225160E+00
          2   -1    0    0  503    0  0.00000000000E+00  0.00000000000E+00  0.94880854893E+03  0.94880854893E+03  0.00000000000E+00 0. -1.
          2   -1    0    0  502    0 -0.00000000000E+00 -0.00000000000E+00 -0.39028327174E+04  0.39028327174E+04  0.00000000000E+00 0. -1.
         24    2    1    2    0    0 -0.19856655575E+03  0.74578249086E+02 -0.17351766182E+04  0.17502217396E+04  0.86299761728E+02 0.  0.
         25    2    1    2    0    0  0.25306119300E+02  0.12977976811E+03  0.12043947006E+03  0.21820598078E+03  0.12499998486E+03 0.  0.
         24    2    1    2    0    0 -0.47786765531E+02 -0.33845342393E+02 -0.33808576175E+03  0.35258559390E+03  0.81151318933E+02 0.  0.
        -11    1    5    5    0    0 -0.52409119718E+02 -0.42925135362E+02 -0.33522689668E+03  0.34200344345E+03  0.00000000000E+00 0.  1.
         12    1    5    5    0    0  0.46223541869E+01  0.90797929692E+01 -0.28588650719E+01  0.10582150447E+02  0.00000000000E+00 0. -1.
        -13    1    3    3    0    0 -0.36756439040E+02 -0.46675115342E+01 -0.13702723068E+03  0.14194817161E+03  0.00000000000E+00 0.  1.
         14    1    3    3    0    0 -0.16181011671E+03  0.79245760620E+02 -0.15981493876E+04  0.16082735680E+04  0.00000000000E+00 0. -1.
          5    1    4    4  501    0  0.46341199376E+02  0.45340812553E+02 -0.53007182234E+01  0.65218737003E+02  0.47000000000E+01 0.  1.
         -5    1    4    4    0  501 -0.21035080076E+02  0.84438955554E+02  0.12574018828E+03  0.15298724378E+03  0.47000000000E+01 0.  1.
          1    1    1    2  502    0  0.89909708047E+02 -0.10307469998E+03 -0.17561217012E+04  0.17614402002E+04  0.00000000000E+00 0. -1.
          1    1    1    2  503    0  0.13113749393E+03 -0.67437974819E+02  0.75492044272E+03  0.76918775185E+03  0.00000000000E+00 0. -1.
<mgrwt>
<rscale>  0 0.13155915E+03</rscale>
<asrwt>0</asrwt>
<pdfrwt beam="1">  1        2 0.13953067E+00 0.14785906E+03</pdfrwt>
<pdfrwt beam="2">  1        2 0.57394600E+00 0.11705614E+03</pdfrwt>
<totfact> 0.39963196E+00</totfact>
</mgrwt>
</event>
<event>
13    1  0.1589573E-008  0.1163662E+03  0.7546771E-02  0.1426044E+00
          2   -1    0    0  503    0  0.00000000000E+00  0.00000000000E+00  0.20755623268E+04  0.20755623268E+04  0.00000000000E+00 0. -1.
          2   -1    0    0  502    0 -0.00000000000E+00 -0.00000000000E+00 -0.30592960452E+03  0.30592960452E+03  0.00000000000E+00 0. -1.
         24    2    1    2    0    0  0.51167949647E+01  0.21876126351E+02  0.77071571378E+02  0.11411186113E+03  0.81097122268E+02 0.  0.
         25    2    1    2    0    0  0.31161875374E+02 -0.12558663589E+03 -0.73671320354E+02  0.19440186170E+03  0.12498621843E+03 0.  0.
         24    2    1    2    0    0 -0.10835806262E+03  0.79311235120E+01  0.16669110084E+03  0.21554184131E+03  0.82873335892E+02 0.  0.
        -13    1    3    3    0    0  0.36921672049E+02 -0.84733765650E-01  0.12731136501E+02  0.39055075000E+02  0.00000000000E+00 0.  1.
         14    1    3    3    0    0 -0.31804877084E+02  0.21960860116E+02  0.64340434877E+02  0.75056786126E+02  0.00000000000E+00 0. -1.
        -13    1    5    5    0    0 -0.40885364446E+02  0.38396058158E+02  0.10554922052E+03  0.11952618232E+03  0.00000000000E+00 0.  1.
         14    1    5    5    0    0 -0.67472698177E+02 -0.30464934646E+02  0.61141880313E+02  0.96015658986E+02  0.00000000000E+00 0. -1.
          5    1    4    4  501    0  0.71741781335E+02 -0.11457656882E+03 -0.42280117086E+02  0.14171934100E+03  0.47000000000E+01 0.  1.
         -5    1    4    4    0  501 -0.40579905960E+02 -0.11010067064E+02 -0.31391203268E+02  0.52682520698E+02  0.47000000000E+01 0.  1.
          1    1    1    2  502    0 -0.15444316043E+02  0.19453363168E+02 -0.12578103927E+03  0.12821010130E+03  0.00000000000E+00 0. -1.
          1    1    1    2  503    0  0.87523708327E+02  0.76326022858E+02  0.17253224097E+04  0.17292262659E+04  0.00000000000E+00 0. -1.
<mgrwt>
<rscale>  0 0.53762294E+02</rscale>
<asrwt>0</asrwt>
<pdfrwt beam="1">  1        2 0.30522975E+00 0.11636624E+03</pdfrwt>
<pdfrwt beam="2">  1        2 0.44989649E-01 0.24838684E+02</pdfrwt>
<totfact> 0.14108120E+02</totfact>
</mgrwt>
</event>
<event>
13    1  0.1589573E-008  0.1704098E+03  0.7546771E-02  0.1267273E+00
          2   -1    0    0  503    0  0.00000000000E+00  0.00000000000E+00  0.21584611394E+04  0.21584611394E+04  0.00000000000E+00 0. -1.
         -3   -1    0    0    0  501 -0.00000000000E+00 -0.00000000000E+00 -0.11302658172E+04  0.11302658172E+04  0.00000000000E+00 0.  1.
         24    2    1    2    0    0 -0.20723440165E+03 -0.76852274107E+02 -0.18764969160E+03  0.30055624711E+03  0.79178795505E+02 0.  0.
         25    2    1    2    0    0 -0.41091510293E+02  0.13324977374E+03  0.69998992068E+03  0.72460051463E+03  0.12496400410E+03 0.  0.
         24    2    1    2    0    0  0.20935631260E+03  0.96353354350E+02 -0.25524450320E+03  0.35291925475E+03  0.79298231030E+02 0.  0.
        -11    1    5    5    0    0  0.20363025967E+03  0.85802521294E+02 -0.25889376267E+03  0.34037234856E+03  0.00000000000E+00 0.  1.
         12    1    5    5    0    0  0.57260529297E+01  0.10550833057E+02  0.36492594752E+01  0.12546906195E+02  0.00000000000E+00 0. -1.
        -13    1    3    3    0    0 -0.20948033778E+03 -0.71380476834E+02 -0.19218094447E+03  0.29310527086E+03  0.00000000000E+00 0.  1.
         14    1    3    3    0    0  0.22459361322E+01 -0.54717972730E+01  0.45312528688E+01  0.74509762493E+01  0.00000000000E+00 0. -1.
          5    1    4    4  502    0 -0.10076617362E+02  0.16784462466E+02  0.71886676799E+01  0.21378104236E+02  0.47000000000E+01 0. -1.
         -5    1    4    4    0  502 -0.31014892931E+02  0.11646531127E+03  0.69280125300E+03  0.70322241039E+03  0.47000000000E+01 0. -1.
          1    1    1    2  503    0 -0.25590401185E+02 -0.16872388913E+03  0.13334781103E+04  0.13443535584E+04  0.00000000000E+00 0. -1.
         -4    1    1    2    0  501  0.64560000531E+02  0.15973035150E+02 -0.56237851399E+03  0.56629738170E+03  0.00000000000E+00 0.  1.
<mgrwt>
<rscale>  0 0.10645834E+03</rscale>
<asrwt>0</asrwt>
<pdfrwt beam="1">  1        2 0.31742076E+00 0.17040977E+03</pdfrwt>
<pdfrwt beam="2">  1       -3 0.16621556E+00 0.66506628E+02</pdfrwt>
<totfact> 0.12036159E+00</totfact>
</mgrwt>
</event>
<event>
13    1  0.1589573E-008  0.1125192E+03  0.7546771E-02  0.1317066E+00
          2   -1    0    0  502    0  0.00000000000E+00  0.00000000000E+00  0.10101023676E+04  0.10101023676E+04  0.00000000000E+00 0. -1.
          2   -1    0    0  503    0 -0.00000000000E+00 -0.00000000000E+00 -0.17052471027E+04  0.17052471027E+04  0.00000000000E+00 0. -1.
         24    2    1    2    0    0  0.27364708383E+02 -0.89549918086E+02 -0.16967128600E+03  0.20981135656E+03  0.80401772096E+02 0.  0.
         25    2    1    2    0    0  0.22277412291E+03  0.98846203809E+02 -0.14478996043E+03  0.30981932902E+03  0.12500000859E+03 0.  0.
         24    2    1    2    0    0 -0.14329955084E+03  0.80489025495E+02 -0.12012147690E+04  0.12152023187E+04  0.82380273420E+02 0.  0.
        -13    1    3    3    0    0 -0.27699828626E+02 -0.43637268146E+02 -0.68482813639E+02  0.85798528198E+02  0.00000000000E+00 0.  1.
         14    1    3    3    0    0  0.55064537008E+02 -0.45912649940E+02 -0.10118847236E+03  0.12401282836E+03  0.00000000000E+00 0. -1.
        -13    1    5    5    0    0 -0.64161083563E+02  0.76528332224E+02 -0.52999461735E+03  0.53932135569E+03  0.00000000000E+00 0.  1.
         14    1    5    5    0    0 -0.79138467277E+02  0.39606932714E+01 -0.67122015169E+03  0.67588096299E+03  0.00000000000E+00 0. -1.
          5    1    4    4  501    0  0.22015718157E+03  0.11421006163E+03 -0.10989767450E+03  0.27131662617E+03  0.47000000000E+01 0.  1.
         -5    1    4    4    0  501  0.26169413341E+01 -0.15363857819E+02 -0.34892285933E+02  0.38502702849E+02  0.47000000000E+01 0.  1.
          1    1    1    2  502    0 -0.10931175129E+03 -0.26557965320E+02  0.88386223731E+03  0.89099205329E+03  0.00000000000E+00 0. -1.
          1    1    1    2  503    0  0.24724708398E+01 -0.63227345898E+02 -0.63330956891E+02  0.89524412772E+02  0.00000000000E+00 0. -1.
<mgrwt>
<rscale>  0 0.84378480E+02</rscale>
<asrwt>0</asrwt>
<pdfrwt beam="1">  1        2 0.14854447E+00 0.11251920E+03</pdfrwt>
<pdfrwt beam="2">  1        2 0.25077163E+00 0.63275670E+02</pdfrwt>
<totfact> 0.59437741E+01</totfact>
</mgrwt>
</event>
<event>
13    1  0.1589573E-008  0.5777316E+02  0.7546771E-02  0.1483614E+00
          2   -1    0    0  502    0  0.00000000000E+00  0.00000000000E+00  0.49902863757E+03  0.49902863757E+03  0.00000000000E+00 0. -1.
          4   -1    0    0  503    0 -0.00000000000E+00 -0.00000000000E+00 -0.50170707457E+03  0.50170707457E+03  0.00000000000E+00 0. -1.
         24    2    1    2    0    0 -0.45982531003E+02 -0.97306912712E+02 -0.10698977567E+03  0.17120479578E+03  0.79254284299E+02 0.  0.
         25    2    1    2    0    0 -0.14668140386E+02  0.16400796408E+03  0.14469148315E+03  0.25232941985E+03  0.12498297565E+03 0.  0.
         24    2    1    2    0    0  0.32827361968E+02 -0.40942578886E+02  0.14594655580E+03  0.17268099353E+03  0.75923632137E+02 0.  0.
        -11    1    3    3    0    0  0.10048316358E+02 -0.32442520255E+02  0.19376717037E+00  0.33963558822E+02  0.00000000000E+00 0.  1.
         12    1    3    3    0    0 -0.56030847361E+02 -0.64864392458E+02 -0.10718354284E+03  0.13724123696E+03  0.00000000000E+00 0. -1.
        -13    1    5    5    0    0  0.39967329543E+02 -0.51940851818E+02  0.14547908361E+03  0.15956003035E+03  0.00000000000E+00 0.  1.
         14    1    5    5    0    0 -0.71399675755E+01  0.10998272932E+02  0.46747219137E+00  0.13120963177E+02  0.00000000000E+00 0. -1.
          5    1    4    4  501    0  0.60255963350E+01  0.92027410571E+02  0.34721847016E+01  0.92409405226E+02  0.47000000000E+01 0. -1.
         -5    1    4    4    0  501 -0.20693736721E+02  0.71980553513E+02  0.14121929845E+03  0.15992001463E+03  0.47000000000E+01 0. -1.
          1    1    1    2  502    0  0.12806634279E+02  0.30224356205E+02  0.10369342934E+03  0.10876510873E+03  0.00000000000E+00 0. -1.
          3    1    1    2  503    0  0.15016675143E+02 -0.55982828690E+02 -0.29002012962E+03  0.29575539424E+03  0.00000000000E+00 0. -1.
<mgrwt>
<rscale>  0 0.43548133E+02</rscale>
<asrwt>0</asrwt>
<pdfrwt beam="1">  1        2 0.73386565E-01 0.32825624E+02</pdfrwt>
<pdfrwt beam="2">  1        4 0.73780452E-01 0.57773155E+02</pdfrwt>
<totfact> 0.55831396E+01</totfact>
</mgrwt>
</event>
<event>
13    1  0.1589573E-008  0.4876308E+02  0.7546771E-02  0.1498957E+00
         -1   -1    0    0    0  501 -0.00000000000E+00  0.00000000000E+00  0.16244710722E+04  0.16244710722E+04  0.00000000000E+00 0.  1.
          2   -1    0    0  503    0  0.00000000000E+00 -0.00000000000E+00 -0.32681901375E+04  0.32681901375E+04  0.00000000000E+00 0. -1.
         24    2    1    2    0    0 -0.71806436169E+03 -0.58860817322E+03  0.60755639128E+02  0.93241695940E+03  0.60283740575E+02 0.  0.
         25    2    1    2    0    0  0.41135919108E+03  0.51312925017E+03  0.13660703658E+03  0.68323115519E+03  0.12500127003E+03 0.  0.
         24    2    1    2    0    0  0.31676384556E+03  0.87976838330E+02 -0.50361292531E+03  0.60653479068E+03  0.78607988368E+02 0.  0.
        -11    1    3    3    0    0 -0.59430360548E+03 -0.50311269570E+03  0.69380293138E+02  0.78174982260E+03  0.00000000000E+00 0.  1.
         12    1    3    3    0    0 -0.12376075620E+03 -0.85495477519E+02 -0.86246540097E+01  0.15066713679E+03  0.00000000000E+00 0. -1.
        -13    1    5    5    0    0  0.21249588792E+03  0.70197581144E+02 -0.27434877336E+03  0.35404724575E+03  0.00000000000E+00 0.  1.
         14    1    5    5    0    0  0.10426795764E+03  0.17779257185E+02 -0.22926415195E+03  0.25248754493E+03  0.00000000000E+00 0. -1.
          5    1    4    4  502    0  0.35410852176E+03  0.35959537527E+03  0.88611614545E+02  0.51242149382E+03  0.47000000000E+01 0.  1.
         -5    1    4    4    0  502  0.57250669322E+02  0.15353387490E+03  0.47995422039E+02  0.17080966137E+03  0.47000000000E+01 0.  1.
          1    1    1    2  503    0  0.33823262259E+02  0.88228160534E+01 -0.20029280676E+04  0.20032330616E+04  0.00000000000E+00 0. -1.
         -2    1    1    2    0  501 -0.43881937216E+02 -0.21320731333E+02  0.66545925194E+03  0.66724524276E+03  0.00000000000E+00 0.  1.
<mgrwt>
<rscale>  0 0.41285779E+02</rscale>
<asrwt>0</asrwt>
<pdfrwt beam="2">  1        2 0.48061619E+00 0.34955045E+02</pdfrwt>
<pdfrwt beam="1">  1       -1 0.23889281E+00 0.48763077E+02</pdfrwt>
<totfact> 0.32043386E-01</totfact>
</mgrwt>
</event>
<event>
13    1  0.1589573E-008  0.7538804E+02  0.7546771E-02  0.1346468E+00
          2   -1    0    0  502    0  0.00000000000E+00  0.00000000000E+00  0.11822551422E+04  0.11822551422E+04  0.00000000000E+00 0. -1.
          2   -1    0    0  503    0 -0.00000000000E+00 -0.00000000000E+00 -0.12730454181E+04  0.12730454181E+04  0.00000000000E+00 0. -1.
         24    2    1    2    0    0  0.17208048131E+03  0.15785014713E+02 -0.56883736296E+03  0.60009411722E+03  0.81707681913E+02 0.  0.
         25    2    1    2    0    0 -0.11786252502E+03  0.93963697586E+01  0.18937294120E+03  0.25586754625E+03  0.12500489509E+03 0.  0.
         24    2    1    2    0    0  0.26331137355E+02 -0.70694440352E+02 -0.62767770307E+02  0.12908546014E+03  0.83858394563E+02 0.  0.
        -13    1    5    5    0    0 -0.30156907749E+02 -0.31717292497E+02 -0.19182843582E+02  0.47785010372E+02  0.00000000000E+00 0.  1.
         14    1    5    5    0    0  0.56488045104E+02 -0.38977147855E+02 -0.43584926725E+02  0.81300449766E+02  0.00000000000E+00 0. -1.
        -13    1    3    3    0    0  0.37864108861E+02 -0.27159091089E+02 -0.19735516708E+03  0.20278157939E+03  0.00000000000E+00 0.  1.
         14    1    3    3    0    0  0.13421637244E+03  0.42944105802E+02 -0.37148219589E+03  0.39731253783E+03  0.00000000000E+00 0. -1.
          5    1    4    4  501    0 -0.14074917630E+03  0.24609613716E+02  0.14625149917E+03  0.20451785918E+03  0.47000000000E+01 0. -1.
         -5    1    4    4    0  501  0.22886651285E+02 -0.15213243958E+02  0.43121442034E+02  0.51349687066E+02  0.47000000000E+01 0. -1.
          1    1    1    2  502    0 -0.70516260585E+02 -0.26761132904E+02  0.90689611541E+03  0.91002706849E+03  0.00000000000E+00 0. -1.
          1    1    1    2  503    0 -0.10032833059E+02  0.72274188785E+02 -0.55545419930E+03  0.56022636820E+03  0.00000000000E+00 0. -1.
<mgrwt>
<rscale>  0 0.74167758E+02</rscale>
<asrwt>0</asrwt>
<pdfrwt beam="1">  1        2 0.17386105E+00 0.75388041E+02</pdfrwt>
<pdfrwt beam="2">  1        2 0.18721256E+00 0.72967226E+02</pdfrwt>
<totfact> 0.78531156E+01</totfact>
</mgrwt>
</event>
<event>
13    1  0.1589573E-008  0.3355264E+02  0.7546771E-02  0.1610642E+00
          2   -1    0    0  502    0  0.00000000000E+00  0.00000000000E+00  0.99129530827E+03  0.99129530827E+03  0.00000000000E+00 0. -1.
          2   -1    0    0  503    0 -0.00000000000E+00 -0.00000000000E+00 -0.29154753512E+04  0.29154753512E+04  0.00000000000E+00 0. -1.
         24    2    1    2    0    0 -0.51823477593E+03  0.47293216041E+03 -0.41933292490E+03  0.82131845942E+03  0.80571698142E+02 0.  0.
         25    2    1    2    0    0  0.46550653836E+03 -0.43502641968E+03 -0.47053727224E+03  0.80185734212E+03  0.12500219788E+03 0.  0.
         24    2    1    2    0    0  0.41382948897E+02 -0.38287584885E+02 -0.37670854211E+03  0.39365556381E+03  0.99382541764E+02 0.  0.
        -11    1    3    3    0    0 -0.37845697808E+03  0.30450052038E+03 -0.26330221422E+03  0.55251996089E+03  0.00000000000E+00 0.  1.
         12    1    3    3    0    0 -0.13977779785E+03  0.16843164003E+03 -0.15603071068E+03  0.26879849853E+03  0.00000000000E+00 0. -1.
        -13    1    5    5    0    0  0.55662912334E+02 -0.53755178618E+01 -0.33027987828E+03  0.33498067705E+03  0.00000000000E+00 0.  1.
         14    1    5    5    0    0 -0.14279963436E+02 -0.32912067023E+02 -0.46428663829E+02  0.58674886761E+02  0.00000000000E+00 0. -1.
          5    1    4    4  501    0  0.30115224959E+03 -0.21399753366E+03 -0.22334137904E+03  0.43173033648E+03  0.47000000000E+01 0.  1.
         -5    1    4    4    0  501  0.16435428877E+03 -0.22102888601E+03 -0.24719589320E+03  0.37012700564E+03  0.47000000000E+01 0.  1.
          1    1    1    2  502    0  0.28616593166E+02 -0.17530550419E+02  0.61559039356E+03  0.61650447058E+03  0.00000000000E+00 0. -1.
          1    1    1    2  503    0 -0.17271304492E+02  0.17912394574E+02 -0.12731916973E+04  0.12734348236E+04  0.00000000000E+00 0. -1.
<mgrwt>
<rscale>  0 0.28894331E+02</rscale>
<asrwt>0</asrwt>
<pdfrwt beam="1">  1        2 0.14577872E+00 0.33552641E+02</pdfrwt>
<pdfrwt beam="2">  1        2 0.42874637E+00 0.24882762E+02</pdfrwt>
<totfact> 0.19706212E+01</totfact>
</mgrwt>
</event>
<event>
13    1  0.1589573E-008  0.1746034E+03  0.7546771E-02  0.1291574E+00
          2   -1    0    0  502    0  0.00000000000E+00  0.00000000000E+00  0.14600167838E+04  0.14600167838E+04  0.00000000000E+00 0. -1.
          2   -1    0    0  503    0 -0.00000000000E+00 -0.00000000000E+00 -0.36672017077E+04  0.36672017077E+04  0.00000000000E+00 0. -1.
         24    2    1    2    0    0  0.80702432213E+03 -0.30507694946E+03 -0.18211852999E+04  0.20168456638E+04  0.81180869101E+02 0.  0.
         25    2    1    2    0    0 -0.44746685039E+03  0.53198464152E+02 -0.19099063586E+03  0.50513317406E+03  0.12500176705E+03 0.  0.
         24    2    1    2    0    0 -0.36701528940E+03  0.65781496992E+02  0.36632275847E+03  0.53331505938E+03  0.10585443396E+03 0.  0.
        -13    1    5    5    0    0 -0.15787998129E+03  0.81867162405E+02  0.16723961411E+03  0.24412580630E+03  0.00000000000E+00 0.  1.
         14    1    5    5    0    0 -0.20913530811E+03 -0.16085665414E+02  0.19908314436E+03  0.28918925308E+03  0.00000000000E+00 0. -1.
        -13    1    3    3    0    0  0.19673839370E+03 -0.11177689098E+03 -0.46024001885E+03  0.51285567547E+03  0.00000000000E+00 0.  1.
         14    1    3    3    0    0  0.61028592843E+03 -0.19330005848E+03 -0.13609452810E+04  0.15039899883E+04  0.00000000000E+00 0. -1.
          5    1    4    4  501    0 -0.24459438884E+03  0.89763625367E+02 -0.91448220450E+02  0.27616804760E+03  0.47000000000E+01 0. -1.
         -5    1    4    4    0  501 -0.20287246155E+03 -0.36565161215E+02 -0.99542415414E+02  0.22896512646E+03  0.47000000000E+01 0. -1.
          1    1    1    2  502    0 -0.47308124674E+02  0.20343818268E+02  0.74862171302E+03  0.75039083071E+03  0.00000000000E+00 0. -1.
          1    1    1    2  503    0  0.54765942325E+02  0.16575317004E+03 -0.13099534597E+04  0.13215337636E+04  0.00000000000E+00 0. -1.
<mgrwt>
<rscale>  0 0.94823675E+02</rscale>
<asrwt>0</asrwt>
<pdfrwt beam="1">  1        2 0.21470835E+00 0.51496889E+02</pdfrwt>
<pdfrwt beam="2">  1        2 0.53929436E+00 0.17460335E+03</pdfrwt>
<totfact> 0.29967215E+00</totfact>
</mgrwt>
</event>
<event>
13    1  0.1589573E-008  0.1611284E+03  0.7546771E-02  0.1264318E+00
          2   -1    0    0  502    0  0.00000000000E+00  0.00000000000E+00  0.38610754886E+04  0.38610754886E+04  0.00000000000E+00 0. -1.
          2   -1    0    0  503    0 -0.00000000000E+00 -0.00000000000E+00 -0.22575610009E+04  0.22575610009E+04  0.00000000000E+00 0. -1.
         24    2    1    2    0    0 -0.17049281648E+03  0.50727074605E+02 -0.41688911987E+03  0.46016350850E+03  0.79453632475E+02 0.  0.
         25    2    1    2    0    0  0.63077360242E+02 -0.36390052391E+03 -0.10281375654E+04  0.10995886837E+04  0.12500430063E+03 0.  0.
         24    2    1    2    0    0  0.25432731457E+02  0.17157369961E+03  0.58338596801E+03  0.61384464369E+03  0.79885547383E+02 0.  0.
        -13    1    3    3    0    0  0.13457780361E+01 -0.82006312006E+01 -0.50851968182E+02  0.51526538197E+02  0.00000000000E+00 0.  1.
         14    1    3    3    0    0 -0.17183859452E+03  0.58927705805E+02 -0.36603715169E+03  0.40863697030E+03  0.00000000000E+00 0. -1.
        -13    1    5    5    0    0 -0.16352646864E+02  0.25168387378E+01  0.42065418803E+02  0.45202245472E+02  0.00000000000E+00 0.  1.
         14    1    5    5    0    0  0.41785378321E+02  0.16905686087E+03  0.54132054921E+03  0.56864239821E+03  0.00000000000E+00 0. -1.
          5    1    4    4  501    0  0.68761283789E+02 -0.13433267564E+03 -0.29622658329E+03  0.33248407562E+03  0.47000000000E+01 0.  1.
         -5    1    4    4    0  501 -0.56839235466E+01 -0.22956784827E+03 -0.73191098216E+03  0.76710460809E+03  0.47000000000E+01 0.  1.
          1    1    1    2  502    0  0.13330353715E+03  0.90545275739E+02  0.32012953600E+04  0.32053486959E+04  0.00000000000E+00 0. -1.
          1    1    1    2  503    0 -0.51320812367E+02  0.51054473954E+02 -0.73614015505E+03  0.73969095774E+03  0.00000000000E+00 0. -1.
<mgrwt>
<rscale>  0 0.10800078E+03</rscale>
<asrwt>0</asrwt>
<pdfrwt beam="1">  1        2 0.56780522E+00 0.16112843E+03</pdfrwt>
<pdfrwt beam="2">  1        2 0.33199426E+00 0.72390504E+02</pdfrwt>
<totfact> 0.92538740E-01</totfact>
</mgrwt>
</event>
<event>
13    1  0.1589573E-008  0.1316754E+03  0.7546771E-02  0.1251321E+00
          4   -1    0    0  503    0  0.00000000000E+00  0.00000000000E+00  0.18233151143E+03  0.18233151143E+03  0.00000000000E+00 0. -1.
         -3   -1    0    0    0  501 -0.00000000000E+00 -0.00000000000E+00 -0.98783785859E+03  0.98783785859E+03  0.00000000000E+00 0.  1.
         24    2    1    2    0    0 -0.44024756969E+02 -0.19099935750E+02 -0.61872237536E+02  0.11235809458E+03  0.80580275931E+02 0.  0.
         25    2    1    2    0    0 -0.17554960865E+03 -0.33379388920E+02 -0.13680895509E+03  0.25743763368E+03  0.12500238535E+03 0.  0.
         24    2    1    2    0    0 -0.60630927596E+01  0.74896206035E+02 -0.19042053485E+03  0.22055675970E+03  0.82092029983E+02 0.  0.
        -11    1    5    5    0    0 -0.24550274012E+02  0.12331112528E+02 -0.12567538423E+03  0.12864320616E+03  0.00000000000E+00 0.  1.
         12    1    5    5    0    0  0.18487181253E+02  0.62565093507E+02 -0.64745150620E+02  0.91913553544E+02  0.00000000000E+00 0. -1.
        -13    1    3    3    0    0 -0.60930679052E+02  0.58573072337E+01 -0.28924827613E+02  0.67701560914E+02  0.00000000000E+00 0.  1.
         14    1    3    3    0    0  0.16905922083E+02 -0.24957242983E+02 -0.32947409923E+02  0.44656533670E+02  0.00000000000E+00 0. -1.
          5    1    4    4  502    0 -0.71121764245E+02 -0.65673389875E+02 -0.10630920891E+03  0.14385769839E+03  0.47000000000E+01 0.  1.
         -5    1    4    4    0  502 -0.10442784441E+03  0.32294000956E+02 -0.30499746181E+02  0.11357993530E+03  0.47000000000E+01 0.  1.
          3    1    1    2  503    0  0.95632163936E+02  0.83614199084E+02  0.40852468435E+01  0.12709655506E+03  0.00000000000E+00 0. -1.
         -4    1    1    2    0  501  0.13000529444E+03 -0.10603108045E+03 -0.42048986653E+03  0.45272032698E+03  0.00000000000E+00 0.  1.
<mgrwt>
<rscale>  0 0.11514908E+03</rscale>
<asrwt>0</asrwt>
<pdfrwt beam="1">  1        4 0.26813457E-01 0.10069696E+03</pdfrwt>
<pdfrwt beam="2">  1       -3 0.14527028E+00 0.13167538E+03</pdfrwt>
<totfact> 0.96175616E+00</totfact>
</mgrwt>
</event>
<event>
13    1  0.1589573E-008  0.7351476E+02  0.7546771E-02  0.1369612E+00
          2   -1    0    0  502    0  0.00000000000E+00  0.00000000000E+00  0.24172432104E+04  0.24172432104E+04  0.00000000000E+00 0. -1.
          2   -1    0    0  503    0 -0.00000000000E+00 -0.00000000000E+00 -0.21063067445E+04  0.21063067445E+04  0.00000000000E+00 0. -1.
         24    2    1    2    0    0  0.81658329967E+02 -0.11884958553E+03 -0.39388820004E+03  0.43376570509E+03  0.11050550188E+03 0.  0.
         25    2    1    2    0    0  0.27147224760E+03  0.30746385808E+03  0.13283111996E+03  0.44888730019E+03  0.12499798639E+03 0.  0.
         24    2    1    2    0    0 -0.31051526307E+03 -0.74818533150E+02  0.13304855363E+04  0.13706363513E+04  0.80216604260E+02 0.  0.
        -11    1    5    5    0    0 -0.46306577284E+02 -0.21619327734E+02  0.35286384093E+03  0.35654534728E+03  0.00000000000E+00 0.  1.
         12    1    5    5    0    0 -0.26420868579E+03 -0.53199205416E+02  0.97762169539E+03  0.10140910040E+04  0.00000000000E+00 0. -1.
        -11    1    3    3    0    0  0.39504728722E+02  0.74355553745E+01 -0.45007486094E+02  0.60345545649E+02  0.00000000000E+00 0.  1.
         12    1    3    3    0    0  0.42153601245E+02 -0.12628514091E+03 -0.34888071394E+03  0.37342015944E+03  0.00000000000E+00 0. -1.
          5    1    4    4  501    0  0.21960326522E+03  0.16273656609E+03  0.10347592912E+03  0.29229803616E+03  0.47000000000E+01 0. -1.
         -5    1    4    4    0  501  0.51868982382E+02  0.14472729199E+03  0.29355190842E+02  0.15658926403E+03  0.47000000000E+01 0. -1.
          1    1    1    2  502    0 -0.46454272731E+02 -0.40401678741E+02  0.75373679475E+03  0.75624695098E+03  0.00000000000E+00 0. -1.
          1    1    1    2  503    0  0.38389582303E+01 -0.73394060651E+02 -0.15122287852E+04  0.15140136474E+04  0.00000000000E+00 0. -1.
<mgrwt>
<rscale>  0 0.67275280E+02</rscale>
<asrwt>0</asrwt>
<pdfrwt beam="1">  1        2 0.35547694E+00 0.61565373E+02</pdfrwt>
<pdfrwt beam="2">  1        2 0.30975099E+00 0.73514756E+02</pdfrwt>
<totfact> 0.80241898E+00</totfact>
</mgrwt>
</event>
<event>
13    1  0.1589573E-008  0.1402533E+03  0.7546771E-02  0.1383654E+00
          2   -1    0    0  503    0  0.00000000000E+00  0.00000000000E+00  0.52024259606E+03  0.52024259606E+03  0.00000000000E+00 0. -1.
          2   -1    0    0  502    0 -0.00000000000E+00 -0.00000000000E+00 -0.16301524667E+04  0.16301524667E+04  0.00000000000E+00 0. -1.
         24    2    1    2    0    0  0.33234981747E+03  0.48829164997E+01 -0.46846835574E+03  0.57992721840E+03  0.79829407294E+02 0.  0.
         25    2    1    2    0    0 -0.53418237696E+03  0.39810241423E+02 -0.54381239078E+02  0.55273751658E+03  0.12500310357E+03 0.  0.
         24    2    1    2    0    0  0.14645095702E+03  0.81887272815E+02 -0.12789984626E+03  0.22679735691E+03  0.83218160069E+02 0.  0.
        -11    1    5    5    0    0  0.92923797988E+02  0.94249560856E+02 -0.90856639972E+02  0.16053890800E+03  0.00000000000E+00 0.  1.
         12    1    5    5    0    0  0.53527159037E+02 -0.12362288040E+02 -0.37043206286E+02  0.66258448911E+02  0.00000000000E+00 0. -1.
        -13    1    3    3    0    0  0.48615458899E+02 -0.27312191780E+02 -0.65174194763E+02  0.85773505972E+02  0.00000000000E+00 0.  1.
         14    1    3    3    0    0  0.28373435857E+03  0.32195108279E+02 -0.40329416098E+03  0.49415371243E+03  0.00000000000E+00 0. -1.
          5    1    4    4  501    0 -0.18925498319E+03  0.32396999874E+02  0.37460667386E+02  0.19568445483E+03  0.47000000000E+01 0.  1.
         -5    1    4    4    0  501 -0.34492739377E+03  0.74132415491E+01 -0.91841906464E+02  0.35705306175E+03  0.47000000000E+01 0.  1.
          1    1    1    2  502    0  0.28729581698E+02 -0.13739205488E+03 -0.61584098396E+03  0.63163445372E+03  0.00000000000E+00 0. -1.
          1    1    1    2  503    0  0.26652020769E+02  0.10811624142E+02  0.15668055441E+03  0.15929851712E+03  0.00000000000E+00 0. -1.
<mgrwt>
<rscale>  0 0.63512900E+02</rscale>
<asrwt>0</asrwt>
<pdfrwt beam="1">  1        2 0.76506265E-01 0.28761457E+02</pdfrwt>
<pdfrwt beam="2">  1        2 0.23972830E+00 0.14025327E+03</pdfrwt>
<totfact> 0.13475073E+02</totfact>
</mgrwt>
</event>
<event>
13    1  0.1589573E-008  0.1555802E+03  0.7546771E-02  0.1232362E+00
          2   -1    0    0  502    0  0.00000000000E+00  0.00000000000E+00  0.82833262955E+03  0.82833262955E+03  0.00000000000E+00 0. -1.
          2   -1    0    0  503    0 -0.00000000000E+00 -0.00000000000E+00 -0.47267475520E+04  0.47267475520E+04  0.00000000000E+00 0. -1.
         24    2    1    2    0    0  0.53987877509E+02 -0.18704071843E+02 -0.18235924091E+03  0.20747733170E+03  0.80792432819E+02 0.  0.
         25    2    1    2    0    0  0.15510709393E+03 -0.26550880986E+03 -0.38595200193E+01  0.33194996095E+03  0.12499096761E+03 0.  0.
         24    2    1    2    0    0 -0.92559526040E+01 -0.33974809751E+02  0.67372376477E+02  0.10994725574E+03  0.79431741613E+02 0.  0.
        -11    1    5    5    0    0  0.31077202078E+02 -0.12194526252E+02  0.51626398505E+02  0.61479947805E+02  0.00000000000E+00 0.  1.
         12    1    5    5    0    0 -0.40333154682E+02 -0.21780283499E+02  0.15745977972E+02  0.48467307932E+02  0.00000000000E+00 0. -1.
        -13    1    3    3    0    0  0.65559797706E+02 -0.14585565880E+02 -0.80314303289E+02  0.10469581233E+03  0.00000000000E+00 0.  1.
         14    1    3    3    0    0 -0.11571920197E+02 -0.41185059631E+01 -0.10204493762E+03  0.10278151936E+03  0.00000000000E+00 0. -1.
          5    1    4    4  501    0  0.96333928994E+02 -0.58910572212E+02 -0.25988928757E+02  0.11596635638E+03  0.47000000000E+01 0.  1.
         -5    1    4    4    0  501  0.58773164937E+02 -0.20659823764E+03  0.22129408737E+02  0.21598360458E+03  0.47000000000E+01 0.  1.
          1    1    1    2  502    0 -0.19904837164E+03  0.20459547036E+03  0.52609467679E+03  0.59854420864E+03  0.00000000000E+00 0. -1.
          1    1    1    2  503    0 -0.79064719380E+00  0.11359222109E+03 -0.43056632148E+04  0.43071614245E+04  0.00000000000E+00 0. -1.
<mgrwt>
<rscale>  0 0.12674815E+03</rscale>
<asrwt>0</asrwt>
<pdfrwt beam="1">  1        2 0.12181362E+00 0.15558021E+03</pdfrwt>
<pdfrwt beam="2">  1        2 0.69510994E+00 0.10325924E+03</pdfrwt>
<totfact> 0.11775699E+00</totfact>
</mgrwt>
</event>
<event>
13    1  0.1589573E-008  0.1307113E+03  0.7546771E-02  0.1315565E+00
          2   -1    0    0  503    0  0.00000000000E+00  0.00000000000E+00  0.45821537968E+04  0.45821537968E+04  0.00000000000E+00 0. -1.
          2   -1    0    0  502    0 -0.00000000000E+00 -0.00000000000E+00 -0.89973911215E+03  0.89973911215E+03  0.00000000000E+00 0. -1.
         24    2    1    2    0    0  0.23834083262E+02 -0.23863024396E+02  0.15935560337E+02  0.89819742447E+02  0.81707628724E+02 0.  0.
         25    2    1    2    0    0 -0.26610697838E+02 -0.11837565191E+03  0.32817422888E+04  0.32863626240E+04  0.12500368864E+03 0.  0.
         24    2    1    2    0    0  0.56004023191E+02 -0.32060891008E+02  0.10763956885E+03  0.14943872803E+03  0.81125244577E+02 0.  0.
        -11    1    3    3    0    0  0.52915074454E+02 -0.22906846568E+02  0.23517470015E+01  0.57708400066E+02  0.00000000000E+00 0.  1.
         12    1    3    3    0    0 -0.29080991192E+02 -0.95617782729E+00  0.13583813336E+02  0.32111342381E+02  0.00000000000E+00 0. -1.
        -11    1    5    5    0    0  0.64913808582E+02 -0.50061580390E+02  0.95949735082E+02  0.12619950887E+03  0.00000000000E+00 0.  1.
         12    1    5    5    0    0 -0.89097853908E+01  0.18000689382E+02  0.11689833772E+02  0.23239219168E+02  0.00000000000E+00 0. -1.
          5    1    4    4  501    0  0.10166386631E+02 -0.13088809887E+03  0.27771971266E+04  0.27803023252E+04  0.47000000000E+01 0.  1.
         -5    1    4    4    0  501 -0.36777084469E+02  0.12512446960E+02  0.50454516223E+03  0.50606029878E+03  0.47000000000E+01 0.  1.
          1    1    1    2  502    0 -0.19198335350E+02  0.21777360673E+03 -0.82465298862E+03  0.85313918648E+03  0.00000000000E+00 0. -1.
          1    1    1    2  503    0 -0.34029073264E+02 -0.43474039414E+02  0.11017502553E+04  0.11031326280E+04  0.00000000000E+00 0. -1.
<mgrwt>
<rscale>  0 0.84949199E+02</rscale>
<asrwt>0</asrwt>
<pdfrwt beam="1">  1        2 0.67384613E+00 0.55208423E+02</pdfrwt>
<pdfrwt beam="2">  1        2 0.13231458E+00 0.13071133E+03</pdfrwt>
<totfact> 0.16544518E+00</totfact>
</mgrwt>
</event>
<event>
13    1  0.1589573E-008  0.1140085E+03  0.7546771E-02  0.1309786E+00
          2   -1    0    0  503    0  0.00000000000E+00  0.00000000000E+00  0.10905091070E+04  0.10905091070E+04  0.00000000000E+00 0. -1.
          2   -1    0    0  502    0 -0.00000000000E+00 -0.00000000000E+00 -0.21083484797E+04  0.21083484797E+04  0.00000000000E+00 0. -1.
         24    2    1    2    0    0  0.19482907440E+03 -0.14727361519E+03 -0.61366546329E+03  0.66530948226E+03  0.80021999400E+02 0.  0.
         25    2    1    2    0    0  0.11117643318E+01  0.25541856486E+03  0.24720533040E+03  0.37679584995E+03  0.12499903145E+03 0.  0.
         24    2    1    2    0    0 -0.14228679887E+03 -0.10718588546E+03 -0.87642834865E+03  0.89791800981E+03  0.79973463471E+02 0.  0.
        -13    1    3    3    0    0 -0.57163540382E+01  0.15824006028E+01 -0.27881296945E+02  0.28505217320E+02  0.00000000000E+00 0.  1.
         14    1    3    3    0    0  0.20054542843E+03 -0.14885601579E+03 -0.58578416634E+03  0.63680426494E+03  0.00000000000E+00 0. -1.
        -13    1    5    5    0    0 -0.90974453359E+01 -0.46275552770E+01 -0.22234347368E+03  0.22257762256E+03  0.00000000000E+00 0.  1.
         14    1    5    5    0    0 -0.13318935354E+03 -0.10255833018E+03 -0.65408487497E+03  0.67534038725E+03  0.00000000000E+00 0. -1.
          5    1    4    4  501    0  0.24159002221E+02  0.23725753708E+03  0.25166635747E+03  0.34674607679E+03  0.47000000000E+01 0.  1.
         -5    1    4    4    0  501 -0.23047237889E+02  0.18161027786E+02 -0.44610270620E+01  0.30049773161E+02  0.47000000000E+01 0.  1.
          1    1    1    2  502    0 -0.10830748640E+03 -0.39176846952E+02 -0.50894609645E+03  0.52181554791E+03  0.00000000000E+00 0. -1.
          1    1    1    2  503    0  0.54653446547E+02  0.38217782743E+02  0.73399520524E+03  0.73701869682E+03  0.00000000000E+00 0. -1.
<mgrwt>
<rscale>  0 0.87196681E+02</rscale>
<asrwt>0</asrwt>
<pdfrwt beam="1">  1        2 0.16036899E+00 0.66690315E+02</pdfrwt>
<pdfrwt beam="2">  1        2 0.31005124E+00 0.11400847E+03</pdfrwt>
<totfact> 0.33294959E+01</totfact>
</mgrwt>
</event>
<event>
13    1  0.1589573E-008  0.1671345E+03  0.7546771E-02  0.1186153E+00
          2   -1    0    0  503    0  0.00000000000E+00  0.00000000000E+00  0.13020703918E+04  0.13020703918E+04  0.00000000000E+00 0. -1.
          2   -1    0    0  502    0 -0.00000000000E+00 -0.00000000000E+00 -0.30783092666E+04  0.30783092666E+04  0.00000000000E+00 0. -1.
         24    2    1    2    0    0 -0.81921666653E+02  0.24788927047E+02 -0.10163534943E+04  0.10231690751E+04  0.81085636750E+02 0.  0.
         25    2    1    2    0    0  0.48738270500E+03 -0.73840914685E+02  0.33445759375E+03  0.60867176196E+03  0.12500019995E+03 0.  0.
         24    2    1    2    0    0 -0.17312082048E+02 -0.66111907152E+01  0.50948100520E+02  0.97077963500E+02  0.80529535098E+02 0.  0.
        -11    1    5    5    0    0  0.10727258387E+02 -0.99184655058E-01 -0.18787657986E+02  0.21634694421E+02  0.00000000000E+00 0.  1.
         12    1    5    5    0    0 -0.28039340435E+02 -0.65120060602E+01  0.69735758505E+02  0.75443269079E+02  0.00000000000E+00 0. -1.
        -13    1    3    3    0    0 -0.24194089143E+02 -0.25257679726E+02 -0.49661736586E+03  0.49784747906E+03  0.00000000000E+00 0.  1.
         14    1    3    3    0    0 -0.57727577510E+02  0.50046606773E+02 -0.51973612842E+03  0.52532159601E+03  0.00000000000E+00 0. -1.
          5    1    4    4  501    0  0.21571101544E+02 -0.34328825082E+02  0.22071843473E+02  0.46400828954E+02  0.47000000000E+01 0.  1.
         -5    1    4    4    0  501  0.46581160345E+03 -0.39512089603E+02  0.31238575027E+03  0.56227093301E+03  0.47000000000E+01 0.  1.
          1    1    1    2  502    0 -0.16187159977E+03 -0.27544636989E+02 -0.18754008009E+04  0.18825751740E+04  0.00000000000E+00 0. -1.
          1    1    1    2  503    0 -0.22627735652E+03  0.83207815342E+02  0.73010972615E+03  0.76888568385E+03  0.00000000000E+00 0. -1.
<mgrwt>
<rscale>  0 0.16227395E+03</rscale>
<asrwt>0</asrwt>
<pdfrwt beam="1">  1        2 0.19148094E+00 0.15755473E+03</pdfrwt>
<pdfrwt beam="2">  1        2 0.45269253E+00 0.16713452E+03</pdfrwt>
<totfact> 0.73996311E+00</totfact>
</mgrwt>
</event>
<event>
13    1  0.1589573E-008  0.9581819E+02  0.7546771E-02  0.1312887E+00
         -1   -1    0    0    0  501 -0.00000000000E+00  0.00000000000E+00  0.83117835885E+03  0.83117835885E+03  0.00000000000E+00 0.  1.
          2   -1    0    0  503    0  0.00000000000E+00 -0.00000000000E+00 -0.11545390216E+04  0.11545390216E+04  0.00000000000E+00 0. -1.
         24    2    1    2    0    0 -0.66125279348E+02  0.83981896648E+02  0.24559314061E+03  0.27881704060E+03  0.77443139659E+02 0.  0.
         25    2    1    2    0    0  0.14607394477E+03 -0.17680387919E+01 -0.16728505510E+03  0.25485262138E+03  0.12499938265E+03 0.  0.
         24    2    1    2    0    0  0.14912418349E+02 -0.82945060550E+01 -0.15726673595E+03  0.17723903292E+03  0.79935408307E+02 0.  0.
        -11    1    3    3    0    0  0.13837392461E+02 -0.20674968553E+01  0.34730240842E+02  0.37442457215E+02  0.00000000000E+00 0.  1.
         12    1    3    3    0    0 -0.79962671809E+02  0.86049393503E+02  0.21086289977E+03  0.24137458338E+03  0.00000000000E+00 0. -1.
        -11    1    5    5    0    0  0.25449589672E+02 -0.42652663230E+01 -0.16268870769E+03  0.16472246271E+03  0.00000000000E+00 0.  1.
         12    1    5    5    0    0 -0.10537171323E+02 -0.40292397320E+01  0.54219717372E+01  0.12516570210E+02  0.00000000000E+00 0. -1.
          5    1    4    4  502    0  0.52294568020E+02 -0.25102644380E+02 -0.14403077622E+03  0.15534419557E+03  0.47000000000E+01 0.  1.
         -5    1    4    4    0  502  0.93779376751E+02  0.23334605588E+02 -0.23254278884E+02  0.99508425815E+02  0.47000000000E+01 0.  1.
          1    1    1    2  503    0 -0.25003607281E+02 -0.10667063873E+03 -0.75272854542E+03  0.76066028464E+03  0.00000000000E+00 0. -1.
         -2    1    1    2    0  501 -0.69857476490E+02  0.32751286930E+02  0.50832653314E+03  0.51414840087E+03  0.00000000000E+00 0.  1.
<mgrwt>
<rscale>  0 0.85981046E+02</rscale>
<asrwt>0</asrwt>
<pdfrwt beam="2">  1        2 0.16978515E+00 0.95818187E+02</pdfrwt>
<pdfrwt beam="1">  1       -1 0.12223211E+00 0.77153832E+02</pdfrwt>
<totfact> 0.18866688E+01</totfact>
</mgrwt>
</event>
<event>
13    1  0.1589573E-008  0.8245466E+02  0.7546771E-02  0.1424492E+00
          2   -1    0    0  502    0  0.00000000000E+00  0.00000000000E+00  0.14884852390E+04  0.14884852390E+04  0.00000000000E+00 0. -1.
          2   -1    0    0  503    0 -0.00000000000E+00 -0.00000000000E+00 -0.19978342320E+03  0.19978342320E+03  0.00000000000E+00 0. -1.
         24    2    1    2    0    0  0.29732760766E+02 -0.12306912332E+03  0.94245881283E+02  0.18325323659E+03  0.93109700917E+02 0.  0.
         25    2    1    2    0    0  0.66654647403E+02 -0.41349637952E+02  0.87809634765E+03  0.89041071482E+03  0.12500164294E+03 0.  0.
         24    2    1    2    0    0 -0.28814373260E+02  0.97409112710E+02  0.11257061348E+03  0.17000007205E+03  0.76870528372E+02 0.  0.
        -11    1    5    5    0    0 -0.20281316275E+02 -0.78005136606E+01  0.16693585992E+02  0.27401744771E+02  0.00000000000E+00 0.  1.
         12    1    5    5    0    0 -0.85330569842E+01  0.10520962637E+03  0.95877027492E+02  0.14259832728E+03  0.00000000000E+00 0. -1.
        -11    1    3    3    0    0 -0.26013310123E+02 -0.14362910192E+02  0.12905018108E+01  0.29743081341E+02  0.00000000000E+00 0.  1.
         12    1    3    3    0    0  0.55746070889E+02 -0.10870621313E+03  0.92955379472E+02  0.15351015525E+03  0.00000000000E+00 0. -1.
          5    1    4    4  501    0  0.21426543417E+02  0.26549206536E+02  0.58846209105E+03  0.58946898115E+03  0.47000000000E+01 0. -1.
         -5    1    4    4    0  501  0.45228103987E+02 -0.67898844488E+02  0.28963425659E+03  0.30094173367E+03  0.47000000000E+01 0. -1.
          1    1    1    2  502    0  0.81322541032E+01  0.34527369034E+02  0.30897184156E+03  0.31100140136E+03  0.00000000000E+00 0. -1.
          1    1    1    2  503    0 -0.75705289013E+02  0.32482279527E+02 -0.10518286820E+03  0.13360323735E+03  0.00000000000E+00 0. -1.
<mgrwt>
<rscale>  0 0.54081822E+02</rscale>
<asrwt>0</asrwt>
<pdfrwt beam="1">  1        2 0.21889488E+00 0.35472141E+02</pdfrwt>
<pdfrwt beam="2">  1        2 0.29379916E-01 0.82454665E+02</pdfrwt>
<totfact> 0.47790978E+02</totfact>
</mgrwt>
</event>
<event>
13    1  0.1589573E-008  0.1157272E+03  0.7546771E-02  0.1375640E+00
          2   -1    0    0  503    0  0.00000000000E+00  0.00000000000E+00  0.12920858844E+04  0.12920858844E+04  0.00000000000E+00 0. -1.
         -1   -1    0    0    0  501 -0.00000000000E+00 -0.00000000000E+00 -0.25333983655E+03  0.25333983655E+03  0.00000000000E+00 0.  1.
         24    2    1    2    0    0  0.37397094248E+02  0.29412245933E+02  0.50970457915E+02  0.10615003250E+03  0.80038859004E+02 0.  0.
         25    2    1    2    0    0 -0.14870966916E+03 -0.80664690715E+02  0.57188694603E+03  0.60934461029E+03  0.12499926808E+03 0.  0.
         24    2    1    2    0    0  0.36060406732E+01 -0.27454088555E+02  0.13156476195E+03  0.15631939755E+03  0.79747958934E+02 0.  0.
        -11    1    3    3    0    0 -0.10152903148E+02  0.38765106240E+02  0.39673253815E+02  0.56389555525E+02  0.00000000000E+00 0.  1.
         12    1    3    3    0    0  0.47549997396E+02 -0.93528603063E+01  0.11297204100E+02  0.49760476974E+02  0.00000000000E+00 0. -1.
        -13    1    5    5    0    0  0.41983741159E-01  0.26053875511E+02  0.21102049363E+02  0.33527640524E+02  0.00000000000E+00 0.  1.
         14    1    5    5    0    0  0.35640569320E+01 -0.53507964066E+02  0.11046271259E+03  0.12279175703E+03  0.00000000000E+00 0. -1.
          5    1    4    4  502    0 -0.46978259139E+02 -0.61157473328E+02  0.40914629442E+03  0.41637720112E+03  0.47000000000E+01 0. -1.
         -5    1    4    4    0  502 -0.10173141002E+03 -0.19507217388E+02  0.16274065161E+03  0.19296740917E+03  0.47000000000E+01 0. -1.
          1    1    1    2  503    0  0.24866596406E+02  0.27684130949E+02  0.46602182920E+03  0.46750519143E+03  0.00000000000E+00 0. -1.
         -2    1    1    2    0  501  0.82839937835E+02  0.51022402388E+02 -0.18169794726E+03  0.20610648918E+03  0.00000000000E+00 0.  1.
<mgrwt>
<rscale>  0 0.65623774E+02</rscale>
<asrwt>0</asrwt>
<pdfrwt beam="1">  1        2 0.19001263E+00 0.37212346E+02</pdfrwt>
<pdfrwt beam="2">  1       -1 0.37255859E-01 0.11572717E+03</pdfrwt>
<totfact> 0.17484351E+02</totfact>
</mgrwt>
</event>
<event>
13    1  0.1589573E-008  0.1197109E+03  0.7546771E-02  0.1291355E+00
          2   -1    0    0  503    0  0.00000000000E+00  0.00000000000E+00  0.23681874588E+04  0.23681874588E+04  0.00000000000E+00 0. -1.
         -1   -1    0    0    0  501 -0.00000000000E+00 -0.00000000000E+00 -0.73502004372E+03  0.73502004372E+03  0.00000000000E+00 0.  1.
         24    2    1    2    0    0 -0.73762397987E+02  0.22421686949E+02 -0.22532183520E+03  0.25140355015E+03  0.80561729164E+02 0.  0.
         25    2    1    2    0    0  0.84222657395E+02 -0.14232241955E+03  0.12820573013E+04  0.12987079726E+04  0.12498938791E+03 0.  0.
         24    2    1    2    0    0  0.63518717021E+02 -0.23173763020E+02 -0.19224654649E+03  0.21843312586E+03  0.78629797987E+02 0.  0.
        -11    1    3    3    0    0 -0.73595016580E+02  0.24959027803E+01 -0.98268985221E+02  0.12279759547E+03  0.00000000000E+00 0.  1.
         12    1    3    3    0    0 -0.16738140709E+00  0.19925784169E+02 -0.12705284998E+03  0.12860595468E+03  0.00000000000E+00 0. -1.
        -13    1    5    5    0    0  0.21174821604E+02  0.26217633626E+02 -0.36682007562E+02  0.49812719879E+02  0.00000000000E+00 0.  1.
         14    1    5    5    0    0  0.42343895417E+02 -0.49391396647E+02 -0.15556453893E+03  0.16862040598E+03  0.00000000000E+00 0. -1.
          5    1    4    4  502    0  0.34589684540E+02 -0.50282454095E+02  0.91422002688E+03  0.91626694746E+03  0.47000000000E+01 0. -1.
         -5    1    4    4    0  502  0.49632972855E+02 -0.92039965458E+02  0.36783727442E+03  0.38244102511E+03  0.47000000000E+01 0. -1.
          1    1    1    2  503    0 -0.75158780938E+02 -0.39772950682E+01  0.10311015694E+04  0.10338448180E+04  0.00000000000E+00 0. -1.
         -2    1    1    2    0  501  0.11798045086E+01  0.14705179069E+03 -0.26242307388E+03  0.30081803601E+03  0.00000000000E+00 0.  1.
<mgrwt>
<rscale>  0 0.94920551E+02</rscale>
<asrwt>0</asrwt>
<pdfrwt beam="1">  1        2 0.34826286E+00 0.75263944E+02</pdfrwt>
<pdfrwt beam="2">  1       -1 0.10809118E+00 0.11971085E+03</pdfrwt>
<totfact> 0.63723594E+00</totfact>
</mgrwt>
</event>
<event>
13    1  0.1589573E-008  0.6895114E+02  0.7546771E-02  0.1446959E+00
          2   -1    0    0  502    0  0.00000000000E+00  0.00000000000E+00  0.23032615803E+04  0.23032615803E+04  0.00000000000E+00 0. -1.
          2   -1    0    0  503    0 -0.00000000000E+00 -0.00000000000E+00 -0.81348358745E+03  0.81348358745E+03  0.00000000000E+00 0. -1.
         24    2    1    2    0    0 -0.66082127042E+02  0.10194666228E+03 -0.14776239965E+03  0.20613622310E+03  0.76801342840E+02 0.  0.
         25    2    1    2    0    0  0.14705652611E+03 -0.64934595840E+02  0.14534084507E+03  0.25018128905E+03  0.12499837014E+03 0.  0.
         24    2    1    2    0    0  0.20324991243E+02 -0.42269026002E+02  0.83659821530E+02  0.12296843801E+03  0.76957749313E+02 0.  0.
        -11    1    3    3    0    0 -0.23395345266E+01  0.18482312112E+02  0.63150373163E+01  0.19671018762E+02  0.00000000000E+00 0.  1.
         12    1    3    3    0    0 -0.63742592516E+02  0.83464350167E+02 -0.15407743696E+03  0.18646520434E+03  0.00000000000E+00 0. -1.
        -13    1    5    5    0    0  0.37318708712E+02 -0.54740983225E+02  0.75288583329E+02  0.10028774623E+03  0.00000000000E+00 0.  1.
         14    1    5    5    0    0 -0.16993717469E+02  0.12471957224E+02  0.83712382003E+01  0.22680691775E+02  0.00000000000E+00 0. -1.
          5    1    4    4  501    0  0.39848345372E+02  0.16274237800E+02  0.98653490631E+02  0.10773737819E+03  0.47000000000E+01 0.  1.
         -5    1    4    4    0  501  0.10720818073E+03 -0.81208833639E+02  0.46687354438E+02  0.14244391086E+03  0.47000000000E+01 0.  1.
          1    1    1    2  502    0 -0.33073554960E+02  0.13770668211E+02  0.19707423583E+04  0.19710679679E+04  0.00000000000E+00 0. -1.
          1    1    1    2  503    0 -0.68225835347E+02 -0.85137086496E+01 -0.56220263239E+03  0.56639124968E+03  0.00000000000E+00 0. -1.
<mgrwt>
<rscale>  0 0.49701437E+02</rscale>
<asrwt>0</asrwt>
<pdfrwt beam="1">  1        2 0.33871494E+00 0.35825847E+02</pdfrwt>
<pdfrwt beam="2">  1        2 0.11962994E+00 0.68951136E+02</pdfrwt>
<totfact> 0.44825582E+01</totfact>
</mgrwt>
</event>
<event>
13    1  0.1589573E-008  0.4139596E+02  0.7546771E-02  0.1578193E+00
          2   -1    0    0  503    0  0.00000000000E+00  0.00000000000E+00  0.13321399086E+04  0.13321399086E+04  0.00000000000E+00 0. -1.
          2   -1    0    0  502    0 -0.00000000000E+00 -0.00000000000E+00 -0.74837727800E+03  0.74837727800E+03  0.00000000000E+00 0. -1.
         24    2    1    2    0    0  0.46549804827E+03 -0.51328739226E+02 -0.36145678355E+03  0.59768941934E+03  0.85197201852E+02 0.  0.
         25    2    1    2    0    0 -0.27781390613E+03  0.45663727676E+02  0.66543661558E+03  0.73327849665E+03  0.12500288728E+03 0.  0.
         24    2    1    2    0    0 -0.16307814875E+03 -0.54940478733E+02  0.13900305474E+03  0.23384786689E+03  0.75828997202E+02 0.  0.
        -11    1    3    3    0    0  0.19757911960E+03  0.15445049298E+02 -0.12628298627E+03  0.23499670353E+03  0.00000000000E+00 0.  1.
         12    1    3    3    0    0  0.26791892867E+03 -0.66773788524E+02 -0.23517379728E+03  0.36269271581E+03  0.00000000000E+00 0. -1.
        -11    1    5    5    0    0 -0.11295161937E+03 -0.45069584673E+01  0.10777683542E+03  0.15618651429E+03  0.00000000000E+00 0.  1.
         12    1    5    5    0    0 -0.50126529379E+02 -0.50433520266E+02  0.31226219326E+02  0.77661352598E+02  0.00000000000E+00 0. -1.
          5    1    4    4  501    0 -0.23313815143E+03  0.25098136998E+02  0.63066702603E+03  0.67286425217E+03  0.47000000000E+01 0. -1.
         -5    1    4    4    0  501 -0.44675754702E+02  0.20565590678E+02  0.34769589552E+02  0.60414244477E+02  0.47000000000E+01 0. -1.
          1    1    1    2  502    0 -0.55598598474E+01  0.23913498626E+02 -0.18534643865E+03  0.18696542401E+03  0.00000000000E+00 0. -1.
          1    1    1    2  503    0 -0.19046133543E+02  0.36691991657E+02  0.32612618244E+03  0.32873597967E+03  0.00000000000E+00 0. -1.
<mgrwt>
<rscale>  0 0.31879861E+02</rscale>
<asrwt>0</asrwt>
<pdfrwt beam="1">  1        2 0.19590293E+00 0.41395957E+02</pdfrwt>
<pdfrwt beam="2">  1        2 0.11005548E+00 0.24551323E+02</pdfrwt>
<totfact> 0.14188431E+02</totfact>
</mgrwt>
</event>
<event>
13    1  0.1589573E-008  0.6003642E+02  0.7546771E-02  0.1410459E+00
          2   -1    0    0  502    0  0.00000000000E+00  0.00000000000E+00  0.20049589111E+04  0.20049589111E+04  0.00000000000E+00 0. -1.
          2   -1    0    0  503    0 -0.00000000000E+00 -0.00000000000E+00 -0.35790439946E+03  0.35790439946E+03  0.00000000000E+00 0. -1.
         24    2    1    2    0    0  0.20417645931E+02 -0.37394850747E+02 -0.18008079507E+03  0.20203278632E+03  0.81073416542E+02 0.  0.
         25    2    1    2    0    0 -0.59612080769E+02  0.95014578536E+02  0.41002227304E+03  0.44308539102E+03  0.12500011616E+03 0.  0.
         24    2    1    2    0    0 -0.66875327595E+02 -0.57855550332E+02  0.16927179382E+03  0.20755443408E+03  0.81279325662E+02 0.  0.
        -11    1    3    3    0    0  0.41720732592E+02 -0.10518625519E+02 -0.15118173276E+03  0.15718516893E+03  0.00000000000E+00 0.  1.
         12    1    3    3    0    0 -0.21303086661E+02 -0.26876225228E+02 -0.28899062310E+02  0.44847617397E+02  0.00000000000E+00 0. -1.
        -13    1    5    5    0    0 -0.31876066242E+01 -0.45375776514E+02  0.11242691008E+03  0.12128038605E+03  0.00000000000E+00 0.  1.
         14    1    5    5    0    0 -0.63687720971E+02 -0.12479773818E+02  0.56844883741E+02  0.86274048036E+02  0.00000000000E+00 0. -1.
          5    1    4    4  501    0 -0.97597797826E+02  0.53815560524E+02  0.26328012991E+03  0.28593698869E+03  0.47000000000E+01 0. -1.
         -5    1    4    4    0  501  0.37985717057E+02  0.41199018013E+02  0.14674214313E+03  0.15714840233E+03  0.47000000000E+01 0. -1.
          1    1    1    2  502    0  0.56114296438E+02 -0.21023466471E+02  0.13727166709E+04  0.13740239660E+04  0.00000000000E+00 0. -1.
          1    1    1    2  503    0  0.49955465995E+02  0.21259289014E+02 -0.12487543105E+03  0.13616673320E+03  0.00000000000E+00 0. -1.
<mgrwt>
<rscale>  0 0.57091449E+02</rscale>
<asrwt>0</asrwt>
<pdfrwt beam="1">  1        2 0.29484689E+00 0.60036420E+02</pdfrwt>
<pdfrwt beam="2">  1        2 0.52633001E-01 0.54290938E+02</pdfrwt>
<totfact> 0.14120993E+02</totfact>
</mgrwt>
</event>
<event>
13    1  0.1589573E-008  0.1464959E+03  0.7546771E-02  0.1265145E+00
          2   -1    0    0  503    0  0.00000000000E+00  0.00000000000E+00  0.26476805329E+04  0.26476805329E+04  0.00000000000E+00 0. -1.
          2   -1    0    0  502    0 -0.00000000000E+00 -0.00000000000E+00 -0.37175000697E+04  0.37175000697E+04  0.00000000000E+00 0. -1.
         24    2    1    2    0    0 -0.10079592618E+03 -0.27566767514E+02 -0.93453305220E+03  0.94387180723E+03  0.81377007997E+02 0.  0.
         25    2    1    2    0    0 -0.46488407276E+02  0.75420958722E+02  0.44935593276E+03  0.47475744796E+03  0.12499754821E+03 0.  0.
         24    2    1    2    0    0 -0.62590361164E+02 -0.69587304525E+02  0.29394854315E+03  0.31735773315E+03  0.74499922853E+02 0.  0.
        -11    1    5    5    0    0 -0.76404846138E+02 -0.38538067249E+02  0.21513517217E+03  0.23152975067E+03  0.00000000000E+00 0.  1.
         12    1    5    5    0    0  0.13814484974E+02 -0.31049237276E+02  0.78813370984E+02  0.85827982478E+02  0.00000000000E+00 0. -1.
        -13    1    3    3    0    0 -0.57022436020E+01 -0.13470340887E+02 -0.43077050524E+03  0.43101878596E+03  0.00000000000E+00 0.  1.
         14    1    3    3    0    0 -0.95093682576E+02 -0.14096426627E+02 -0.50376254696E+03  0.51285302127E+03  0.00000000000E+00 0. -1.
          5    1    4    4  501    0 -0.74516491376E+02  0.92812959205E+02  0.33010191779E+03  0.35093634610E+03  0.47000000000E+01 0.  1.
         -5    1    4    4    0  501  0.28028084100E+02 -0.17392000483E+02  0.11925401497E+03  0.12382110186E+03  0.47000000000E+01 0.  1.
          1    1    1    2  502    0  0.24293775705E+03 -0.49994167174E+02 -0.27474718587E+04  0.27586445558E+04  0.00000000000E+00 0. -1.
          1    1    1    2  503    0 -0.33063062436E+02  0.71727280491E+02  0.18688808982E+04  0.18705490586E+04  0.00000000000E+00 0. -1.
<mgrwt>
<rscale>  0 0.10756565E+03</rscale>
<asrwt>0</asrwt>
<pdfrwt beam="1">  1        2 0.38936479E+00 0.78980813E+02</pdfrwt>
<pdfrwt beam="2">  1        2 0.54669118E+00 0.14649595E+03</pdfrwt>
<totfact> 0.74203544E-01</totfact>
</mgrwt>
</event>
<event>
13    1  0.1589573E-008  0.4222536E+03  0.7546771E-02  0.1180353E+00
          2   -1    0    0  502    0  0.00000000000E+00  0.00000000000E+00  0.25566746993E+04  0.25566746993E+04  0.00000000000E+00 0. -1.
          2   -1    0    0  503    0 -0.00000000000E+00 -0.00000000000E+00 -0.29104197192E+04  0.29104197192E+04  0.00000000000E+00 0. -1.
         24    2    1    2    0    0  0.12181692355E+02 -0.44848844695E+02 -0.84629216374E+03  0.85145312560E+03  0.81253837959E+02 0.  0.
         25    2    1    2    0    0 -0.63679428137E+03 -0.19888154076E+03  0.86065015386E+03  0.10960801521E+04  0.12494874353E+03 0.  0.
         24    2    1    2    0    0  0.29308302676E+03 -0.78897511795E+02  0.59230958399E+03  0.67039931097E+03  0.80511582524E+02 0.  0.
        -11    1    3    3    0    0 -0.23626931804E+02 -0.50355387241E+02 -0.58940253899E+03  0.59202132555E+03  0.00000000000E+00 0.  1.
         12    1    3    3    0    0  0.35808624159E+02  0.55065425468E+01 -0.25688962475E+03  0.25943180005E+03  0.00000000000E+00 0. -1.
        -13    1    5    5    0    0  0.92332872542E+02 -0.35851175282E+02  0.12141324242E+03  0.15669027269E+03  0.00000000000E+00 0.  1.
         14    1    5    5    0    0  0.20075015422E+03 -0.43046336512E+02  0.47089634157E+03  0.51370903828E+03  0.00000000000E+00 0. -1.
          5    1    4    4  501    0 -0.64520968681E+02 -0.15435273378E+01  0.14466949256E+03  0.15848245945E+03  0.47000000000E+01 0. -1.
         -5    1    4    4    0  501 -0.57227331269E+03 -0.19733801343E+03  0.71598066130E+03  0.93759769268E+03  0.47000000000E+01 0. -1.
          1    1    1    2  502    0  0.29219667316E+03  0.37629685406E+03  0.88364947080E+03  0.10038996989E+04  0.00000000000E+00 0. -1.
          1    1    1    2  503    0  0.39332889094E+02 -0.53668956805E+02 -0.18440620648E+04  0.18452621309E+04  0.00000000000E+00 0. -1.
<mgrwt>
<rscale>  0 0.16761955E+03</rscale>
<asrwt>0</asrwt>
<pdfrwt beam="1">  1        2 0.37598157E+00 0.42225360E+03</pdfrwt>
<pdfrwt beam="2">  1        2 0.42800290E+00 0.66538959E+02</pdfrwt>
<totfact> 0.21988263E+00</totfact>
</mgrwt>
</event>
<event>
13    1  0.1589573E-008  0.4093319E+02  0.7546771E-02  0.1577514E+00
          2   -1    0    0  502    0  0.00000000000E+00  0.00000000000E+00  0.23614666262E+04  0.23614666262E+04  0.00000000000E+00 0. -1.
          2   -1    0    0  503    0 -0.00000000000E+00 -0.00000000000E+00 -0.28305671358E+04  0.28305671358E+04  0.00000000000E+00 0. -1.
         24    2    1    2    0    0 -0.28977520876E+03 -0.72787930399E+03 -0.39405687604E+03  0.88054196271E+03  0.79343391406E+02 0.  0.
         25    2    1    2    0    0  0.31588820470E+03  0.77006587501E+03 -0.10772857025E+03  0.84853818122E+03  0.12499916166E+03 0.  0.
         24    2    1    2    0    0 -0.43891903461E+02  0.20043142259E+02  0.30428107336E+03  0.31258836820E+03  0.52879954484E+02 0.  0.
        -11    1    5    5    0    0 -0.12211889589E+01  0.27256999526E+02  0.92949654377E+02  0.96871428060E+02  0.00000000000E+00 0.  1.
         12    1    5    5    0    0 -0.42670714502E+02 -0.72138572670E+01  0.21133141899E+03  0.21571694014E+03  0.00000000000E+00 0. -1.
        -11    1    3    3    0    0 -0.20407402935E+03 -0.51233068877E+03 -0.31711419314E+03  0.63615277694E+03  0.00000000000E+00 0.  1.
         12    1    3    3    0    0 -0.85701179402E+02 -0.21554861521E+03 -0.76942682904E+02  0.24438918578E+03  0.00000000000E+00 0. -1.
          5    1    4    4  501    0  0.11736821029E+03  0.42577613809E+03 -0.89568781847E+02  0.45067202402E+03  0.47000000000E+01 0. -1.
         -5    1    4    4    0  501  0.19851999441E+03  0.34428973692E+03 -0.18159788402E+02  0.39786615720E+03  0.47000000000E+01 0. -1.
          1    1    1    2  502    0  0.96774264397E+00 -0.24914722579E+02  0.14390317999E+04  0.14392477900E+04  0.00000000000E+00 0. -1.
          1    1    1    2  503    0  0.16811164876E+02 -0.37314990703E+02 -0.17106279366E+04  0.17111174598E+04  0.00000000000E+00 0. -1.
<mgrwt>
<rscale>  0 0.31946957E+02</rscale>
<asrwt>0</asrwt>
<pdfrwt beam="1">  1        2 0.34727451E+00 0.24933510E+02</pdfrwt>
<pdfrwt beam="2">  1        2 0.41625987E+00 0.40933188E+02</pdfrwt>
<totfact> 0.46834670E+00</totfact>
</mgrwt>
</event>
<event>
13    1  0.1589573E-008  0.1563672E+03  0.7546771E-02  0.1321466E+00
          4   -1    0    0  503    0 -0.00000000000E+00  0.00000000000E+00  0.71467808284E+03  0.71467808284E+03  0.00000000000E+00 0. -1.
          2   -1    0    0  502    0  0.00000000000E+00 -0.00000000000E+00 -0.17888802944E+04  0.17888802944E+04  0.00000000000E+00 0. -1.
         24    2    1    2    0    0  0.13176039090E+02 -0.36046883845E+02  0.46595654243E+03  0.47439468497E+03  0.80385520188E+02 0.  0.
         25    2    1    2    0    0  0.25598720160E+02 -0.15115403843E+03 -0.79416303506E+03  0.81842712608E+03  0.12500078658E+03 0.  0.
         24    2    1    2    0    0  0.10060562453E+03  0.10039850192E+03 -0.12470902248E+03  0.20636147446E+03  0.82652083930E+02 0.  0.
        -11    1    3    3    0    0  0.37061178744E+02 -0.41531287329E+02  0.40317907340E+03  0.40700337103E+03  0.00000000000E+00 0.  1.
         12    1    3    3    0    0 -0.23885139655E+02  0.54844034846E+01  0.62777469029E+02  0.67391313947E+02  0.00000000000E+00 0. -1.
        -13    1    5    5    0    0  0.20056424715E+01  0.43123452686E+02 -0.63946311115E+02  0.77154296565E+02  0.00000000000E+00 0.  1.
         14    1    5    5    0    0  0.98599982060E+02  0.57275049237E+02 -0.60762711367E+02  0.12920717790E+03  0.00000000000E+00 0. -1.
          5    1    4    4  501    0  0.24880680721E+02 -0.97498847614E+02 -0.22260101120E+03  0.24433250653E+03  0.47000000000E+01 0. -1.
         -5    1    4    4    0  501  0.71803943867E+00 -0.53655190811E+02 -0.57156202385E+03  0.57409461955E+03  0.47000000000E+01 0. -1.
          1    1    1    2  502    0 -0.18297026138E+03  0.82782345851E+02 -0.79771060702E+03  0.82260151099E+03  0.00000000000E+00 0. -1.
          3    1    1    2  503    0  0.43589877598E+02  0.40200744960E+01  0.17642391057E+03  0.18177358072E+03  0.00000000000E+00 0. -1.
<mgrwt>
<rscale>  0 0.82734239E+02</rscale>
<asrwt>0</asrwt>
<pdfrwt beam="2">  1        2 0.26307063E+00 0.15636724E+03</pdfrwt>
<pdfrwt beam="1">  1        4 0.10509972E+00 0.43774861E+02</pdfrwt>
<totfact> 0.41641185E+00</totfact>
</mgrwt>
</event>
<event>
13    1  0.1589573E-008  0.1574131E+03  0.7546771E-02  0.1241352E+00
          2   -1    0    0  503    0  0.00000000000E+00  0.00000000000E+00  0.20313499179E+04  0.20313499179E+04  0.00000000000E+00 0. -1.
          2   -1    0    0  502    0 -0.00000000000E+00 -0.00000000000E+00 -0.47534643132E+03  0.47534643132E+03  0.00000000000E+00 0. -1.
         24    2    1    2    0    0  0.20239088925E+03 -0.48543433296E+02 -0.44458643261E+02  0.22652462591E+03  0.77577691501E+02 0.  0.
         25    2    1    2    0    0 -0.28955856118E+03  0.25795382614E+02  0.17190640019E+03  0.36012154032E+03  0.12500460494E+03 0.  0.
         24    2    1    2    0    0  0.12188909505E+03 -0.10004847328E+03 -0.10983962745E+02  0.17728395206E+03  0.80263962792E+02 0.  0.
        -11    1    5    5    0    0  0.10279054205E+03 -0.11370975671E+03 -0.68126290625E+01  0.15343472951E+03  0.00000000000E+00 0.  1.
         12    1    5    5    0    0  0.19098552999E+02  0.13661283427E+02 -0.41713336822E+01  0.23849222550E+02  0.00000000000E+00 0. -1.
        -13    1    3    3    0    0  0.15625423221E+02 -0.22031350575E+02 -0.25141581068E+02  0.36900316497E+02  0.00000000000E+00 0.  1.
         14    1    3    3    0    0  0.18676546603E+03 -0.26512082721E+02 -0.19317062193E+02  0.18962430942E+03  0.00000000000E+00 0. -1.
          5    1    4    4  501    0 -0.13792833751E+03  0.12234001952E+02  0.11657539353E+02  0.13903915030E+03  0.47000000000E+01 0.  1.
         -5    1    4    4    0  501 -0.15163022368E+03  0.13561380662E+02  0.16024886084E+03  0.22108239002E+03  0.47000000000E+01 0.  1.
          1    1    1    2  502    0  0.89631749024E+02  0.25205603369E+02 -0.13297215878E+03  0.16232919603E+03  0.00000000000E+00 0. -1.
          1    1    1    2  503    0 -0.12435317213E+03  0.97590920593E+02  0.15725118511E+04  0.15804370349E+04  0.00000000000E+00 0. -1.
<mgrwt>
<rscale>  0 0.12106397E+03</rscale>
<asrwt>0</asrwt>
<pdfrwt beam="1">  1        2 0.29872793E+00 0.15741314E+03</pdfrwt>
<pdfrwt beam="2">  1        2 0.69903888E-01 0.93108393E+02</pdfrwt>
<totfact> 0.92039951E+01</totfact>
</mgrwt>
</event>
<event>
13    1  0.1589573E-008  0.1138357E+03  0.7546771E-02  0.1441446E+00
          2   -1    0    0  502    0  0.00000000000E+00  0.00000000000E+00  0.34528016323E+04  0.34528016323E+04  0.00000000000E+00 0. -1.
          2   -1    0    0  503    0 -0.00000000000E+00 -0.00000000000E+00 -0.17307106196E+04  0.17307106196E+04  0.00000000000E+00 0. -1.
         24    2    1    2    0    0  0.14324731857E+02 -0.16002405380E+02 -0.14397919006E+03  0.16647287277E+03  0.80758499721E+02 0.  0.
         25    2    1    2    0    0  0.27009134756E+01 -0.14742525795E+03  0.24269732405E+04  0.24346590726E+04  0.12499675295E+03 0.  0.
         24    2    1    2    0    0 -0.32698846962E+02  0.15615333258E+02  0.73021180994E+03  0.73544931554E+03  0.79770640705E+02 0.  0.
        -11    1    5    5    0    0 -0.45626296534E+02  0.20513696938E+02  0.70435174204E+03  0.70612601369E+03  0.00000000000E+00 0.  1.
         12    1    5    5    0    0  0.12927449572E+02 -0.48983636807E+01  0.25860067906E+02  0.29323301849E+02  0.00000000000E+00 0. -1.
        -11    1    3    3    0    0  0.27217094100E+02 -0.44569919144E+02 -0.89665891340E+02  0.10376521562E+03  0.00000000000E+00 0.  1.
         12    1    3    3    0    0 -0.12892362243E+02  0.28567513764E+02 -0.54313298718E+02  0.62707657144E+02  0.00000000000E+00 0. -1.
          5    1    4    4  501    0  0.46709459887E+02 -0.97316178908E+02  0.94103921306E+03  0.94722178123E+03  0.47000000000E+01 0.  1.
         -5    1    4    4    0  501 -0.44008546412E+02 -0.50109079037E+02  0.14859340274E+04  0.14874372914E+04  0.47000000000E+01 0.  1.
          1    1    1    2  502    0 -0.15467192342E+02 -0.16487584006E+02  0.27298383068E+03  0.27391832045E+03  0.00000000000E+00 0. -1.
          1    1    1    2  503    0  0.31140393971E+02  0.16429991407E+03 -0.15640986784E+04  0.15730126705E+04  0.00000000000E+00 0. -1.
<mgrwt>
<rscale>  0 0.50729466E+02</rscale>
<asrwt>0</asrwt>
<pdfrwt beam="1">  1        2 0.50776495E+00 0.22606956E+02</pdfrwt>
<pdfrwt beam="2">  1        2 0.25451627E+00 0.11383570E+03</pdfrwt>
<totfact> 0.41358877E+00</totfact>
</mgrwt>
</event>
<event>
13    1  0.1589573E-008  0.1928108E+03  0.7546771E-02  0.1176609E+00
          2   -1    0    0  502    0  0.00000000000E+00  0.00000000000E+00  0.40781742249E+03  0.40781742249E+03  0.00000000000E+00 0. -1.
          2   -1    0    0  503    0 -0.00000000000E+00 -0.00000000000E+00 -0.25660005504E+04  0.25660005504E+04  0.00000000000E+00 0. -1.
         24    2    1    2    0    0 -0.16352232596E+03  0.32558659895E+01 -0.83845901433E+03  0.85801312016E+03  0.80142647179E+02 0.  0.
         25    2    1    2    0    0 -0.70921306247E+02  0.12401024800E+02 -0.55276020346E+03  0.57127296817E+03  0.12500137814E+03 0.  0.
         24    2    1    2    0    0  0.64222652731E+02 -0.91936963017E+02  0.15635592016E+02  0.14610181395E+03  0.92327211641E+02 0.  0.
        -13    1    5    5    0    0 -0.98972200276E+01  0.12012133719E+02  0.96088747206E+01  0.18291440462E+02  0.00000000000E+00 0.  1.
         14    1    5    5    0    0  0.74119872758E+02 -0.10394909674E+03  0.60267172955E+01  0.12781037349E+03  0.00000000000E+00 0. -1.
        -13    1    3    3    0    0 -0.44095430037E+01  0.49106383361E+01 -0.19707757879E+03  0.19718805872E+03  0.00000000000E+00 0.  1.
         14    1    3    3    0    0 -0.15911278295E+03 -0.16547723465E+01 -0.64138143554E+03  0.66082506144E+03  0.00000000000E+00 0. -1.
          5    1    4    4  501    0 -0.56229890996E+02  0.23624010517E+02 -0.94219497161E+02  0.11233564955E+03  0.47000000000E+01 0. -1.
         -5    1    4    4    0  501 -0.14691415251E+02 -0.11222985717E+02 -0.45854070630E+03  0.45893731862E+03  0.47000000000E+01 0. -1.
          1    1    1    2  502    0  0.14736582736E+03 -0.75371100489E+02  0.27975949338E+03  0.32505824709E+03  0.00000000000E+00 0. -1.
          1    1    1    2  503    0  0.22855152114E+02  0.15165117272E+03 -0.10623589955E+04  0.10733718235E+04  0.00000000000E+00 0. -1.
<mgrwt>
<rscale>  0 0.17119322E+03</rscale>
<asrwt>0</asrwt>
<pdfrwt beam="1">  1        2 0.59973152E-01 0.19281075E+03</pdfrwt>
<pdfrwt beam="2">  1        2 0.37735301E+00 0.15199939E+03</pdfrwt>
<totfact> 0.58627820E+01</totfact>
</mgrwt>
</event>
<event>
13    1  0.1589573E-008  0.2317369E+03  0.7546771E-02  0.1282598E+00
          2   -1    0    0  502    0  0.00000000000E+00  0.00000000000E+00  0.12697796030E+04  0.12697796030E+04  0.00000000000E+00 0. -1.
          2   -1    0    0  503    0 -0.00000000000E+00 -0.00000000000E+00 -0.50953548069E+03  0.50953548069E+03  0.00000000000E+00 0. -1.
         24    2    1    2    0    0  0.97378189216E+02  0.12260493168E+03 -0.26548099978E+03  0.31898868787E+03  0.82213993563E+02 0.  0.
         25    2    1    2    0    0  0.17036477438E+03 -0.11004354931E+03  0.14142267355E+03  0.27703173202E+03  0.12494986539E+03 0.  0.
         24    2    1    2    0    0 -0.13212250171E+03  0.20099181334E+03  0.13830085302E+03  0.28891956999E+03  0.80581185699E+02 0.  0.
        -11    1    5    5    0    0 -0.64247570498E+02  0.16422258782E+03  0.10043019315E+03  0.20293603022E+03  0.00000000000E+00 0.  1.
         12    1    5    5    0    0 -0.67874931208E+02  0.36769225520E+02  0.37870659868E+02  0.85983539766E+02  0.00000000000E+00 0. -1.
        -13    1    3    3    0    0 -0.11639795295E+02  0.19558207316E+01 -0.34874455030E+02  0.36817627339E+02  0.00000000000E+00 0.  1.
         14    1    3    3    0    0  0.10901798451E+03  0.12064911095E+03 -0.23060654475E+03  0.28217106054E+03  0.00000000000E+00 0. -1.
          5    1    4    4  501    0  0.14893790764E+03 -0.52599428192E+02  0.47932917996E+02  0.16513283988E+03  0.47000000000E+01 0.  1.
         -5    1    4    4    0  501  0.21426866734E+02 -0.57444121116E+02  0.93489755557E+02  0.11189889214E+03  0.47000000000E+01 0.  1.
          1    1    1    2  502    0 -0.16761702928E+03 -0.18600847176E+03  0.79276837442E+03  0.83137014352E+03  0.00000000000E+00 0. -1.
          1    1    1    2  503    0  0.31996567394E+02 -0.27544723958E+02 -0.46766778933E+02  0.63004950240E+02  0.00000000000E+00 0. -1.
<mgrwt>
<rscale>  0 0.98913261E+02</rscale>
<asrwt>0</asrwt>
<pdfrwt beam="1">  1        2 0.18673229E+00 0.23173692E+03</pdfrwt>
<pdfrwt beam="2">  1        2 0.74931689E-01 0.42219571E+02</pdfrwt>
<totfact> 0.20290004E+02</totfact>
</mgrwt>
</event>
<event>
13    1  0.1589573E-008  0.1613746E+03  0.7546771E-02  0.1379741E+00
          2   -1    0    0  503    0  0.00000000000E+00  0.00000000000E+00  0.25843749941E+04  0.25843749941E+04  0.00000000000E+00 0. -1.
          2   -1    0    0  502    0 -0.00000000000E+00 -0.00000000000E+00 -0.26990575838E+04  0.26990575838E+04  0.00000000000E+00 0. -1.
         24    2    1    2    0    0 -0.50387761363E+03  0.36400276052E+03 -0.97794348157E+03  0.11624583601E+04  0.92440935456E+02 0.  0.
         25    2    1    2    0    0  0.13941542385E+04 -0.22833709386E+03 -0.22192479870E+03  0.14355054437E+04  0.12498557264E+03 0.  0.
         24    2    1    2    0    0 -0.87378788762E+03 -0.27069610307E+03  0.15528745085E+04  0.18040845763E+04  0.80748167950E+02 0.  0.
        -13    1    5    5    0    0 -0.87592382752E+02 -0.48674082901E+02  0.19957744200E+03  0.22332207060E+03  0.00000000000E+00 0.  1.
         14    1    5    5    0    0 -0.78619550486E+03 -0.22202202017E+03  0.13532970665E+04  0.15807625057E+04  0.00000000000E+00 0. -1.
        -13    1    3    3    0    0 -0.21744899335E+03  0.14792718400E+03 -0.49859934330E+03  0.56370898663E+03  0.00000000000E+00 0.  1.
         14    1    3    3    0    0 -0.28642862028E+03  0.21607557652E+03 -0.47934413827E+03  0.59874937343E+03  0.00000000000E+00 0. -1.
          5    1    4    4  501    0  0.13277346935E+03  0.12833127291E+02 -0.32478397885E+02  0.13736964603E+03  0.47000000000E+01 0. -1.
         -5    1    4    4    0  501  0.12613807691E+04 -0.24117022116E+03 -0.18944640082E+03  0.12981357976E+04  0.47000000000E+01 0. -1.
          1    1    1    2  502    0 -0.14913140131E+02  0.16078781723E+03 -0.66401595886E+03  0.68336836153E+03  0.00000000000E+00 0. -1.
          1    1    1    2  503    0 -0.15755971218E+01 -0.25757380821E+02  0.19632714092E+03  0.19801583632E+03  0.00000000000E+00 0. -1.
<mgrwt>
<rscale>  0 0.64531819E+02</rscale>
<asrwt>0</asrwt>
<pdfrwt beam="1">  1        2 0.38005515E+00 0.25805526E+02</pdfrwt>
<pdfrwt beam="2">  1        2 0.39692023E+00 0.16137457E+03</pdfrwt>
<totfact> 0.35046113E+00</totfact>
</mgrwt>
</event>
<event>
13    1  0.1589573E-008  0.1768106E+03  0.7546771E-02  0.1212728E+00
          2   -1    0    0  502    0  0.00000000000E+00  0.00000000000E+00  0.26094028317E+04  0.26094028317E+04  0.00000000000E+00 0. -1.
          4   -1    0    0  503    0 -0.00000000000E+00 -0.00000000000E+00 -0.18461666651E+04  0.18461666651E+04  0.00000000000E+00 0. -1.
         24    2    1    2    0    0  0.35949849695E+02  0.26339717699E+03 -0.12469910690E+04  0.12773339869E+04  0.76973524183E+02 0.  0.
         25    2    1    2    0    0  0.24450355948E+03  0.59760252994E+02  0.43956265574E+02  0.28444678658E+03  0.12499817068E+03 0.  0.
         24    2    1    2    0    0 -0.12579968636E+03 -0.56202856759E+03  0.43088142215E+03  0.72688378332E+03  0.10487879975E+03 0.  0.
        -11    1    5    5    0    0 -0.92172222767E+02 -0.18313559427E+03  0.15005483884E+03  0.25406853248E+03  0.00000000000E+00 0.  1.
         12    1    5    5    0    0 -0.33627463597E+02 -0.37889297332E+03  0.28082658331E+03  0.47281525085E+03  0.00000000000E+00 0. -1.
        -13    1    3    3    0    0 -0.20925378915E+02  0.12984087631E+03 -0.57740445436E+03  0.59219289810E+03  0.00000000000E+00 0.  1.
         14    1    3    3    0    0  0.56875228610E+02  0.13355630069E+03 -0.66958661461E+03  0.68514108879E+03  0.00000000000E+00 0. -1.
          5    1    4    4  501    0  0.28069179389E+01  0.29507929072E+02  0.26765848130E+02  0.40213148254E+02  0.47000000000E+01 0. -1.
         -5    1    4    4    0  501  0.24169664154E+03  0.30252323922E+02  0.17190417444E+02  0.24423363832E+03  0.47000000000E+01 0. -1.
          1    1    1    2  502    0 -0.66787351716E+02  0.89362562710E+02  0.18255047995E+04  0.18289106022E+04  0.00000000000E+00 0. -1.
          3    1    1    2  503    0 -0.87866371097E+02  0.14950857489E+03 -0.29011525166E+03  0.33799433780E+03  0.00000000000E+00 0. -1.
<mgrwt>
<rscale>  0 0.14044734E+03</rscale>
<asrwt>0</asrwt>
<pdfrwt beam="1">  1        2 0.38373571E+00 0.11156262E+03</pdfrwt>
<pdfrwt beam="2">  1        4 0.27149510E+00 0.17681061E+03</pdfrwt>
<totfact> 0.13029592E-01</totfact>
</mgrwt>
</event>
<event>
13    1  0.1589573E-008  0.6235477E+02  0.7546771E-02  0.1451520E+00
          2   -1    0    0  502    0  0.00000000000E+00  0.00000000000E+00  0.14093011049E+04  0.14093011049E+04  0.00000000000E+00 0. -1.
          2   -1    0    0  503    0 -0.00000000000E+00 -0.00000000000E+00 -0.22701161303E+03  0.22701161303E+03  0.00000000000E+00 0. -1.
         24    2    1    2    0    0  0.30256354915E+02 -0.11730203790E+03 -0.18600114260E+02  0.14486586447E+03  0.77233019678E+02 0.  0.
         25    2    1    2    0    0  0.12995064025E+02  0.16857180342E+01 -0.93045210304E+02  0.15637317445E+03  0.12499378062E+03 0.  0.
         24    2    1    2    0    0  0.14529362342E+02  0.11972024572E+03  0.75152301174E+03  0.76534052884E+03  0.80095245158E+02 0.  0.
        -11    1    3    3    0    0  0.50280708859E+02 -0.74926549409E+02  0.86563382490E+01  0.90648053931E+02  0.00000000000E+00 0.  1.
         12    1    3    3    0    0 -0.20024353944E+02 -0.42375488493E+02 -0.27256452509E+02  0.54217810536E+02  0.00000000000E+00 0. -1.
        -11    1    5    5    0    0  0.21416630350E+02  0.19586391030E+02  0.60898313749E+02  0.67460383831E+02  0.00000000000E+00 0.  1.
         12    1    5    5    0    0 -0.68872680076E+01  0.10013385469E+03  0.69062469799E+03  0.69788014501E+03  0.00000000000E+00 0. -1.
          5    1    4    4  501    0  0.55132133758E+02  0.29641183571E+02 -0.17181933896E+02  0.65080417858E+02  0.47000000000E+01 0. -1.
         -5    1    4    4    0  501 -0.42137069732E+02 -0.27955465537E+02 -0.75863276408E+02  0.91292756593E+02  0.47000000000E+01 0. -1.
          1    1    1    2  502    0 -0.52537984965E+02  0.33840818913E+02  0.52312840040E+03  0.52684795169E+03  0.00000000000E+00 0. -1.
          1    1    1    2  503    0 -0.52427963175E+01 -0.37944744769E+02  0.19283404284E+02  0.42885198491E+02  0.00000000000E+00 0. -1.
<mgrwt>
<rscale>  0 0.48872425E+02</rscale>
<asrwt>0</asrwt>
<pdfrwt beam="1">  1        2 0.20725016E+00 0.62354775E+02</pdfrwt>
<pdfrwt beam="2">  1        2 0.33384061E-01 0.38305229E+02</pdfrwt>
<totfact> 0.42739284E+02</totfact>
</mgrwt>
</event>
<event>
13    1  0.1589573E-008  0.7816570E+02  0.7546771E-02  0.1359583E+00
          2   -1    0    0  502    0  0.00000000000E+00  0.00000000000E+00  0.65744677867E+03  0.65744677867E+03  0.00000000000E+00 0. -1.
          2   -1    0    0  503    0 -0.00000000000E+00 -0.00000000000E+00 -0.21170409177E+04  0.21170409177E+04  0.00000000000E+00 0. -1.
         24    2    1    2    0    0 -0.58689710741E+01  0.26462557081E+01 -0.73580053157E+03  0.73902555186E+03  0.68665104306E+02 0.  0.
         25    2    1    2    0    0 -0.13953896285E+03 -0.19491577163E+02 -0.19266060116E+03  0.26943126787E+03  0.12499622848E+03 0.  0.
         24    2    1    2    0    0  0.40312564370E+02 -0.87793680483E+02 -0.44570256931E+03  0.46303250194E+03  0.80096718933E+02 0.  0.
        -11    1    3    3    0    0 -0.20486926881E+02  0.27501448258E+02 -0.24623679556E+03  0.24861336110E+03  0.00000000000E+00 0.  1.
         12    1    3    3    0    0  0.14617955807E+02 -0.24855192550E+02 -0.48956373601E+03  0.49041219076E+03  0.00000000000E+00 0. -1.
        -13    1    5    5    0    0 -0.15076923359E+02  0.44176981473E+01 -0.33112181939E+02  0.36650324250E+02  0.00000000000E+00 0.  1.
         14    1    5    5    0    0  0.55389487730E+02 -0.92211378630E+02 -0.41259038737E+03  0.42638217769E+03  0.00000000000E+00 0. -1.
          5    1    4    4  501    0 -0.51746522487E+02 -0.32414376118E+02 -0.45770725038E+01  0.61412001770E+02  0.47000000000E+01 0. -1.
         -5    1    4    4    0  501 -0.87792440362E+02  0.12922798955E+02 -0.18808352865E+03  0.20801926610E+03  0.47000000000E+01 0. -1.
          1    1    1    2  502    0  0.46439266994E+02  0.42508059473E+02  0.60451388382E+03  0.60778333012E+03  0.00000000000E+00 0. -1.
          1    1    1    2  503    0  0.58656102559E+02  0.62130942464E+02 -0.68994432087E+03  0.69521504463E+03  0.00000000000E+00 0. -1.
<mgrwt>
<rscale>  0 0.70150203E+02</rscale>
<asrwt>0</asrwt>
<pdfrwt beam="1">  1        2 0.96683351E-01 0.62956657E+02</pdfrwt>
<pdfrwt beam="2">  1        2 0.31132954E+00 0.78165698E+02</pdfrwt>
<totfact> 0.63770563E+01</totfact>
</mgrwt>
</event>
<event>
13    1  0.1589573E-008  0.6236492E+02  0.7546771E-02  0.1475844E+00
          2   -1    0    0  502    0  0.00000000000E+00  0.00000000000E+00  0.13830260947E+04  0.13830260947E+04  0.00000000000E+00 0. -1.
          2   -1    0    0  503    0 -0.00000000000E+00 -0.00000000000E+00 -0.72996922124E+03  0.72996922124E+03  0.00000000000E+00 0. -1.
         24    2    1    2    0    0  0.18525777314E+02  0.20507417833E+02  0.34085397256E+03  0.35089393513E+03  0.78621654077E+02 0.  0.
         25    2    1    2    0    0  0.80115180141E+02 -0.86339981110E+02 -0.43574696116E+02  0.17719338758E+03  0.12500283210E+03 0.  0.
         24    2    1    2    0    0 -0.24183834527E+02  0.99232767150E+01  0.10229585424E+03  0.13267411831E+03  0.80340840193E+02 0.  0.
        -11    1    3    3    0    0 -0.13540183596E+02 -0.22201907450E+02  0.66776062726E+02  0.71661034178E+02  0.00000000000E+00 0.  1.
         12    1    3    3    0    0  0.32065960911E+02  0.42709325283E+02  0.27407790984E+03  0.27923290095E+03  0.00000000000E+00 0. -1.
        -13    1    5    5    0    0  0.56118109571E+01  0.35469569362E+02  0.19074564172E+02  0.40662289302E+02  0.00000000000E+00 0.  1.
         14    1    5    5    0    0 -0.29795645484E+02 -0.25546292647E+02  0.83221290067E+02  0.92011829013E+02  0.00000000000E+00 0. -1.
          5    1    4    4  501    0  0.83991811066E+02 -0.41646745403E+01 -0.43492061461E+02  0.94792501024E+02  0.47000000000E+01 0. -1.
         -5    1    4    4    0  501 -0.38766309247E+01 -0.82175306570E+02 -0.82634654640E-01  0.82400886559E+02  0.47000000000E+01 0. -1.
          1    1    1    2  502    0 -0.53470721455E+02  0.31586747801E+02  0.85129540534E+03  0.85355767693E+03  0.00000000000E+00 0. -1.
          1    1    1    2  503    0 -0.20986401474E+02  0.24322538761E+02 -0.59781366254E+03  0.59867619800E+03  0.00000000000E+00 0. -1.
<mgrwt>
<rscale>  0 0.44760166E+02</rscale>
<asrwt>0</asrwt>
<pdfrwt beam="1">  1        2 0.20338619E+00 0.62364922E+02</pdfrwt>
<pdfrwt beam="2">  1        2 0.10734842E+00 0.32124989E+02</pdfrwt>
<totfact> 0.13252257E+02</totfact>
</mgrwt>
</event>
<event>
13    1  0.1589573E-008  0.4948515E+02  0.7546771E-02  0.1506605E+00
          2   -1    0    0  503    0  0.00000000000E+00  0.00000000000E+00  0.23003302484E+04  0.23003302484E+04  0.00000000000E+00 0. -1.
          2   -1    0    0  502    0 -0.00000000000E+00 -0.00000000000E+00 -0.32381206694E+04  0.32381206694E+04  0.00000000000E+00 0. -1.
         24    2    1    2    0    0  0.85363991075E+02 -0.13220577428E+03 -0.12595889917E+04  0.12717753374E+04  0.77991685752E+02 0.  0.
         25    2    1    2    0    0 -0.13277632951E+03  0.70168332356E+02  0.15249459059E+04  0.15374129480E+04  0.12500163317E+03 0.  0.
         24    2    1    2    0    0  0.59212420132E+02  0.13235232790E+03 -0.13851255569E+03  0.21635546684E+03  0.81244757048E+02 0.  0.
        -11    1    3    3    0    0  0.61266299973E+02 -0.11612663950E+03 -0.11760377639E+04  0.11833443193E+04  0.00000000000E+00 0.  1.
         12    1    3    3    0    0  0.24097691102E+02 -0.16079134779E+02 -0.83551227783E+02  0.88431018064E+02  0.00000000000E+00 0. -1.
        -11    1    5    5    0    0 -0.20147844947E+02  0.27520725512E+02 -0.21300569109E+02  0.40212438785E+02  0.00000000000E+00 0.  1.
         12    1    5    5    0    0  0.79360265079E+02  0.10483160238E+03 -0.11721198658E+03  0.17614302805E+03  0.00000000000E+00 0. -1.
          5    1    4    4  501    0 -0.32836941639E+02  0.55673692056E+01  0.93297812696E+03  0.93358424136E+03  0.47000000000E+01 0.  1.
         -5    1    4    4    0  501 -0.99939387869E+02  0.64600963151E+02  0.59196777894E+03  0.60382870666E+03  0.47000000000E+01 0.  1.
          1    1    1    2  502    0 -0.27076689877E+02 -0.41416088511E+02 -0.17880596386E+04  0.17887441714E+04  0.00000000000E+00 0. -1.
          1    1    1    2  503    0  0.15276608178E+02 -0.28898797457E+02  0.72342485916E+03  0.72416299415E+03  0.00000000000E+00 0. -1.
<mgrwt>
<rscale>  0 0.40219124E+02</rscale>
<asrwt>0</asrwt>
<pdfrwt beam="1">  1        2 0.33828386E+00 0.32688152E+02</pdfrwt>
<pdfrwt beam="2">  1        2 0.47619421E+00 0.49485146E+02</pdfrwt>
<totfact> 0.28598511E+00</totfact>
</mgrwt>
</event>
<event>
13    1  0.1589573E-008  0.1281227E+03  0.7546771E-02  0.1352953E+00
          2   -1    0    0  503    0  0.00000000000E+00  0.00000000000E+00  0.12202182765E+04  0.12202182765E+04  0.00000000000E+00 0. -1.
          2   -1    0    0  502    0 -0.00000000000E+00 -0.00000000000E+00 -0.12867722209E+04  0.12867722209E+04  0.00000000000E+00 0. -1.
         24    2    1    2    0    0 -0.16193295966E+03 -0.17200375443E+03 -0.14132901815E+03  0.28666296693E+03  0.79963680978E+02 0.  0.
         25    2    1    2    0    0 -0.10125879374E+03 -0.23074662024E+03  0.25806846920E+03  0.38173879469E+03  0.12501130555E+03 0.  0.
         24    2    1    2    0    0  0.78877290308E+02  0.21945489473E+03  0.31842285317E+03  0.40344731425E+03  0.83633391701E+02 0.  0.
        -13    1    5    5    0    0  0.14542155479E+01 -0.66874376992E+01  0.24949785376E+01  0.72843313862E+01  0.00000000000E+00 0.  1.
         14    1    5    5    0    0  0.77423074760E+02  0.22614233243E+03  0.31592787463E+03  0.39616298286E+03  0.00000000000E+00 0. -1.
        -13    1    3    3    0    0 -0.14279444465E+03 -0.98965518879E+02 -0.93730329383E+02  0.19740770500E+03  0.00000000000E+00 0.  1.
         14    1    3    3    0    0 -0.19138515016E+02 -0.73038235548E+02 -0.47598688766E+02  0.89255261925E+02  0.00000000000E+00 0. -1.
          5    1    4    4  501    0 -0.48634940372E+02 -0.17549153131E+02  0.14806530997E+02  0.53987531530E+02  0.47000000000E+01 0. -1.
         -5    1    4    4    0  501 -0.52623853373E+02 -0.21319746711E+03  0.24326193820E+03  0.32775126316E+03  0.47000000000E+01 0. -1.
          1    1    1    2  502    0  0.21481031352E+03  0.15645928586E+03 -0.94926026600E+03  0.98575759268E+03  0.00000000000E+00 0. -1.
          1    1    1    2  503    0 -0.30495850419E+02  0.26836194085E+02  0.44754401738E+03  0.44938382893E+03  0.00000000000E+00 0. -1.
<mgrwt>
<rscale>  0 0.72143253E+02</rscale>
<asrwt>0</asrwt>
<pdfrwt beam="1">  1        2 0.17944386E+00 0.40622386E+02</pdfrwt>
<pdfrwt beam="2">  1        2 0.18923121E+00 0.12812268E+03</pdfrwt>
<totfact> 0.74049410E+01</totfact>
</mgrwt>
</event>
<event>
13    1  0.1589573E-008  0.1981211E+03  0.7546771E-02  0.1313495E+00
          2   -1    0    0  503    0  0.00000000000E+00  0.00000000000E+00  0.17615319117E+04  0.17615319117E+04  0.00000000000E+00 0. -1.
         -1   -1    0    0    0  501 -0.00000000000E+00 -0.00000000000E+00 -0.89729148377E+03  0.89729148377E+03  0.00000000000E+00 0.  1.
         24    2    1    2    0    0  0.40472325567E+02 -0.22241966491E+02  0.69678467131E+02  0.11577096374E+03  0.80094400879E+02 0.  0.
         25    2    1    2    0    0  0.21558872523E+03  0.18378518564E+03  0.16164099608E+03  0.34929591399E+03  0.12499732401E+03 0.  0.
         24    2    1    2    0    0 -0.13728162121E+03  0.22227230484E+02  0.56514448474E+03  0.58740920636E+03  0.79504677769E+02 0.  0.
        -13    1    3    3    0    0  0.45596317932E+02  0.19977724914E+02  0.34346689509E+02  0.60479986623E+02  0.00000000000E+00 0.  1.
         14    1    3    3    0    0 -0.51239923651E+01 -0.42219691405E+02  0.35331777623E+02  0.55290977112E+02  0.00000000000E+00 0. -1.
        -13    1    5    5    0    0 -0.16450846189E+02 -0.13430640276E+02  0.25167624163E+02  0.32930559433E+02  0.00000000000E+00 0.  1.
         14    1    5    5    0    0 -0.12083077502E+03  0.35657870760E+02  0.53997686058E+03  0.55447864693E+03  0.00000000000E+00 0. -1.
          5    1    4    4  502    0  0.36982693831E+02  0.34688789340E+02 -0.19366779831E+02  0.54481133522E+02  0.47000000000E+01 0.  1.
         -5    1    4    4    0  502  0.17860603140E+03  0.14909639630E+03  0.18100777591E+03  0.29481478046E+03  0.47000000000E+01 0.  1.
          1    1    1    2  503    0 -0.82660322007E+02 -0.17525203998E+03  0.82538801228E+03  0.84782744539E+03  0.00000000000E+00 0. -1.
         -2    1    1    2    0  501 -0.36119107584E+02 -0.85184096531E+01 -0.75761153230E+03  0.75851986599E+03  0.00000000000E+00 0.  1.
<mgrwt>
<rscale>  0 0.85745418E+02</rscale>
<asrwt>0</asrwt>
<pdfrwt beam="1">  1        2 0.25904881E+00 0.19812109E+03</pdfrwt>
<pdfrwt beam="2">  1       -1 0.13195463E+00 0.37110015E+02</pdfrwt>
<totfact> 0.76440939E+00</totfact>
</mgrwt>
</event>
<event>
13    1  0.1589573E-008  0.3025051E+02  0.7546771E-02  0.1631554E+00
         -3   -1    0    0    0  502 -0.00000000000E+00  0.00000000000E+00  0.40015724924E+03  0.40015724924E+03  0.00000000000E+00 0.  1.
         -1   -1    0    0    0  501  0.00000000000E+00 -0.00000000000E+00 -0.21532859221E+04  0.21532859221E+04  0.00000000000E+00 0.  1.
         24    2    1    2    0    0 -0.56381557575E+02 -0.85114474544E+02  0.12480447565E+03  0.17998278356E+03  0.79964313450E+02 0.  0.
         25    2    1    2    0    0  0.79001844560E+02  0.58227605675E+02 -0.13676116098E+04  0.13768143250E+04  0.12499769886E+03 0.  0.
         24    2    1    2    0    0 -0.40003767561E+02 -0.33454883521E+01 -0.23124013346E+03  0.24822576340E+03  0.80824108919E+02 0.  0.
        -11    1    5    5    0    0  0.69361067937E+01 -0.31763476011E+02 -0.11791401838E+03  0.12231411904E+03  0.00000000000E+00 0.  1.
         12    1    5    5    0    0 -0.46939874355E+02  0.28417987659E+02 -0.11332611508E+03  0.12591164436E+03  0.00000000000E+00 0. -1.
        -13    1    3    3    0    0 -0.27998507484E+02 -0.73864978509E+02  0.12679320075E+03  0.14938697141E+03  0.00000000000E+00 0.  1.
         14    1    3    3    0    0 -0.28383050091E+02 -0.11249496035E+02 -0.19887251030E+01  0.30595812149E+02  0.00000000000E+00 0. -1.
          5    1    4    4  503    0  0.11229372606E+03  0.52065674555E+02 -0.10080597031E+04  0.10156412606E+04  0.47000000000E+01 0.  1.
         -5    1    4    4    0  503 -0.33291881502E+02  0.61619311194E+01 -0.35955190675E+03  0.36117306435E+03  0.47000000000E+01 0.  1.
         -2    1    1    2    0  501 -0.11581239242E+02  0.21496583211E+02 -0.51248389407E+03  0.51306526863E+03  0.00000000000E+00 0.  1.
         -4    1    1    2    0  502  0.28964719818E+02  0.87357740108E+01  0.23340248880E+03  0.23535503079E+03  0.00000000000E+00 0.  1.
<mgrwt>
<rscale>  0 0.27178123E+02</rscale>
<asrwt>0</asrwt>
<pdfrwt beam="2">  1       -1 0.31665969E+00 0.24417784E+02</pdfrwt>
<pdfrwt beam="1">  1       -3 0.58846654E-01 0.30250508E+02</pdfrwt>
<totfact> 0.50150377E-01</totfact>
</mgrwt>
</event>
<event>
13    1  0.1589573E-008  0.8776171E+02  0.7546771E-02  0.1363148E+00
          2   -1    0    0  502    0  0.00000000000E+00  0.00000000000E+00  0.15915355848E+04  0.15915355848E+04  0.00000000000E+00 0. -1.
          2   -1    0    0  503    0 -0.00000000000E+00 -0.00000000000E+00 -0.30976731906E+03  0.30976731906E+03  0.00000000000E+00 0. -1.
         24    2    1    2    0    0 -0.42864336193E+02 -0.57768680048E+02 -0.10082734254E+03  0.14838286428E+03  0.81711380453E+02 0.  0.
         25    2    1    2    0    0  0.94115500011E+02  0.11368814872E+02  0.12785892403E+04  0.12881777879E+04  0.12499836258E+03 0.  0.
         24    2    1    2    0    0 -0.38772456405E+02 -0.17434333920E+01 -0.29488130607E+02  0.94607617369E+02  0.81084576104E+02 0.  0.
        -11    1    3    3    0    0 -0.29777434946E+02  0.13428374871E+01 -0.78305003690E+02  0.83786469357E+02  0.00000000000E+00 0.  1.
         12    1    3    3    0    0 -0.13086901248E+02 -0.59111517535E+02 -0.22522338855E+02  0.64596394923E+02  0.00000000000E+00 0. -1.
        -13    1    5    5    0    0  0.10454012605E+02  0.28572037222E+02 -0.17220275876E+01  0.30473153259E+02  0.00000000000E+00 0.  1.
         14    1    5    5    0    0 -0.49226469011E+02 -0.30315470614E+02 -0.27766103019E+02  0.64134464110E+02  0.00000000000E+00 0. -1.
          5    1    4    4  501    0  0.10753165123E+03  0.10260392476E+02  0.61477855187E+03  0.62421397734E+03  0.47000000000E+01 0.  1.
         -5    1    4    4    0  501 -0.13416151223E+02  0.11084223953E+01  0.66381068841E+03  0.66396381058E+03  0.47000000000E+01 0.  1.
          1    1    1    2  502    0  0.53341117626E+02 -0.10788711255E+02  0.23171893023E+03  0.23802380920E+03  0.00000000000E+00 0. -1.
          1    1    1    2  503    0 -0.65819825038E+02  0.58932009823E+02 -0.98224431595E+02  0.13211082511E+03  0.00000000000E+00 0. -1.
<mgrwt>
<rscale>  0 0.69109340E+02</rscale>
<asrwt>0</asrwt>
<pdfrwt beam="1">  1        2 0.23404935E+00 0.54421238E+02</pdfrwt>
<pdfrwt beam="2">  1        2 0.45554018E-01 0.87761711E+02</pdfrwt>
<totfact> 0.25979766E+02</totfact>
</mgrwt>
</event>
<event>
13    1  0.1589573E-008  0.1545316E+03  0.7546771E-02  0.1229724E+00
          2   -1    0    0  503    0  0.00000000000E+00  0.00000000000E+00  0.96866665025E+03  0.96866665025E+03  0.00000000000E+00 0. -1.
          2   -1    0    0  502    0 -0.00000000000E+00 -0.00000000000E+00 -0.18805199148E+04  0.18805199148E+04  0.00000000000E+00 0. -1.
         24    2    1    2    0    0  0.14994240533E+03 -0.10296551120E+03 -0.63036903096E+03  0.66103026794E+03  0.80692493614E+02 0.  0.
         25    2    1    2    0    0  0.25156474887E+03  0.25662241771E+03 -0.35171445604E+03  0.51813856247E+03  0.12499849273E+03 0.  0.
         24    2    1    2    0    0 -0.14740041996E+03 -0.19107989315E+03 -0.18332331080E+03  0.31368568903E+03  0.80949773606E+02 0.  0.
        -13    1    3    3    0    0  0.67234377875E+02 -0.16669102004E+02 -0.34065628078E+03  0.34762770626E+03  0.00000000000E+00 0.  1.
         14    1    3    3    0    0  0.82708027458E+02 -0.86296409196E+02 -0.28971275018E+03  0.31340256167E+03  0.00000000000E+00 0. -1.
        -13    1    5    5    0    0 -0.43227950126E+02 -0.83089862775E+01 -0.35843340158E+02  0.56766539077E+02  0.00000000000E+00 0.  1.
         14    1    5    5    0    0 -0.10417246984E+03 -0.18277090688E+03 -0.14747997064E+03  0.25691914996E+03  0.00000000000E+00 0. -1.
          5    1    4    4  501    0  0.21229045065E+03  0.16683970038E+03 -0.19440872308E+03  0.33274549233E+03  0.47000000000E+01 0. -1.
         -5    1    4    4    0  501  0.39274298220E+02  0.89782717336E+02 -0.15730573296E+03  0.18539307014E+03  0.47000000000E+01 0. -1.
          1    1    1    2  502    0 -0.10661069185E+03 -0.67754600049E+01 -0.53873294183E+03  0.54922211270E+03  0.00000000000E+00 0. -1.
          1    1    1    2  503    0 -0.14749604239E+03  0.44198446648E+02  0.79228647508E+03  0.80710993291E+03  0.00000000000E+00 0. -1.
<mgrwt>
<rscale>  0 0.12848330E+03</rscale>
<asrwt>0</asrwt>
<pdfrwt beam="1">  1        2 0.14245098E+00 0.15453160E+03</pdfrwt>
<pdfrwt beam="2">  1        2 0.27654705E+00 0.10682578E+03</pdfrwt>
<totfact> 0.48593629E+01</totfact>
</mgrwt>
</event>
<event>
13    1  0.1589573E-008  0.1184745E+03  0.7546771E-02  0.1342765E+00
          2   -1    0    0  503    0  0.00000000000E+00  0.00000000000E+00  0.17011749709E+04  0.17011749709E+04  0.00000000000E+00 0. -1.
         -3   -1    0    0    0  501 -0.00000000000E+00 -0.00000000000E+00 -0.11856041148E+04  0.11856041148E+04  0.00000000000E+00 0.  1.
         24    2    1    2    0    0 -0.10013700094E+02  0.72364634905E+02 -0.18608859534E+03  0.21564963223E+03  0.80863366181E+02 0.  0.
         25    2    1    2    0    0 -0.34490463980E+02  0.51794865704E+00  0.23307466456E+03  0.26672236412E+03  0.12500863924E+03 0.  0.
         24    2    1    2    0    0 -0.56853797858E+02 -0.77262030336E+02 -0.23482487090E+03  0.26599406854E+03  0.80052163268E+02 0.  0.
        -11    1    3    3    0    0 -0.25798690923E+02  0.65612092455E+02 -0.73827920392E+02  0.10208369585E+03  0.00000000000E+00 0.  1.
         12    1    3    3    0    0  0.15784990829E+02  0.67525424497E+01 -0.11226067494E+03  0.11356593637E+03  0.00000000000E+00 0. -1.
        -13    1    5    5    0    0 -0.42314895540E+02 -0.65198539502E+00 -0.11957494053E+03  0.12684298117E+03  0.00000000000E+00 0.  1.
         14    1    5    5    0    0 -0.14538902318E+02 -0.76610044941E+02 -0.11524993037E+03  0.13915108737E+03  0.00000000000E+00 0. -1.
          5    1    4    4  502    0 -0.36564766815E+02  0.56435578833E+02  0.16650106738E+03  0.17962920745E+03  0.47000000000E+01 0. -1.
         -5    1    4    4    0  502  0.20743028345E+01 -0.55917630175E+02  0.66573597184E+02  0.87093156670E+02  0.47000000000E+01 0. -1.
          1    1    1    2  503    0  0.34443510577E+01 -0.47809314057E+02  0.14162139956E+04  0.14170249381E+04  0.00000000000E+00 0. -1.
         -4    1    1    2    0  501  0.97913610875E+02  0.52188760832E+02 -0.71280433773E+03  0.72138808268E+03  0.00000000000E+00 0.  1.
<mgrwt>
<rscale>  0 0.75358229E+02</rscale>
<asrwt>0</asrwt>
<pdfrwt beam="1">  1        2 0.25017279E+00 0.47933225E+02</pdfrwt>
<pdfrwt beam="2">  1       -3 0.17435354E+00 0.11847445E+03</pdfrwt>
<totfact> 0.19862029E+00</totfact>
</mgrwt>
</event>
<event>
13    1  0.1589573E-008  0.1563582E+03  0.7546771E-02  0.1198433E+00
          2   -1    0    0  502    0  0.00000000000E+00  0.00000000000E+00  0.18191979187E+04  0.18191979187E+04  0.00000000000E+00 0. -1.
          2   -1    0    0  503    0 -0.00000000000E+00 -0.00000000000E+00 -0.20949781709E+04  0.20949781709E+04  0.00000000000E+00 0. -1.
         24    2    1    2    0    0  0.56374332000E+02 -0.81841073909E+02 -0.54766224384E+03  0.56173849085E+03  0.75763923331E+02 0.  0.
         25    2    1    2    0    0 -0.52467206923E+02 -0.12728269712E+03 -0.83870464767E+01  0.18614360745E+03  0.12500162901E+03 0.  0.
         24    2    1    2    0    0 -0.59885797135E+02  0.36289283723E+02  0.48219704728E+03  0.49482569584E+03  0.86227930804E+02 0.  0.
        -11    1    3    3    0    0  0.49231422802E+02 -0.96329470926E+02 -0.49353279045E+03  0.50525015112E+03  0.00000000000E+00 0.  1.
         12    1    3    3    0    0  0.71429091987E+01  0.14488397018E+02 -0.54129453395E+02  0.56488339724E+02  0.00000000000E+00 0. -1.
        -13    1    5    5    0    0 -0.43033945813E+01 -0.25700204390E+02  0.81291018105E+02  0.85365387220E+02  0.00000000000E+00 0.  1.
         14    1    5    5    0    0 -0.55582402554E+02  0.61989488113E+02  0.40090602918E+03  0.40946030863E+03  0.00000000000E+00 0. -1.
          5    1    4    4  501    0 -0.18848260435E+02 -0.14581251797E+03 -0.33120771840E+01  0.14713805481E+03  0.47000000000E+01 0.  1.
         -5    1    4    4    0  501 -0.33618946488E+02  0.18529820843E+02 -0.50749692927E+01  0.39005552640E+02  0.47000000000E+01 0.  1.
          1    1    1    2  502    0 -0.10798318287E+03  0.74462925461E+02  0.12248911652E+04  0.12318942575E+04  0.00000000000E+00 0. -1.
          1    1    1    2  503    0  0.16396185493E+03  0.98371561849E+02 -0.14268191744E+04  0.14395740379E+04  0.00000000000E+00 0. -1.
<mgrwt>
<rscale>  0 0.15167236E+03</rscale>
<asrwt>0</asrwt>
<pdfrwt beam="1">  1        2 0.26752911E+00 0.14712698E+03</pdfrwt>
<pdfrwt beam="2">  1        2 0.30808502E+00 0.15635818E+03</pdfrwt>
<totfact> 0.13231517E+01</totfact>
</mgrwt>
</event>
<event>
13    1  0.1589573E-008  0.4270582E+02  0.7546771E-02  0.1533245E+00
          2   -1    0    0  502    0  0.00000000000E+00  0.00000000000E+00  0.33480451277E+04  0.33480451277E+04  0.00000000000E+00 0. -1.
          2   -1    0    0  503    0 -0.00000000000E+00 -0.00000000000E+00 -0.33617755798E+04  0.33617755798E+04  0.00000000000E+00 0. -1.
         24    2    1    2    0    0  0.57985243421E+03 -0.99842805417E+03 -0.60600033219E+03  0.13064610412E+04  0.80725614651E+02 0.  0.
         25    2    1    2    0    0 -0.61306691200E+03  0.66087396844E+03  0.10746565728E+04  0.14082321723E+04  0.12500264309E+03 0.  0.
         24    2    1    2    0    0  0.47510621318E+02  0.26516030247E+03  0.85758691132E+02  0.29607005489E+03  0.87952709760E+02 0.  0.
        -13    1    3    3    0    0  0.30135866860E+03 -0.44340177127E+03 -0.29605025663E+03  0.61242789971E+03  0.00000000000E+00 0.  1.
         14    1    3    3    0    0  0.27849376562E+03 -0.55502628290E+03 -0.30995007557E+03  0.69403314153E+03  0.00000000000E+00 0. -1.
        -13    1    5    5    0    0  0.45136061061E+02  0.92880529976E+02  0.66207445648E+02  0.12266818135E+03  0.00000000000E+00 0.  1.
         14    1    5    5    0    0  0.23745602570E+01  0.17227977249E+03  0.19551245484E+02  0.17340187354E+03  0.00000000000E+00 0. -1.
          5    1    4    4  501    0 -0.32903233009E+02  0.81665513339E+02  0.77988531778E+02  0.11771227591E+03  0.47000000000E+01 0.  1.
         -5    1    4    4    0  501 -0.58016367899E+03  0.57920845511E+03  0.99666804104E+03  0.12905198964E+04  0.47000000000E+01 0.  1.
          1    1    1    2  502    0 -0.10670326755E+02  0.29845851586E+02  0.15650818909E+04  0.15654028095E+04  0.00000000000E+00 0. -1.
          1    1    1    2  503    0 -0.36258167760E+01  0.42547931667E+02 -0.21332272747E+04  0.21336546296E+04  0.00000000000E+00 0. -1.
<mgrwt>
<rscale>  0 0.36791299E+02</rscale>
<asrwt>0</asrwt>
<pdfrwt beam="1">  1        2 0.49235958E+00 0.31695910E+02</pdfrwt>
<pdfrwt beam="2">  1        2 0.49437876E+00 0.42705816E+02</pdfrwt>
<totfact> 0.76756810E-01</totfact>
</mgrwt>
</event>
<event>
13    1  0.1589573E-008  0.8259498E+02  0.7546771E-02  0.1365086E+00
          2   -1    0    0  502    0  0.00000000000E+00  0.00000000000E+00  0.12324661996E+04  0.12324661996E+04  0.00000000000E+00 0. -1.
          2   -1    0    0  503    0 -0.00000000000E+00 -0.00000000000E+00 -0.19171864731E+04  0.19171864731E+04  0.00000000000E+00 0. -1.
         24    2    1    2    0    0 -0.29301801877E+02  0.39256660575E+02 -0.35061318477E+02  0.96243731345E+02  0.75059168508E+02 0.  0.
         25    2    1    2    0    0  0.13973296400E+03 -0.17521003630E+03  0.40038688536E+02  0.25971448394E+03  0.12499863415E+03 0.  0.
         24    2    1    2    0    0 -0.43542384797E+02  0.84907508308E+02 -0.35864727265E+03  0.37947499115E+03  0.79171828901E+02 0.  0.
        -11    1    3    3    0    0 -0.26228008697E+02 -0.51684556282E+01  0.13841703201E+02  0.30103390528E+02  0.00000000000E+00 0.  1.
         12    1    3    3    0    0 -0.30737931803E+01  0.44425116203E+02 -0.48903021678E+02  0.66140340817E+02  0.00000000000E+00 0. -1.
        -13    1    5    5    0    0 -0.35038249200E+02  0.43624249178E+02 -0.31042772057E+03  0.31543006154E+03  0.00000000000E+00 0.  1.
         14    1    5    5    0    0 -0.85041355974E+01  0.41283259130E+02 -0.48219552072E+02  0.64044929609E+02  0.00000000000E+00 0. -1.
          5    1    4    4  501    0  0.15090836963E+03 -0.10681929830E+03  0.13784081719E+02  0.18546101861E+03  0.47000000000E+01 0.  1.
         -5    1    4    4    0  501 -0.11175405626E+02 -0.68390738003E+02  0.26254606817E+02  0.74253465338E+02  0.47000000000E+01 0.  1.
          1    1    1    2  502    0 -0.18271864362E+02  0.80604073429E+02  0.10393537599E+04  0.10426346992E+04  0.00000000000E+00 0. -1.
          1    1    1    2  503    0 -0.48616912966E+02 -0.29558206006E+02 -0.13704041308E+04  0.13715847672E+04  0.00000000000E+00 0. -1.
<mgrwt>
<rscale>  0 0.68552342E+02</rscale>
<asrwt>0</asrwt>
<pdfrwt beam="1">  1        2 0.18124503E+00 0.82594984E+02</pdfrwt>
<pdfrwt beam="2">  1        2 0.28193918E+00 0.56897204E+02</pdfrwt>
<totfact> 0.36742597E+01</totfact>
</mgrwt>
</event>
<event>
13    1  0.1589573E-008  0.9746389E+02  0.7546771E-02  0.1372662E+00
          2   -1    0    0  503    0  0.00000000000E+00  0.00000000000E+00  0.37968241652E+04  0.37968241652E+04  0.00000000000E+00 0. -1.
          2   -1    0    0  502    0 -0.00000000000E+00 -0.00000000000E+00 -0.36401485694E+03  0.36401485694E+03  0.00000000000E+00 0. -1.
         24    2    1    2    0    0  0.12365667051E+02 -0.29867353863E+02 -0.67907894321E+02  0.10975144316E+03  0.79930773895E+02 0.  0.
         25    2    1    2    0    0 -0.22922231000E+02  0.66581731093E+02  0.23347038309E+04  0.23391080194E+04  0.12500317141E+03 0.  0.
         24    2    1    2    0    0  0.40618564267E+02  0.42125314228E+02  0.29336410703E+03  0.30945595706E+03  0.79221715485E+02 0.  0.
        -11    1    5    5    0    0 -0.23058619517E+02  0.31294823110E+01  0.84518033804E+02  0.87662943321E+02  0.00000000000E+00 0.  1.
         12    1    5    5    0    0  0.63677183783E+02  0.38995831917E+02  0.20884607322E+03  0.22179301373E+03  0.00000000000E+00 0. -1.
        -13    1    3    3    0    0 -0.40685043694E+01  0.13798552382E+02 -0.60895028991E+02  0.62571218076E+02  0.00000000000E+00 0.  1.
         14    1    3    3    0    0  0.16434171421E+02 -0.43665906246E+02 -0.70128653295E+01  0.47180225081E+02  0.00000000000E+00 0. -1.
          5    1    4    4  501    0 -0.10470714606E+02  0.66479003239E+02  0.23105121110E+04  0.23114967876E+04  0.47000000000E+01 0. -1.
         -5    1    4    4    0  501 -0.12451516394E+02  0.10272785315E+00  0.24191719885E+02  0.27611231855E+02  0.47000000000E+01 0. -1.
          1    1    1    2  502    0 -0.72857134540E+02 -0.64041900790E+02 -0.25558875135E+03  0.27337727946E+03  0.00000000000E+00 0. -1.
          1    1    1    2  503    0  0.42795134222E+02 -0.14797790667E+02  0.11282380160E+04  0.11291463230E+04  0.00000000000E+00 0. -1.
<mgrwt>
<rscale>  0 0.66432625E+02</rscale>
<asrwt>0</asrwt>
<pdfrwt beam="1">  1        2 0.55835647E+00 0.45281322E+02</pdfrwt>
<pdfrwt beam="2">  1        2 0.53531599E-01 0.97463886E+02</pdfrwt>
<totfact> 0.17042372E+01</totfact>
</mgrwt>
</event>
<event>
13    1  0.1589573E-008  0.1035049E+03  0.7546771E-02  0.1307878E+00
          2   -1    0    0  502    0  0.00000000000E+00  0.00000000000E+00  0.43905872936E+03  0.43905872936E+03  0.00000000000E+00 0. -1.
          2   -1    0    0  503    0 -0.00000000000E+00 -0.00000000000E+00 -0.22704375603E+04  0.22704375603E+04  0.00000000000E+00 0. -1.
         24    2    1    2    0    0 -0.20468885420E+03 -0.42956845749E+02 -0.17796785274E+04  0.17936992155E+04  0.79739557113E+02 0.  0.
         25    2    1    2    0    0  0.46364760651E+02 -0.23197136499E+02 -0.13796646496E+02  0.13603852651E+03  0.12501333956E+03 0.  0.
         24    2    1    2    0    0 -0.11394011369E+02 -0.45917511036E+02 -0.26527119521E+02  0.97391328643E+02  0.80889687291E+02 0.  0.
        -11    1    3    3    0    0 -0.47992307807E+02  0.21656378506E+02 -0.33513556790E+03  0.33924638423E+03  0.00000000000E+00 0.  1.
         12    1    3    3    0    0 -0.15669654639E+03 -0.64613224254E+02 -0.14445429595E+04  0.14544528312E+04  0.00000000000E+00 0. -1.
        -13    1    5    5    0    0  0.25139388412E+01 -0.66228910913E+02 -0.29595088104E+02  0.72584142683E+02  0.00000000000E+00 0.  1.
         14    1    5    5    0    0 -0.13907950210E+02  0.20311399877E+02  0.30679685825E+01  0.24807185960E+02  0.00000000000E+00 0. -1.
          5    1    4    4  501    0  0.55046982137E+02 -0.68983133476E+02 -0.62962847690E+01  0.88603477068E+02  0.47000000000E+01 0. -1.
         -5    1    4    4    0  501 -0.86822214860E+01  0.45785996977E+02 -0.75003617274E+01  0.47435049438E+02  0.47000000000E+01 0. -1.
          1    1    1    2  502    0  0.94980645330E+02  0.11116805607E+03  0.31513808394E+03  0.34740706905E+03  0.00000000000E+00 0. -1.
          1    1    1    2  503    0  0.74737459586E+02  0.90343721643E+00 -0.32651462143E+03  0.33496014998E+03  0.00000000000E+00 0. -1.
<mgrwt>
<rscale>  0 0.87956006E+02</rscale>
<asrwt>0</asrwt>
<pdfrwt beam="1">  1        2 0.64567459E-01 0.10350491E+03</pdfrwt>
<pdfrwt beam="2">  1        2 0.33388788E+00 0.74742920E+02</pdfrwt>
<totfact> 0.83170456E+01</totfact>
</mgrwt>
</event>
<event>
13    1  0.1589573E-008  0.5452321E+02  0.7546771E-02  0.1448165E+00
          2   -1    0    0  503    0  0.00000000000E+00  0.00000000000E+00  0.29789934456E+04  0.29789934456E+04  0.00000000000E+00 0. -1.
          2   -1    0    0  502    0 -0.00000000000E+00 -0.00000000000E+00 -0.29956609995E+04  0.29956609995E+04  0.00000000000E+00 0. -1.
         24    2    1    2    0    0 -0.62960796510E+03 -0.73558828512E+03 -0.15980381188E+04  0.18693258970E+04  0.56188657682E+02 0.  0.
         25    2    1    2    0    0  0.46079646646E+03  0.78313867720E+03  0.88379046807E+02  0.92145213430E+03  0.12499443459E+03 0.  0.
         24    2    1    2    0    0  0.12412450108E+03 -0.52918566342E+02  0.40956647396E+03  0.43865526504E+03  0.80414417398E+02 0.  0.
        -11    1    3    3    0    0 -0.57472437766E+03 -0.69353299659E+03 -0.14819786869E+04  0.17342309408E+04  0.00000000000E+00 0.  1.
         12    1    3    3    0    0 -0.54883587444E+02 -0.42055288529E+02 -0.11605943184E+03  0.13509495617E+03  0.00000000000E+00 0. -1.
        -13    1    5    5    0    0  0.42296266348E+02 -0.23228846004E+00  0.23514716341E+03  0.23892094208E+03  0.00000000000E+00 0.  1.
         14    1    5    5    0    0  0.81828234729E+02 -0.52686277882E+02  0.17441931055E+03  0.19973432296E+03  0.00000000000E+00 0. -1.
          5    1    4    4  501    0  0.73699990171E+02  0.21691542583E+03  0.49577574920E+02  0.23444405825E+03  0.47000000000E+01 0. -1.
         -5    1    4    4    0  501  0.38709647629E+03  0.56622325137E+03  0.38801471886E+02  0.68700807605E+03  0.47000000000E+01 0. -1.
          1    1    1    2  502    0  0.16953489026E+02 -0.41580354088E+02 -0.82990267051E+03  0.83111659180E+03  0.00000000000E+00 0. -1.
          1    1    1    2  503    0  0.27733508543E+02  0.46948528353E+02  0.19133277146E+04  0.19141045570E+04  0.00000000000E+00 0. -1.
<mgrwt>
<rscale>  0 0.49480263E+02</rscale>
<asrwt>0</asrwt>
<pdfrwt beam="1">  1        2 0.43808727E+00 0.54523208E+02</pdfrwt>
<pdfrwt beam="2">  1        2 0.44053838E+00 0.44903749E+02</pdfrwt>
<totfact> 0.16881934E+00</totfact>
</mgrwt>
</event>
<event>
13    1  0.1589573E-008  0.7375037E+02  0.7546771E-02  0.1367200E+00
          2   -1    0    0  503    0  0.00000000000E+00  0.00000000000E+00  0.48467818906E+04  0.48467818906E+04  0.00000000000E+00 0. -1.
          2   -1    0    0  502    0 -0.00000000000E+00 -0.00000000000E+00 -0.32505721462E+04  0.32505721462E+04  0.00000000000E+00 0. -1.
         24    2    1    2    0    0 -0.15809907375E+04 -0.19990400121E+04  0.19943367289E+02  0.25501327751E+04  0.84182840611E+02 0.  0.
         25    2    1    2    0    0  0.51644104863E+03  0.95425308532E+03  0.11517055911E+03  0.10982707538E+04  0.12499633334E+03 0.  0.
         24    2    1    2    0    0  0.10730292920E+04  0.10600748000E+04  0.15273674396E+03  0.15170727520E+04  0.55052508557E+02 0.  0.
        -11    1    3    3    0    0 -0.69578225339E+03 -0.82512635108E+03  0.32555175040E+02  0.10798177063E+04  0.00000000000E+00 0.  1.
         12    1    3    3    0    0 -0.88520848414E+03 -0.11739136610E+04 -0.12611807750E+02  0.14703150688E+04  0.00000000000E+00 0. -1.
        -13    1    5    5    0    0  0.47974952498E+03  0.51038487494E+03  0.61772187947E+02  0.70318427918E+03  0.00000000000E+00 0.  1.
         14    1    5    5    0    0  0.59327976703E+03  0.54968992505E+03  0.90964556018E+02  0.81388847278E+03  0.00000000000E+00 0. -1.
          5    1    4    4  501    0  0.10650192536E+03  0.12417335478E+03  0.45441981489E+02  0.16984918552E+03  0.47000000000E+01 0. -1.
         -5    1    4    4    0  501  0.40993912327E+03  0.83007973054E+03  0.69728577620E+02  0.92842156825E+03  0.47000000000E+01 0. -1.
          1    1    1    2  502    0 -0.28658131489E+02  0.55665123682E+02 -0.80990914713E+03  0.81232550194E+03  0.00000000000E+00 0. -1.
          1    1    1    2  503    0  0.20178528373E+02 -0.70952996872E+02  0.21182682211E+04  0.21195522540E+04  0.00000000000E+00 0. -1.
<mgrwt>
<rscale>  0 0.67951760E+02</rscale>
<asrwt>0</asrwt>
<pdfrwt beam="1">  1        2 0.71276205E+00 0.73750375E+02</pdfrwt>
<pdfrwt beam="2">  1        2 0.47802531E+00 0.62609061E+02</pdfrwt>
<totfact> 0.62731793E-02</totfact>
</mgrwt>
</event>
<event>
13    1  0.1589573E-008  0.5468392E+02  0.7546771E-02  0.1428854E+00
          2   -1    0    0  503    0  0.00000000000E+00  0.00000000000E+00  0.11254112876E+04  0.11254112876E+04  0.00000000000E+00 0. -1.
          2   -1    0    0  502    0 -0.00000000000E+00 -0.00000000000E+00 -0.23557194899E+04  0.23557194899E+04  0.00000000000E+00 0. -1.
         24    2    1    2    0    0 -0.44285690533E+02  0.37345724042E+02 -0.11334620662E+04  0.11376412311E+04  0.78328728057E+02 0.  0.
         25    2    1    2    0    0  0.86531291138E+02  0.42718081907E+02  0.19781726778E+03  0.25311951578E+03  0.12500127586E+03 0.  0.
         24    2    1    2    0    0 -0.36693220296E+02 -0.85430052484E+02 -0.37437579525E+02  0.12997841109E+03  0.82753421109E+02 0.  0.
        -11    1    5    5    0    0 -0.34591532701E+02 -0.81697237947E+02  0.35285911661E+01  0.88788871929E+02  0.00000000000E+00 0.  1.
         12    1    5    5    0    0 -0.21016875956E+01 -0.37328145368E+01 -0.40966170691E+02  0.41189539159E+02  0.00000000000E+00 0. -1.
        -11    1    3    3    0    0  0.51535927321E+01 -0.56784085151E+01 -0.11842171313E+02  0.14108184246E+02  0.00000000000E+00 0.  1.
         12    1    3    3    0    0 -0.49439283265E+02  0.43024132557E+02 -0.11216198949E+04  0.11235330469E+04  0.00000000000E+00 0. -1.
          5    1    4    4  501    0  0.65770289793E+02  0.67128170834E+02  0.19961589110E+03  0.22068193473E+03  0.47000000000E+01 0.  1.
         -5    1    4    4    0  501  0.20761001346E+02 -0.24410088926E+02 -0.17986233114E+01  0.32437581045E+02  0.47000000000E+01 0.  1.
          1    1    1    2  502    0  0.15859431401E+02  0.52465931958E+02 -0.11073444233E+04  0.11087000800E+04  0.00000000000E+00 0. -1.
          1    1    1    2  503    0 -0.21411811710E+02 -0.47099685423E+02  0.85011859897E+03  0.85169153944E+03  0.00000000000E+00 0. -1.
<mgrwt>
<rscale>  0 0.53190696E+02</rscale>
<asrwt>0</asrwt>
<pdfrwt beam="1">  1        2 0.16550166E+00 0.51738246E+02</pdfrwt>
<pdfrwt beam="2">  1        2 0.34642934E+00 0.54683920E+02</pdfrwt>
<totfact> 0.26860918E+01</totfact>
</mgrwt>
</event>
<event>
13    1  0.1589573E-008  0.4290077E+02  0.7546771E-02  0.1504442E+00
         -1   -1    0    0    0  501 -0.00000000000E+00  0.00000000000E+00  0.59616822454E+03  0.59616822454E+03  0.00000000000E+00 0.  1.
          2   -1    0    0  503    0  0.00000000000E+00 -0.00000000000E+00 -0.15076543024E+04  0.15076543024E+04  0.00000000000E+00 0. -1.
         24    2    1    2    0    0 -0.41846287649E+02  0.20631432788E+02  0.21724775522E+03  0.23644930562E+03  0.80838846910E+02 0.  0.
         25    2    1    2    0    0  0.12085398795E+03  0.22770576601E+02 -0.75705802770E+03  0.77710123426E+03  0.12500114172E+03 0.  0.
         24    2    1    2    0    0 -0.51788526922E+01 -0.10569244840E+02  0.16353491939E+02  0.81769455239E+02  0.79248202881E+02 0.  0.
        -13    1    5    5    0    0  0.15726498601E+02 -0.29977542314E+02  0.34200183700E+02  0.48120976368E+02  0.00000000000E+00 0.  1.
         14    1    5    5    0    0 -0.20905351293E+02  0.19408297475E+02 -0.17846691761E+02  0.33648478871E+02  0.00000000000E+00 0. -1.
        -13    1    3    3    0    0 -0.56758342104E+02 -0.33306459860E+01  0.18527148394E+03  0.19379918824E+03  0.00000000000E+00 0.  1.
         14    1    3    3    0    0  0.14912054455E+02  0.23962078774E+02  0.31976271276E+02  0.42650117374E+02  0.00000000000E+00 0. -1.
          5    1    4    4  502    0  0.82658073704E+02  0.63903501028E+02 -0.62256593511E+03  0.63128951215E+03  0.47000000000E+01 0. -1.
         -5    1    4    4    0  502  0.38195914249E+02 -0.41132924427E+02 -0.13449209259E+03  0.14581172211E+03  0.47000000000E+01 0. -1.
          1    1    1    2  503    0 -0.40363798266E+02 -0.14276538150E+02 -0.69642606660E+03  0.69774087023E+03  0.00000000000E+00 0. -1.
         -2    1    1    2    0  501 -0.33465049347E+02 -0.18556226399E+02  0.30839676923E+03  0.31076166163E+03  0.00000000000E+00 0.  1.
<mgrwt>
<rscale>  0 0.40516864E+02</rscale>
<asrwt>0</asrwt>
<pdfrwt beam="2">  1        2 0.22171386E+00 0.42900768E+02</pdfrwt>
<pdfrwt beam="1">  1       -1 0.87671799E-01 0.38265429E+02</pdfrwt>
<totfact> 0.28210983E+01</totfact>
</mgrwt>
</event>
<event>
13    1  0.1589573E-008  0.1012661E+03  0.7546771E-02  0.1338294E+00
          2   -1    0    0  503    0  0.00000000000E+00  0.00000000000E+00  0.17140476778E+04  0.17140476778E+04  0.00000000000E+00 0. -1.
          2   -1    0    0  502    0 -0.00000000000E+00 -0.00000000000E+00 -0.32727265458E+04  0.32727265458E+04  0.00000000000E+00 0. -1.
         24    2    1    2    0    0  0.71213906927E+02  0.57857316429E+02 -0.18240254564E+04  0.18281179863E+04  0.80793666973E+02 0.  0.
         25    2    1    2    0    0 -0.81466763613E+02 -0.21001954489E+02  0.26214201921E+03  0.30236054450E+03  0.12500217985E+03 0.  0.
         24    2    1    2    0    0 -0.38753454952E+01  0.51627969656E+02  0.74983390124E+03  0.75627354509E+03  0.83775473741E+02 0.  0.
        -11    1    3    3    0    0 -0.79515180868E+01 -0.12670582282E+02 -0.15200237627E+03  0.15273667761E+03  0.00000000000E+00 0.  1.
         12    1    3    3    0    0  0.79165425014E+02  0.70527898711E+02 -0.16720230801E+04  0.16753813087E+04  0.00000000000E+00 0. -1.
        -13    1    5    5    0    0  0.36272840590E+02  0.20197549857E+02  0.21191597356E+03  0.21594452953E+03  0.00000000000E+00 0.  1.
         14    1    5    5    0    0 -0.40148186085E+02  0.31430419799E+02  0.53791792768E+03  0.54032901556E+03  0.00000000000E+00 0. -1.
          5    1    4    4  501    0 -0.10101559808E+03 -0.50732324603E+02  0.21668118199E+03  0.24443965399E+03  0.47000000000E+01 0.  1.
         -5    1    4    4    0  501  0.19548834465E+02  0.29730370115E+02  0.45460837224E+02  0.57920890507E+02  0.47000000000E+01 0.  1.
          1    1    1    2  502    0  0.28851856529E+02  0.50650357706E+02 -0.14154876370E+04  0.14166873822E+04  0.00000000000E+00 0. -1.
          1    1    1    2  503    0 -0.14723654347E+02 -0.13913368930E+03  0.66885830505E+03  0.68333476549E+03  0.00000000000E+00 0. -1.
<mgrwt>
<rscale>  0 0.76830628E+02</rscale>
<asrwt>0</asrwt>
<pdfrwt beam="1">  1        2 0.25206584E+00 0.10126613E+03</pdfrwt>
<pdfrwt beam="2">  1        2 0.48128331E+00 0.58291409E+02</pdfrwt>
<totfact> 0.44167871E+00</totfact>
</mgrwt>
</event>
<event>
13    1  0.1589573E-008  0.1182037E+03  0.7546771E-02  0.1276269E+00
         -1   -1    0    0    0  501 -0.00000000000E+00  0.00000000000E+00  0.13247739565E+04  0.13247739565E+04  0.00000000000E+00 0.  1.
          2   -1    0    0  503    0  0.00000000000E+00 -0.00000000000E+00 -0.62343054329E+03  0.62343054329E+03  0.00000000000E+00 0. -1.
         24    2    1    2    0    0 -0.44284980554E+02  0.75963719058E+02  0.67933935222E+03  0.68987454809E+03  0.81812532738E+02 0.  0.
         25    2    1    2    0    0 -0.46589778636E+02  0.51804044293E+01 -0.10026816167E+03  0.16695845293E+03  0.12499590673E+03 0.  0.
         24    2    1    2    0    0 -0.16443535683E+02  0.83112640756E+01  0.52440647765E+02  0.98365820943E+02  0.81156307306E+02 0.  0.
        -11    1    5    5    0    0  0.24430860015E+02  0.28546326943E+02  0.25191273778E+02  0.45236710508E+02  0.00000000000E+00 0.  1.
         12    1    5    5    0    0 -0.40874395699E+02 -0.20235062867E+02  0.27249373987E+02  0.53129110436E+02  0.00000000000E+00 0. -1.
        -13    1    3    3    0    0 -0.45399122809E+02  0.92033691267E+02  0.61762193000E+03  0.62608955358E+03  0.00000000000E+00 0.  1.
         14    1    3    3    0    0  0.11141422556E+01 -0.16069972209E+02  0.61717422214E+02  0.63784994509E+02  0.00000000000E+00 0. -1.
          5    1    4    4  502    0 -0.83615436452E+02 -0.20263794281E+02 -0.51039338177E+02  0.10014622616E+03  0.47000000000E+01 0. -1.
         -5    1    4    4    0  502  0.37025657816E+02  0.25444198710E+02 -0.49228823490E+02  0.66812226777E+02  0.47000000000E+01 0. -1.
          1    1    1    2  503    0  0.13165340363E+02 -0.11776073524E+03 -0.44929163057E+03  0.46465458811E+03  0.00000000000E+00 0. -1.
         -2    1    1    2    0  501  0.94152954510E+02  0.28305347675E+02  0.51912320551E+03  0.52835108976E+03  0.00000000000E+00 0.  1.
<mgrwt>
<rscale>  0 0.10193968E+03</rscale>
<asrwt>0</asrwt>
<pdfrwt beam="2">  1        2 0.91680962E-01 0.11820369E+03</pdfrwt>
<pdfrwt beam="1">  1       -1 0.19481970E+00 0.87913484E+02</pdfrwt>
<totfact> 0.11886629E+01</totfact>
</mgrwt>
</event>
<event>
13    1  0.1589573E-008  0.7307711E+02  0.7546771E-02  0.1441143E+00
          2   -1    0    0  503    0  0.00000000000E+00  0.00000000000E+00  0.22464274969E+04  0.22464274969E+04  0.00000000000E+00 0. -1.
          2   -1    0    0  502    0 -0.00000000000E+00 -0.00000000000E+00 -0.22662061275E+04  0.22662061275E+04  0.00000000000E+00 0. -1.
         24    2    1    2    0    0  0.56202978389E+03 -0.46690658402E+03 -0.41758976242E+03  0.84587877868E+03  0.85149646873E+02 0.  0.
         25    2    1    2    0    0  0.37373581751E+02  0.47981202676E+03 -0.13522871098E+03  0.51529367786E+03  0.12499761811E+03 0.  0.
         24    2    1    2    0    0 -0.68928107091E+03 -0.23165200438E+02  0.16774352775E+03  0.71536602324E+03  0.89250405551E+02 0.  0.
        -13    1    3    3    0    0  0.27759812337E+03 -0.21819283676E+03 -0.24949363342E+03  0.43233772127E+03  0.00000000000E+00 0.  1.
         14    1    3    3    0    0  0.28443166052E+03 -0.24871374726E+03 -0.16809612900E+03  0.41354105741E+03  0.00000000000E+00 0. -1.
        -13    1    5    5    0    0 -0.26220944429E+03  0.32434045352E+02  0.77466119510E+02  0.27533027375E+03  0.00000000000E+00 0.  1.
         14    1    5    5    0    0 -0.42707162662E+03 -0.55599245790E+02  0.90277408237E+02  0.44003574949E+03  0.00000000000E+00 0. -1.
          5    1    4    4  501    0  0.93212446362E-01  0.44791309577E+03 -0.12256752555E+03  0.46440396033E+03  0.47000000000E+01 0.  1.
         -5    1    4    4    0  501  0.37280369305E+02  0.31898930992E+02 -0.12661185427E+02  0.50889717531E+02  0.47000000000E+01 0.  1.
          1    1    1    2  502    0  0.70484159976E+02 -0.19230444148E+02 -0.10338877496E+04  0.10364659693E+04  0.00000000000E+00 0. -1.
          1    1    1    2  503    0  0.19393545288E+02  0.29490201847E+02  0.13991840646E+04  0.13996291753E+04  0.00000000000E+00 0. -1.
<mgrwt>
<rscale>  0 0.50786837E+02</rscale>
<asrwt>0</asrwt>
<pdfrwt beam="1">  1        2 0.33035699E+00 0.35295632E+02</pdfrwt>
<pdfrwt beam="2">  1        2 0.33326561E+00 0.73077112E+02</pdfrwt>
<totfact> 0.87309101E+00</totfact>
</mgrwt>
</event>
<event>
13    1  0.1589573E-008  0.3079260E+02  0.7546771E-02  0.1631413E+00
         -1   -1    0    0    0  501 -0.00000000000E+00  0.00000000000E+00  0.20016109539E+04  0.20016109539E+04  0.00000000000E+00 0.  1.
          2   -1    0    0  503    0  0.00000000000E+00 -0.00000000000E+00 -0.81578909978E+03  0.81578909978E+03  0.00000000000E+00 0. -1.
         24    2    1    2    0    0  0.58796208823E+01 -0.62245717813E+02  0.12896704501E+04  0.12935559601E+04  0.78281880059E+02 0.  0.
         25    2    1    2    0    0 -0.31614105828E+02  0.41410202823E+02  0.13166749606E+03  0.18888279812E+03  0.12500450120E+03 0.  0.
         24    2    1    2    0    0  0.72271400494E+02  0.29533993693E+02  0.45684979962E+03  0.47047489547E+03  0.80867025027E+02 0.  0.
        -13    1    3    3    0    0 -0.15085138006E+02 -0.64202704262E+02  0.11824390498E+04  0.11842768490E+04  0.00000000000E+00 0.  1.
         14    1    3    3    0    0  0.20964758888E+02  0.19569864496E+01  0.10723140033E+03  0.10927911113E+03  0.00000000000E+00 0. -1.
        -13    1    5    5    0    0  0.11140988387E+02 -0.22269095487E+02  0.19655823586E+03  0.19812918594E+03  0.00000000000E+00 0.  1.
         14    1    5    5    0    0  0.61130412107E+02  0.51803089180E+02  0.26029156376E+03  0.27234570953E+03  0.00000000000E+00 0. -1.
          5    1    4    4  502    0 -0.21517055627E+02 -0.41954330945E+01 -0.20043971198E+02  0.30073844501E+02  0.47000000000E+01 0. -1.
         -5    1    4    4    0  502 -0.10097050201E+02  0.45605635918E+02  0.15171146726E+03  0.15880895362E+03  0.47000000000E+01 0. -1.
          1    1    1    2  503    0 -0.24618436402E+02 -0.18493315749E+02 -0.77644075868E+03  0.77705104201E+03  0.00000000000E+00 0. -1.
         -2    1    1    2    0  501 -0.21918479147E+02  0.97948370461E+01  0.84074866987E+02  0.87435357949E+02  0.00000000000E+00 0.  1.
<mgrwt>
<rscale>  0 0.27189197E+02</rscale>
<asrwt>0</asrwt>
<pdfrwt beam="2">  1        2 0.11996899E+00 0.30792602E+02</pdfrwt>
<pdfrwt beam="1">  1       -1 0.29435455E+00 0.24007469E+02</pdfrwt>
<totfact> 0.26134197E+00</totfact>
</mgrwt>
</event>
<event>
13    1  0.1589573E-008  0.1330466E+03  0.7546771E-02  0.1357949E+00
          2   -1    0    0  502    0  0.00000000000E+00  0.00000000000E+00  0.18006059978E+04  0.18006059978E+04  0.00000000000E+00 0. -1.
          2   -1    0    0  503    0 -0.00000000000E+00 -0.00000000000E+00 -0.83343320575E+03  0.83343320575E+03  0.00000000000E+00 0. -1.
         24    2    1    2    0    0 -0.59030495671E+02  0.30535102339E+02 -0.19548505347E+03  0.22111303626E+03  0.79117487202E+02 0.  0.
         25    2    1    2    0    0 -0.93419204635E+02  0.10424675396E+03  0.82833501797E+03  0.84932838747E+03  0.12500109709E+03 0.  0.
         24    2    1    2    0    0 -0.10773081024E+02  0.58270841729E+02  0.41364079602E+02  0.10775636401E+03  0.79930573830E+02 0.  0.
        -13    1    3    3    0    0 -0.78523951434E+02  0.26573680670E+02 -0.16595584223E+03  0.18550879500E+03  0.00000000000E+00 0.  1.
         14    1    3    3    0    0  0.19493455763E+02  0.39614216691E+01 -0.29529211241E+02  0.35604241261E+02  0.00000000000E+00 0. -1.
        -13    1    5    5    0    0 -0.11449714761E+02  0.69198194061E+00 -0.20343743565E+02  0.23354714928E+02  0.00000000000E+00 0.  1.
         14    1    5    5    0    0  0.67663373764E+00  0.57578859788E+02  0.61707823167E+02  0.84401649082E+02  0.00000000000E+00 0. -1.
          5    1    4    4  501    0 -0.10690397628E+03  0.11735372962E+03  0.61720075630E+03  0.63730622277E+03  0.47000000000E+01 0. -1.
         -5    1    4    4    0  501  0.13484771647E+02 -0.13106975659E+02  0.21113426166E+03  0.21202216470E+03  0.47000000000E+01 0. -1.
          1    1    1    2  502    0  0.36671889169E+02 -0.78360562351E+01  0.85233643423E+03  0.85316096274E+03  0.00000000000E+00 0. -1.
          1    1    1    2  503    0  0.12655089216E+03 -0.18521664180E+03 -0.55937768623E+03  0.60268045311E+03  0.00000000000E+00 0. -1.
<mgrwt>
<rscale>  0 0.70634381E+02</rscale>
<asrwt>0</asrwt>
<pdfrwt beam="1">  1        2 0.26479500E+00 0.37499750E+02</pdfrwt>
<pdfrwt beam="2">  1        2 0.12256371E+00 0.13304664E+03</pdfrwt>
<totfact> 0.71857608E+01</totfact>
</mgrwt>
</event>
<event>
13    1  0.1589573E-008  0.1312321E+03  0.7546771E-02  0.1378448E+00
          2   -1    0    0  502    0  0.00000000000E+00  0.00000000000E+00  0.28496777351E+04  0.28496777351E+04  0.00000000000E+00 0. -1.
          2   -1    0    0  503    0 -0.00000000000E+00 -0.00000000000E+00 -0.32563226225E+04  0.32563226225E+04  0.00000000000E+00 0. -1.
         24    2    1    2    0    0 -0.14345959380E+03  0.10513351152E+03 -0.10475570802E+04  0.10655475065E+04  0.79887057347E+02 0.  0.
         25    2    1    2    0    0  0.25320232015E+03 -0.48995289016E+02  0.99835582829E+03  0.10386776068E+04  0.12499943104E+03 0.  0.
         24    2    1    2    0    0  0.13919106574E+02 -0.16259417054E+03 -0.77785462285E+03  0.80078550198E+03  0.97821265994E+02 0.  0.
        -13    1    3    3    0    0 -0.13667371438E+03  0.64102902819E+02 -0.74454243545E+03  0.75969225647E+03  0.00000000000E+00 0.  1.
         14    1    3    3    0    0 -0.67858794219E+01  0.41030608700E+02 -0.30301464476E+03  0.30585524999E+03  0.00000000000E+00 0. -1.
        -13    1    5    5    0    0  0.42769552844E+02 -0.28226645377E+02 -0.26023857823E+03  0.26523592471E+03  0.00000000000E+00 0.  1.
         14    1    5    5    0    0 -0.28850446270E+02 -0.13436752516E+03 -0.51761604462E+03  0.53554957727E+03  0.00000000000E+00 0. -1.
          5    1    4    4  501    0  0.14373646569E+03 -0.89769207116E+02  0.57390993207E+03  0.59842575333E+03  0.47000000000E+01 0. -1.
         -5    1    4    4    0  501  0.10946585446E+03  0.40773918101E+02  0.42444589622E+03  0.44025185350E+03  0.47000000000E+01 0. -1.
          1    1    1    2  502    0 -0.23410588927E+02  0.21918285310E+02  0.18074654781E+04  0.18077499610E+04  0.00000000000E+00 0. -1.
          1    1    1    2  503    0 -0.10025124400E+03  0.84537662723E+02 -0.13870544907E+04  0.13932397814E+04  0.00000000000E+00 0. -1.
<mgrwt>
<rscale>  0 0.64873545E+02</rscale>
<asrwt>0</asrwt>
<pdfrwt beam="1">  1        2 0.41907026E+00 0.32069719E+02</pdfrwt>
<pdfrwt beam="2">  1        2 0.47887097E+00 0.13123211E+03</pdfrwt>
<totfact> 0.12990286E+00</totfact>
</mgrwt>
</event>
<event>
13    1  0.1589573E-008  0.1469972E+03  0.7546771E-02  0.1241575E+00
          2   -1    0    0  502    0  0.00000000000E+00  0.00000000000E+00  0.89247617586E+03  0.89247617586E+03  0.00000000000E+00 0. -1.
          2   -1    0    0  503    0 -0.00000000000E+00 -0.00000000000E+00 -0.22192894988E+04  0.22192894988E+04  0.00000000000E+00 0. -1.
         24    2    1    2    0    0 -0.16731758648E+02 -0.69863411898E+02 -0.50067273957E+03  0.51203812856E+03  0.79680643080E+02 0.  0.
         25    2    1    2    0    0 -0.29217271082E+03  0.15122549473E+03 -0.41612534612E+03  0.54499552902E+03  0.12500311901E+03 0.  0.
         24    2    1    2    0    0  0.18403304761E+03 -0.10257764705E+03  0.28391927395E+03  0.36258936024E+03  0.80439752323E+02 0.  0.
        -11    1    5    5    0    0  0.40267673392E+02  0.91261745146E+01  0.73819933457E+02  0.84582239018E+02  0.00000000000E+00 0.  1.
         12    1    5    5    0    0  0.14376537422E+03 -0.11170382156E+03  0.21009934049E+03  0.27800712122E+03  0.00000000000E+00 0. -1.
        -13    1    3    3    0    0 -0.48376583734E+02 -0.51513842412E+02 -0.32357239408E+03  0.33119943240E+03  0.00000000000E+00 0.  1.
         14    1    3    3    0    0  0.31644825086E+02 -0.18349569486E+02 -0.17710034549E+03  0.18083869616E+03  0.00000000000E+00 0. -1.
          5    1    4    4  501    0 -0.57334747874E+02 -0.22536255116E+01 -0.22965687682E+02  0.61982779483E+02  0.47000000000E+01 0. -1.
         -5    1    4    4    0  501 -0.23483796294E+03  0.15347912024E+03 -0.39315965844E+03  0.48301274953E+03  0.47000000000E+01 0. -1.
          1    1    1    2  502    0  0.94403443423E+02  0.11591601195E+03  0.48576907329E+03  0.50825202855E+03  0.00000000000E+00 0. -1.
          1    1    1    2  503    0  0.30467978434E+02 -0.94700447731E+02 -0.11797035845E+04  0.11838906283E+04  0.00000000000E+00 0. -1.
<mgrwt>
<rscale>  0 0.12092737E+03</rscale>
<asrwt>0</asrwt>
<pdfrwt beam="1">  1        2 0.13124650E+00 0.14699718E+03</pdfrwt>
<pdfrwt beam="2">  1        2 0.32636610E+00 0.99481016E+02</pdfrwt>
<totfact> 0.37459325E+01</totfact>
</mgrwt>
</event>
<event>
13    1  0.1589573E-008  0.9877954E+02  0.7546771E-02  0.1391836E+00
          2   -1    0    0  503    0  0.00000000000E+00  0.00000000000E+00  0.17029135917E+04  0.17029135917E+04  0.00000000000E+00 0. -1.
         -1   -1    0    0    0  501 -0.00000000000E+00 -0.00000000000E+00 -0.17184684929E+03  0.17184684929E+03  0.00000000000E+00 0.  1.
         24    2    1    2    0    0  0.42874484348E+02  0.15610288925E+01 -0.88316112656E+02  0.12698202480E+03  0.80523540958E+02 0.  0.
         25    2    1    2    0    0  0.42849304284E+02  0.15293281663E+02  0.47445293671E+03  0.49274854231E+03  0.12500235782E+03 0.  0.
         24    2    1    2    0    0 -0.61318611063E+01  0.27990889771E+02  0.12331208345E+03  0.14822166113E+03  0.77088917953E+02 0.  0.
        -13    1    5    5    0    0  0.34399324871E+02  0.14675113567E+02  0.74733934474E+02  0.83569333321E+02  0.00000000000E+00 0.  1.
         14    1    5    5    0    0 -0.40531185977E+02  0.13315776204E+02  0.48578148977E+02  0.64652327805E+02  0.00000000000E+00 0. -1.
        -13    1    3    3    0    0 -0.21868391860E+02 -0.11421752264E+02 -0.30386642042E+02  0.39141167610E+02  0.00000000000E+00 0.  1.
         14    1    3    3    0    0  0.64742876208E+02  0.12982781156E+02 -0.57929470614E+02  0.87840857190E+02  0.00000000000E+00 0. -1.
          5    1    4    4  502    0  0.41122248167E+02 -0.49346993985E+02  0.29482984788E+03  0.30178285954E+03  0.47000000000E+01 0. -1.
         -5    1    4    4    0  502  0.17270561163E+01  0.64640275648E+02  0.17962308882E+03  0.19096568277E+03  0.47000000000E+01 0. -1.
          1    1    1    2  503    0 -0.11444378283E+03 -0.29131447409E+02  0.10516081384E+04  0.10582181710E+04  0.00000000000E+00 0. -1.
         -2    1    1    2    0  501  0.34851855307E+02 -0.15713752918E+02 -0.29990303523E+02  0.48590041721E+02  0.00000000000E+00 0.  1.
<mgrwt>
<rscale>  0 0.61452378E+02</rscale>
<asrwt>0</asrwt>
<pdfrwt beam="1">  1        2 0.25042846E+00 0.98779542E+02</pdfrwt>
<pdfrwt beam="2">  1       -1 0.25271596E-01 0.38230536E+02</pdfrwt>
<totfact> 0.18950396E+02</totfact>
</mgrwt>
</event>
<event>
13    1  0.1589573E-008  0.3202057E+02  0.7546771E-02  0.1589232E+00
          2   -1    0    0  502    0  0.00000000000E+00  0.00000000000E+00  0.40394979292E+03  0.40394979292E+03  0.00000000000E+00 0. -1.
          2   -1    0    0  503    0 -0.00000000000E+00 -0.00000000000E+00 -0.14703877415E+04  0.14703877415E+04  0.00000000000E+00 0. -1.
         24    2    1    2    0    0 -0.34970949692E+02 -0.11310650145E+02 -0.51231912142E+03  0.51960485490E+03  0.78532954462E+02 0.  0.
         25    2    1    2    0    0  0.97253435983E+02 -0.16402250390E+02  0.21657791228E+03  0.26881283688E+03  0.12500833795E+03 0.  0.
         24    2    1    2    0    0 -0.13542862298E+01  0.24544458789E+02 -0.79407425057E+02  0.11557899071E+03  0.80303794370E+02 0.  0.
        -13    1    3    3    0    0  0.15250055870E+02 -0.10705229515E+02 -0.34999302519E+02  0.39649934676E+02  0.00000000000E+00 0.  1.
         14    1    3    3    0    0 -0.50221005562E+02 -0.60542063027E+00 -0.47731981890E+03  0.47995492023E+03  0.00000000000E+00 0. -1.
        -13    1    5    5    0    0 -0.30031593650E+02 -0.15409801104E+02 -0.23559912482E+02  0.41163431142E+02  0.00000000000E+00 0.  1.
         14    1    5    5    0    0  0.28677307421E+02  0.39954259893E+02 -0.55847512575E+02  0.74415559565E+02  0.00000000000E+00 0. -1.
          5    1    4    4  501    0  0.25712105506E+02 -0.62595581482E+02  0.60224924051E+02  0.90710807887E+02  0.47000000000E+01 0.  1.
         -5    1    4    4    0  501  0.71541330477E+02  0.46193331092E+02  0.15635298823E+03  0.17810202899E+03  0.47000000000E+01 0.  1.
          1    1    1    2  502    0 -0.31834058162E+02 -0.25882359500E+01  0.13742921032E+03  0.14109179308E+03  0.00000000000E+00 0. -1.
          1    1    1    2  503    0 -0.29094141899E+02  0.57566776963E+01 -0.82871852471E+03  0.82924905886E+03  0.00000000000E+00 0. -1.
<mgrwt>
<rscale>  0 0.30816754E+02</rscale>
<asrwt>0</asrwt>
<pdfrwt beam="1">  1        2 0.59404381E-01 0.32020573E+02</pdfrwt>
<pdfrwt beam="2">  1        2 0.21623349E+00 0.29658193E+02</pdfrwt>
<totfact> 0.23642387E+02</totfact>
</mgrwt>
</event>
<event>
13    1  0.1589573E-008  0.7776907E+02  0.7546771E-02  0.1379345E+00
          4   -1    0    0  503    0 -0.00000000000E+00  0.00000000000E+00  0.72252729150E+03  0.72252729150E+03  0.00000000000E+00 0. -1.
          2   -1    0    0  502    0  0.00000000000E+00 -0.00000000000E+00 -0.24563756217E+04  0.24563756217E+04  0.00000000000E+00 0. -1.
         24    2    1    2    0    0 -0.55233401201E+03 -0.69579490725E+02 -0.75416749759E+03  0.94104070480E+03  0.82914578425E+02 0.  0.
         25    2    1    2    0    0  0.53151077629E+03 -0.10289549493E+02 -0.24538360312E+03  0.59870482570E+03  0.12499910200E+03 0.  0.
         24    2    1    2    0    0  0.97658245202E+02  0.38803667899E+02 -0.98311693658E+03  0.99195183808E+03  0.80041742754E+02 0.  0.
        -11    1    3    3    0    0 -0.87392990419E+02  0.11730282441E+02 -0.87698056587E+02  0.12436270916E+03  0.00000000000E+00 0.  1.
         12    1    3    3    0    0 -0.46494102160E+03 -0.81309773166E+02 -0.66646944100E+03  0.81667799564E+03  0.00000000000E+00 0. -1.
        -13    1    5    5    0    0 -0.13476017022E+02 -0.97511443380E+00 -0.76641136171E+02  0.77822989126E+02  0.00000000000E+00 0.  1.
         14    1    5    5    0    0  0.11113426222E+03  0.39778782332E+02 -0.90647580041E+03  0.91412884896E+03  0.00000000000E+00 0. -1.
          5    1    4    4  501    0  0.24764692868E+03  0.78245847856E+01 -0.47911239492E+02  0.25240404569E+03  0.47000000000E+01 0. -1.
         -5    1    4    4    0  501  0.28386384761E+03 -0.18114134279E+02 -0.19747236363E+03  0.34630078002E+03  0.47000000000E+01 0. -1.
          1    1    1    2  502    0 -0.76963288437E+02 -0.12655610217E+02 -0.18985580788E+03  0.20525286849E+03  0.00000000000E+00 0. -1.
          3    1    1    2  503    0  0.12827896148E+00  0.53720982536E+02  0.43867551502E+03  0.44195267608E+03  0.00000000000E+00 0. -1.
<mgrwt>
<rscale>  0 0.64636235E+02</rscale>
<asrwt>0</asrwt>
<pdfrwt beam="2">  1        2 0.36123171E+00 0.77769072E+02</pdfrwt>
<pdfrwt beam="1">  1        4 0.10625401E+00 0.53721136E+02</pdfrwt>
<totfact> 0.21018260E+00</totfact>
</mgrwt>
</event>
<event>
13    1  0.1589573E-008  0.6553092E+02  0.7546771E-02  0.1523574E+00
          2   -1    0    0  502    0  0.00000000000E+00  0.00000000000E+00  0.17909188302E+04  0.17909188302E+04  0.00000000000E+00 0. -1.
          2   -1    0    0  503    0 -0.00000000000E+00 -0.00000000000E+00 -0.19984897359E+04  0.19984897359E+04  0.00000000000E+00 0. -1.
         24    2    1    2    0    0 -0.10761252741E+03 -0.28349312503E+02 -0.23098057584E+03  0.26864956454E+03  0.80227317915E+02 0.  0.
         25    2    1    2    0    0  0.15741181129E+03  0.12571943354E+03  0.87526032502E+03  0.90680163945E+03  0.12499888986E+03 0.  0.
         24    2    1    2    0    0 -0.85624839040E+01 -0.11855973926E+03  0.18293015965E+03  0.23085346935E+03  0.75499358263E+02 0.  0.
        -11    1    5    5    0    0 -0.20863621008E+02 -0.62756498231E+02  0.40900017961E+02  0.77759116642E+02  0.00000000000E+00 0.  1.
         12    1    5    5    0    0  0.12301137104E+02 -0.55803241030E+02  0.14203014169E+03  0.15309435271E+03  0.00000000000E+00 0. -1.
        -13    1    3    3    0    0 -0.70892446652E+02 -0.48787124732E+02 -0.10452289589E+03  0.13539186939E+03  0.00000000000E+00 0.  1.
         14    1    3    3    0    0 -0.36720080758E+02  0.20437812229E+02 -0.12645767994E+03  0.13325769515E+03  0.00000000000E+00 0. -1.
          5    1    4    4  501    0 -0.84792549249E+01 -0.15950573435E+02  0.59208975971E+02  0.62081489935E+02  0.47000000000E+01 0.  1.
         -5    1    4    4    0  501  0.16589106621E+03  0.14167000697E+03  0.81605134904E+03  0.84472014952E+03  0.47000000000E+01 0.  1.
          1    1    1    2  502    0  0.21786757724E+02  0.31948324327E+01  0.67335307358E+03  0.67371301863E+03  0.00000000000E+00 0. -1.
          1    1    1    2  503    0 -0.63023557697E+02  0.17994785792E+02 -0.17081338880E+04  0.17093908741E+04  0.00000000000E+00 0. -1.
<mgrwt>
<rscale>  0 0.37986511E+02</rscale>
<asrwt>0</asrwt>
<pdfrwt beam="1">  1        2 0.26337042E+00 0.22019759E+02</pdfrwt>
<pdfrwt beam="2">  1        2 0.29389555E+00 0.65530919E+02</pdfrwt>
<totfact> 0.20142637E+01</totfact>
</mgrwt>
</event>
<event>
13    1  0.1589573E-008  0.1489154E+03  0.7546771E-02  0.1370956E+00
          2   -1    0    0  503    0  0.00000000000E+00  0.00000000000E+00  0.24567286168E+04  0.24567286168E+04  0.00000000000E+00 0. -1.
          2   -1    0    0  502    0 -0.00000000000E+00 -0.00000000000E+00 -0.14005524633E+04  0.14005524633E+04  0.00000000000E+00 0. -1.
         24    2    1    2    0    0  0.45406837725E+02  0.97096168826E+02 -0.20984220777E+03  0.24912287802E+03  0.80864140875E+02 0.  0.
         25    2    1    2    0    0 -0.17126887558E+03 -0.21558452503E+03  0.19327866133E+04  0.19562951277E+04  0.12496727103E+03 0.  0.
         24    2    1    2    0    0  0.77159190295E+02  0.19184116262E+02 -0.77972848271E+02  0.14075382990E+03  0.86083126114E+02 0.  0.
        -11    1    3    3    0    0  0.49626285643E+02  0.10754533024E+03 -0.20521084805E+03  0.23693935604E+03  0.00000000000E+00 0.  1.
         12    1    3    3    0    0 -0.42194479179E+01 -0.10449161415E+02 -0.46313597175E+01  0.12183521980E+02  0.00000000000E+00 0. -1.
        -11    1    5    5    0    0  0.79449100886E+02  0.46797920304E+01 -0.91163039599E+02  0.12101553567E+03  0.00000000000E+00 0.  1.
         12    1    5    5    0    0 -0.22899105910E+01  0.14504324232E+02  0.13190191328E+02  0.19738294233E+02  0.00000000000E+00 0. -1.
          5    1    4    4  501    0 -0.15264159439E+03 -0.14289704892E+03  0.16673676893E+04  0.16804333145E+04  0.47000000000E+01 0. -1.
         -5    1    4    4    0  501 -0.18627281195E+02 -0.72687476109E+02  0.26541892401E+03  0.27586181325E+03  0.47000000000E+01 0. -1.
          1    1    1    2  502    0  0.59295423647E+02  0.12743245183E+03 -0.10447515317E+04  0.10541635262E+04  0.00000000000E+00 0. -1.
          1    1    1    2  503    0 -0.10592576084E+02 -0.28128211885E+02  0.45595612779E+03  0.45694571827E+03  0.00000000000E+00 0. -1.
<mgrwt>
<rscale>  0 0.66902086E+02</rscale>
<asrwt>0</asrwt>
<pdfrwt beam="1">  1        2 0.36128362E+00 0.30056596E+02</pdfrwt>
<pdfrwt beam="2">  1        2 0.20596360E+00 0.14891537E+03</pdfrwt>
<totfact> 0.17620092E+01</totfact>
</mgrwt>
</event>
<event>
13    1  0.1589573E-008  0.7940248E+02  0.7546771E-02  0.1397108E+00
          2   -1    0    0  503    0  0.00000000000E+00  0.00000000000E+00  0.20168681907E+04  0.20168681907E+04  0.00000000000E+00 0. -1.
         -1   -1    0    0    0  501 -0.00000000000E+00 -0.00000000000E+00 -0.46742382910E+03  0.46742382910E+03  0.00000000000E+00 0.  1.
         24    2    1    2    0    0  0.29910307955E+02  0.77036169474E+02 -0.32698718715E+03  0.34658773176E+03  0.79832557992E+02 0.  0.
         25    2    1    2    0    0 -0.93785138497E+02 -0.55276801591E+02  0.43576325102E+03  0.46622461671E+03  0.12499842115E+03 0.  0.
         24    2    1    2    0    0 -0.33921388728E+02 -0.18034305632E+02  0.31386601595E+02  0.82557822556E+02  0.65990745659E+02 0.  0.
        -11    1    3    3    0    0  0.24663076452E+02  0.72273942554E+02 -0.14005893248E+03  0.15952521644E+03  0.00000000000E+00 0.  1.
         12    1    3    3    0    0  0.52472315024E+01  0.47622269199E+01 -0.18692825466E+03  0.18706251531E+03  0.00000000000E+00 0. -1.
        -13    1    5    5    0    0  0.12006424045E+02  0.14909707875E+02  0.32376259524E+01  0.19414835283E+02  0.00000000000E+00 0.  1.
         14    1    5    5    0    0 -0.45927812773E+02 -0.32944013507E+02  0.28148975643E+02  0.63142987273E+02  0.00000000000E+00 0. -1.
          5    1    4    4  502    0 -0.69453650824E+02 -0.62745717580E+00  0.82706271226E+02  0.10810467435E+03  0.47000000000E+01 0.  1.
         -5    1    4    4    0  502 -0.24331487673E+02 -0.54649344415E+02  0.35305697979E+03  0.35811994236E+03  0.47000000000E+01 0.  1.
          1    1    1    2  503    0  0.28315067927E+02  0.35743906108E+02  0.14809082757E+04  0.14816101683E+04  0.00000000000E+00 0. -1.
         -2    1    1    2    0  501  0.69481151343E+02 -0.39468968359E+02 -0.71626579574E+02  0.10731168043E+03  0.00000000000E+00 0.  1.
<mgrwt>
<rscale>  0 0.60172767E+02</rscale>
<asrwt>0</asrwt>
<pdfrwt beam="1">  1        2 0.29659826E+00 0.45600109E+02</pdfrwt>
<pdfrwt beam="2">  1       -1 0.68738800E-01 0.79402484E+02</pdfrwt>
<totfact> 0.25837910E+01</totfact>
</mgrwt>
</event>
<event>
13    1  0.1589573E-008  0.1074193E+03  0.7546771E-02  0.1287655E+00
          2   -1    0    0  503    0  0.00000000000E+00  0.00000000000E+00  0.30347541541E+04  0.30347541541E+04  0.00000000000E+00 0. -1.
          2   -1    0    0  502    0 -0.00000000000E+00 -0.00000000000E+00 -0.14514293046E+04  0.14514293046E+04  0.00000000000E+00 0. -1.
         24    2    1    2    0    0  0.20095897941E+01  0.38696887925E+02 -0.26452127593E+03  0.27887183202E+03  0.79350524171E+02 0.  0.
         25    2    1    2    0    0 -0.56070760627E+02  0.86791676496E+02  0.88166340323E+03  0.89645623999E+03  0.12500683308E+03 0.  0.
         24    2    1    2    0    0  0.13476347980E+02 -0.28588086295E+02 -0.16970972086E+03  0.19174895643E+03  0.83470847019E+02 0.  0.
        -13    1    5    5    0    0  0.11524475619E+02  0.23707102544E+02 -0.19800793872E+02  0.32968343714E+02  0.00000000000E+00 0.  1.
         14    1    5    5    0    0  0.19518723617E+01 -0.52295188839E+02 -0.14990892699E+03  0.15878061271E+03  0.00000000000E+00 0. -1.
        -13    1    3    3    0    0  0.20868345453E+02  0.57405254776E+02 -0.16789219036E+03  0.17865788173E+03  0.00000000000E+00 0.  1.
         14    1    3    3    0    0 -0.18858755659E+02 -0.18708366851E+02 -0.96629085572E+02  0.10021395030E+03  0.00000000000E+00 0. -1.
          5    1    4    4  501    0 -0.94282708165E+02  0.43074809756E+02  0.58394607348E+03  0.59309339486E+03  0.47000000000E+01 0. -1.
         -5    1    4    4    0  501  0.38211947538E+02  0.43716866740E+02  0.29771732974E+03  0.30336284512E+03  0.47000000000E+01 0. -1.
          1    1    1    2  502    0 -0.66871819051E+02 -0.87638246978E+02 -0.98717004670E+03  0.99330609765E+03  0.00000000000E+00 0. -1.
          1    1    1    2  503    0  0.10745664190E+03 -0.92622311470E+01  0.21230624897E+04  0.21258003326E+04  0.00000000000E+00 0. -1.
<mgrwt>
<rscale>  0 0.96580696E+02</rscale>
<asrwt>0</asrwt>
<pdfrwt beam="1">  1        2 0.44628738E+00 0.10741932E+03</pdfrwt>
<pdfrwt beam="2">  1        2 0.21344548E+00 0.86835688E+02</pdfrwt>
<totfact> 0.73063026E+00</totfact>
</mgrwt>
</event>
<event>
13    1  0.1589573E-008  0.1018860E+03  0.7546771E-02  0.1282698E+00
          2   -1    0    0  502    0  0.00000000000E+00  0.00000000000E+00  0.14539534249E+04  0.14539534249E+04  0.00000000000E+00 0. -1.
          2   -1    0    0  503    0 -0.00000000000E+00 -0.00000000000E+00 -0.17537080279E+04  0.17537080279E+04  0.00000000000E+00 0. -1.
         24    2    1    2    0    0  0.42390845564E+01  0.21753445640E+02 -0.41933176149E+03  0.42935223003E+03  0.89515523821E+02 0.  0.
         25    2    1    2    0    0 -0.40169118088E+02 -0.32505317438E+01  0.70627550446E+03  0.71838321528E+03  0.12500092719E+03 0.  0.
         24    2    1    2    0    0  0.32096612485E+02 -0.63823990224E+02 -0.20868771502E+02  0.10791741584E+03  0.78147096910E+02 0.  0.
        -11    1    5    5    0    0 -0.18123730788E+02 -0.28512708778E+01 -0.22344486163E+02  0.28911510254E+02  0.00000000000E+00 0.  1.
         12    1    5    5    0    0  0.50220343273E+02 -0.60972719346E+02  0.14757146616E+01  0.79005905581E+02  0.00000000000E+00 0. -1.
        -13    1    3    3    0    0  0.10753725939E+02 -0.26579881128E+02 -0.57542137181E+02  0.64290203404E+02  0.00000000000E+00 0.  1.
         14    1    3    3    0    0 -0.65146413830E+01  0.48333326768E+02 -0.36178962430E+03  0.36506202662E+03  0.00000000000E+00 0. -1.
          5    1    4    4  501    0  0.45178378614E+01  0.22111361011E+02  0.21048072300E+02  0.31215933307E+02  0.47000000000E+01 0. -1.
         -5    1    4    4    0  501 -0.44686955949E+02 -0.25361892755E+02  0.68522743216E+03  0.68716728198E+03  0.47000000000E+01 0. -1.
          1    1    1    2  502    0  0.95685744249E+02 -0.68339065870E+01  0.68753800619E+03  0.69419807972E+03  0.00000000000E+00 0. -1.
          1    1    1    2  503    0 -0.91852323203E+02  0.52154982915E+02 -0.12533675807E+04  0.12578105119E+04  0.00000000000E+00 0. -1.
<mgrwt>
<rscale>  0 0.98866346E+02</rscale>
<asrwt>0</asrwt>
<pdfrwt beam="1">  1        2 0.21381668E+00 0.95936199E+02</pdfrwt>
<pdfrwt beam="2">  1        2 0.25789824E+00 0.10188599E+03</pdfrwt>
<totfact> 0.31704449E+01</totfact>
</mgrwt>
</event>
<event>
13    1  0.1589573E-008  0.4675209E+02  0.7546771E-02  0.1588789E+00
          2   -1    0    0  502    0  0.00000000000E+00  0.00000000000E+00  0.17093402899E+04  0.17093402899E+04  0.00000000000E+00 0. -1.
          2   -1    0    0  503    0 -0.00000000000E+00 -0.00000000000E+00 -0.24291191674E+04  0.24291191674E+04  0.00000000000E+00 0. -1.
         24    2    1    2    0    0  0.85759155737E+03 -0.12271831506E+03 -0.46890192173E+03  0.98916597540E+03  0.89762188947E+02 0.  0.
         25    2    1    2    0    0  0.13438728809E+03  0.24215066996E+03 -0.17280547689E+03  0.34954789000E+03  0.12500041758E+03 0.  0.
         24    2    1    2    0    0 -0.96492997768E+03 -0.15109635112E+03 -0.24282527889E+03  0.10096936599E+04  0.81223159188E+02 0.  0.
        -11    1    3    3    0    0  0.65408445768E+03 -0.76485082281E+02 -0.31586507136E+03  0.73037469075E+03  0.00000000000E+00 0.  1.
         12    1    3    3    0    0  0.20350709970E+03 -0.46233232784E+02 -0.15303685037E+03  0.25879128465E+03  0.00000000000E+00 0. -1.
        -13    1    5    5    0    0 -0.66682483586E+03 -0.79142498231E+02 -0.13744622889E+03  0.68542713879E+03  0.00000000000E+00 0.  1.
         14    1    5    5    0    0 -0.29810514181E+03 -0.71953852885E+02 -0.10537905000E+03  0.32426652109E+03  0.00000000000E+00 0. -1.
          5    1    4    4  501    0  0.19575983452E+02  0.15454553362E+03 -0.63160743397E+02  0.16816334498E+03  0.47000000000E+01 0.  1.
         -5    1    4    4    0  501  0.11481130464E+03  0.87605136342E+02 -0.10964473349E+03  0.18138454501E+03  0.47000000000E+01 0.  1.
          1    1    1    2  502    0 -0.15190822782E+02 -0.13568084045E+02  0.97662393123E+03  0.97683630002E+03  0.00000000000E+00 0. -1.
          1    1    1    2  503    0 -0.11858045007E+02  0.45232080264E+02 -0.81187013121E+03  0.81321563208E+03  0.00000000000E+00 0. -1.
<mgrwt>
<rscale>  0 0.30858468E+02</rscale>
<asrwt>0</asrwt>
<pdfrwt beam="1">  1        2 0.25137357E+00 0.20367965E+02</pdfrwt>
<pdfrwt beam="2">  1        2 0.35722340E+00 0.46752095E+02</pdfrwt>
<totfact> 0.14406275E+01</totfact>
</mgrwt>
</event>
<event>
13    1  0.1589573E-008  0.1421170E+03  0.7546771E-02  0.1398250E+00
          2   -1    0    0  503    0  0.00000000000E+00  0.00000000000E+00  0.88350559970E+03  0.88350559970E+03  0.00000000000E+00 0. -1.
          2   -1    0    0  502    0 -0.00000000000E+00 -0.00000000000E+00 -0.20725331646E+04  0.20725331646E+04  0.00000000000E+00 0. -1.
         24    2    1    2    0    0 -0.41631881052E+02  0.50482245023E+02 -0.54316930237E+03  0.55300004964E+03  0.80588419047E+02 0.  0.
         25    2    1    2    0    0 -0.13769252411E+03 -0.12292599020E+02 -0.53468556382E+03  0.56623685977E+03  0.12500076007E+03 0.  0.
         24    2    1    2    0    0  0.56751914200E+02  0.55765997030E+02  0.88352621744E+02  0.14170112477E+03  0.77086943139E+02 0.  0.
        -11    1    3    3    0    0  0.15749811527E+02  0.45393671392E+01 -0.25762599223E+03  0.25814688511E+03  0.00000000000E+00 0.  1.
         12    1    3    3    0    0 -0.57381692579E+02  0.45942877883E+02 -0.28554331014E+03  0.29485316453E+03  0.00000000000E+00 0. -1.
        -11    1    5    5    0    0  0.57563505894E+02  0.42036477724E+01  0.58189347939E+02  0.81958697397E+02  0.00000000000E+00 0.  1.
         12    1    5    5    0    0 -0.81159169458E+00  0.51562349258E+02  0.30163273805E+02  0.59742427375E+02  0.00000000000E+00 0. -1.
          5    1    4    4  501    0  0.14361365000E+02  0.10956636354E+02 -0.16136359499E+03  0.16243951635E+03  0.47000000000E+01 0. -1.
         -5    1    4    4    0  501 -0.15205388911E+03 -0.23249235373E+02 -0.37332196883E+03  0.40379734341E+03  0.47000000000E+01 0. -1.
          1    1    1    2  502    0  0.45951075570E+01  0.24825606505E+02 -0.93777080660E+03  0.93811060726E+03  0.00000000000E+00 0. -1.
          1    1    1    2  503    0  0.11797738340E+03 -0.11878124954E+03  0.73824548616E+03  0.75699012283E+03  0.00000000000E+00 0. -1.
<mgrwt>
<rscale>  0 0.59900486E+02</rscale>
<asrwt>0</asrwt>
<pdfrwt beam="1">  1        2 0.12992730E+00 0.14211696E+03</pdfrwt>
<pdfrwt beam="2">  1        2 0.30478428E+00 0.25247292E+02</pdfrwt>
<totfact> 0.52553589E+01</totfact>
</mgrwt>
</event>
<event>
13    1  0.1589573E-008  0.9953210E+02  0.7546771E-02  0.1334523E+00
          2   -1    0    0  503    0  0.00000000000E+00  0.00000000000E+00  0.28457133604E+04  0.28457133604E+04  0.00000000000E+00 0. -1.
          2   -1    0    0  502    0 -0.00000000000E+00 -0.00000000000E+00 -0.10074090834E+04  0.10074090834E+04  0.00000000000E+00 0. -1.
         24    2    1    2    0    0 -0.10968200772E+03 -0.54006191397E+02 -0.79437858368E+02  0.16642166068E+03  0.80243281798E+02 0.  0.
         25    2    1    2    0    0 -0.11695191386E+03 -0.54250558339E+02  0.19710520135E+03  0.26663943427E+03  0.12500101709E+03 0.  0.
         24    2    1    2    0    0  0.10174231700E+03  0.89548655837E+02  0.12414569912E+04  0.12515210784E+04  0.81970042211E+02 0.  0.
        -11    1    3    3    0    0 -0.95306695994E+02 -0.61127163757E+02 -0.92124904274E+02  0.14596881324E+03  0.00000000000E+00 0.  1.
         12    1    3    3    0    0 -0.14375311723E+02  0.71209723599E+01  0.12687045906E+02  0.20452847438E+02  0.00000000000E+00 0. -1.
        -13    1    5    5    0    0  0.48481347185E+02  0.90091479732E+02  0.69761938261E+03  0.70508135611E+03  0.00000000000E+00 0.  1.
         14    1    5    5    0    0  0.53260969811E+02 -0.54282389495E+00  0.54383760857E+03  0.54643972226E+03  0.00000000000E+00 0. -1.
          5    1    4    4  501    0 -0.10072331977E+03  0.23500433474E+01  0.60015199660E+02  0.11736534429E+03  0.47000000000E+01 0. -1.
         -5    1    4    4    0  501 -0.16228594089E+02 -0.56600601686E+02  0.13709000169E+03  0.14927408999E+03  0.47000000000E+01 0. -1.
          1    1    1    2  502    0  0.45483651551E+02 -0.41077392554E+02 -0.84169868962E+03  0.84392701038E+03  0.00000000000E+00 0. -1.
          1    1    1    2  503    0  0.79407953030E+02  0.59785486453E+02  0.13208786324E+04  0.13246132601E+04  0.00000000000E+00 0. -1.
<mgrwt>
<rscale>  0 0.78102744E+02</rscale>
<asrwt>0</asrwt>
<pdfrwt beam="1">  1        2 0.41848726E+00 0.99532098E+02</pdfrwt>
<pdfrwt beam="2">  1        2 0.14814840E+00 0.61287150E+02</pdfrwt>
<totfact> 0.16195590E+01</totfact>
</mgrwt>
</event>
<event>
13    1  0.1589573E-008  0.3612847E+03  0.7546771E-02  0.1166253E+00
          2   -1    0    0  503    0  0.00000000000E+00  0.00000000000E+00  0.18438496199E+04  0.18438496199E+04  0.00000000000E+00 0. -1.
          2   -1    0    0  502    0 -0.00000000000E+00 -0.00000000000E+00 -0.27803931032E+04  0.27803931032E+04  0.00000000000E+00 0. -1.
         24    2    1    2    0    0 -0.16293307836E+03  0.30600601368E+03 -0.10293870084E+04  0.10902900692E+04  0.94381955563E+02 0.  0.
         25    2    1    2    0    0 -0.21697088400E+03 -0.51051519386E+03  0.42263616274E+03  0.70848297888E+03  0.12499871055E+03 0.  0.
         24    2    1    2    0    0 -0.37201527489E+02  0.15658219939E+03  0.71385624750E+03  0.73638417621E+03  0.82273775073E+02 0.  0.
        -13    1    5    5    0    0 -0.29665910627E+02  0.11069249777E+03  0.32213330023E+03  0.34191045382E+03  0.00000000000E+00 0.  1.
         14    1    5    5    0    0 -0.75356168612E+01  0.45889701619E+02  0.39172294727E+03  0.39447372239E+03  0.00000000000E+00 0. -1.
        -13    1    3    3    0    0 -0.69310991720E+02  0.80713760875E+02 -0.21088645401E+03  0.23620292389E+03  0.00000000000E+00 0.  1.
         14    1    3    3    0    0 -0.93622086645E+02  0.22529225281E+03 -0.81850055437E+03  0.85408714531E+03  0.00000000000E+00 0. -1.
          5    1    4    4  501    0 -0.18081588519E+03 -0.27183059422E+03  0.22607347357E+03  0.39713670410E+03  0.47000000000E+01 0.  1.
         -5    1    4    4    0  501 -0.36154998807E+02 -0.23868459964E+03  0.19656268917E+03  0.31134627478E+03  0.47000000000E+01 0.  1.
          1    1    1    2  502    0  0.37667128191E+03 -0.33922708791E+02 -0.15393090801E+04  0.15850881518E+04  0.00000000000E+00 0. -1.
          1    1    1    2  503    0  0.40434207939E+02  0.81849689573E+02  0.49566019504E+03  0.50399734702E+03  0.00000000000E+00 0. -1.
<mgrwt>
<rscale>  0 0.18161095E+03</rscale>
<asrwt>0</asrwt>
<pdfrwt beam="1">  1        2 0.27115436E+00 0.91292370E+02</pdfrwt>
<pdfrwt beam="2">  1        2 0.40888133E+00 0.36128472E+03</pdfrwt>
<totfact> 0.54401601E+00</totfact>
</mgrwt>
</event>
<event>
13    1  0.1589573E-008  0.1133401E+03  0.7546771E-02  0.1266594E+00
          2   -1    0    0  502    0  0.00000000000E+00  0.00000000000E+00  0.74432891017E+03  0.74432891017E+03  0.00000000000E+00 0. -1.
          2   -1    0    0  503    0 -0.00000000000E+00 -0.00000000000E+00 -0.18971156258E+04  0.18971156258E+04  0.00000000000E+00 0. -1.
         24    2    1    2    0    0 -0.26331148069E+03  0.12088957772E+03 -0.94799622409E+03  0.99434940390E+03  0.78017115293E+02 0.  0.
         25    2    1    2    0    0  0.10364644795E+03 -0.13648815001E+03  0.39230586052E+03  0.44598080828E+03  0.12499356741E+03 0.  0.
         24    2    1    2    0    0  0.11749409980E+03 -0.46195988354E+02 -0.65469224054E+01  0.14980070494E+03  0.80364520667E+02 0.  0.
        -13    1    3    3    0    0 -0.20810256048E+03  0.58135594694E+02 -0.65988754228E+03  0.69436157116E+03  0.00000000000E+00 0.  1.
         14    1    3    3    0    0 -0.55208920216E+02  0.62753983023E+02 -0.28810868181E+03  0.29998783274E+03  0.00000000000E+00 0. -1.
        -13    1    5    5    0    0  0.68870588017E+02  0.15729494877E+02 -0.76678528148E+01  0.71058925335E+02  0.00000000000E+00 0.  1.
         14    1    5    5    0    0  0.48623511778E+02 -0.61925483231E+02  0.11209304094E+01  0.78741779610E+02  0.00000000000E+00 0. -1.
          5    1    4    4  501    0 -0.15634400920E+02 -0.71196111802E+02  0.17446940297E+03  0.18914275931E+03  0.47000000000E+01 0. -1.
         -5    1    4    4    0  501  0.11928084887E+03 -0.65292038206E+02  0.21783645755E+03  0.25683804897E+03  0.47000000000E+01 0. -1.
          1    1    1    2  502    0  0.92097197050E+02 -0.40617743209E+02  0.21518527356E+03  0.23756345831E+03  0.00000000000E+00 0. -1.
          1    1    1    2  503    0 -0.49926264107E+02  0.10241230386E+03 -0.80573470316E+03  0.81375016049E+03  0.00000000000E+00 0. -1.
<mgrwt>
<rscale>  0 0.10681012E+03</rscale>
<asrwt>0</asrwt>
<pdfrwt beam="1">  1        2 0.10946014E+00 0.10065632E+03</pdfrwt>
<pdfrwt beam="2">  1        2 0.27898759E+00 0.11334015E+03</pdfrwt>
<totfact> 0.66989208E+01</totfact>
</mgrwt>
</event>
<event>
13    1  0.1589573E-008  0.4629115E+03  0.7546771E-02  0.1240529E+00
          2   -1    0    0  503    0  0.00000000000E+00  0.00000000000E+00  0.39658312265E+04  0.39658312265E+04  0.00000000000E+00 0. -1.
          2   -1    0    0  502    0 -0.00000000000E+00 -0.00000000000E+00 -0.26991596977E+04  0.26991596977E+04  0.00000000000E+00 0. -1.
         24    2    1    2    0    0 -0.24875499710E+03 -0.18429046697E+04  0.52302393631E+03  0.19326038123E+04  0.56804818923E+02 0.  0.
         25    2    1    2    0    0  0.88831605119E+02  0.10314649879E+04  0.23070584438E+03  0.10680172873E+04  0.12499865611E+03 0.  0.
         24    2    1    2    0    0 -0.26813700217E+03  0.56449362782E+03 -0.71788331698E+02  0.63123856782E+03  0.52517208132E+02 0.  0.
        -13    1    3    3    0    0 -0.37493952151E+02 -0.20886890168E+03  0.43675880508E+02  0.21665548014E+03  0.00000000000E+00 0.  1.
         14    1    3    3    0    0 -0.21126104495E+03 -0.16340357680E+04  0.47934805580E+03  0.17159483322E+04  0.00000000000E+00 0. -1.
        -13    1    5    5    0    0 -0.12973415541E+03  0.26488624069E+03 -0.77454042009E+01  0.29505196639E+03  0.00000000000E+00 0.  1.
         14    1    5    5    0    0 -0.13840284676E+03  0.29960738714E+03 -0.64042927497E+02  0.33618660143E+03  0.00000000000E+00 0. -1.
          5    1    4    4  501    0  0.24278950918E+02  0.18901406790E+03  0.92401226829E+02  0.21183923631E+03  0.47000000000E+01 0. -1.
         -5    1    4    4    0  501  0.64552654201E+02  0.84245092003E+03  0.13830461755E+03  0.85617805102E+03  0.47000000000E+01 0. -1.
          1    1    1    2  502    0  0.26989273077E+02  0.17055690865E+02 -0.11944487220E+04  0.11948753353E+04  0.00000000000E+00 0. -1.
          1    1    1    2  503    0  0.40107112108E+03  0.22989036306E+03  0.17791788019E+04  0.18382559213E+04  0.00000000000E+00 0. -1.
<mgrwt>
<rscale>  0 0.12156998E+03</rscale>
<asrwt>0</asrwt>
<pdfrwt beam="1">  1        2 0.58321048E+00 0.46291147E+03</pdfrwt>
<pdfrwt beam="2">  1        2 0.39693525E+00 0.31926751E+02</pdfrwt>
<totfact> 0.44903595E-01</totfact>
</mgrwt>
</event>
<event>
13    1  0.1589573E-008  0.1960603E+03  0.7546771E-02  0.1285152E+00
          2   -1    0    0  503    0  0.00000000000E+00  0.00000000000E+00  0.37034817750E+04  0.37034817750E+04  0.00000000000E+00 0. -1.
          2   -1    0    0  502    0 -0.00000000000E+00 -0.00000000000E+00 -0.96113250234E+03  0.96113250234E+03  0.00000000000E+00 0. -1.
         24    2    1    2    0    0  0.35013049923E+03  0.30905187226E+03 -0.19071163402E+03  0.51071954639E+03  0.79743974529E+02 0.  0.
         25    2    1    2    0    0 -0.17491990800E+03 -0.17610920578E+03  0.94319592157E+03  0.98328787562E+03  0.12500029323E+03 0.  0.
         24    2    1    2    0    0 -0.11626372276E+03  0.12061046649E+03  0.61155582700E+01  0.18574171503E+03  0.79990291851E+02 0.  0.
        -11    1    5    5    0    0 -0.12193242544E+02 -0.10757829409E+02  0.80298102486E+01  0.18135156739E+02  0.00000000000E+00 0.  1.
         12    1    5    5    0    0 -0.10407048022E+03  0.13136829590E+03 -0.19142519786E+01  0.16760655829E+03  0.00000000000E+00 0. -1.
        -13    1    3    3    0    0  0.28268149657E+02  0.58351114248E+02 -0.37634535444E+02  0.74968653964E+02  0.00000000000E+00 0.  1.
         14    1    3    3    0    0  0.32186234958E+03  0.25070075801E+03 -0.15307709858E+03  0.43575089243E+03  0.00000000000E+00 0. -1.
          5    1    4    4  501    0 -0.12653146355E+03 -0.14227250958E+03  0.48135924728E+03  0.51766832353E+03  0.47000000000E+01 0. -1.
         -5    1    4    4    0  501 -0.48388444447E+02 -0.33836696196E+02  0.46183667429E+03  0.46561955209E+03  0.47000000000E+01 0. -1.
          1    1    1    2  502    0 -0.10382727954E+02 -0.25733822196E+03 -0.46717140538E+03  0.53346029237E+03  0.00000000000E+00 0. -1.
          1    1    1    2  503    0 -0.48564140519E+02  0.37850889915E+01  0.24509208322E+04  0.24514048479E+04  0.00000000000E+00 0. -1.
<mgrwt>
<rscale>  0 0.97726025E+02</rscale>
<asrwt>0</asrwt>
<pdfrwt beam="1">  1        2 0.54462967E+00 0.48711422E+02</pdfrwt>
<pdfrwt beam="2">  1        2 0.14134302E+00 0.19606030E+03</pdfrwt>
<totfact> 0.61883761E+00</totfact>
</mgrwt>
</event>
<event>
13    1  0.1589573E-008  0.1963370E+03  0.7546771E-02  0.1185636E+00
          2   -1    0    0  503    0  0.00000000000E+00  0.00000000000E+00  0.28735744315E+03  0.28735744315E+03  0.00000000000E+00 0. -1.
          2   -1    0    0  502    0 -0.00000000000E+00 -0.00000000000E+00 -0.18109941405E+04  0.18109941405E+04  0.00000000000E+00 0. -1.
         24    2    1    2    0    0  0.42831930770E+02 -0.40128596870E+02 -0.46064308333E+03  0.47148437402E+03  0.81612414167E+02 0.  0.
         25    2    1    2    0    0 -0.31327666052E+03 -0.70999650292E+02 -0.27230467610E+03  0.43927069816E+03  0.12500277304E+03 0.  0.
         24    2    1    2    0    0  0.59587891793E+02 -0.45908562656E+02 -0.15695052399E+02  0.11585441462E+03  0.86704081474E+02 0.  0.
        -11    1    5    5    0    0  0.26063704770E+02 -0.18951616793E+02 -0.50915980949E+02  0.60257095859E+02  0.00000000000E+00 0.  1.
         12    1    5    5    0    0  0.33524187023E+02 -0.26956945864E+02  0.35220928549E+02  0.55597318764E+02  0.00000000000E+00 0. -1.
        -13    1    3    3    0    0 -0.17036606219E+02  0.89896287897E+01 -0.49579675391E+02  0.53190258404E+02  0.00000000000E+00 0.  1.
         14    1    3    3    0    0  0.59868536989E+02 -0.49118225660E+02 -0.41106340794E+03  0.41829411562E+03  0.00000000000E+00 0. -1.
          5    1    4    4  501    0 -0.14721664906E+03 -0.89719380712E+02 -0.10078126715E+03  0.19975300460E+03  0.47000000000E+01 0. -1.
         -5    1    4    4    0  501 -0.16606001146E+03  0.18719730421E+02 -0.17152340895E+03  0.23951769356E+03  0.47000000000E+01 0. -1.
          1    1    1    2  502    0  0.35927550275E+03  0.23350754862E+03 -0.79546456637E+03  0.90353114970E+03  0.00000000000E+00 0. -1.
          1    1    1    2  503    0 -0.14841866479E+03 -0.76470738798E+02  0.20470680890E+02  0.16821094711E+03  0.00000000000E+00 0. -1.
<mgrwt>
<rscale>  0 0.16274149E+03</rscale>
<asrwt>0</asrwt>
<pdfrwt beam="1">  1        2 0.42258449E-01 0.13489455E+03</pdfrwt>
<pdfrwt beam="2">  1        2 0.26632266E+00 0.19633701E+03</pdfrwt>
<totfact> 0.19720945E+02</totfact>
</mgrwt>
</event>
<event>
13    1  0.1589573E-008  0.5507088E+02  0.7546771E-02  0.1550957E+00
          2   -1    0    0  503    0  0.00000000000E+00  0.00000000000E+00  0.12893254089E+04  0.12893254089E+04  0.00000000000E+00 0. -1.
         -1   -1    0    0    0  501 -0.00000000000E+00 -0.00000000000E+00 -0.37578742215E+03  0.37578742215E+03  0.00000000000E+00 0.  1.
         24    2    1    2    0    0  0.13963586225E+03 -0.17210197993E+03  0.15282271201E+03  0.28446057759E+03  0.91900888846E+02 0.  0.
         25    2    1    2    0    0 -0.20467164598E+03  0.11208968199E+03  0.35103732700E+03  0.43966646074E+03  0.12499924909E+03 0.  0.
         24    2    1    2    0    0  0.49565059547E+02  0.28421011220E+02  0.49817050317E+03  0.50755918740E+03  0.78600441979E+02 0.  0.
        -11    1    5    5    0    0  0.11461373094E+01 -0.95173535187E+01  0.54764458002E+01  0.11040158846E+02  0.00000000000E+00 0.  1.
         12    1    5    5    0    0  0.48418922238E+02  0.37938364739E+02  0.49269405737E+03  0.49651902855E+03  0.00000000000E+00 0. -1.
        -13    1    3    3    0    0  0.19548996700E+02  0.90547505882E+00 -0.62406594262E+01  0.20540910085E+02  0.00000000000E+00 0.  1.
         14    1    3    3    0    0  0.12008686555E+03 -0.17300745499E+03  0.15906337144E+03  0.26391966750E+03  0.00000000000E+00 0. -1.
          5    1    4    4  502    0 -0.20705631874E+03  0.82650746747E+02  0.34226705001E+03  0.40850004724E+03  0.47000000000E+01 0. -1.
         -5    1    4    4    0  502  0.23846727534E+01  0.29438935241E+02  0.87702769882E+01  0.31166413504E+02  0.47000000000E+01 0. -1.
          1    1    1    2  503    0  0.18713941046E+01 -0.21829716636E+02  0.16884015966E+03  0.17025580213E+03  0.00000000000E+00 0. -1.
         -2    1    1    2    0  501  0.13599330086E+02  0.53421003361E+02 -0.25733271511E+03  0.26317080318E+03  0.00000000000E+00 0.  1.
<mgrwt>
<rscale>  0 0.34736019E+02</rscale>
<asrwt>0</asrwt>
<pdfrwt beam="1">  1        2 0.18960668E+00 0.21909784E+02</pdfrwt>
<pdfrwt beam="2">  1       -1 0.55262857E-01 0.55070876E+02</pdfrwt>
<totfact> 0.90775091E+01</totfact>
</mgrwt>
</event>
<event>
13    1  0.1589573E-008  0.1689067E+03  0.7546771E-02  0.1298379E+00
          4   -1    0    0  503    0 -0.00000000000E+00  0.00000000000E+00  0.40144800692E+03  0.40144800692E+03  0.00000000000E+00 0. -1.
          2   -1    0    0  502    0  0.00000000000E+00 -0.00000000000E+00 -0.40994939988E+04  0.40994939988E+04  0.00000000000E+00 0. -1.
         24    2    1    2    0    0  0.17290866709E+03  0.84297495009E+02  0.11717326472E+03  0.24229256165E+03  0.89289622258E+02 0.  0.
         25    2    1    2    0    0 -0.32331010049E+03 -0.18456634468E+03 -0.76625489985E+03  0.86102604470E+03  0.12500048575E+03 0.  0.
         24    2    1    2    0    0 -0.89868383552E+01 -0.41036936324E+02 -0.48635328725E+02  0.10190756900E+03  0.79088330442E+02 0.  0.
        -13    1    5    5    0    0 -0.41588114028E+02 -0.16204729502E+02 -0.10334505325E+02  0.45814479010E+02  0.00000000000E+00 0.  1.
         14    1    5    5    0    0  0.32601275673E+02 -0.24832206822E+02 -0.38300823400E+02  0.56093089987E+02  0.00000000000E+00 0. -1.
        -13    1    3    3    0    0  0.30487061782E+02  0.48172751910E+02  0.46022334155E+01  0.57194890638E+02  0.00000000000E+00 0.  1.
         14    1    3    3    0    0  0.14242160531E+03  0.36124743098E+02  0.11257103130E+03  0.18509767101E+03  0.00000000000E+00 0. -1.
          5    1    4    4  501    0 -0.55876453453E+02  0.36799668531E+01 -0.57284933312E+02  0.80245708864E+02  0.47000000000E+01 0. -1.
         -5    1    4    4    0  501 -0.26743364704E+03 -0.18824631153E+03 -0.70896996653E+03  0.78078033583E+03  0.47000000000E+01 0. -1.
          1    1    1    2  502    0  0.21259711957E+02  0.45223998110E+02 -0.30998333485E+04  0.31002361159E+04  0.00000000000E+00 0. -1.
          3    1    1    2  503    0  0.13812855980E+03  0.96081787888E+02  0.99504320507E+02  0.19547971453E+03  0.00000000000E+00 0. -1.
<mgrwt>
<rscale>  0 0.91872638E+02</rscale>
<asrwt>0</asrwt>
<pdfrwt beam="2">  1        2 0.60286674E+00 0.49971846E+02</pdfrwt>
<pdfrwt beam="1">  1        4 0.59036474E-01 0.16890674E+03</pdfrwt>
<totfact> 0.10555625E+00</totfact>
</mgrwt>
</event>
<event>
13    1  0.1589573E-008  0.8248640E+02  0.7546771E-02  0.1348735E+00
         -1   -1    0    0    0  501 -0.00000000000E+00  0.00000000000E+00  0.93244493556E+03  0.93244493556E+03  0.00000000000E+00 0.  1.
          2   -1    0    0  503    0  0.00000000000E+00 -0.00000000000E+00 -0.10831939599E+04  0.10831939599E+04  0.00000000000E+00 0. -1.
         24    2    1    2    0    0  0.27219999189E+02 -0.53878228140E+02  0.31695432827E+03  0.33294613230E+03  0.82154056385E+02 0.  0.
         25    2    1    2    0    0  0.62690632896E+02  0.20153518783E+03 -0.45227526943E+03  0.51451366651E+03  0.12499938520E+03 0.  0.
         24    2    1    2    0    0 -0.39094802088E+02 -0.15129208693E+03  0.80009284569E+01  0.17584989221E+03  0.80258772830E+02 0.  0.
        -11    1    3    3    0    0  0.12150558055E+02 -0.74862157685E+02  0.22545106271E+03  0.23786584536E+03  0.00000000000E+00 0.  1.
         12    1    3    3    0    0  0.15069441134E+02  0.20983929545E+02  0.91503265562E+02  0.95080286935E+02  0.00000000000E+00 0. -1.
        -11    1    5    5    0    0 -0.26816106270E+02 -0.15180493596E+03 -0.95197024137E+01  0.15444891346E+03  0.00000000000E+00 0.  1.
         12    1    5    5    0    0 -0.12278695817E+02  0.51284902836E+00  0.17520630871E+02  0.21400978744E+02  0.00000000000E+00 0. -1.
          5    1    4    4  502    0  0.53295053749E+02  0.39792362217E+02 -0.22966092045E+03  0.23914435646E+03  0.47000000000E+01 0. -1.
         -5    1    4    4    0  502  0.93955791467E+01  0.16174282561E+03 -0.22261434898E+03  0.27536931005E+03  0.47000000000E+01 0. -1.
          1    1    1    2  503    0 -0.46097221997E+02  0.68870398108E+02 -0.50226028398E+03  0.50905154795E+03  0.00000000000E+00 0. -1.
         -2    1    1    2    0  501 -0.47186080001E+01 -0.65235270870E+02  0.47883127238E+03  0.48327765646E+03  0.00000000000E+00 0.  1.
<mgrwt>
<rscale>  0 0.73451212E+02</rscale>
<asrwt>0</asrwt>
<pdfrwt beam="2">  1        2 0.15929323E+00 0.82486396E+02</pdfrwt>
<pdfrwt beam="1">  1       -1 0.13712426E+00 0.65405702E+02</pdfrwt>
<totfact> 0.15962358E+01</totfact>
</mgrwt>
</event>
<event>
13    1  0.1589573E-008  0.1151223E+03  0.7546771E-02  0.1327778E+00
          2   -1    0    0  503    0  0.00000000000E+00  0.00000000000E+00  0.30793533465E+04  0.30793533465E+04  0.00000000000E+00 0. -1.
          2   -1    0    0  502    0 -0.00000000000E+00 -0.00000000000E+00 -0.23794550370E+04  0.23794550370E+04  0.00000000000E+00 0. -1.
         24    2    1    2    0    0  0.64949988798E+02  0.55574311848E+03  0.15371182667E+03  0.58627925905E+03  0.83827973551E+02 0.  0.
         25    2    1    2    0    0  0.22761274925E+03 -0.17153951567E+03  0.25423406163E+02  0.31225874626E+03  0.12500322388E+03 0.  0.
         24    2    1    2    0    0 -0.35337177124E+03 -0.41936434407E+03  0.43591236808E+03  0.70900428260E+03  0.10922187650E+03 0.  0.
        -13    1    5    5    0    0 -0.29525799005E+03 -0.39269678036E+03  0.41037475465E+03  0.64015270151E+03  0.00000000000E+00 0.  1.
         14    1    5    5    0    0 -0.58113781192E+02 -0.26667563715E+02  0.25537613427E+02  0.68851581089E+02  0.00000000000E+00 0. -1.
        -13    1    3    3    0    0  0.79110112416E+02  0.45736629729E+03  0.14605221772E+03  0.48659386564E+03  0.00000000000E+00 0.  1.
         14    1    3    3    0    0 -0.14160123618E+02  0.98376821192E+02  0.76596089438E+01  0.99685393403E+02  0.00000000000E+00 0. -1.
          5    1    4    4  501    0  0.87628858861E+02 -0.57747529211E+02  0.70172317623E+02  0.12633225319E+03  0.47000000000E+01 0.  1.
         -5    1    4    4    0  501  0.13998389039E+03 -0.11379198646E+03 -0.44748911460E+02  0.18592649307E+03  0.47000000000E+01 0.  1.
          1    1    1    2  502    0  0.11396308993E+03  0.16845335680E+02 -0.18810436429E+04  0.18845679976E+04  0.00000000000E+00 0. -1.
          1    1    1    2  503    0 -0.53154056737E+02  0.18315405589E+02  0.19658943515E+04  0.19666980981E+04  0.00000000000E+00 0. -1.
<mgrwt>
<rscale>  0 0.80450611E+02</rscale>
<asrwt>0</asrwt>
<pdfrwt beam="1">  1        2 0.45284608E+00 0.56221062E+02</pdfrwt>
<pdfrwt beam="2">  1        2 0.34991986E+00 0.11512235E+03</pdfrwt>
<totfact> 0.26472964E+00</totfact>
</mgrwt>
</event>
<event>
13    1  0.1589573E-008  0.1541227E+03  0.7546771E-02  0.1242969E+00
          2   -1    0    0  502    0  0.00000000000E+00  0.00000000000E+00  0.25687814824E+04  0.25687814824E+04  0.00000000000E+00 0. -1.
          2   -1    0    0  503    0 -0.00000000000E+00 -0.00000000000E+00 -0.12738736752E+04  0.12738736752E+04  0.00000000000E+00 0. -1.
         24    2    1    2    0    0  0.45061908076E+03  0.45311432251E+03  0.38179646348E+02  0.64526553710E+03  0.80868923365E+02 0.  0.
         25    2    1    2    0    0 -0.35062895212E+03 -0.72390683997E+03 -0.77264962262E+01  0.81404673701E+03  0.12502246310E+03 0.  0.
         24    2    1    2    0    0  0.16379205357E+02  0.19536347424E+03  0.41830894942E+03  0.47511041395E+03  0.11096108707E+03 0.  0.
        -11    1    5    5    0    0 -0.40205007752E+02  0.13165284536E+03  0.29100630464E+03  0.32192170427E+03  0.00000000000E+00 0.  1.
         12    1    5    5    0    0  0.56584213109E+02  0.63710628879E+02  0.12730264478E+03  0.15318870968E+03  0.00000000000E+00 0. -1.
        -13    1    3    3    0    0  0.15271595501E+03  0.19541163606E+03 -0.11330802533E+02  0.24826650501E+03  0.00000000000E+00 0.  1.
         14    1    3    3    0    0  0.29790312575E+03  0.25770268645E+03  0.49510448881E+02  0.39699903209E+03  0.00000000000E+00 0. -1.
          5    1    4    4  501    0 -0.22627353364E+03 -0.54906317661E+03  0.36230650128E+02  0.59498305350E+03  0.47000000000E+01 0. -1.
         -5    1    4    4    0  501 -0.12435541847E+03 -0.17484366336E+03 -0.43957146354E+02  0.21906368352E+03  0.47000000000E+01 0. -1.
          1    1    1    2  502    0 -0.62664149876E+02 -0.69465342804E+02  0.13643118016E+04  0.13675156019E+04  0.00000000000E+00 0. -1.
          1    1    1    2  503    0 -0.53705184125E+02  0.14489438602E+03 -0.51816609394E+03  0.54071686751E+03  0.00000000000E+00 0. -1.
<mgrwt>
<rscale>  0 0.12007786E+03</rscale>
<asrwt>0</asrwt>
<pdfrwt beam="1">  1        2 0.37776198E+00 0.93553351E+02</pdfrwt>
<pdfrwt beam="2">  1        2 0.18733436E+00 0.15412266E+03</pdfrwt>
<totfact> 0.15388441E+01</totfact>
</mgrwt>
</event>
<event>
13    1  0.1589573E-008  0.9475954E+02  0.7546771E-02  0.1478137E+00
          2   -1    0    0  503    0  0.00000000000E+00  0.00000000000E+00  0.31331024996E+04  0.31331024996E+04  0.00000000000E+00 0. -1.
         -3   -1    0    0    0  501 -0.00000000000E+00 -0.00000000000E+00 -0.81322657632E+02  0.81322657632E+02  0.00000000000E+00 0.  1.
         24    2    1    2    0    0 -0.18204170562E+03 -0.30444753677E+02  0.28202336622E+03  0.35291626744E+03  0.10462622576E+03 0.  0.
         25    2    1    2    0    0  0.22568941913E+03  0.40421151082E+02  0.15516644477E+04  0.15734886024E+04  0.12503695606E+03 0.  0.
         24    2    1    2    0    0  0.26044994503E+02  0.26621817892E+02  0.23857328638E+03  0.25452111682E+03  0.80478090214E+02 0.  0.
        -11    1    3    3    0    0 -0.17835623781E+03 -0.51563349442E+02  0.27181925432E+03  0.32917386529E+03  0.00000000000E+00 0.  1.
         12    1    3    3    0    0 -0.36854678191E+01  0.21118595766E+02  0.10204111892E+02  0.23742402146E+02  0.00000000000E+00 0. -1.
        -13    1    5    5    0    0  0.38332548355E+00  0.48490995603E+02  0.18476167480E+03  0.19101937092E+03  0.00000000000E+00 0.  1.
         14    1    5    5    0    0  0.25661669019E+02 -0.21869177710E+02  0.53811611580E+02  0.63501745893E+02  0.00000000000E+00 0. -1.
          5    1    4    4  502    0  0.22767268339E+02  0.42424617016E+02  0.50578262103E+03  0.50809088397E+03  0.47000000000E+01 0. -1.
         -5    1    4    4    0  502  0.20292215079E+03 -0.20034659333E+01  0.10458818266E+04  0.10653977184E+04  0.47000000000E+01 0. -1.
          1    1    1    2  503    0  0.10998660646E+02  0.17656214237E+02  0.91843267969E+03  0.91866822061E+03  0.00000000000E+00 0. -1.
         -4    1    1    2    0  501 -0.80691368651E+02 -0.54254429535E+02  0.61086062034E+02  0.11483094998E+03  0.00000000000E+00 0.  1.
<mgrwt>
<rscale>  0 0.44397786E+02</rscale>
<asrwt>0</asrwt>
<pdfrwt beam="1">  1        2 0.46075029E+00 0.20801741E+02</pdfrwt>
<pdfrwt beam="2">  1       -3 0.11959216E-01 0.94759537E+02</pdfrwt>
<totfact> 0.10181093E+02</totfact>
</mgrwt>
</event>
<event>
13    1  0.1589573E-008  0.4422354E+02  0.7546771E-02  0.1565183E+00
         -3   -1    0    0    0  501 -0.00000000000E+00  0.00000000000E+00  0.18935583309E+04  0.18935583309E+04  0.00000000000E+00 0.  1.
          2   -1    0    0  503    0  0.00000000000E+00 -0.00000000000E+00 -0.43071414256E+04  0.43071414256E+04  0.00000000000E+00 0. -1.
         24    2    1    2    0    0 -0.22273681084E+03  0.14861892646E+03 -0.29520005058E+03  0.40874937145E+03  0.90739774023E+02 0.  0.
         25    2    1    2    0    0  0.11470888685E+01 -0.39808464884E+03 -0.10823184453E+04  0.11599623924E+04  0.12500732541E+03 0.  0.
         24    2    1    2    0    0  0.25801682709E+03  0.25422064225E+03 -0.10786511039E+03  0.39195492676E+03  0.10388919368E+03 0.  0.
        -13    1    5    5    0    0  0.17506504216E+03  0.21640356792E+03 -0.46872940475E+02  0.28226821597E+03  0.00000000000E+00 0.  1.
         14    1    5    5    0    0  0.82951784929E+02  0.37817074327E+02 -0.60992169916E+02  0.10968671079E+03  0.00000000000E+00 0. -1.
        -13    1    3    3    0    0 -0.18157299404E+03  0.15709771955E+03 -0.24132988485E+03  0.34042408695E+03  0.00000000000E+00 0.  1.
         14    1    3    3    0    0 -0.41163816803E+02 -0.84787930920E+01 -0.53870165733E+02  0.68325284501E+02  0.00000000000E+00 0. -1.
          5    1    4    4  502    0 -0.56923968537E+02 -0.25016489279E+03 -0.61686696306E+03  0.66810908682E+03  0.47000000000E+01 0. -1.
         -5    1    4    4    0  502  0.58071057406E+02 -0.14791975606E+03 -0.46545148223E+03  0.49185330562E+03  0.47000000000E+01 0. -1.
          1    1    1    2  503    0 -0.39462540218E+02  0.19985157588E+02 -0.25838331612E+04  0.25842117761E+04  0.00000000000E+00 0. -1.
         -4    1    1    2    0  501  0.30354351014E+01 -0.24740077450E+02  0.16556336728E+04  0.16558212898E+04  0.00000000000E+00 0.  1.
<mgrwt>
<rscale>  0 0.33200873E+02</rscale>
<asrwt>0</asrwt>
<pdfrwt beam="2">  1        2 0.63340315E+00 0.44223537E+02</pdfrwt>
<pdfrwt beam="1">  1       -3 0.27846446E+00 0.24925595E+02</pdfrwt>
<totfact> 0.22557608E-02</totfact>
</mgrwt>
</event>
<event>
13    1  0.1589573E-008  0.5196704E+02  0.7546771E-02  0.1446071E+00
          2   -1    0    0  502    0  0.00000000000E+00  0.00000000000E+00  0.42305459660E+04  0.42305459660E+04  0.00000000000E+00 0. -1.
          4   -1    0    0  503    0 -0.00000000000E+00 -0.00000000000E+00 -0.57117600704E+03  0.57117600704E+03  0.00000000000E+00 0. -1.
         24    2    1    2    0    0  0.24250427691E+02 -0.27484377828E+03 -0.31695050755E+03  0.42786817352E+03  0.80537966055E+02 0.  0.
         25    2    1    2    0    0  0.15339014485E+03  0.28236405840E+03  0.23820509828E+04  0.24068756422E+04  0.12500189673E+03 0.  0.
         24    2    1    2    0    0 -0.99514111910E+02  0.53706602504E+02 -0.18040578461E+02  0.13994903854E+03  0.80453796036E+02 0.  0.
        -11    1    3    3    0    0  0.31137934373E+01  0.48209743475E+01 -0.13447791072E+02  0.14621237566E+02  0.00000000000E+00 0.  1.
         12    1    3    3    0    0  0.21136634253E+02 -0.27966475262E+03 -0.30350271648E+03  0.41324693596E+03  0.00000000000E+00 0. -1.
        -13    1    5    5    0    0 -0.61817799587E+02 -0.11941572729E+02 -0.53032677498E+01  0.63183590859E+02  0.00000000000E+00 0.  1.
         14    1    5    5    0    0 -0.37696312323E+02  0.65648175234E+02 -0.12737310711E+02  0.76765447686E+02  0.00000000000E+00 0. -1.
          5    1    4    4  501    0  0.52258842517E+02  0.21828504018E+03  0.16124204162E+04  0.16279745188E+04  0.47000000000E+01 0. -1.
         -5    1    4    4    0  501  0.10113130233E+03  0.64079018217E+02  0.76963056667E+03  0.77890112340E+03  0.47000000000E+01 0. -1.
          1    1    1    2  502    0 -0.43799110073E+02 -0.27894210718E+02  0.17139255360E+04  0.17147119851E+04  0.00000000000E+00 0. -1.
          3    1    1    2  503    0 -0.34327350559E+02 -0.33332671909E+02 -0.10161547378E+03  0.11231713371E+03  0.00000000000E+00 0. -1.
<mgrwt>
<rscale>  0 0.49865022E+02</rscale>
<asrwt>0</asrwt>
<pdfrwt beam="1">  1        2 0.62213910E+00 0.51967038E+02</pdfrwt>
<pdfrwt beam="2">  1        4 0.83996474E-01 0.47848030E+02</pdfrwt>
<totfact> 0.36796363E-01</totfact>
</mgrwt>
</event>
<event>
13    1  0.1589573E-008  0.1844794E+03  0.7546771E-02  0.1308669E+00
          2   -1    0    0  502    0  0.00000000000E+00  0.00000000000E+00  0.12413761197E+04  0.12413761197E+04  0.00000000000E+00 0. -1.
          2   -1    0    0  503    0 -0.00000000000E+00 -0.00000000000E+00 -0.19250117767E+04  0.19250117767E+04  0.00000000000E+00 0. -1.
         24    2    1    2    0    0 -0.15385777407E+03 -0.19727100766E+03 -0.11508567758E+04  0.11804664646E+04  0.80260142919E+02 0.  0.
         25    2    1    2    0    0  0.45489391956E+02  0.10532309423E+03  0.37639265466E+03  0.41285674450E+03  0.12496808406E+03 0.  0.
         24    2    1    2    0    0 -0.87717496404E+02 -0.49576848804E+01  0.69037822744E+02  0.13839349320E+03  0.81655374445E+02 0.  0.
        -11    1    5    5    0    0 -0.33810193942E+02  0.23613849538E+02  0.65345706196E+02  0.77270980469E+02  0.00000000000E+00 0.  1.
         12    1    5    5    0    0 -0.53907302462E+02 -0.28571534419E+02  0.36921165481E+01  0.61122512729E+02  0.00000000000E+00 0. -1.
        -13    1    3    3    0    0 -0.68742310645E+02 -0.75741281697E+02 -0.65329309593E+03  0.66125193098E+03  0.00000000000E+00 0.  1.
         14    1    3    3    0    0 -0.85115463420E+02 -0.12152972596E+03 -0.49756367989E+03  0.51921453364E+03  0.00000000000E+00 0. -1.
          5    1    4    4  501    0 -0.19471256877E+02  0.78440296307E+02  0.29149664263E+03  0.30252998628E+03  0.47000000000E+01 0.  1.
         -5    1    4    4    0  501  0.64960648832E+02  0.26882797927E+02  0.84896012027E+02  0.11032675822E+03  0.47000000000E+01 0.  1.
          1    1    1    2  502    0  0.20156729008E+02  0.36430418752E+02  0.71536770007E+03  0.71657826888E+03  0.00000000000E+00 0. -1.
          1    1    1    2  503    0  0.17592914951E+03  0.60475179552E+02 -0.69357705860E+03  0.71809292518E+03  0.00000000000E+00 0. -1.
<mgrwt>
<rscale>  0 0.87640117E+02</rscale>
<asrwt>0</asrwt>
<pdfrwt beam="1">  1        2 0.18255531E+00 0.41634951E+02</pdfrwt>
<pdfrwt beam="2">  1        2 0.28308997E+00 0.18447939E+03</pdfrwt>
<totfact> 0.33520856E+01</totfact>
</mgrwt>
</event>
<event>
13    1  0.1589573E-008  0.1303739E+03  0.7546771E-02  0.1266406E+00
          2   -1    0    0  503    0  0.00000000000E+00  0.00000000000E+00  0.11698514588E+04  0.11698514588E+04  0.00000000000E+00 0. -1.
          2   -1    0    0  502    0 -0.00000000000E+00 -0.00000000000E+00 -0.91424762206E+03  0.91424762206E+03  0.00000000000E+00 0. -1.
         24    2    1    2    0    0  0.58957580506E+02 -0.41023936438E+02 -0.18407431271E+03  0.21401669230E+03  0.82224280613E+02 0.  0.
         25    2    1    2    0    0  0.52266858138E+02  0.12856160569E+03  0.73578091860E+02  0.20074476952E+03  0.12499926387E+03 0.  0.
         24    2    1    2    0    0 -0.64334700624E+02 -0.42958367620E+02  0.76511582955E+03  0.77256339791E+03  0.73943195152E+02 0.  0.
        -11    1    3    3    0    0  0.57322398737E+02 -0.51972494195E+01 -0.53412832532E+02  0.78522604883E+02  0.00000000000E+00 0.  1.
         12    1    3    3    0    0  0.16351817692E+01 -0.35826687019E+02 -0.13066148018E+03  0.13549408741E+03  0.00000000000E+00 0. -1.
        -11    1    5    5    0    0 -0.47587204655E+02  0.12661990111E+01  0.56212034601E+03  0.56413245671E+03  0.00000000000E+00 0.  1.
         12    1    5    5    0    0 -0.16747495969E+02 -0.44224566631E+02  0.20299548354E+03  0.20843094120E+03  0.00000000000E+00 0. -1.
          5    1    4    4  501    0  0.86706449057E+00 -0.27001224058E+01  0.58656440404E+02  0.58912735997E+02  0.47000000000E+01 0. -1.
         -5    1    4    4    0  501  0.51399793648E+02  0.13126172810E+03  0.14921651456E+02  0.14183203352E+03  0.47000000000E+01 0. -1.
          1    1    1    2  502    0 -0.54044875949E+02 -0.13195172868E+03 -0.63197753239E+03  0.64786395853E+03  0.00000000000E+00 0. -1.
          1    1    1    2  503    0  0.71551379288E+01  0.87372427045E+02  0.23296176043E+03  0.24891026260E+03  0.00000000000E+00 0. -1.
<mgrwt>
<rscale>  0 0.10690753E+03</rscale>
<asrwt>0</asrwt>
<pdfrwt beam="1">  1        2 0.17203698E+00 0.87664913E+02</pdfrwt>
<pdfrwt beam="2">  1        2 0.13444818E+00 0.13037393E+03</pdfrwt>
<totfact> 0.12105501E+02</totfact>
</mgrwt>
</event>
<event>
13    1  0.1589573E-008  0.5956270E+02  0.7546771E-02  0.1401227E+00
          2   -1    0    0  503    0  0.00000000000E+00  0.00000000000E+00  0.21002942331E+04  0.21002942331E+04  0.00000000000E+00 0. -1.
          2   -1    0    0  502    0 -0.00000000000E+00 -0.00000000000E+00 -0.24555025740E+03  0.24555025740E+03  0.00000000000E+00 0. -1.
         24    2    1    2    0    0  0.88571622981E+01 -0.50253768844E+02 -0.65801162247E+02  0.11582867867E+03  0.80514590250E+02 0.  0.
         25    2    1    2    0    0 -0.43730336429E+02  0.16520710179E+03  0.13358521898E+04  0.13525282044E+04  0.12500296712E+03 0.  0.
         24    2    1    2    0    0  0.22459603005E+02 -0.40854141524E+02 -0.32734672588E+02  0.99845553783E+02  0.82000494961E+02 0.  0.
        -13    1    3    3    0    0  0.38830584405E+02 -0.45998559392E+02 -0.25383014118E+02  0.65329772364E+02  0.00000000000E+00 0.  1.
         14    1    3    3    0    0 -0.29973422107E+02 -0.42552094516E+01 -0.40418148129E+02  0.50498906309E+02  0.00000000000E+00 0. -1.
        -13    1    5    5    0    0  0.13458041722E+02  0.17862905204E+02 -0.33686480657E+02  0.40434901365E+02  0.00000000000E+00 0.  1.
         14    1    5    5    0    0  0.90015612824E+01 -0.58717046729E+02  0.95180806944E+00  0.59410652417E+02  0.00000000000E+00 0. -1.
          5    1    4    4  501    0 -0.27208969724E+01  0.12502321550E+03  0.52810521942E+03  0.54272960162E+03  0.47000000000E+01 0.  1.
         -5    1    4    4    0  501 -0.41009439457E+02  0.40183886283E+02  0.80774697040E+03  0.80979860276E+03  0.47000000000E+01 0.  1.
          1    1    1    2  502    0  0.51278750691E+02 -0.28847785841E+02 -0.67830587639E+02  0.89792503249E+02  0.00000000000E+00 0. -1.
          1    1    1    2  503    0 -0.38865179565E+02 -0.45251405577E+02  0.68525820838E+03  0.68784955044E+03  0.00000000000E+00 0. -1.
<mgrwt>
<rscale>  0 0.59198364E+02</rscale>
<asrwt>0</asrwt>
<pdfrwt beam="1">  1        2 0.30886679E+00 0.59562701E+02</pdfrwt>
<pdfrwt beam="2">  1        2 0.36110333E-01 0.58836256E+02</pdfrwt>
<totfact> 0.18801796E+02</totfact>
</mgrwt>
</event>
<event>
13    1  0.1589573E-008  0.7144004E+02  0.7546771E-02  0.1357916E+00
          2   -1    0    0  503    0  0.00000000000E+00  0.00000000000E+00  0.10032345443E+04  0.10032345443E+04  0.00000000000E+00 0. -1.
          2   -1    0    0  502    0 -0.00000000000E+00 -0.00000000000E+00 -0.14228849688E+04  0.14228849688E+04  0.00000000000E+00 0. -1.
         24    2    1    2    0    0 -0.10914115746E+02  0.36143001281E+02 -0.19504462682E+03  0.21459703194E+03  0.81142129652E+02 0.  0.
         25    2    1    2    0    0  0.14841330410E+02 -0.13510247742E+03  0.79870911414E+02  0.20118793006E+03  0.12499710484E+03 0.  0.
         24    2    1    2    0    0  0.15317787794E+02  0.79387740114E+01 -0.14796502271E+03  0.17143216848E+03  0.84839151865E+02 0.  0.
        -13    1    5    5    0    0  0.44597929792E+02  0.20162906727E+02 -0.57204610816E+02  0.75285361446E+02  0.00000000000E+00 0.  1.
         14    1    5    5    0    0 -0.29280141998E+02 -0.12224132716E+02 -0.90760411890E+02  0.96146807033E+02  0.00000000000E+00 0. -1.
        -13    1    3    3    0    0  0.21622203947E+02  0.48694650748E+02 -0.99155755891E+02  0.11256354935E+03  0.00000000000E+00 0.  1.
         14    1    3    3    0    0 -0.32536319693E+02 -0.12551649466E+02 -0.95888870928E+02  0.10203348260E+03  0.00000000000E+00 0. -1.
          5    1    4    4  501    0  0.38101113647E+01  0.13944439241E+02  0.45207035753E+02  0.47694133979E+02  0.47000000000E+01 0.  1.
         -5    1    4    4    0  501  0.11031219045E+02 -0.14904691666E+03  0.34663875661E+02  0.15349379608E+03  0.47000000000E+01 0.  1.
          1    1    1    2  502    0 -0.61944413445E+02  0.35732162907E+02 -0.99497120200E+03  0.99753776401E+03  0.00000000000E+00 0. -1.
          1    1    1    2  503    0  0.42699410987E+02  0.55288539217E+02  0.83845951555E+03  0.84136461863E+03  0.00000000000E+00 0. -1.
<mgrwt>
<rscale>  0 0.70644310E+02</rscale>
<asrwt>0</asrwt>
<pdfrwt beam="1">  1        2 0.14753449E+00 0.69857442E+02</pdfrwt>
<pdfrwt beam="2">  1        2 0.20924779E+00 0.71440041E+02</pdfrwt>
<totfact> 0.83127357E+01</totfact>
</mgrwt>
</event>
<event>
13    1  0.1589573E-008  0.7519042E+02  0.7546771E-02  0.1366045E+00
          2   -1    0    0  503    0  0.00000000000E+00  0.00000000000E+00  0.14157869881E+04  0.14157869881E+04  0.00000000000E+00 0. -1.
          2   -1    0    0  502    0 -0.00000000000E+00 -0.00000000000E+00 -0.14836744380E+04  0.14836744380E+04  0.00000000000E+00 0. -1.
         24    2    1    2    0    0  0.78325087945E+02  0.30949165544E+02 -0.53444362397E+03  0.54698317375E+03  0.80423472431E+02 0.  0.
         25    2    1    2    0    0 -0.23630391722E+03  0.22508145132E+03  0.43856234505E+03  0.56076743512E+03  0.12498793852E+03 0.  0.
         24    2    1    2    0    0  0.10235984715E+03 -0.15475339528E+03  0.14157408397E+03  0.24715694921E+03  0.81346079373E+02 0.  0.
        -13    1    5    5    0    0 -0.12663142556E+02 -0.27252721272E+02  0.29446485618E+02  0.42073287385E+02  0.00000000000E+00 0.  1.
         14    1    5    5    0    0  0.11502298971E+03 -0.12750067400E+03  0.11212759835E+03  0.20508366182E+03  0.00000000000E+00 0. -1.
        -13    1    3    3    0    0  0.41000473118E+02  0.41738029829E+02 -0.15703753369E+03  0.16758248392E+03  0.00000000000E+00 0.  1.
         14    1    3    3    0    0  0.37324614827E+02 -0.10788864286E+02 -0.37740609028E+03  0.37940068983E+03  0.00000000000E+00 0. -1.
          5    1    4    4  501    0 -0.17962175642E+03  0.13728389293E+03  0.20654669072E+03  0.30625882532E+03  0.47000000000E+01 0. -1.
         -5    1    4    4    0  501 -0.56682160807E+02  0.87797558391E+02  0.23201565433E+03  0.25450860981E+03  0.47000000000E+01 0. -1.
          1    1    1    2  502    0  0.56211138542E+02 -0.26166688344E+02 -0.82593047080E+03  0.82825450815E+03  0.00000000000E+00 0. -1.
          1    1    1    2  503    0 -0.59215641800E+00 -0.75110533245E+02  0.71235021591E+03  0.71629935988E+03  0.00000000000E+00 0. -1.
<mgrwt>
<rscale>  0 0.68279139E+02</rscale>
<asrwt>0</asrwt>
<pdfrwt beam="1">  1        2 0.20820397E+00 0.75190416E+02</pdfrwt>
<pdfrwt beam="2">  1        2 0.21818742E+00 0.62003126E+02</pdfrwt>
<totfact> 0.47516475E+01</totfact>
</mgrwt>
</event>
<event>
13    1  0.1589573E-008  0.2179846E+03  0.7546771E-02  0.1213096E+00
          2   -1    0    0  503    0  0.00000000000E+00  0.00000000000E+00  0.21162356996E+04  0.21162356996E+04  0.00000000000E+00 0. -1.
         -3   -1    0    0    0  501 -0.00000000000E+00 -0.00000000000E+00 -0.15294527651E+04  0.15294527651E+04  0.00000000000E+00 0.  1.
         24    2    1    2    0    0 -0.10014955347E+01 -0.14898347491E+03 -0.50160490754E+03  0.52943916964E+03  0.80630467486E+02 0.  0.
         25    2    1    2    0    0 -0.36871840392E+03  0.58208241443E+02  0.44735635715E+03  0.59590480684E+03  0.12503346661E+03 0.  0.
         24    2    1    2    0    0  0.75255006042E+02  0.53985727665E+02  0.10856642544E+04  0.10920736256E+04  0.73349545657E+02 0.  0.
        -11    1    5    5    0    0 -0.49313571783E+01  0.35241789895E+02  0.29842923539E+03  0.30054335889E+03  0.00000000000E+00 0.  1.
         12    1    5    5    0    0  0.80186363221E+02  0.18743937770E+02  0.78723501900E+03  0.79153026676E+03  0.00000000000E+00 0. -1.
        -11    1    3    3    0    0  0.52374653732E+01 -0.15498380216E+03 -0.49448684490E+03  0.51823223535E+03  0.00000000000E+00 0.  1.
         12    1    3    3    0    0 -0.62389609079E+01  0.60003272536E+01 -0.71180626422E+01  0.11206934288E+02  0.00000000000E+00 0. -1.
          5    1    4    4  502    0 -0.69000153102E+02  0.39788465966E+02  0.38471626682E+02  0.88579338514E+02  0.47000000000E+01 0.  1.
         -5    1    4    4    0  502 -0.29971825081E+03  0.18419775476E+02  0.40888473047E+03  0.50732546833E+03  0.47000000000E+01 0.  1.
          1    1    1    2  503    0  0.21291326539E+02 -0.87586527821E+02  0.46331190155E+03  0.47199855779E+03  0.00000000000E+00 0. -1.
         -4    1    1    2    0  501  0.27317356687E+03  0.12437603362E+03 -0.90794467104E+03  0.95627230487E+03  0.00000000000E+00 0.  1.
<mgrwt>
<rscale>  0 0.14017321E+03</rscale>
<asrwt>0</asrwt>
<pdfrwt beam="1">  1        2 0.31121113E+00 0.90137231E+02</pdfrwt>
<pdfrwt beam="2">  1       -3 0.22491952E+00 0.21798460E+03</pdfrwt>
<totfact> 0.57141897E-01</totfact>
</mgrwt>
</event>
<event>
13    1  0.1589573E-008  0.9888331E+02  0.7546771E-02  0.1329576E+00
          2   -1    0    0  503    0  0.00000000000E+00  0.00000000000E+00  0.84236159355E+03  0.84236159355E+03  0.00000000000E+00 0. -1.
          2   -1    0    0  502    0 -0.00000000000E+00 -0.00000000000E+00 -0.28124088902E+03  0.28124088902E+03  0.00000000000E+00 0. -1.
         24    2    1    2    0    0  0.31771791290E+02 -0.50658191632E+02  0.51539405672E+02  0.93335361797E+02  0.49794380440E+02 0.  0.
         25    2    1    2    0    0  0.11856586077E+03 -0.12510586365E+02  0.54996882038E+03  0.57646002159E+03  0.12500429988E+03 0.  0.
         24    2    1    2    0    0  0.37801642983E+02 -0.29693501077E+02 -0.49756447891E+02  0.10197792364E+03  0.74920788740E+02 0.  0.
        -11    1    5    5    0    0  0.39927203610E+02 -0.51064915369E+02 -0.25702082478E+02  0.69730941579E+02  0.00000000000E+00 0.  1.
         12    1    5    5    0    0 -0.21255606276E+01  0.21371414292E+02 -0.24054365413E+02  0.32246982065E+02  0.00000000000E+00 0. -1.
        -11    1    3    3    0    0  0.21838510091E+02 -0.58175354866E+02  0.51765611068E+02  0.80876269239E+02  0.00000000000E+00 0.  1.
         12    1    3    3    0    0  0.99332811991E+01  0.75171632340E+01 -0.22620539621E+00  0.12459092557E+02  0.00000000000E+00 0. -1.
          5    1    4    4  501    0  0.17041179303E+02 -0.56989263461E+02  0.23752370628E+03  0.24490361163E+03  0.47000000000E+01 0. -1.
         -5    1    4    4    0  501  0.10152468147E+03  0.44478677096E+02  0.31244511410E+03  0.33155640997E+03  0.47000000000E+01 0. -1.
          1    1    1    2  502    0 -0.13421888686E+03  0.57604378517E+02 -0.13174972289E+03  0.19670018683E+03  0.00000000000E+00 0. -1.
          1    1    1    2  503    0 -0.53920408182E+02  0.35257900557E+02  0.14111864926E+03  0.15512898872E+03  0.00000000000E+00 0. -1.
<mgrwt>
<rscale>  0 0.79815529E+02</rscale>
<asrwt>0</asrwt>
<pdfrwt beam="1">  1        2 0.12387670E+00 0.64424607E+02</pdfrwt>
<pdfrwt beam="2">  1        2 0.41358955E-01 0.98883314E+02</pdfrwt>
<totfact> 0.70340830E+02</totfact>
</mgrwt>
</event>
<event>
13    1  0.1589573E-008  0.6683359E+02  0.7546771E-02  0.1468784E+00
          2   -1    0    0  502    0  0.00000000000E+00  0.00000000000E+00  0.56398555620E+03  0.56398555620E+03  0.00000000000E+00 0. -1.
          2   -1    0    0  503    0 -0.00000000000E+00 -0.00000000000E+00 -0.46442316109E+04  0.46442316109E+04  0.00000000000E+00 0. -1.
         24    2    1    2    0    0  0.13461840053E+03  0.21090680548E+03  0.50709214167E+01  0.26419633149E+03  0.84676991969E+02 0.  0.
         25    2    1    2    0    0 -0.20882382892E+03 -0.22601295140E+03 -0.15784506221E+02  0.33250968062E+03  0.12499716532E+03 0.  0.
         24    2    1    2    0    0  0.48052789276E+02  0.40110600844E+02  0.81534703917E+02  0.13376523616E+03  0.85599647230E+02 0.  0.
        -11    1    5    5    0    0  0.14502127433E+02 -0.11870060007E+02 -0.11536680877E+02  0.22006931415E+02  0.00000000000E+00 0.  1.
         12    1    5    5    0    0  0.33550661843E+02  0.51980660851E+02  0.93071384794E+02  0.11175830475E+03  0.00000000000E+00 0. -1.
        -11    1    3    3    0    0 -0.44343484629E+01  0.12596910951E+02 -0.16276522762E+02  0.21053997364E+02  0.00000000000E+00 0.  1.
         12    1    3    3    0    0  0.13905274899E+03  0.19830989453E+03  0.21347444179E+02  0.24314233413E+03  0.00000000000E+00 0. -1.
          5    1    4    4  501    0 -0.84514254220E+02 -0.18036508093E+03 -0.16234924581E+01  0.19924594679E+03  0.47000000000E+01 0. -1.
         -5    1    4    4    0  501 -0.12430957470E+03 -0.45647870472E+02 -0.14161013763E+02  0.13326373382E+03  0.47000000000E+01 0. -1.
          1    1    1    2  502    0 -0.14803070125E+02  0.27835334743E+02  0.16155660683E+03  0.16460399131E+03  0.00000000000E+00 0. -1.
          1    1    1    2  503    0  0.40955709248E+02 -0.52839789667E+02 -0.43126237806E+04  0.43131419275E+04  0.00000000000E+00 0. -1.
<mgrwt>
<rscale>  0 0.45902580E+02</rscale>
<asrwt>0</asrwt>
<pdfrwt beam="1">  1        2 0.82939054E-01 0.31526762E+02</pdfrwt>
<pdfrwt beam="2">  1        2 0.68297522E+00 0.66833595E+02</pdfrwt>
<totfact> 0.24898505E+00</totfact>
</mgrwt>
</event>
<event>
13    1  0.1589573E-008  0.1723541E+03  0.7546771E-02  0.1191943E+00
          2   -1    0    0  502    0  0.00000000000E+00  0.00000000000E+00  0.16109553080E+04  0.16109553080E+04  0.00000000000E+00 0. -1.
          2   -1    0    0  503    0 -0.00000000000E+00 -0.00000000000E+00 -0.15265883160E+04  0.15265883160E+04  0.00000000000E+00 0. -1.
         24    2    1    2    0    0  0.95291178279E+02 -0.87755053185E+02 -0.80139852971E+03  0.81557288755E+03  0.78346496185E+02 0.  0.
         25    2    1    2    0    0 -0.24175967774E+03 -0.16787923993E+03  0.36976759668E+03  0.48885219674E+03  0.12496885102E+03 0.  0.
         24    2    1    2    0    0  0.11636547024E+02  0.12259411693E+03 -0.18663474858E+03  0.23786066211E+03  0.81119901807E+02 0.  0.
        -11    1    5    5    0    0  0.42492513115E+02  0.79332589385E+02 -0.14365296592E+03  0.16951533272E+03  0.00000000000E+00 0.  1.
         12    1    5    5    0    0 -0.30855966090E+02  0.43261527548E+02 -0.42981782665E+02  0.68345329396E+02  0.00000000000E+00 0. -1.
        -11    1    3    3    0    0  0.34951925752E+02 -0.82288806466E+02 -0.42191885506E+03  0.43128714917E+03  0.00000000000E+00 0.  1.
         12    1    3    3    0    0  0.60339252527E+02 -0.54662467187E+01 -0.37947967465E+03  0.38428573838E+03  0.00000000000E+00 0. -1.
          5    1    4    4  501    0 -0.16156200469E+02  0.16157716165E+01  0.89605959947E+02  0.91186356378E+02  0.47000000000E+01 0.  1.
         -5    1    4    4    0  501 -0.22560347727E+03 -0.16949501155E+03  0.28016163673E+03  0.39766584037E+03  0.47000000000E+01 0.  1.
          1    1    1    2  502    0 -0.31504831102E+01  0.17171984940E+03  0.11307886639E+04  0.11437572446E+04  0.00000000000E+00 0. -1.
          1    1    1    2  503    0  0.13798243555E+03 -0.38679673217E+02 -0.42815599027E+03  0.45150063305E+03  0.00000000000E+00 0. -1.
<mgrwt>
<rscale>  0 0.15715781E+03</rscale>
<asrwt>0</asrwt>
<pdfrwt beam="1">  1        2 0.23690519E+00 0.17235414E+03</pdfrwt>
<pdfrwt beam="2">  1        2 0.22449828E+00 0.14330132E+03</pdfrwt>
<totfact> 0.31812797E+01</totfact>
</mgrwt>
</event>
<event>
13    1  0.1589573E-008  0.8440643E+02  0.7546771E-02  0.1379376E+00
          2   -1    0    0  502    0  0.00000000000E+00  0.00000000000E+00  0.33168307351E+03  0.33168307351E+03  0.00000000000E+00 0. -1.
          2   -1    0    0  503    0 -0.00000000000E+00 -0.00000000000E+00 -0.17428128253E+04  0.17428128253E+04  0.00000000000E+00 0. -1.
         24    2    1    2    0    0  0.16892553632E+02 -0.28284018419E+02 -0.44667533728E+03  0.45517794774E+03  0.81134228946E+02 0.  0.
         25    2    1    2    0    0  0.52570254588E+02 -0.36274676536E+02  0.21768197874E+03  0.25901993017E+03  0.12500558600E+03 0.  0.
         24    2    1    2    0    0  0.69335632642E+01 -0.30714716434E+02 -0.50693737646E+03  0.51422934911E+03  0.80342091888E+02 0.  0.
        -11    1    3    3    0    0  0.89268662422E+01 -0.49990553366E+02 -0.39870525897E+03  0.40192614732E+03  0.00000000000E+00 0.  1.
         12    1    3    3    0    0  0.79656873901E+01  0.21706534946E+02 -0.47970078304E+02  0.53251800415E+02  0.00000000000E+00 0. -1.
        -11    1    5    5    0    0  0.22057360367E+02 -0.53617205770E+02 -0.37630111592E+03  0.38074120048E+03  0.00000000000E+00 0.  1.
         12    1    5    5    0    0 -0.15123797103E+02  0.22902489336E+02 -0.13063626054E+03  0.13348814863E+03  0.00000000000E+00 0. -1.
          5    1    4    4  501    0  0.55824536551E+02 -0.77671126438E+02  0.12600146200E+03  0.15826446598E+03  0.47000000000E+01 0.  1.
         -5    1    4    4    0  501 -0.32542819631E+01  0.41396449901E+02  0.91680516738E+02  0.10075546419E+03  0.47000000000E+01 0.  1.
          1    1    1    2  502    0  0.57764831106E+01  0.49146110051E+02  0.75065957553E+02  0.89908875389E+02  0.00000000000E+00 0. -1.
          1    1    1    2  503    0 -0.82172854596E+02  0.46127301339E+02 -0.75026497431E+03  0.75615979637E+03  0.00000000000E+00 0. -1.
<mgrwt>
<rscale>  0 0.64628191E+02</rscale>
<asrwt>0</asrwt>
<pdfrwt beam="1">  1        2 0.48776923E-01 0.49484421E+02</pdfrwt>
<pdfrwt beam="2">  1        2 0.25629600E+00 0.84406426E+02</pdfrwt>
<totfact> 0.19616725E+02</totfact>
</mgrwt>
</event>
<event>
13    1  0.1589573E-008  0.1152075E+03  0.7546771E-02  0.1397230E+00
          2   -1    0    0  503    0  0.00000000000E+00  0.00000000000E+00  0.11996403958E+04  0.11996403958E+04  0.00000000000E+00 0. -1.
          2   -1    0    0  502    0 -0.00000000000E+00 -0.00000000000E+00 -0.81513394360E+03  0.81513394360E+03  0.00000000000E+00 0. -1.
         24    2    1    2    0    0 -0.40176122973E+03 -0.11130182088E+03 -0.18252770007E+03  0.46232982212E+03  0.81439069742E+02 0.  0.
         25    2    1    2    0    0  0.44272998909E+03 -0.16783380031E+02  0.23599768962E+03  0.51729967816E+03  0.12495007978E+03 0.  0.
         24    2    1    2    0    0  0.14092251687E+02  0.59006601974E+02 -0.82916563616E+02  0.13063178416E+03  0.80679215890E+02 0.  0.
        -11    1    3    3    0    0 -0.19767428889E+03 -0.79694688682E+02 -0.56892759984E+02  0.22059726660E+03  0.00000000000E+00 0.  1.
         12    1    3    3    0    0 -0.20408694084E+03 -0.31607132199E+02 -0.12563494008E+03  0.24173255552E+03  0.00000000000E+00 0. -1.
        -13    1    5    5    0    0  0.22483820687E+02 -0.13443536898E+02 -0.11686529727E+02  0.28684941243E+02  0.00000000000E+00 0.  1.
         14    1    5    5    0    0 -0.83915690004E+01  0.72450138872E+02 -0.71230033889E+02  0.10194684292E+03  0.00000000000E+00 0. -1.
          5    1    4    4  501    0  0.42164596237E+03 -0.36138400551E+02  0.19231295684E+03  0.46486306042E+03  0.47000000000E+01 0.  1.
         -5    1    4    4    0  501  0.21084026725E+02  0.19355020521E+02  0.43684732781E+02  0.52436617744E+02  0.47000000000E+01 0. -1.
          1    1    1    2  502    0 -0.74990339861E+02  0.93340638576E+02 -0.23026296350E+03  0.25953238380E+03  0.00000000000E+00 0. -1.
          1    1    1    2  503    0  0.19929328814E+02 -0.24262039638E+02  0.64421598979E+03  0.64498067119E+03  0.00000000000E+00 0. -1.
<mgrwt>
<rscale>  0 0.60143731E+02</rscale>
<asrwt>0</asrwt>
<pdfrwt beam="1">  1        2 0.17641771E+00 0.31397846E+02</pdfrwt>
<pdfrwt beam="2">  1        2 0.11987264E+00 0.11520754E+03</pdfrwt>
<totfact> 0.14454433E+02</totfact>
</mgrwt>
</event>
<event>
13    1  0.1589573E-008  0.2709193E+03  0.7546771E-02  0.1167922E+00
          2   -1    0    0  503    0  0.00000000000E+00  0.00000000000E+00  0.38313576926E+04  0.38313576926E+04  0.00000000000E+00 0. -1.
         -1   -1    0    0    0  501 -0.00000000000E+00 -0.00000000000E+00 -0.88461002677E+03  0.88461002677E+03  0.00000000000E+00 0.  1.
         24    2    1    2    0    0  0.54557689598E+02 -0.86434066944E+01  0.64100820755E+02  0.11455461894E+03  0.77217844611E+02 0.  0.
         25    2    1    2    0    0  0.15990708795E+03 -0.98601688560E+02  0.71393888246E+02  0.23667098130E+03  0.12499398524E+03 0.  0.
         24    2    1    2    0    0  0.52171396564E+03 -0.95341660767E+02  0.68333307785E+03  0.86872750302E+03  0.80423162103E+02 0.  0.
        -13    1    5    5    0    0  0.18036576764E+03 -0.19340918310E+02  0.17763471147E+03  0.25388968466E+03  0.00000000000E+00 0.  1.
         14    1    5    5    0    0  0.34134819800E+03 -0.76000742457E+02  0.50569836637E+03  0.61483781836E+03  0.00000000000E+00 0. -1.
        -13    1    3    3    0    0  0.68742638408E+02 -0.18928120361E+02  0.32363533692E+02  0.78302122504E+02  0.00000000000E+00 0.  1.
         14    1    3    3    0    0 -0.14184948810E+02  0.10284713666E+02  0.31737287063E+02  0.36252496439E+02  0.00000000000E+00 0. -1.
          5    1    4    4  502    0 -0.50590350346E+01  0.12482230263E+02 -0.14177066191E+02  0.20111666107E+02  0.47000000000E+01 0. -1.
         -5    1    4    4    0  502  0.16496612299E+03 -0.11108391882E+03  0.85570954438E+02  0.21655931519E+03  0.47000000000E+01 0. -1.
          1    1    1    2  503    0  0.34661501000E+02 -0.11424796322E+03  0.25562068555E+04  0.25589934554E+04  0.00000000000E+00 0. -1.
         -2    1    1    2    0  501 -0.77084024419E+03  0.31683471925E+03 -0.42828697650E+03  0.93702116071E+03  0.00000000000E+00 0.  1.
<mgrwt>
<rscale>  0 0.17987690E+03</rscale>
<asrwt>0</asrwt>
<pdfrwt beam="1">  1        2 0.56343495E+00 0.11942930E+03</pdfrwt>
<pdfrwt beam="2">  1       -1 0.13008971E+00 0.27091927E+03</pdfrwt>
<totfact> 0.57793216E-01</totfact>
</mgrwt>
</event>
<event>
13    1  0.1589573E-008  0.1351793E+03  0.7546771E-02  0.1274667E+00
          2   -1    0    0  503    0  0.00000000000E+00  0.00000000000E+00  0.38996942865E+04  0.38996942865E+04  0.00000000000E+00 0. -1.
          2   -1    0    0  502    0 -0.00000000000E+00 -0.00000000000E+00 -0.19668968655E+04  0.19668968655E+04  0.00000000000E+00 0. -1.
         24    2    1    2    0    0  0.44644298738E+02  0.11180602078E+03 -0.35019177391E+03  0.37933174701E+03  0.82247164586E+02 0.  0.
         25    2    1    2    0    0 -0.12206116194E+03 -0.20281900362E+03  0.16880500257E+04  0.17091440003E+04  0.12500339624E+03 0.  0.
         24    2    1    2    0    0 -0.12497022256E+02  0.49498530398E+01  0.50681185212E+03  0.51341137297E+03  0.80946326891E+02 0.  0.
        -11    1    5    5    0    0 -0.40404129097E+01  0.36979715590E+02  0.13209595108E+03  0.13723397755E+03  0.00000000000E+00 0.  1.
         12    1    5    5    0    0 -0.84566093460E+01 -0.32029862550E+02  0.37471590104E+03  0.37617739543E+03  0.00000000000E+00 0. -1.
        -13    1    3    3    0    0 -0.68460882041E+01  0.58599854710E+02 -0.81424646258E+02  0.10055239885E+03  0.00000000000E+00 0.  1.
         14    1    3    3    0    0  0.51490386942E+02  0.53206166068E+02 -0.26876712765E+03  0.27877934816E+03  0.00000000000E+00 0. -1.
          5    1    4    4  501    0 -0.42779284682E+02  0.25407784199E+00  0.16306827925E+03  0.16865196546E+03  0.47000000000E+01 0.  1.
         -5    1    4    4    0  501 -0.79281877260E+02 -0.20307308146E+03  0.15249817464E+04  0.15404920348E+04  0.47000000000E+01 0.  1.
          1    1    1    2  502    0  0.13355959193E+03  0.21341303996E+02 -0.15844969234E+04  0.15902591349E+04  0.00000000000E+00 0. -1.
          1    1    1    2  503    0 -0.43645706475E+02  0.64721825809E+02  0.16726242405E+04  0.16744448968E+04  0.00000000000E+00 0. -1.
<mgrwt>
<rscale>  0 0.10272551E+03</rscale>
<asrwt>0</asrwt>
<pdfrwt beam="1">  1        2 0.57348445E+00 0.78063195E+02</pdfrwt>
<pdfrwt beam="2">  1        2 0.28924954E+00 0.13517934E+03</pdfrwt>
<totfact> 0.12996631E+00</totfact>
</mgrwt>
</event>
<event>
13    1  0.1589573E-008  0.4674908E+02  0.7546771E-02  0.1545376E+00
          2   -1    0    0  503    0  0.00000000000E+00  0.00000000000E+00  0.21487819881E+04  0.21487819881E+04  0.00000000000E+00 0. -1.
         -3   -1    0    0    0  501 -0.00000000000E+00 -0.00000000000E+00 -0.11882886447E+03  0.11882886447E+03  0.00000000000E+00 0.  1.
         24    2    1    2    0    0 -0.68750405312E+02  0.22914532798E+02  0.14374307409E+03  0.18109364590E+03  0.82952656331E+02 0.  0.
         25    2    1    2    0    0  0.12815957241E+03  0.73689079922E+02  0.30921330743E+03  0.36482157967E+03  0.12500783576E+03 0.  0.
         24    2    1    2    0    0 -0.66928488450E+02 -0.25729158545E+02  0.12880922625E+03  0.16826789063E+03  0.81122463500E+02 0.  0.
        -11    1    5    5    0    0 -0.37260342346E+02 -0.47836075299E+02  0.41596561583E+02  0.73531606450E+02  0.00000000000E+00 0.  1.
         12    1    5    5    0    0 -0.29668146104E+02  0.22106916753E+02  0.87212664671E+02  0.94736284182E+02  0.00000000000E+00 0. -1.
        -11    1    3    3    0    0 -0.23372699262E+02 -0.26353537425E+02  0.20317275261E+02  0.40664280144E+02  0.00000000000E+00 0.  1.
         12    1    3    3    0    0 -0.45377706050E+02  0.49268070223E+02  0.12342579883E+03  0.14042936576E+03  0.00000000000E+00 0. -1.
          5    1    4    4  502    0  0.38459355532E+02  0.56399133542E+02  0.37293529455E+02  0.77928695815E+02  0.47000000000E+01 0.  1.
         -5    1    4    4    0  502  0.89700216881E+02  0.17289946380E+02  0.27191977797E+03  0.28689288385E+03  0.47000000000E+01 0.  1.
          1    1    1    2  503    0 -0.34897903167E+01 -0.46490178411E+02  0.14970203650E+04  0.14977461362E+04  0.00000000000E+00 0. -1.
         -4    1    1    2    0  501  0.11009111666E+02 -0.24384275764E+02 -0.48832849120E+02  0.55681600169E+02  0.00000000000E+00 0.  1.
<mgrwt>
<rscale>  0 0.35365799E+02</rscale>
<asrwt>0</asrwt>
<pdfrwt beam="1">  1        2 0.31599733E+00 0.46749082E+02</pdfrwt>
<pdfrwt beam="2">  1       -3 0.17474834E-01 0.26754316E+02</pdfrwt>
<totfact> 0.11906651E+02</totfact>
</mgrwt>
</event>
<event>
13    1  0.1589573E-008  0.1102891E+03  0.7546771E-02  0.1353784E+00
          2   -1    0    0  503    0  0.00000000000E+00  0.00000000000E+00  0.11815451918E+04  0.11815451918E+04  0.00000000000E+00 0. -1.
         -3   -1    0    0    0  501 -0.00000000000E+00 -0.00000000000E+00 -0.36046426022E+03  0.36046426022E+03  0.00000000000E+00 0.  1.
         24    2    1    2    0    0 -0.35188645710E+02  0.40711167526E+02 -0.71087060389E+02  0.11877084692E+03  0.78469764717E+02 0.  0.
         25    2    1    2    0    0  0.60287453900E+02  0.11826692343E+03  0.61250492328E+03  0.63906812609E+03  0.12499658584E+03 0.  0.
         24    2    1    2    0    0  0.17374601662E+02  0.72965682368E+01 -0.63907237725E+02  0.10403044484E+03  0.79894190837E+02 0.  0.
        -11    1    5    5    0    0  0.36337686233E+02  0.33635882939E+02 -0.41282162756E+02  0.64467177879E+02  0.00000000000E+00 0.  1.
         12    1    5    5    0    0 -0.18963084571E+02 -0.26339314703E+02 -0.22625074969E+02  0.39563266963E+02  0.00000000000E+00 0. -1.
        -13    1    3    3    0    0 -0.59350033622E+02  0.37861788369E+02 -0.57558240724E+02  0.90933451406E+02  0.00000000000E+00 0.  1.
         14    1    3    3    0    0  0.24161387912E+02  0.28493791570E+01 -0.13528819666E+02  0.27837395513E+02  0.00000000000E+00 0. -1.
          5    1    4    4  502    0  0.87288260237E+02  0.10976620314E+03  0.38525775406E+03  0.41001644698E+03  0.47000000000E+01 0.  1.
         -5    1    4    4    0  502 -0.27000806338E+02  0.85007202901E+01  0.22724716922E+03  0.22905167912E+03  0.47000000000E+01 0.  1.
          1    1    1    2  503    0  0.36382487973E+02 -0.29531242611E+02  0.47342616785E+03  0.47573954652E+03  0.00000000000E+00 0. -1.
         -4    1    1    2    0  501 -0.78855897825E+02 -0.13674341658E+03 -0.12985586143E+03  0.20440048764E+03  0.00000000000E+00 0.  1.
<mgrwt>
<rscale>  0 0.71889172E+02</rscale>
<asrwt>0</asrwt>
<pdfrwt beam="1">  1        2 0.17375664E+00 0.46859148E+02</pdfrwt>
<pdfrwt beam="2">  1       -3 0.53009450E-01 0.11028910E+03</pdfrwt>
<totfact> 0.52232094E+01</totfact>
</mgrwt>
</event>
<event>
13    1  0.1589573E-008  0.6975739E+02  0.7546771E-02  0.1387835E+00
          2   -1    0    0  502    0  0.00000000000E+00  0.00000000000E+00  0.12746125143E+04  0.12746125143E+04  0.00000000000E+00 0. -1.
          2   -1    0    0  503    0 -0.00000000000E+00 -0.00000000000E+00 -0.34204834906E+04  0.34204834906E+04  0.00000000000E+00 0. -1.
         24    2    1    2    0    0  0.14214277836E+03  0.22613186006E+03 -0.27171098817E+04  0.27313610140E+04  0.79414682176E+02 0.  0.
         25    2    1    2    0    0 -0.12134808330E+03 -0.19280951977E+03  0.60966198875E+02  0.26691386679E+03  0.12500106658E+03 0.  0.
         24    2    1    2    0    0 -0.35950911082E+02 -0.47769297787E+02 -0.13369486255E+03  0.16702435300E+03  0.80302206722E+02 0.  0.
        -11    1    5    5    0    0 -0.47665181376E+02 -0.62924434910E+02 -0.92573550758E+02  0.12166066054E+03  0.00000000000E+00 0.  1.
         12    1    5    5    0    0  0.11714270293E+02  0.15155137123E+02 -0.41121311794E+02  0.45363692457E+02  0.00000000000E+00 0. -1.
        -13    1    3    3    0    0  0.17884769228E+02  0.29048484370E+00 -0.99963866082E+02  0.10155158233E+03  0.00000000000E+00 0.  1.
         14    1    3    3    0    0  0.12425800913E+03  0.22584137522E+03 -0.26171460157E+04  0.26298094317E+04  0.00000000000E+00 0. -1.
          5    1    4    4  501    0 -0.63716044592E+02 -0.12198648673E+03 -0.26673572216E+02  0.14026406075E+03  0.47000000000E+01 0.  1.
         -5    1    4    4    0  501 -0.57632038703E+02 -0.70823033043E+02  0.87639771091E+02  0.12664980605E+03  0.47000000000E+01 0.  1.
          1    1    1    2  502    0  0.56911931735E+01  0.69545295745E+02  0.10839918157E+04  0.10862353310E+04  0.00000000000E+00 0. -1.
          1    1    1    2  503    0  0.94650228483E+01 -0.55098338254E+02 -0.44002424665E+03  0.44356144014E+03  0.00000000000E+00 0. -1.
<mgrwt>
<rscale>  0 0.62448494E+02</rscale>
<asrwt>0</asrwt>
<pdfrwt beam="1">  1        2 0.18744302E+00 0.69757385E+02</pdfrwt>
<pdfrwt beam="2">  1        2 0.50301227E+00 0.55905398E+02</pdfrwt>
<totfact> 0.62466909E+00</totfact>
</mgrwt>
</event>
<event>
13    1  0.1589573E-008  0.9638851E+02  0.7546771E-02  0.1368271E+00
          4   -1    0    0  503    0 -0.00000000000E+00  0.00000000000E+00  0.11343801780E+04  0.11343801780E+04  0.00000000000E+00 0. -1.
          2   -1    0    0  502    0  0.00000000000E+00 -0.00000000000E+00 -0.25347628582E+04  0.25347628582E+04  0.00000000000E+00 0. -1.
         24    2    1    2    0    0 -0.45833614307E+02 -0.26869263478E+02  0.95961961616E+03  0.96438047597E+03  0.79606640433E+02 0.  0.
         25    2    1    2    0    0 -0.51928555313E+01  0.16483847735E+03 -0.62518505698E+03  0.65854874224E+03  0.12502560162E+03 0.  0.
         24    2    1    2    0    0 -0.87913471339E+02 -0.65439928556E+02 -0.32340988493E+03  0.35036475636E+03  0.78424142537E+02 0.  0.
        -13    1    5    5    0    0 -0.42850862322E+02 -0.40902920250E+01 -0.20591876443E+03  0.21036982776E+03  0.00000000000E+00 0.  1.
         14    1    5    5    0    0 -0.45062609017E+02 -0.61349636531E+02 -0.11749112051E+03  0.13999492859E+03  0.00000000000E+00 0. -1.
        -13    1    3    3    0    0 -0.13662872341E+02 -0.36286732845E+02  0.18420022304E+03  0.18823688063E+03  0.00000000000E+00 0.  1.
         14    1    3    3    0    0 -0.32170741966E+02  0.94174693671E+01  0.77541939312E+03  0.77614359535E+03  0.00000000000E+00 0. -1.
          5    1    4    4  501    0  0.47270327508E+02  0.48505692422E+02 -0.12421115908E+03  0.14155489430E+03  0.47000000000E+01 0. -1.
         -5    1    4    4    0  501 -0.52463183039E+02  0.11633278493E+03 -0.50097389790E+03  0.51699384794E+03  0.47000000000E+01 0. -1.
          1    1    1    2  502    0  0.44331574456E+02 -0.17001997312E+02 -0.15320518269E+04  0.15327873815E+04  0.00000000000E+00 0. -1.
          3    1    1    2  503    0  0.94608366722E+02 -0.55527288002E+02  0.12064447254E+03  0.16306168011E+03  0.00000000000E+00 0. -1.
<mgrwt>
<rscale>  0 0.67650073E+02</rscale>
<asrwt>0</asrwt>
<pdfrwt beam="2">  1        2 0.37275924E+00 0.47480063E+02</pdfrwt>
<pdfrwt beam="1">  1        4 0.16682062E+00 0.96388506E+02</pdfrwt>
<totfact> 0.70340997E-01</totfact>
</mgrwt>
</event>
<event>
13    1  0.1589573E-008  0.1314100E+03  0.7546771E-02  0.1317596E+00
          2   -1    0    0  502    0  0.00000000000E+00  0.00000000000E+00  0.24606100556E+04  0.24606100556E+04  0.00000000000E+00 0. -1.
          4   -1    0    0  503    0 -0.00000000000E+00 -0.00000000000E+00 -0.85994579059E+03  0.85994579059E+03  0.00000000000E+00 0. -1.
         24    2    1    2    0    0 -0.80354457427E+02 -0.92724789134E+02 -0.29098733281E+03  0.32600128112E+03  0.80922692053E+02 0.  0.
         25    2    1    2    0    0 -0.76511873208E+02 -0.79224625778E+02  0.40995235620E+03  0.44251212128E+03  0.12500174023E+03 0.  0.
         24    2    1    2    0    0  0.18423616760E+02  0.51543004166E+02 -0.27666855608E+02  0.10158921539E+03  0.80986436224E+02 0.  0.
        -11    1    3    3    0    0 -0.14322969238E+02  0.46696741129E+01 -0.10390044922E+03  0.10498693563E+03  0.00000000000E+00 0.  1.
         12    1    3    3    0    0 -0.66031488189E+02 -0.97394463247E+02 -0.18708688359E+03  0.22101434550E+03  0.00000000000E+00 0. -1.
        -13    1    5    5    0    0 -0.15297531051E+02  0.48765516384E+02 -0.40696078126E+02  0.65331928023E+02  0.00000000000E+00 0.  1.
         14    1    5    5    0    0  0.33721147811E+02  0.27774877818E+01  0.13029222518E+02  0.36257287371E+02  0.00000000000E+00 0. -1.
          5    1    4    4  501    0 -0.38196451346E+02 -0.40972218094E+02  0.37200818516E+03  0.37623114089E+03  0.47000000000E+01 0.  1.
         -5    1    4    4    0  501 -0.38315421862E+02 -0.38252407684E+02  0.37944171036E+02  0.66280980392E+02  0.47000000000E+01 0.  1.
          1    1    1    2  502    0  0.53789677737E+02 -0.37801248803E+01  0.19675296095E+04  0.19682683717E+04  0.00000000000E+00 0. -1.
          3    1    1    2  503    0  0.84653036139E+02  0.12418653563E+03 -0.45816351221E+03  0.48218485675E+03  0.00000000000E+00 0. -1.
<mgrwt>
<rscale>  0 0.84177989E+02</rscale>
<asrwt>0</asrwt>
<pdfrwt beam="1">  1        2 0.36185442E+00 0.53922340E+02</pdfrwt>
<pdfrwt beam="2">  1        4 0.12646262E+00 0.13140998E+03</pdfrwt>
<totfact> 0.15100792E+00</totfact>
</mgrwt>
</event>
<event>
13    1  0.1589573E-008  0.2015979E+03  0.7546771E-02  0.1237066E+00
          2   -1    0    0  503    0  0.00000000000E+00  0.00000000000E+00  0.10843075267E+04  0.10843075267E+04  0.00000000000E+00 0. -1.
          2   -1    0    0  502    0 -0.00000000000E+00 -0.00000000000E+00 -0.37670036604E+03  0.37670036604E+03  0.00000000000E+00 0. -1.
         24    2    1    2    0    0 -0.17801866796E+03  0.31299776113E+02 -0.78632711670E+01  0.19914957226E+03  0.83237004821E+02 0.  0.
         25    2    1    2    0    0 -0.27115685091E+02 -0.93949468469E+02  0.27533422638E+03  0.31779641196E+03  0.12499544086E+03 0.  0.
         24    2    1    2    0    0  0.13046347398E+02  0.34085140218E+02  0.19192193603E+02  0.95763655157E+02  0.86431090411E+02 0.  0.
        -11    1    3    3    0    0 -0.14623544736E+03 -0.10103140209E+02 -0.98654403469E+01  0.14691564389E+03  0.00000000000E+00 0.  1.
         12    1    3    3    0    0 -0.31783220602E+02  0.41402916322E+02  0.20021691799E+01  0.52233928373E+02  0.00000000000E+00 0. -1.
        -13    1    5    5    0    0  0.39303256118E+02  0.44870461069E+02 -0.30109439548E+01  0.59725790087E+02  0.00000000000E+00 0.  1.
         14    1    5    5    0    0 -0.26256908720E+02 -0.10785320851E+02  0.22203137558E+02  0.36037865070E+02  0.00000000000E+00 0. -1.
          5    1    4    4  501    0 -0.25141385174E+02 -0.42514004036E+01 -0.22593254748E+01  0.26026106230E+02  0.47000000000E+01 0. -1.
         -5    1    4    4    0  501 -0.19742999171E+01 -0.89698068066E+02  0.27759355186E+03  0.29177030573E+03  0.47000000000E+01 0. -1.
          1    1    1    2  502    0  0.20848293840E+03 -0.45584588893E+02 -0.15728310146E+03  0.26510576069E+03  0.00000000000E+00 0. -1.
          1    1    1    2  503    0 -0.16394932747E+02  0.74149141032E+02  0.57822711332E+03  0.58319249267E+03  0.00000000000E+00 0. -1.
<mgrwt>
<rscale>  0 0.12373097E+03</rscale>
<asrwt>0</asrwt>
<pdfrwt beam="1">  1        2 0.15945699E+00 0.75940035E+02</pdfrwt>
<pdfrwt beam="2">  1        2 0.55397113E-01 0.20159793E+03</pdfrwt>
<totfact> 0.37156627E+02</totfact>
</mgrwt>
</event>
<event>
13    1  0.1589573E-008  0.1774918E+03  0.7546771E-02  0.1272862E+00
          2   -1    0    0  502    0  0.00000000000E+00  0.00000000000E+00  0.13354507001E+04  0.13354507001E+04  0.00000000000E+00 0. -1.
          2   -1    0    0  503    0 -0.00000000000E+00 -0.00000000000E+00 -0.19528406440E+04  0.19528406440E+04  0.00000000000E+00 0. -1.
         24    2    1    2    0    0  0.15177878193E+03  0.45730506552E+02 -0.43885919807E+03  0.47348212076E+03  0.80373161437E+02 0.  0.
         25    2    1    2    0    0 -0.81284612493E+02  0.24051213793E+02  0.85152224718E+03  0.86481271325E+03  0.12500096978E+03 0.  0.
         24    2    1    2    0    0 -0.10835554493E+02  0.45725601365E+02  0.35013359854E+02  0.99981382953E+02  0.81006800378E+02 0.  0.
        -11    1    3    3    0    0  0.13262310092E+03  0.65866985105E+02 -0.39152412608E+03  0.41859107483E+03  0.00000000000E+00 0.  1.
         12    1    3    3    0    0  0.19155681013E+02 -0.20136478553E+02 -0.47335071987E+02  0.54891045933E+02  0.00000000000E+00 0. -1.
        -11    1    5    5    0    0 -0.42457052414E+02  0.44689967118E+02  0.27294123360E+02  0.67414862090E+02  0.00000000000E+00 0.  1.
         12    1    5    5    0    0  0.31621497920E+02  0.10356342465E+01  0.77192364940E+01  0.32566520862E+02  0.00000000000E+00 0. -1.
          5    1    4    4  501    0 -0.92882816230E+02  0.22913767170E+02  0.84544666390E+03  0.85085510504E+03  0.47000000000E+01 0. -1.
         -5    1    4    4    0  501  0.11598203737E+02  0.11374466230E+01  0.60755832811E+01  0.13957608211E+02  0.47000000000E+01 0. -1.
          1    1    1    2  502    0 -0.18237186311E+02  0.57679736771E+02  0.38466279756E+03  0.38939056849E+03  0.00000000000E+00 0. -1.
          1    1    1    2  503    0 -0.41421428635E+02 -0.17318705848E+03 -0.14497291504E+04  0.14606245587E+04  0.00000000000E+00 0. -1.
<mgrwt>
<rscale>  0 0.10362057E+03</rscale>
<asrwt>0</asrwt>
<pdfrwt beam="1">  1        2 0.19638981E+00 0.60494190E+02</pdfrwt>
<pdfrwt beam="2">  1        2 0.28718244E+00 0.17749178E+03</pdfrwt>
<totfact> 0.28511374E+01</totfact>
</mgrwt>
</event>
<event>
13    1  0.1589573E-008  0.1101562E+03  0.7546771E-02  0.1318721E+00
          2   -1    0    0  503    0  0.00000000000E+00  0.00000000000E+00  0.19262234236E+04  0.19262234236E+04  0.00000000000E+00 0. -1.
          2   -1    0    0  502    0 -0.00000000000E+00 -0.00000000000E+00 -0.17781497919E+04  0.17781497919E+04  0.00000000000E+00 0. -1.
         24    2    1    2    0    0  0.34258403911E+03 -0.12869881845E+03 -0.70329026128E+03  0.79936927355E+03  0.10220975566E+03 0.  0.
         25    2    1    2    0    0  0.27160851586E+03 -0.12173929010E+03  0.58221017209E+03  0.66572168325E+03  0.12500013765E+03 0.  0.
         24    2    1    2    0    0 -0.54217850465E+03  0.15414066335E+03  0.57473365319E+03  0.80905597787E+03  0.80845087785E+02 0.  0.
        -13    1    3    3    0    0  0.24440747774E+03 -0.12898515641E+03 -0.45469731031E+03  0.53209193731E+03  0.00000000000E+00 0.  1.
         14    1    3    3    0    0  0.98176561366E+02  0.28633795741E+00 -0.24859295097E+03  0.26727733623E+03  0.00000000000E+00 0. -1.
        -13    1    5    5    0    0 -0.32871902686E+03  0.13082153829E+03  0.33528852112E+03  0.48743088320E+03  0.00000000000E+00 0.  1.
         14    1    5    5    0    0 -0.21345947779E+03  0.23319125060E+02  0.23944513207E+03  0.32162509467E+03  0.00000000000E+00 0. -1.
          5    1    4    4  501    0  0.22704140370E+03 -0.14523204013E+03  0.51830021309E+03  0.58420659476E+03  0.47000000000E+01 0. -1.
         -5    1    4    4    0  501  0.44567112161E+02  0.23492750035E+02  0.63909959002E+02  0.81515088482E+02  0.47000000000E+01 0. -1.
          1    1    1    2  502    0 -0.97680571595E+01  0.10974237038E+03 -0.86258495252E+03  0.86959278005E+03  0.00000000000E+00 0. -1.
          1    1    1    2  503    0 -0.62245993163E+02 -0.13444925185E+02  0.55700502018E+03  0.56063350077E+03  0.00000000000E+00 0. -1.
<mgrwt>
<rscale>  0 0.83755044E+02</rscale>
<asrwt>0</asrwt>
<pdfrwt beam="1">  1        2 0.28326815E+00 0.63681470E+02</pdfrwt>
<pdfrwt beam="2">  1        2 0.26149261E+00 0.11015618E+03</pdfrwt>
<totfact> 0.18836607E+01</totfact>
</mgrwt>
</event>
<event>
13    1  0.1589573E-008  0.2401586E+03  0.7546771E-02  0.1260633E+00
          2   -1    0    0  502    0  0.00000000000E+00  0.00000000000E+00  0.17710556561E+04  0.17710556561E+04  0.00000000000E+00 0. -1.
          2   -1    0    0  503    0 -0.00000000000E+00 -0.00000000000E+00 -0.10573557093E+04  0.10573557093E+04  0.00000000000E+00 0. -1.
         24    2    1    2    0    0 -0.75568860077E+02 -0.81475720397E+02 -0.12892861683E+03  0.18834845309E+03  0.80644937318E+02 0.  0.
         25    2    1    2    0    0  0.10200419027E+03  0.14453148931E+03  0.10735810706E+04  0.10952157650E+04  0.12500820202E+03 0.  0.
         24    2    1    2    0    0  0.30331025473E+03  0.13678727034E+03  0.15352131558E+03  0.37499338987E+03  0.79645339831E+02 0.  0.
        -11    1    3    3    0    0 -0.14034750964E+02  0.29621656399E+01 -0.63436987900E+02  0.65038450887E+02  0.00000000000E+00 0.  1.
         12    1    3    3    0    0 -0.61534109113E+02 -0.84437886037E+02 -0.65491628928E+02  0.12331000220E+03  0.00000000000E+00 0. -1.
        -13    1    5    5    0    0  0.36512628901E+01  0.16477534271E+02 -0.12222894722E+01  0.16921431615E+02  0.00000000000E+00 0.  1.
         14    1    5    5    0    0  0.29965899184E+03  0.12030973607E+03  0.15474360505E+03  0.35807195825E+03  0.00000000000E+00 0. -1.
          5    1    4    4  501    0  0.27447546212E+02  0.34444964828E+02  0.64361355213E+03  0.64513589102E+03  0.47000000000E+01 0.  1.
         -5    1    4    4    0  501  0.74556644061E+02  0.11008652449E+03  0.42996751849E+03  0.45007987403E+03  0.47000000000E+01 0.  1.
          1    1    1    2  502    0  0.27843471268E+01 -0.50274960077E+02  0.34801151955E+03  0.35163523990E+03  0.00000000000E+00 0. -1.
          1    1    1    2  503    0 -0.33252993205E+03 -0.14956807918E+03 -0.73248534207E+03  0.81821851749E+03  0.00000000000E+00 0. -1.
<mgrwt>
<rscale>  0 0.10996575E+03</rscale>
<asrwt>0</asrwt>
<pdfrwt beam="1">  1        2 0.26044936E+00 0.50352003E+02</pdfrwt>
<pdfrwt beam="2">  1        2 0.15549349E+00 0.24015859E+03</pdfrwt>
<totfact> 0.51211337E+01</totfact>
</mgrwt>
</event>
<event>
13    1  0.1589573E-008  0.5185596E+02  0.7546771E-02  0.1448684E+00
          4   -1    0    0  503    0 -0.00000000000E+00  0.00000000000E+00  0.38512940930E+03  0.38512940930E+03  0.00000000000E+00 0. -1.
          2   -1    0    0  502    0  0.00000000000E+00 -0.00000000000E+00 -0.22182636369E+04  0.22182636369E+04  0.00000000000E+00 0. -1.
         24    2    1    2    0    0 -0.48752368878E+02  0.19702864565E+02  0.24734524069E+03  0.26543173449E+03  0.80680488601E+02 0.  0.
         25    2    1    2    0    0  0.41011544950E+02  0.46101806319E+02 -0.10296680920E+04  0.10390600306E+04  0.12498817645E+03 0.  0.
         24    2    1    2    0    0  0.43025463820E+02 -0.70796076114E+02 -0.37846368957E+03  0.39594673117E+03  0.81705413970E+02 0.  0.
        -11    1    5    5    0    0  0.22001488620E+02 -0.13422388916E+02 -0.20850444877E+02  0.33150672351E+02  0.00000000000E+00 0.  1.
         12    1    5    5    0    0  0.21023975200E+02 -0.57373687197E+02 -0.35761324469E+03  0.36279605882E+03  0.00000000000E+00 0. -1.
        -13    1    3    3    0    0  0.17789044612E+02 -0.90626898291E+01  0.27788362846E+02  0.34216597797E+02  0.00000000000E+00 0.  1.
         14    1    3    3    0    0 -0.66541413490E+02  0.28765554394E+02  0.21955687784E+03  0.23121513669E+03  0.00000000000E+00 0. -1.
          5    1    4    4  501    0  0.68707755918E+01 -0.41882325083E+02 -0.41181402596E+03  0.41402200266E+03  0.47000000000E+01 0. -1.
         -5    1    4    4    0  501  0.34140769358E+02  0.87984131403E+02 -0.61785406600E+03  0.62503802795E+03  0.47000000000E+01 0. -1.
          1    1    1    2  502    0 -0.44009569345E+01  0.46826490772E+02 -0.78104477320E+03  0.78245960049E+03  0.00000000000E+00 0. -1.
          3    1    1    2  503    0 -0.30883682957E+02 -0.41835085543E+02  0.10869708641E+03  0.12049494948E+03  0.00000000000E+00 0. -1.
<mgrwt>
<rscale>  0 0.49385560E+02</rscale>
<asrwt>0</asrwt>
<pdfrwt beam="2">  1        2 0.32621524E+00 0.47032847E+02</pdfrwt>
<pdfrwt beam="1">  1        4 0.56636678E-01 0.51855963E+02</pdfrwt>
<totfact> 0.11250588E+01</totfact>
</mgrwt>
</event>
<event>
13    1  0.1589573E-008  0.3010425E+03  0.7546771E-02  0.1250268E+00
          2   -1    0    0  502    0  0.00000000000E+00  0.00000000000E+00  0.18139432223E+04  0.18139432223E+04  0.00000000000E+00 0. -1.
          2   -1    0    0  503    0 -0.00000000000E+00 -0.00000000000E+00 -0.94046443020E+03  0.94046443020E+03  0.00000000000E+00 0. -1.
         24    2    1    2    0    0 -0.31988131114E+03 -0.44454025257E+02 -0.27014800911E+03  0.43218253609E+03  0.97476069340E+02 0.  0.
         25    2    1    2    0    0 -0.60012483471E+02  0.12470135310E+03  0.76124885430E+03  0.78375764432E+03  0.12499720485E+03 0.  0.
         24    2    1    2    0    0  0.10463915462E+03  0.21992233654E+01  0.54383425616E+02  0.14256178094E+03  0.80075683818E+02 0.  0.
        -11    1    3    3    0    0 -0.69033378296E+02  0.18741538578E+02 -0.24959223198E+02  0.75761569479E+02  0.00000000000E+00 0.  1.
         12    1    3    3    0    0 -0.25084793284E+03 -0.63195563836E+02 -0.24518878591E+03  0.35642096661E+03  0.00000000000E+00 0. -1.
        -13    1    5    5    0    0  0.91659724669E+02 -0.11020090563E+02  0.80598085221E+01  0.92670966520E+02  0.00000000000E+00 0.  1.
         14    1    5    5    0    0  0.12979429955E+02  0.13219313929E+02  0.46323617094E+02  0.49890814419E+02  0.00000000000E+00 0. -1.
          5    1    4    4  501    0 -0.95981217748E+02  0.75145188419E+02  0.43512366327E+03  0.45190030520E+03  0.47000000000E+01 0. -1.
         -5    1    4    4    0  501  0.35968734277E+02  0.49556164677E+02  0.32612519103E+03  0.33185733912E+03  0.47000000000E+01 0. -1.
          1    1    1    2  502    0 -0.40770738130E+01  0.44322627467E+02  0.81723809639E+03  0.81844928006E+03  0.00000000000E+00 0. -1.
          1    1    1    2  503    0  0.27933171380E+03 -0.12676917867E+03 -0.48924357508E+03  0.57745641112E+03  0.00000000000E+00 0. -1.
<mgrwt>
<rscale>  0 0.11575546E+03</rscale>
<asrwt>0</asrwt>
<pdfrwt beam="1">  1        2 0.26675636E+00 0.44509750E+02</pdfrwt>
<pdfrwt beam="2">  1        2 0.13830359E+00 0.30104251E+03</pdfrwt>
<totfact> 0.57645311E+01</totfact>
</mgrwt>
</event>
<event>
13    1  0.1589573E-008  0.1365235E+03  0.7546771E-02  0.1373716E+00
          2   -1    0    0  503    0  0.00000000000E+00  0.00000000000E+00  0.67789158462E+03  0.67789158462E+03  0.00000000000E+00 0. -1.
          2   -1    0    0  502    0 -0.00000000000E+00 -0.00000000000E+00 -0.11364397514E+04  0.11364397514E+04  0.00000000000E+00 0. -1.
         24    2    1    2    0    0 -0.88462887066E+02  0.55343781100E+02 -0.23459754082E+03  0.26940358932E+03  0.81570039132E+02 0.  0.
         25    2    1    2    0    0  0.25582776359E+03 -0.26016222794E+03 -0.41948545302E+03  0.56984955766E+03  0.12501297372E+03 0.  0.
         24    2    1    2    0    0  0.11265154442E+02  0.15532983274E+02  0.13626801384E+03  0.15401705258E+03  0.69167214899E+02 0.  0.
        -13    1    5    5    0    0  0.36005265177E+02  0.26503218260E+02  0.83751762944E+02  0.94937650565E+02  0.00000000000E+00 0.  1.
         14    1    5    5    0    0 -0.24740110735E+02 -0.10970234985E+02  0.52516250896E+02  0.59079402019E+02  0.00000000000E+00 0. -1.
        -13    1    3    3    0    0 -0.37110987797E+02  0.54618897683E+02 -0.66826598005E+02  0.93948089923E+02  0.00000000000E+00 0.  1.
         14    1    3    3    0    0 -0.51351899269E+02  0.72488341753E+00 -0.16777094282E+03  0.17545549940E+03  0.00000000000E+00 0. -1.
          5    1    4    4  501    0  0.17751514533E+03 -0.13889748326E+03 -0.17303456994E+03  0.28419568975E+03  0.47000000000E+01 0. -1.
         -5    1    4    4    0  501  0.78312618263E+02 -0.12126474468E+03 -0.24645088308E+03  0.28565386791E+03  0.47000000000E+01 0. -1.
          1    1    1    2  502    0 -0.31106196421E+02 -0.77070666668E+01 -0.34569645423E+03  0.34717867561E+03  0.00000000000E+00 0. -1.
          1    1    1    2  503    0 -0.14752383455E+03  0.19699253023E+03  0.40496326745E+03  0.47388246086E+03  0.00000000000E+00 0. -1.
<mgrwt>
<rscale>  0 0.66144794E+02</rscale>
<asrwt>0</asrwt>
<pdfrwt beam="1">  1        2 0.99689940E-01 0.13652347E+03</pdfrwt>
<pdfrwt beam="2">  1        2 0.16712349E+00 0.32046752E+02</pdfrwt>
<totfact> 0.19241263E+02</totfact>
</mgrwt>
</event>
<event>
13    1  0.1589573E-008  0.1964022E+03  0.7546771E-02  0.1255728E+00
          2   -1    0    0  502    0  0.00000000000E+00  0.00000000000E+00  0.25234667633E+04  0.25234667633E+04  0.00000000000E+00 0. -1.
          2   -1    0    0  503    0 -0.00000000000E+00 -0.00000000000E+00 -0.21492399636E+04  0.21492399636E+04  0.00000000000E+00 0. -1.
         24    2    1    2    0    0 -0.99886386264E+01  0.16773805114E+03 -0.51536154917E+02  0.18971061130E+03  0.71402479473E+02 0.  0.
         25    2    1    2    0    0 -0.51874462863E+02 -0.51653760792E+03  0.24517955764E+03  0.58757040189E+03  0.12499560549E+03 0.  0.
         24    2    1    2    0    0 -0.49262942944E+01  0.10142287994E+03 -0.95322257709E+02  0.15721823075E+03  0.72940868614E+02 0.  0.
        -11    1    3    3    0    0 -0.34486307259E+02  0.14534554122E+03 -0.41582687983E+02  0.15506047749E+03  0.00000000000E+00 0.  1.
         12    1    3    3    0    0  0.24497668633E+02  0.22392509927E+02 -0.99534669334E+01  0.34650133813E+02  0.00000000000E+00 0. -1.
        -11    1    5    5    0    0  0.21697050807E+02  0.94542710919E+02 -0.68054198676E+02  0.11849244769E+03  0.00000000000E+00 0.  1.
         12    1    5    5    0    0 -0.26623345101E+02  0.68801690179E+01 -0.27268059033E+02  0.38725783059E+02  0.00000000000E+00 0. -1.
          5    1    4    4  501    0 -0.28680999791E+02 -0.28588619270E+02  0.41844995331E+02  0.58420908372E+02  0.47000000000E+01 0. -1.
         -5    1    4    4    0  501 -0.23193463073E+02 -0.48794898865E+03  0.20333456231E+03  0.52914949351E+03  0.47000000000E+01 0. -1.
          1    1    1    2  502    0 -0.12336367766E+02  0.63431653391E+02  0.20007427206E+04  0.20017860013E+04  0.00000000000E+00 0. -1.
          1    1    1    2  503    0  0.79125763550E+02  0.18394502345E+03 -0.17248370659E+04  0.17364214817E+04  0.00000000000E+00 0. -1.
<mgrwt>
<rscale>  0 0.11265673E+03</rscale>
<asrwt>0</asrwt>
<pdfrwt beam="1">  1        2 0.37109805E+00 0.64620126E+02</pdfrwt>
<pdfrwt beam="2">  1        2 0.31606470E+00 0.19640225E+03</pdfrwt>
<totfact> 0.60662662E+00</totfact>
</mgrwt>
</event>
<event>
13    1  0.1589573E-008  0.2144714E+03  0.7546771E-02  0.1260892E+00
          2   -1    0    0  503    0  0.00000000000E+00  0.00000000000E+00  0.47237452759E+04  0.47237452759E+04  0.00000000000E+00 0. -1.
          2   -1    0    0  502    0 -0.00000000000E+00 -0.00000000000E+00 -0.16216855473E+03  0.16216855473E+03  0.00000000000E+00 0. -1.
         24    2    1    2    0    0 -0.27296531786E+02 -0.13694042162E+03  0.11293951032E+03  0.19734190973E+03  0.81796800827E+02 0.  0.
         25    2    1    2    0    0 -0.99563811918E+01  0.34879909694E+03  0.13624516812E+04  0.14119697490E+04  0.12499619597E+03 0.  0.
         24    2    1    2    0    0  0.17822165717E+02 -0.44964719024E+02  0.51282068339E+03  0.52130600135E+03  0.80221182894E+02 0.  0.
        -11    1    3    3    0    0 -0.52500146681E+02 -0.11452408683E+03  0.10130269576E+03  0.16166096633E+03  0.00000000000E+00 0.  1.
         12    1    3    3    0    0  0.25203614896E+02 -0.22416334788E+02  0.11636814556E+02  0.35680943403E+02  0.00000000000E+00 0. -1.
        -11    1    5    5    0    0 -0.24482386474E+02 -0.72309883984E+01  0.63745604374E+02  0.68667142926E+02  0.00000000000E+00 0.  1.
         12    1    5    5    0    0  0.42304552191E+02 -0.37733730626E+02  0.44907507901E+03  0.45263885842E+03  0.00000000000E+00 0. -1.
          5    1    4    4  501    0 -0.83759235050E+01  0.20358439207E+02  0.27679043948E+03  0.27770426631E+03  0.47000000000E+01 0.  1.
         -5    1    4    4    0  501 -0.15804576869E+01  0.32844065774E+03  0.10856612417E+04  0.11342654827E+04  0.47000000000E+01 0.  1.
          1    1    1    2  502    0  0.74206845483E+02 -0.15414700975E+03 -0.99512399338E+01  0.17136797748E+03  0.00000000000E+00 0. -1.
          1    1    1    2  503    0 -0.54776098222E+02 -0.12746946554E+02  0.25833160863E+04  0.25839281931E+04  0.00000000000E+00 0. -1.
<mgrwt>
<rscale>  0 0.10982628E+03</rscale>
<asrwt>0</asrwt>
<pdfrwt beam="1">  1        2 0.69466833E+00 0.56239715E+02</pdfrwt>
<pdfrwt beam="2">  1        2 0.23848320E-01 0.21447143E+03</pdfrwt>
<totfact> 0.84535853E+00</totfact>
</mgrwt>
</event>
<event>
13    1  0.1589573E-008  0.1815683E+03  0.7546771E-02  0.1287120E+00
          2   -1    0    0  502    0  0.00000000000E+00  0.00000000000E+00  0.22281580516E+04  0.22281580516E+04  0.00000000000E+00 0. -1.
          2   -1    0    0  503    0 -0.00000000000E+00 -0.00000000000E+00 -0.15360937005E+03  0.15360937005E+03  0.00000000000E+00 0. -1.
         24    2    1    2    0    0  0.69292189754E+02 -0.26576164622E+02  0.26346167637E+02  0.11214044328E+03  0.79835195144E+02 0.  0.
         25    2    1    2    0    0  0.25009114608E+03 -0.45858216173E+02  0.13704370974E+04  0.13994187660E+04  0.12500594956E+03 0.  0.
         24    2    1    2    0    0  0.13179840463E+02 -0.69526499090E+02  0.20226952015E+03  0.22954281007E+03  0.82275759510E+02 0.  0.
        -11    1    5    5    0    0 -0.30604006511E+02 -0.53992018080E+02  0.11513953484E+03  0.13080082459E+03  0.00000000000E+00 0.  1.
         12    1    5    5    0    0  0.43783846973E+02 -0.15534481010E+02  0.87129985306E+02  0.98741985474E+02  0.00000000000E+00 0. -1.
        -13    1    3    3    0    0 -0.99297821364E+01 -0.26651197680E+02 -0.64038779377E+00  0.28448145943E+02  0.00000000000E+00 0.  1.
         14    1    3    3    0    0  0.79221971890E+02  0.75033058249E-01  0.26986555430E+02  0.83692297341E+02  0.00000000000E+00 0. -1.
          5    1    4    4  501    0  0.22570394224E+03 -0.17040914399E+02  0.12980366216E+04  0.13176318998E+04  0.47000000000E+01 0.  1.
         -5    1    4    4    0  501  0.24387203844E+02 -0.28817301774E+02  0.72400475757E+02  0.81786866200E+02  0.47000000000E+01 0.  1.
          1    1    1    2  502    0 -0.18613490254E+02 -0.48161240186E+02  0.11569214073E+03  0.12669111454E+03  0.00000000000E+00 0. -1.
          1    1    1    2  503    0 -0.31394968604E+03  0.19012212007E+03  0.35980375570E+03  0.51397428780E+03  0.00000000000E+00 0. -1.
<mgrwt>
<rscale>  0 0.96824156E+02</rscale>
<asrwt>0</asrwt>
<pdfrwt beam="1">  1        2 0.32767028E+00 0.51633004E+02</pdfrwt>
<pdfrwt beam="2">  1        2 0.22589615E-01 0.18156831E+03</pdfrwt>
<totfact> 0.28370072E+02</totfact>
</mgrwt>
</event>
<event>
13    1  0.1589573E-008  0.1138087E+03  0.7546771E-02  0.1358851E+00
          2   -1    0    0  503    0  0.00000000000E+00  0.00000000000E+00  0.11683505468E+04  0.11683505468E+04  0.00000000000E+00 0. -1.
          2   -1    0    0  502    0 -0.00000000000E+00 -0.00000000000E+00 -0.16438568414E+04  0.16438568414E+04  0.00000000000E+00 0. -1.
         24    2    1    2    0    0  0.60043487071E+02 -0.61604039513E+02 -0.68961320493E+03  0.69971635679E+03  0.81463669956E+02 0.  0.
         25    2    1    2    0    0  0.39979522725E+02  0.80206675811E+02  0.30623068624E+02  0.15682635980E+03  0.12500104685E+03 0.  0.
         24    2    1    2    0    0 -0.48115480420E+02  0.10631782998E+03 -0.12476999358E+03  0.19040798055E+03  0.84077745754E+02 0.  0.
        -11    1    5    5    0    0  0.76200861845E+01  0.76807000248E+02 -0.47343909961E+02  0.90547373296E+02  0.00000000000E+00 0.  1.
         12    1    5    5    0    0 -0.55735566605E+02  0.29510829733E+02 -0.77426083621E+02  0.99860607254E+02  0.00000000000E+00 0. -1.
        -11    1    3    3    0    0 -0.19414533133E+02 -0.23111111571E+02 -0.17404987412E+03  0.17664768965E+03  0.00000000000E+00 0.  1.
         12    1    3    3    0    0  0.79458020205E+02 -0.38492927942E+02 -0.51556333081E+03  0.52306866715E+03  0.00000000000E+00 0. -1.
          5    1    4    4  501    0 -0.56008398445E+01  0.25198746308E+02  0.70255872487E+02  0.74995492140E+02  0.47000000000E+01 0. -1.
         -5    1    4    4    0  501  0.45580362570E+02  0.55007929503E+02 -0.39632803862E+02  0.81830867661E+02  0.47000000000E+01 0. -1.
          1    1    1    2  502    0 -0.42350134760E+02 -0.99651909800E+01 -0.72463838354E+03  0.72594326627E+03  0.00000000000E+00 0. -1.
          1    1    1    2  503    0 -0.95573946156E+01 -0.11495527530E+03  0.10328922189E+04  0.10393134248E+04  0.00000000000E+00 0. -1.
<mgrwt>
<rscale>  0 0.70366520E+02</rscale>
<asrwt>0</asrwt>
<pdfrwt beam="1">  1        2 0.17181626E+00 0.11380866E+03</pdfrwt>
<pdfrwt beam="2">  1        2 0.24174365E+00 0.43506769E+02</pdfrwt>
<totfact> 0.53670322E+01</totfact>
</mgrwt>
</event>
<event>
13    1  0.1589573E-008  0.1169645E+03  0.7546771E-02  0.1310094E+00
          2   -1    0    0  502    0  0.00000000000E+00  0.00000000000E+00  0.45931659996E+04  0.45931659996E+04  0.00000000000E+00 0. -1.
          2   -1    0    0  503    0 -0.00000000000E+00 -0.00000000000E+00 -0.20620025235E+04  0.20620025235E+04  0.00000000000E+00 0. -1.
         24    2    1    2    0    0 -0.62227373896E+03 -0.69710695796E+03 -0.31907435870E+03  0.98935356876E+03  0.61881504584E+02 0.  0.
         25    2    1    2    0    0  0.32953775125E+02 -0.32061816160E+03 -0.17098965237E+03  0.38567365851E+03  0.12499901122E+03 0.  0.
         24    2    1    2    0    0  0.61527626775E+03  0.10799175708E+04  0.39658351704E+03  0.13070671200E+04  0.79744120860E+02 0.  0.
        -11    1    5    5    0    0  0.11542032890E+03  0.18651809818E+03  0.10130166673E+03  0.24160480325E+03  0.00000000000E+00 0.  1.
         12    1    5    5    0    0  0.49985593885E+03  0.89339947262E+03  0.29528185031E+03  0.10654623167E+04  0.00000000000E+00 0. -1.
        -13    1    3    3    0    0 -0.33465408178E+03 -0.37536309901E+03 -0.13907009124E+03  0.52175789484E+03  0.00000000000E+00 0.  1.
         14    1    3    3    0    0 -0.28761965718E+03 -0.32174385895E+03 -0.18000426746E+03  0.46759567392E+03  0.00000000000E+00 0. -1.
          5    1    4    4  501    0  0.69299960825E+02 -0.27878653919E+03 -0.12424354992E+03  0.31302231342E+03  0.47000000000E+01 0.  1.
         -5    1    4    4    0  501 -0.36346185700E+02 -0.41831622418E+02 -0.46746102451E+02  0.72651345090E+02  0.47000000000E+01 0.  1.
          1    1    1    2  502    0 -0.89402513054E+02 -0.75484120676E+02  0.32962605079E+04  0.32983365501E+04  0.00000000000E+00 0. -1.
          1    1    1    2  503    0  0.63446209143E+02  0.13291669438E+02 -0.67161653767E+03  0.67473762575E+03  0.00000000000E+00 0. -1.
<mgrwt>
<rscale>  0 0.87074963E+02</rscale>
<asrwt>0</asrwt>
<pdfrwt beam="1">  1        2 0.67546559E+00 0.11696446E+03</pdfrwt>
<pdfrwt beam="2">  1        2 0.30323567E+00 0.64823529E+02</pdfrwt>
<totfact> 0.36211847E-01</totfact>
</mgrwt>
</event>
<event>
13    1  0.1589573E-008  0.1656600E+03  0.7546771E-02  0.1344230E+00
          2   -1    0    0  502    0  0.00000000000E+00  0.00000000000E+00  0.12008566843E+04  0.12008566843E+04  0.00000000000E+00 0. -1.
          2   -1    0    0  503    0 -0.00000000000E+00 -0.00000000000E+00 -0.24091638850E+04  0.24091638850E+04  0.00000000000E+00 0. -1.
         24    2    1    2    0    0  0.34902227323E+03  0.10560482706E+03 -0.19140158091E+03  0.41951212923E+03  0.79918300092E+02 0.  0.
         25    2    1    2    0    0 -0.17087374962E+03 -0.41502900145E+03 -0.10938609627E+04  0.11889507854E+04  0.12500101634E+03 0.  0.
         24    2    1    2    0    0  0.20922333024E+02 -0.16032684401E+01  0.12028470145E+03  0.14604891961E+03  0.80134655599E+02 0.  0.
        -11    1    3    3    0    0 -0.12981383202E+01 -0.55398774377E+01 -0.18590298589E+01  0.59859332723E+01  0.00000000000E+00 0.  1.
         12    1    3    3    0    0  0.35032041155E+03  0.11114470450E+03 -0.18954255106E+03  0.41352619596E+03  0.00000000000E+00 0. -1.
        -13    1    5    5    0    0 -0.54763686162E+01 -0.23036202337E+02  0.29200451792E+01  0.23857575216E+02  0.00000000000E+00 0.  1.
         14    1    5    5    0    0  0.26398701641E+02  0.21432933897E+02  0.11736465627E+03  0.12219134440E+03  0.00000000000E+00 0. -1.
          5    1    4    4  501    0 -0.13321890835E+03 -0.39753129015E+03 -0.93539635967E+03  0.10250691898E+04  0.47000000000E+01 0. -1.
         -5    1    4    4    0  501 -0.37654841276E+02 -0.17497711305E+02 -0.15846460300E+03  0.16388159560E+03  0.47000000000E+01 0. -1.
          1    1    1    2  502    0 -0.16894525218E+03  0.29559079384E+03  0.87378381926E+03  0.93777106931E+03  0.00000000000E+00 0. -1.
          1    1    1    2  503    0 -0.30125604454E+02  0.15436648994E+02 -0.91711317778E+03  0.91773766569E+03  0.00000000000E+00 0. -1.
<mgrwt>
<rscale>  0 0.74884171E+02</rscale>
<asrwt>0</asrwt>
<pdfrwt beam="1">  1        2 0.17659657E+00 0.16566000E+03</pdfrwt>
<pdfrwt beam="2">  1        2 0.35428880E+00 0.33850291E+02</pdfrwt>
<totfact> 0.23060809E+01</totfact>
</mgrwt>
</event>
<event>
13    1  0.1589573E-008  0.4197909E+02  0.7546771E-02  0.1555821E+00
          2   -1    0    0  502    0  0.00000000000E+00  0.00000000000E+00  0.11086557077E+04  0.11086557077E+04  0.00000000000E+00 0. -1.
          4   -1    0    0  503    0 -0.00000000000E+00 -0.00000000000E+00 -0.11073800637E+04  0.11073800637E+04  0.00000000000E+00 0. -1.
         24    2    1    2    0    0  0.93604644526E+02 -0.92840420594E+01 -0.45141628915E+02  0.13019294518E+03  0.77874343649E+02 0.  0.
         25    2    1    2    0    0 -0.16800388590E+03  0.65501557971E+02  0.70719242899E+03  0.74044730094E+03  0.12500125629E+03 0.  0.
         24    2    1    2    0    0  0.24036826394E+02 -0.21627720960E+02  0.83671654401E+02  0.12058756017E+03  0.80590859159E+02 0.  0.
        -11    1    3    3    0    0  0.87422093809E+02  0.18374387130E+02 -0.18359248934E+02  0.91199246761E+02  0.00000000000E+00 0.  1.
         12    1    3    3    0    0  0.61825507164E+01 -0.27658429190E+02 -0.26782379981E+02  0.38993698415E+02  0.00000000000E+00 0. -1.
        -13    1    5    5    0    0  0.25330472623E+02  0.22037304360E+02  0.10164843045E+02  0.35079903946E+02  0.00000000000E+00 0.  1.
         14    1    5    5    0    0 -0.12936462296E+01 -0.43665025320E+02  0.73506811356E+02  0.85507656221E+02  0.00000000000E+00 0. -1.
          5    1    4    4  501    0 -0.16368457289E+03  0.56262147124E+02  0.70830598981E+03  0.72916221364E+03  0.47000000000E+01 0. -1.
         -5    1    4    4    0  501 -0.43193130088E+01  0.92394108469E+01 -0.11135608193E+01  0.11285087300E+02  0.47000000000E+01 0. -1.
          1    1    1    2  502    0  0.92188081666E+01 -0.26293300366E+02  0.23892335453E+03  0.24054249814E+03  0.00000000000E+00 0. -1.
          3    1    1    2  503    0  0.41143606817E+02 -0.82964945856E+01 -0.98337016494E+03  0.98426546698E+03  0.00000000000E+00 0. -1.
<mgrwt>
<rscale>  0 0.34200092E+02</rscale>
<asrwt>0</asrwt>
<pdfrwt beam="1">  1        2 0.16303760E+00 0.27862593E+02</pdfrwt>
<pdfrwt beam="2">  1        4 0.16285001E+00 0.41979090E+02</pdfrwt>
<totfact> 0.36319059E+00</totfact>
</mgrwt>
</event>
<event>
13    1  0.1589573E-008  0.3434550E+03  0.7546771E-02  0.1193437E+00
          2   -1    0    0  503    0  0.00000000000E+00  0.00000000000E+00  0.11382477075E+04  0.11382477075E+04  0.00000000000E+00 0. -1.
          2   -1    0    0  502    0 -0.00000000000E+00 -0.00000000000E+00 -0.28881150095E+04  0.28881150095E+04  0.00000000000E+00 0. -1.
         24    2    1    2    0    0  0.30086943531E+03 -0.97510742483E+02 -0.70383157525E+03  0.77595471616E+03  0.81829537530E+02 0.  0.
         25    2    1    2    0    0  0.14735627619E+03  0.13359267679E+03  0.28903421677E+03  0.37245991930E+03  0.12499895039E+03 0.  0.
         24    2    1    2    0    0 -0.46311453557E+02  0.18462539416E+03  0.18047109212E+03  0.27475121201E+03  0.81774852539E+02 0.  0.
        -11    1    5    5    0    0 -0.41623331223E+02  0.16834144027E+03  0.18838634958E+03  0.25604835271E+03  0.00000000000E+00 0.  1.
         12    1    5    5    0    0 -0.46881223340E+01  0.16283953887E+02 -0.79152574617E+01  0.18702859297E+02  0.00000000000E+00 0. -1.
        -13    1    3    3    0    0  0.20450645887E+02 -0.89757383589E+00 -0.13274324229E+02  0.24397586761E+02  0.00000000000E+00 0.  1.
         14    1    3    3    0    0  0.28041878943E+03 -0.96613168647E+02 -0.69055725102E+03  0.75155712940E+03  0.00000000000E+00 0. -1.
          5    1    4    4  501    0  0.10608595176E+03  0.13800373087E+03  0.15871273093E+03  0.23560789430E+03  0.47000000000E+01 0. -1.
         -5    1    4    4    0  501  0.41270324431E+02 -0.44110540847E+01  0.13032148583E+03  0.13685202500E+03  0.47000000000E+01 0. -1.
          1    1    1    2  502    0 -0.35098608930E+03 -0.17160929416E+03 -0.20384356854E+04  0.20755387321E+04  0.00000000000E+00 0. -1.
          1    1    1    2  503    0 -0.50928168644E+02 -0.49098034303E+02  0.52289464976E+03  0.52765813751E+03  0.00000000000E+00 0. -1.
<mgrwt>
<rscale>  0 0.15587291E+03</rscale>
<asrwt>0</asrwt>
<pdfrwt beam="1">  1        2 0.16738937E+00 0.70741044E+02</pdfrwt>
<pdfrwt beam="2">  1        2 0.42472279E+00 0.34345499E+03</pdfrwt>
<totfact> 0.10917408E+01</totfact>
</mgrwt>
</event>
<event>
13    1  0.2276348E-008  0.5124415E+03  0.7546771E-02  0.1053643E+00
         -1   -1    0    0    0  501 -0.00000000000E+00  0.00000000000E+00  0.14419848880E+04  0.14419848880E+04  0.00000000000E+00 0.  1.
          2   -1    0    0  503    0  0.00000000000E+00 -0.00000000000E+00 -0.77130310979E+03  0.77130310979E+03  0.00000000000E+00 0. -1.
         24    2    1    2    0    0 -0.15367577880E+03 -0.10980052302E+03  0.64325608070E+03  0.67522698275E+03  0.80502751684E+02 0.  0.
         25    2    1    2    0    0 -0.22575640289E+03 -0.16695602539E+03  0.65373350649E+03  0.72237908012E+03  0.12499508003E+03 0.  0.
         24    2    1    2    0    0  0.82816682673E+02  0.69896572599E+02 -0.14903767806E+03  0.20687460053E+03  0.94025193835E+02 0.  0.
        -11    1    3    3    0    0 -0.10396488007E+03 -0.97192801469E+02  0.35538317410E+03  0.38282154770E+03  0.00000000000E+00 0.  1.
         12    1    3    3    0    0 -0.49710898733E+02 -0.12607721549E+02  0.28787290660E+03  0.29240543505E+03  0.00000000000E+00 0. -1.
        -11    1    5    5    0    0  0.44248022030E+02  0.89772106842E+02 -0.10360421054E+03  0.14405120986E+03  0.00000000000E+00 0.  1.
         12    1    5    5    0    0  0.38568660644E+02 -0.19875534243E+02 -0.45433467518E+02  0.62823390676E+02  0.00000000000E+00 0. -1.
          5    1    4    4  502    0 -0.18364972338E+03 -0.73840564302E+02  0.49941727791E+03  0.53723305679E+03  0.47000000000E+01 0.  1.
         -5    1    4    4    0  502 -0.42106679509E+02 -0.93115461084E+02  0.15431622858E+03  0.18514602333E+03  0.47000000000E+01 0.  1.
          1    1    1    2  503    0  0.23852573856E+03  0.11712894157E+03 -0.29122540709E+03  0.39424098549E+03  0.00000000000E+00 0. -1.
         -2    1    1    2    0  501  0.58089760455E+02  0.89731034236E+02 -0.18604472388E+03  0.21456634885E+03  0.00000000000E+00 0.  1.
<mgrwt>
<rscale>  0 0.37275778E+03</rscale>
<asrwt>0</asrwt>
<pdfrwt beam="2">  1        2 0.11342693E+00 0.51244146E+03</pdfrwt>
<pdfrwt beam="1">  1       -1 0.21205660E+00 0.51244146E+03</pdfrwt>
<totfact> 0.58760538E+00</totfact>
</mgrwt>
</event>
<event>
13    1  0.1589573E-008  0.1508820E+03  0.7546771E-02  0.1304122E+00
          2   -1    0    0  503    0  0.00000000000E+00  0.00000000000E+00  0.14195950086E+04  0.14195950086E+04  0.00000000000E+00 0. -1.
          2   -1    0    0  502    0 -0.00000000000E+00 -0.00000000000E+00 -0.69428217199E+03  0.69428217199E+03  0.00000000000E+00 0. -1.
         24    2    1    2    0    0 -0.21090520782E+03  0.43590618816E+02  0.15340180759E+03  0.27734703238E+03  0.83714473441E+02 0.  0.
         25    2    1    2    0    0 -0.33766780875E+02 -0.23857230627E+03  0.19222891362E+03  0.33261542948E+03  0.12499651148E+03 0.  0.
         24    2    1    2    0    0  0.23522584128E+03  0.19224458198E+02 -0.23220379351E+03  0.34121356284E+03  0.82506469734E+02 0.  0.
        -11    1    3    3    0    0 -0.16003016615E+03  0.36618170818E+01  0.78173639540E+02  0.17814090182E+03  0.00000000000E+00 0.  1.
         12    1    3    3    0    0 -0.50875041676E+02  0.39928801735E+02  0.75228168047E+02  0.99206130563E+02  0.00000000000E+00 0. -1.
        -13    1    5    5    0    0 -0.66425744794E+01  0.31372847587E+01 -0.43768665303E+01  0.85512169891E+01  0.00000000000E+00 0.  1.
         14    1    5    5    0    0  0.24186841576E+03  0.16087173439E+02 -0.22782692698E+03  0.33266234585E+03  0.00000000000E+00 0. -1.
          5    1    4    4  501    0  0.25279983831E+02 -0.12034327518E+03  0.36588898694E+02  0.12838387348E+03  0.47000000000E+01 0. -1.
         -5    1    4    4    0  501 -0.59046764706E+02 -0.11822903109E+03  0.15564001493E+03  0.20423155599E+03  0.47000000000E+01 0. -1.
          1    1    1    2  502    0  0.44282651370E+02  0.29235815616E+02 -0.26638107819E+03  0.27161473624E+03  0.00000000000E+00 0. -1.
          1    1    1    2  503    0 -0.34836503949E+02  0.14652141364E+03  0.87826698706E+03  0.89108641961E+03  0.00000000000E+00 0. -1.
<mgrwt>
<rscale>  0 0.89477684E+02</rscale>
<asrwt>0</asrwt>
<pdfrwt beam="1">  1        2 0.20876397E+00 0.15088197E+03</pdfrwt>
<pdfrwt beam="2">  1        2 0.10210032E+00 0.53063039E+02</pdfrwt>
<totfact> 0.12430332E+02</totfact>
</mgrwt>
</event>
<event>
13    1  0.1589573E-008  0.2250262E+03  0.7546771E-02  0.1358438E+00
          2   -1    0    0  502    0  0.00000000000E+00  0.00000000000E+00  0.18494307548E+04  0.18494307548E+04  0.00000000000E+00 0. -1.
          2   -1    0    0  503    0 -0.00000000000E+00 -0.00000000000E+00 -0.11805551403E+04  0.11805551403E+04  0.00000000000E+00 0. -1.
         24    2    1    2    0    0 -0.78493419551E+02  0.13605399291E+03 -0.14037536765E+03  0.22341078691E+03  0.74399126099E+02 0.  0.
         25    2    1    2    0    0 -0.54016388399E+02  0.13939020786E+03  0.50519444081E+03  0.54147451887E+03  0.12500332513E+03 0.  0.
         24    2    1    2    0    0  0.29412683284E+03  0.15286528219E+02 -0.51433188889E+02  0.30984182099E+03  0.81316107696E+02 0.  0.
        -11    1    3    3    0    0  0.92740184110E+01  0.36439445542E+02 -0.51015589743E+02  0.63375318584E+02  0.00000000000E+00 0.  1.
         12    1    3    3    0    0 -0.87767437962E+02  0.99614547370E+02 -0.89359777907E+02  0.16003546832E+03  0.00000000000E+00 0. -1.
        -13    1    5    5    0    0  0.54453888016E+02  0.13135564393E+02 -0.41930424806E+02  0.69970918934E+02  0.00000000000E+00 0.  1.
         14    1    5    5    0    0  0.23967294483E+03  0.21509638260E+01 -0.95027640828E+01  0.23987090206E+03  0.00000000000E+00 0. -1.
          5    1    4    4  501    0 -0.31197829932E+02 -0.11504973522E+02  0.16799061081E+03  0.17131434361E+03  0.47000000000E+01 0. -1.
         -5    1    4    4    0  501 -0.22818558467E+02  0.15089518138E+03  0.33720383001E+03  0.37016017526E+03  0.47000000000E+01 0. -1.
          1    1    1    2  502    0  0.21254052945E+02  0.59847983748E+01  0.11172914033E+04  0.11175095670E+04  0.00000000000E+00 0. -1.
          1    1    1    2  503    0 -0.18287107784E+03 -0.29671552736E+03 -0.76180167298E+03  0.83774920128E+03  0.00000000000E+00 0. -1.
<mgrwt>
<rscale>  0 0.70489088E+02</rscale>
<asrwt>0</asrwt>
<pdfrwt beam="1">  1        2 0.27197511E+00 0.22080593E+02</pdfrwt>
<pdfrwt beam="2">  1        2 0.17361105E+00 0.22502619E+03</pdfrwt>
<totfact> 0.44027026E+01</totfact>
</mgrwt>
</event>
<event>
13    1  0.1589573E-008  0.1434275E+03  0.7546771E-02  0.1283527E+00
          2   -1    0    0  503    0  0.00000000000E+00  0.00000000000E+00  0.50663809264E+03  0.50663809264E+03  0.00000000000E+00 0. -1.
          2   -1    0    0  502    0 -0.00000000000E+00 -0.00000000000E+00 -0.26064012097E+04  0.26064012097E+04  0.00000000000E+00 0. -1.
         24    2    1    2    0    0  0.18304307183E+03  0.19198942551E+03 -0.37423094377E+03  0.46572382760E+03  0.80530607013E+02 0.  0.
         25    2    1    2    0    0  0.72694628184E+01 -0.94159303868E+02  0.30522002159E+03  0.34307809992E+03  0.12499800586E+03 0.  0.
         24    2    1    2    0    0 -0.34242028795E+02 -0.13729788679E+02 -0.24111492576E+03  0.25680773460E+03  0.80329206977E+02 0.  0.
        -11    1    5    5    0    0  0.22301305049E+02 -0.14545658947E+02 -0.12306519208E+03  0.12591253275E+03  0.00000000000E+00 0.  1.
         12    1    5    5    0    0 -0.56543333844E+02  0.81587026783E+00 -0.11804973368E+03  0.13089520185E+03  0.00000000000E+00 0. -1.
        -13    1    3    3    0    0  0.92436544645E+02  0.44457372321E+02 -0.11625467835E+03  0.15503587642E+03  0.00000000000E+00 0.  1.
         14    1    3    3    0    0  0.90606527187E+02  0.14753205319E+03 -0.25797626543E+03  0.31068795118E+03  0.00000000000E+00 0. -1.
          5    1    4    4  501    0 -0.21813920164E+02 -0.85131173037E+02  0.90784300036E+02  0.12643987847E+03  0.47000000000E+01 0.  1.
         -5    1    4    4    0  501  0.29083382982E+02 -0.90281308305E+01  0.21443572156E+03  0.21663822145E+03  0.47000000000E+01 0.  1.
          1    1    1    2  502    0 -0.20395865549E+03 -0.36364070739E+02 -0.19036413588E+04  0.19148816939E+04  0.00000000000E+00 0. -1.
          1    1    1    2  503    0  0.47888149633E+02 -0.47736262221E+02  0.11400408968E+03  0.13254794630E+03  0.00000000000E+00 0. -1.
<mgrwt>
<rscale>  0 0.98478942E+02</rscale>
<asrwt>0</asrwt>
<pdfrwt beam="1">  1        2 0.74505601E-01 0.67616755E+02</pdfrwt>
<pdfrwt beam="2">  1        2 0.38329430E+00 0.14342750E+03</pdfrwt>
<totfact> 0.45053840E+01</totfact>
</mgrwt>
</event>
<event>
13    1  0.1589573E-008  0.1582851E+03  0.7546771E-02  0.1289770E+00
          2   -1    0    0  502    0  0.00000000000E+00  0.00000000000E+00  0.23247876855E+04  0.23247876855E+04  0.00000000000E+00 0. -1.
          2   -1    0    0  503    0 -0.00000000000E+00 -0.00000000000E+00 -0.17297076090E+04  0.17297076090E+04  0.00000000000E+00 0. -1.
         24    2    1    2    0    0  0.35880978450E+03 -0.15358380725E+03 -0.38491202758E+03  0.55415545802E+03  0.81231492528E+02 0.  0.
         25    2    1    2    0    0 -0.40372972555E+03  0.85080811431E+02  0.12449137912E+04  0.13174489348E+04  0.12499964973E+03 0.  0.
         24    2    1    2    0    0  0.14586196553E+03 -0.58195162195E+02 -0.86155227265E+02  0.19646854053E+03  0.80714152061E+02 0.  0.
        -11    1    3    3    0    0  0.17647127105E+03 -0.44251582972E+02 -0.13818106782E+03  0.22846076164E+03  0.00000000000E+00 0.  1.
         12    1    3    3    0    0  0.18233851344E+03 -0.10933222427E+03 -0.24673095976E+03  0.32569469639E+03  0.00000000000E+00 0. -1.
        -11    1    5    5    0    0  0.12607824137E+03 -0.50144897323E+02 -0.33663851767E+02  0.13979802785E+03  0.00000000000E+00 0.  1.
         12    1    5    5    0    0  0.19783724157E+02 -0.80502648720E+01 -0.52491375498E+02  0.56670512682E+02  0.00000000000E+00 0. -1.
          5    1    4    4  501    0 -0.97496287086E+02 -0.20436790076E+02  0.40850277256E+03  0.42049945728E+03  0.47000000000E+01 0.  1.
         -5    1    4    4    0  501 -0.30623343846E+03  0.10551760151E+03  0.83641101867E+03  0.89694947752E+03  0.47000000000E+01 0.  1.
          1    1    1    2  502    0 -0.15012702224E+02 -0.55788123499E+02  0.89349165467E+03  0.89535748889E+03  0.00000000000E+00 0. -1.
          1    1    1    2  503    0 -0.85929322252E+02  0.18248628151E+03 -0.10722581146E+04  0.10910648723E+04  0.00000000000E+00 0. -1.
<mgrwt>
<rscale>  0 0.95627258E+02</rscale>
<asrwt>0</asrwt>
<pdfrwt beam="1">  1        2 0.34188054E+00 0.57772796E+02</pdfrwt>
<pdfrwt beam="2">  1        2 0.25436877E+00 0.15828509E+03</pdfrwt>
<totfact> 0.12634846E+01</totfact>
</mgrwt>
</event>
<event>
13    1  0.1589573E-008  0.4421814E+02  0.7546771E-02  0.1541865E+00
          2   -1    0    0  502    0  0.00000000000E+00  0.00000000000E+00  0.17023086070E+04  0.17023086070E+04  0.00000000000E+00 0. -1.
          2   -1    0    0  503    0 -0.00000000000E+00 -0.00000000000E+00 -0.40998254908E+04  0.40998254908E+04  0.00000000000E+00 0. -1.
         24    2    1    2    0    0 -0.10361335741E+04 -0.12234400101E+04 -0.15109862959E+04  0.22044712294E+04  0.78965646049E+02 0.  0.
         25    2    1    2    0    0  0.40979500324E+03  0.17977392029E+03 -0.68771480172E+02  0.46968273016E+03  0.12498697302E+03 0.  0.
         24    2    1    2    0    0  0.60021883967E+03  0.11083634803E+04 -0.52838473780E+03  0.13709233222E+04  0.10727564525E+03 0.  0.
        -11    1    5    5    0    0  0.23300267435E+03  0.44480157823E+03 -0.26728949194E+03  0.56884300361E+03  0.00000000000E+00 0.  1.
         12    1    5    5    0    0  0.36721616532E+03  0.66356190210E+03 -0.26109524586E+03  0.80208031855E+03  0.00000000000E+00 0. -1.
        -13    1    3    3    0    0 -0.62245169689E+03 -0.79348809381E+03 -0.95633343772E+03  0.13898356428E+04  0.00000000000E+00 0.  1.
         14    1    3    3    0    0 -0.41368187722E+03 -0.42995191631E+03 -0.55465285819E+03  0.81463558661E+03  0.00000000000E+00 0. -1.
          5    1    4    4  501    0  0.20259935676E+03  0.86887119756E+02 -0.96875932126E+02  0.24083792717E+03  0.47000000000E+01 0. -1.
         -5    1    4    4    0  501  0.20719564648E+03  0.92886800536E+02  0.28104451954E+02  0.22884480298E+03  0.47000000000E+01 0. -1.
          1    1    1    2  502    0  0.61173365311E+01 -0.43787811288E+02  0.73297038090E+03  0.73430264435E+03  0.00000000000E+00 0. -1.
          1    1    1    2  503    0  0.20002394664E+02 -0.20909579215E+02 -0.10223447508E+04  0.10227541717E+04  0.00000000000E+00 0. -1.
<mgrwt>
<rscale>  0 0.35770195E+02</rscale>
<asrwt>0</asrwt>
<pdfrwt beam="1">  1        2 0.25033951E+00 0.44218137E+02</pdfrwt>
<pdfrwt beam="2">  1        2 0.60291550E+00 0.28936245E+02</pdfrwt>
<totfact> 0.18046230E+00</totfact>
</mgrwt>
</event>
<event>
13    1  0.1589573E-008  0.9833100E+02  0.7546771E-02  0.1298447E+00
          2   -1    0    0  502    0  0.00000000000E+00  0.00000000000E+00  0.15917473492E+04  0.15917473492E+04  0.00000000000E+00 0. -1.
          2   -1    0    0  503    0 -0.00000000000E+00 -0.00000000000E+00 -0.35490353644E+04  0.35490353644E+04  0.00000000000E+00 0. -1.
         24    2    1    2    0    0 -0.45719162550E+02  0.91347066907E+01 -0.51359327311E+03  0.52286773763E+03  0.86249267702E+02 0.  0.
         25    2    1    2    0    0  0.15045607146E+03 -0.11121087054E+03  0.38210032435E+03  0.44342890319E+03  0.12499458850E+03 0.  0.
         24    2    1    2    0    0 -0.10336650281E+03  0.64053714873E+02 -0.18982967933E+03  0.24113499227E+03  0.85576077554E+02 0.  0.
        -13    1    3    3    0    0  0.18198842208E+02  0.23287586584E+02 -0.22557701241E+03  0.22750494077E+03  0.00000000000E+00 0.  1.
         14    1    3    3    0    0 -0.63918004757E+02 -0.14152879893E+02 -0.28801626070E+03  0.29536279686E+03  0.00000000000E+00 0. -1.
        -13    1    5    5    0    0 -0.91250035806E+02  0.84386884030E+02 -0.16765898377E+03  0.20870373756E+03  0.00000000000E+00 0.  1.
         14    1    5    5    0    0 -0.12116467003E+02 -0.20333169157E+02 -0.22170695562E+02  0.32431254713E+02  0.00000000000E+00 0. -1.
          5    1    4    4  501    0  0.15755652208E+03 -0.61338571016E+02  0.24878852683E+03  0.30083932427E+03  0.47000000000E+01 0.  1.
         -5    1    4    4    0  501 -0.71004506269E+01 -0.49872299528E+02  0.13331179752E+03  0.14258957892E+03  0.47000000000E+01 0.  1.
          1    1    1    2  502    0 -0.70472562086E+02 -0.48914838668E+02  0.11459818047E+04  0.11491881222E+04  0.00000000000E+00 0. -1.
          1    1    1    2  503    0  0.69102155986E+02  0.86937287650E+02 -0.27819471919E+04  0.27841629583E+04  0.00000000000E+00 0. -1.
<mgrwt>
<rscale>  0 0.91843951E+02</rscale>
<asrwt>0</asrwt>
<pdfrwt beam="1">  1        2 0.23408049E+00 0.85784867E+02</pdfrwt>
<pdfrwt beam="2">  1        2 0.52191697E+00 0.98330995E+02</pdfrwt>
<totfact> 0.32473264E+00</totfact>
</mgrwt>
</event>
<event>
13    1  0.1589573E-008  0.7733901E+02  0.7546771E-02  0.1345867E+00
          2   -1    0    0  502    0  0.00000000000E+00  0.00000000000E+00  0.32162853178E+04  0.32162853178E+04  0.00000000000E+00 0. -1.
          2   -1    0    0  503    0 -0.00000000000E+00 -0.00000000000E+00 -0.22394516420E+04  0.22394516420E+04  0.00000000000E+00 0. -1.
         24    2    1    2    0    0 -0.14401845991E+04 -0.93684580031E+03  0.53002024412E+03  0.17987834259E+04  0.53745892397E+02 0.  0.
         25    2    1    2    0    0  0.17504698574E+04  0.15198120534E+03  0.31249555612E+03  0.17890066932E+04  0.12509383397E+03 0.  0.
         24    2    1    2    0    0 -0.25985116142E+03  0.87503557277E+03  0.10346066988E+03  0.92214910897E+03  0.80280690459E+02 0.  0.
        -13    1    5    5    0    0 -0.10158773492E+03  0.33648317021E+03  0.79218496105E+02  0.36030065480E+03  0.00000000000E+00 0.  1.
         14    1    5    5    0    0 -0.15826342650E+03  0.53855240256E+03  0.24242173772E+02  0.56184845417E+03  0.00000000000E+00 0. -1.
        -13    1    3    3    0    0 -0.95301191742E+03 -0.61122950316E+03  0.37472854880E+03  0.11925832070E+04  0.00000000000E+00 0.  1.
         14    1    3    3    0    0 -0.48717268170E+03 -0.32561629716E+03  0.15529169531E+03  0.60620021891E+03  0.00000000000E+00 0. -1.
          5    1    4    4  501    0  0.97472737786E+03  0.45538005098E+02  0.12433530802E+03  0.98369127773E+03  0.47000000000E+01 0.  1.
         -5    1    4    4    0  501  0.77574247953E+03  0.10644320024E+03  0.18816024810E+03  0.80531541547E+03  0.47000000000E+01 0.  1.
          1    1    1    2  502    0  0.19403792616E+02 -0.74870047129E+02  0.48243496083E+03  0.48859545900E+03  0.00000000000E+00 0. -1.
          1    1    1    2  503    0 -0.69837889457E+02 -0.15300930661E+02 -0.45157775517E+03  0.45720227280E+03  0.00000000000E+00 0. -1.
<mgrwt>
<rscale>  0 0.74359307E+02</rscale>
<asrwt>0</asrwt>
<pdfrwt beam="1">  1        2 0.47298314E+00 0.77339015E+02</pdfrwt>
<pdfrwt beam="2">  1        2 0.32933112E+00 0.71494400E+02</pdfrwt>
<totfact> 0.26215611E+00</totfact>
</mgrwt>
</event>
<event>
13    1  0.1589573E-008  0.9885668E+02  0.7546771E-02  0.1476031E+00
          2   -1    0    0  502    0  0.00000000000E+00  0.00000000000E+00  0.27446242441E+04  0.27446242441E+04  0.00000000000E+00 0. -1.
          2   -1    0    0  503    0 -0.00000000000E+00 -0.00000000000E+00 -0.11240293995E+04  0.11240293995E+04  0.00000000000E+00 0. -1.
         24    2    1    2    0    0  0.17770587604E+03  0.46581251584E+03 -0.15413001034E+03  0.52650062348E+03  0.69901131233E+02 0.  0.
         25    2    1    2    0    0 -0.51610221687E+03 -0.16954449765E+03  0.46084891032E+03  0.72326603866E+03  0.12500083833E+03 0.  0.
         24    2    1    2    0    0  0.24749005283E+03 -0.33464788291E+03  0.16580348773E+04  0.17113155925E+04  0.79251947355E+02 0.  0.
        -11    1    3    3    0    0  0.63673775500E+02  0.12413293314E+03 -0.72234105280E+02  0.15710219840E+03  0.00000000000E+00 0.  1.
         12    1    3    3    0    0  0.11403210054E+03  0.34167958270E+03 -0.81895905060E+02  0.36939842509E+03  0.00000000000E+00 0. -1.
        -13    1    5    5    0    0  0.13986850020E+03 -0.16418540679E+03  0.10044938516E+04  0.10273888957E+04  0.00000000000E+00 0.  1.
         14    1    5    5    0    0  0.10762155263E+03 -0.17046247611E+03  0.65354102569E+03  0.68392669682E+03  0.00000000000E+00 0. -1.
          5    1    4    4  501    0 -0.37855219884E+03 -0.67434726868E+02  0.34296527058E+03  0.51526350196E+03  0.47000000000E+01 0. -1.
         -5    1    4    4    0  501 -0.13755001804E+03 -0.10210977079E+03  0.11788363974E+03  0.20800253669E+03  0.47000000000E+01 0. -1.
          1    1    1    2  502    0 -0.60952925379E+01  0.19299994711E+02  0.27743134343E+03  0.27816864077E+03  0.00000000000E+00 0. -1.
          1    1    1    2  503    0  0.97001580542E+02  0.19079870007E+02 -0.62159027608E+03  0.62940274816E+03  0.00000000000E+00 0. -1.
<mgrwt>
<rscale>  0 0.44730549E+02</rscale>
<asrwt>0</asrwt>
<pdfrwt beam="1">  1        2 0.40362121E+00 0.20239624E+02</pdfrwt>
<pdfrwt beam="2">  1        2 0.16529844E+00 0.98856678E+02</pdfrwt>
<totfact> 0.19761595E+01</totfact>
</mgrwt>
</event>
<event>
13    1  0.1589573E-008  0.1287860E+03  0.7546771E-02  0.1351861E+00
          2   -1    0    0  503    0  0.00000000000E+00  0.00000000000E+00  0.13403926875E+04  0.13403926875E+04  0.00000000000E+00 0. -1.
          2   -1    0    0  502    0 -0.00000000000E+00 -0.00000000000E+00 -0.48294304539E+03  0.48294304539E+03  0.00000000000E+00 0. -1.
         24    2    1    2    0    0  0.10461944017E+03 -0.49369864604E+02  0.39432839723E+02  0.14615756310E+03  0.80152814118E+02 0.  0.
         25    2    1    2    0    0 -0.21219973879E+03  0.48218842062E+02  0.31734242422E+03  0.40457870525E+03  0.12499571457E+03 0.  0.
         24    2    1    2    0    0 -0.18258775517E+02 -0.52459943766E+01  0.45614168559E+02  0.95669544636E+02  0.81921340670E+02 0.  0.
        -11    1    5    5    0    0 -0.44235476819E+02 -0.25396419550E+02  0.24398423064E+02  0.56542360964E+02  0.00000000000E+00 0.  1.
         12    1    5    5    0    0  0.25976701302E+02  0.20150425174E+02  0.21215745495E+02  0.39127183672E+02  0.00000000000E+00 0. -1.
        -13    1    3    3    0    0  0.98157498350E+02 -0.31967890250E+02  0.59231503522E+02  0.11901769406E+03  0.00000000000E+00 0.  1.
         14    1    3    3    0    0  0.64619418174E+01 -0.17401974354E+02 -0.19798663798E+02  0.27139869043E+02  0.00000000000E+00 0. -1.
          5    1    4    4  501    0 -0.90442338883E+02 -0.24252256891E+02  0.61636501693E+02  0.11220132338E+03  0.47000000000E+01 0. -1.
         -5    1    4    4    0  501 -0.12175739990E+03  0.72471098954E+02  0.25570592252E+03  0.29237738187E+03  0.47000000000E+01 0. -1.
          1    1    1    2  502    0  0.43207775592E+01 -0.40560426893E+02 -0.35455839414E+03  0.35689700503E+03  0.00000000000E+00 0. -1.
          1    1    1    2  503    0  0.12151829658E+03  0.46957443811E+02  0.80961860380E+03  0.82003291492E+03  0.00000000000E+00 0. -1.
<mgrwt>
<rscale>  0 0.72478749E+02</rscale>
<asrwt>0</asrwt>
<pdfrwt beam="1">  1        2 0.19711657E+00 0.12878597E+03</pdfrwt>
<pdfrwt beam="2">  1        2 0.71021037E-01 0.40789917E+02</pdfrwt>
<totfact> 0.20434966E+02</totfact>
</mgrwt>
</event>
<event>
13    1  0.1589573E-008  0.7027601E+02  0.7546771E-02  0.1439819E+00
          2   -1    0    0  502    0  0.00000000000E+00  0.00000000000E+00  0.47913464363E+03  0.47913464363E+03  0.00000000000E+00 0. -1.
          2   -1    0    0  503    0 -0.00000000000E+00 -0.00000000000E+00 -0.14249371191E+04  0.14249371191E+04  0.00000000000E+00 0. -1.
         24    2    1    2    0    0 -0.66857449055E+02 -0.97992677965E+02 -0.10801155856E+04  0.10896400017E+04  0.81198346432E+02 0.  0.
         25    2    1    2    0    0  0.67291849667E+02  0.10219196033E+03  0.33576373310E+03  0.37856531145E+03  0.12491205220E+03 0.  0.
         24    2    1    2    0    0  0.26991773806E+02  0.25792332316E+02 -0.21648979324E+03  0.23339192697E+03  0.78804573079E+02 0.  0.
        -13    1    5    5    0    0  0.22111437835E+02 -0.23753080719E+02 -0.49918019435E+02  0.59539341541E+02  0.00000000000E+00 0.  1.
         14    1    5    5    0    0  0.48803359710E+01  0.49545413035E+02 -0.16657177381E+03  0.17385258543E+03  0.00000000000E+00 0. -1.
        -13    1    3    3    0    0  0.12231330855E+02 -0.15231431366E+02 -0.35563792519E+03  0.35617402459E+03  0.00000000000E+00 0.  1.
         14    1    3    3    0    0 -0.79088779910E+02 -0.82761246600E+02 -0.72447766046E+03  0.73346597709E+03  0.00000000000E+00 0. -1.
          5    1    4    4  501    0  0.17042637271E+02  0.71010636108E+02  0.30108165563E+03  0.30984708371E+03  0.47000000000E+01 0.  1.
         -5    1    4    4    0  501  0.50249212396E+02  0.31181324221E+02  0.34682077464E+02  0.68718227741E+02  0.47000000000E+01 0.  1.
          1    1    1    2  502    0  0.37054905525E+02  0.95372844090E+00  0.90928247282E+02  0.98193287832E+02  0.00000000000E+00 0. -1.
          1    1    1    2  503    0 -0.64481079943E+02 -0.30945343120E+02 -0.75889076983E+02  0.10428123483E+03  0.00000000000E+00 0. -1.
<mgrwt>
<rscale>  0 0.51038548E+02</rscale>
<asrwt>0</asrwt>
<pdfrwt beam="1">  1        2 0.70460977E-01 0.37067177E+02</pdfrwt>
<pdfrwt beam="2">  1        2 0.20954958E+00 0.70276013E+02</pdfrwt>
<totfact> 0.19507603E+02</totfact>
</mgrwt>
</event>
<event>
13    1  0.1589573E-008  0.4993806E+02  0.7546771E-02  0.1447682E+00
          2   -1    0    0  503    0  0.00000000000E+00  0.00000000000E+00  0.18003983629E+04  0.18003983629E+04  0.00000000000E+00 0. -1.
          2   -1    0    0  502    0 -0.00000000000E+00 -0.00000000000E+00 -0.13101342175E+04  0.13101342175E+04  0.00000000000E+00 0. -1.
         24    2    1    2    0    0 -0.29509683041E+03 -0.16250607149E+03  0.18642982023E+03  0.39815678984E+03  0.10140211452E+03 0.  0.
         25    2    1    2    0    0 -0.38660977982E+03 -0.50244433533E+03  0.10094047560E+02  0.64626824623E+03  0.12507327587E+03 0.  0.
         24    2    1    2    0    0  0.72877744593E+03  0.57904570854E+03  0.54665904680E+03  0.10827458182E+04  0.84213390796E+02 0.  0.
        -11    1    5    5    0    0  0.15699659063E+03  0.11890726607E+03  0.15648427233E+03  0.25154362421E+03  0.00000000000E+00 0.  1.
         12    1    5    5    0    0  0.57178085529E+03  0.46013844248E+03  0.39017477447E+03  0.83120219403E+03  0.00000000000E+00 0. -1.
        -13    1    3    3    0    0 -0.16900588693E+03 -0.38427517158E+02  0.73355231400E+02  0.18820375624E+03  0.00000000000E+00 0.  1.
         14    1    3    3    0    0 -0.12609094349E+03 -0.12407855434E+03  0.11307458883E+03  0.20995303359E+03  0.00000000000E+00 0. -1.
          5    1    4    4  501    0 -0.11100923059E+03 -0.67690235004E+02 -0.14503999732E+02  0.13091017225E+03  0.47000000000E+01 0. -1.
         -5    1    4    4    0  501 -0.27560054923E+03 -0.43475410032E+03  0.24598047292E+02  0.51535807397E+03  0.47000000000E+01 0. -1.
          1    1    1    2  502    0 -0.17021720072E+02  0.46164018209E+02 -0.61545471875E+03  0.61741830744E+03  0.00000000000E+00 0. -1.
          1    1    1    2  503    0 -0.30049115624E+02  0.39740680067E+02  0.36253594953E+03  0.36594341872E+03  0.00000000000E+00 0. -1.
<mgrwt>
<rscale>  0 0.49568759E+02</rscale>
<asrwt>0</asrwt>
<pdfrwt beam="1">  1        2 0.26476447E+00 0.49938058E+02</pdfrwt>
<pdfrwt beam="2">  1        2 0.19266680E+00 0.49202190E+02</pdfrwt>
<totfact> 0.39913805E+01</totfact>
</mgrwt>
</event>
<event>
13    1  0.1589573E-008  0.1519929E+03  0.7546771E-02  0.1312214E+00
          2   -1    0    0  503    0  0.00000000000E+00  0.00000000000E+00  0.11263139738E+04  0.11263139738E+04  0.00000000000E+00 0. -1.
          2   -1    0    0  502    0 -0.00000000000E+00 -0.00000000000E+00 -0.25250313748E+04  0.25250313748E+04  0.00000000000E+00 0. -1.
         24    2    1    2    0    0 -0.53987411523E+02  0.76337620159E+02 -0.39520567004E+03  0.41389460293E+03  0.79869567737E+02 0.  0.
         25    2    1    2    0    0 -0.55219352829E+02  0.14764843439E+03  0.35083262175E+02  0.20422157034E+03  0.12500550950E+03 0.  0.
         24    2    1    2    0    0  0.32041840928E+02 -0.16131060722E+02 -0.85393728880E+02  0.12324479150E+03  0.81303745356E+02 0.  0.
        -11    1    5    5    0    0  0.58697640945E+02 -0.86989747686E+01 -0.45891196091E+02  0.75013912665E+02  0.00000000000E+00 0.  1.
         12    1    5    5    0    0 -0.26655800017E+02 -0.74320859533E+01 -0.39502532789E+02  0.48230878832E+02  0.00000000000E+00 0. -1.
        -13    1    3    3    0    0 -0.62612976848E+02  0.33458896629E+02 -0.31108664451E+03  0.31908428828E+03  0.00000000000E+00 0.  1.
         14    1    3    3    0    0  0.86255653252E+01  0.42878723530E+02 -0.84119025527E+02  0.94810314651E+02  0.00000000000E+00 0. -1.
          5    1    4    4  501    0  0.31042887989E+02  0.30813513583E+02 -0.20646796187E+02  0.48595408289E+02  0.47000000000E+01 0.  1.
         -5    1    4    4    0  501 -0.86262240819E+02  0.11683492081E+03  0.55730058362E+02  0.15562616206E+03  0.47000000000E+01 0.  1.
          1    1    1    2  502    0  0.94313328122E+02 -0.25368753176E+03 -0.19214910824E+04  0.19404587981E+04  0.00000000000E+00 0. -1.
          1    1    1    2  503    0 -0.17148404697E+02  0.45832537929E+02  0.96828981811E+03  0.96952558562E+03  0.00000000000E+00 0. -1.
<mgrwt>
<rscale>  0 0.86243018E+02</rscale>
<asrwt>0</asrwt>
<pdfrwt beam="1">  1        2 0.16563441E+00 0.48935563E+02</pdfrwt>
<pdfrwt beam="2">  1        2 0.37132814E+00 0.15199290E+03</pdfrwt>
<totfact> 0.19499021E+01</totfact>
</mgrwt>
</event>
<event>
13    1  0.1589573E-008  0.9870033E+02  0.7546771E-02  0.1364008E+00
          2   -1    0    0  502    0  0.00000000000E+00  0.00000000000E+00  0.32354431278E+04  0.32354431278E+04  0.00000000000E+00 0. -1.
          2   -1    0    0  503    0 -0.00000000000E+00 -0.00000000000E+00 -0.83833891418E+03  0.83833891418E+03  0.00000000000E+00 0. -1.
         24    2    1    2    0    0 -0.13012599246E+03  0.32289146211E+02 -0.10450906276E+03  0.19413081009E+03  0.93751076546E+02 0.  0.
         25    2    1    2    0    0  0.18154270410E+03 -0.19434754634E+02  0.18858210885E+04  0.18987578015E+04  0.12499819181E+03 0.  0.
         24    2    1    2    0    0  0.59518254797E+02  0.48373220657E+02  0.68810356888E+03  0.69716452230E+03  0.81666752793E+02 0.  0.
        -13    1    3    3    0    0 -0.10911650810E+02  0.36219756375E+02 -0.37920217562E+01  0.38017289544E+02  0.00000000000E+00 0.  1.
         14    1    3    3    0    0 -0.11921434165E+03 -0.39306101640E+01 -0.10071704100E+03  0.15611352055E+03  0.00000000000E+00 0. -1.
        -13    1    5    5    0    0  0.30619084492E+02 -0.96015773745E+01  0.89739313128E+02  0.95304055233E+02  0.00000000000E+00 0.  1.
         14    1    5    5    0    0  0.28899170305E+02  0.57974798032E+02  0.59836425575E+03  0.60186046707E+03  0.00000000000E+00 0. -1.
          5    1    4    4  501    0  0.66099370873E+02  0.29859065676E+02  0.33177029209E+03  0.33963849509E+03  0.47000000000E+01 0.  1.
         -5    1    4    4    0  501  0.11544333323E+03 -0.49293820310E+02  0.15540507964E+04  0.15591193064E+04  0.47000000000E+01 0.  1.
          1    1    1    2  502    0 -0.46186114537E+02  0.13229491710E+02  0.60115535300E+03  0.60307208116E+03  0.00000000000E+00 0. -1.
          1    1    1    2  503    0 -0.64748851906E+02 -0.74457103944E+02 -0.67346673402E+03  0.68065682688E+03  0.00000000000E+00 0. -1.
<mgrwt>
<rscale>  0 0.68861512E+02</rscale>
<asrwt>0</asrwt>
<pdfrwt beam="1">  1        2 0.47580045E+00 0.48043487E+02</pdfrwt>
<pdfrwt beam="2">  1        2 0.12328514E+00 0.98700325E+02</pdfrwt>
<totfact> 0.14026965E+01</totfact>
</mgrwt>
</event>
<event>
13    1  0.1589573E-008  0.3546011E+02  0.7546771E-02  0.1546146E+00
          2   -1    0    0  503    0  0.00000000000E+00  0.00000000000E+00  0.76935130355E+03  0.76935130355E+03  0.00000000000E+00 0. -1.
          2   -1    0    0  502    0 -0.00000000000E+00 -0.00000000000E+00 -0.18724296691E+04  0.18724296691E+04  0.00000000000E+00 0. -1.
         24    2    1    2    0    0 -0.26776733069E+03 -0.13040644098E+03 -0.28289471912E+03  0.41884955681E+03  0.81855640598E+02 0.  0.
         25    2    1    2    0    0  0.16229581190E+03  0.73866902542E+02 -0.53939467869E+03  0.58169342167E+03  0.12499747025E+03 0.  0.
         24    2    1    2    0    0  0.79141483594E+02  0.17865542458E+02  0.34710134768E+03  0.36923040761E+03  0.96276665430E+02 0.  0.
        -11    1    5    5    0    0  0.95893494592E+01  0.15065658225E+02  0.29384266384E+01  0.18098730119E+02  0.00000000000E+00 0.  1.
         12    1    5    5    0    0  0.69552134135E+02  0.27998842328E+01  0.34416292105E+03  0.35113167749E+03  0.00000000000E+00 0. -1.
        -11    1    3    3    0    0 -0.52112192109E+02 -0.61790004260E+02 -0.55629218086E+02  0.98123876287E+02  0.00000000000E+00 0.  1.
         12    1    3    3    0    0 -0.21565513858E+03 -0.68616436720E+02 -0.22726550103E+03  0.32072568052E+03  0.00000000000E+00 0. -1.
          5    1    4    4  501    0  0.36624913114E+02  0.82736610677E+02 -0.19732590094E+03  0.21713206163E+03  0.47000000000E+01 0.  1.
         -5    1    4    4    0  501  0.12567089879E+03 -0.88697081347E+01 -0.34206877775E+03  0.36456136004E+03  0.47000000000E+01 0.  1.
          1    1    1    2  502    0  0.35149928155E+02  0.47036135510E+01 -0.94866048169E+03  0.94932310145E+03  0.00000000000E+00 0. -1.
          1    1    1    2  503    0 -0.88198929596E+01  0.33970382429E+02  0.32077016624E+03  0.32268448513E+03  0.00000000000E+00 0. -1.
<mgrwt>
<rscale>  0 0.35277932E+02</rscale>
<asrwt>0</asrwt>
<pdfrwt beam="1">  1        2 0.11313990E+00 0.35096686E+02</pdfrwt>
<pdfrwt beam="2">  1        2 0.27535731E+00 0.35460114E+02</pdfrwt>
<totfact> 0.77210654E+01</totfact>
</mgrwt>
</event>
<event>
13    1  0.1589573E-008  0.6196860E+02  0.7546771E-02  0.1510190E+00
          2   -1    0    0  503    0  0.00000000000E+00  0.00000000000E+00  0.54180196477E+03  0.54180196477E+03  0.00000000000E+00 0. -1.
          2   -1    0    0  502    0 -0.00000000000E+00 -0.00000000000E+00 -0.31404523188E+04  0.31404523188E+04  0.00000000000E+00 0. -1.
         24    2    1    2    0    0  0.12832228122E+03 -0.15806269439E+03 -0.16751469743E+04  0.16893363767E+04  0.79306902411E+02 0.  0.
         25    2    1    2    0    0 -0.13207907647E+03  0.12320050012E+02 -0.29654713335E+01  0.18229390535E+03  0.12500243132E+03 0.  0.
         24    2    1    2    0    0 -0.72703596489E+02  0.11896763069E+03 -0.60044804902E+03  0.62185297829E+03  0.82000957007E+02 0.  0.
        -11    1    3    3    0    0  0.71983886627E+02 -0.63262017544E+02 -0.50560762235E+03  0.51460939612E+03  0.00000000000E+00 0.  1.
         12    1    3    3    0    0  0.56338394594E+02 -0.94800676847E+02 -0.11695393520E+04  0.11747269806E+04  0.00000000000E+00 0. -1.
        -13    1    5    5    0    0 -0.78921158725E+02  0.11426607018E+03 -0.44400350113E+03  0.46521435178E+03  0.00000000000E+00 0.  1.
         14    1    5    5    0    0  0.62175622363E+01  0.47015605054E+01 -0.15644454789E+03  0.15663862651E+03  0.00000000000E+00 0. -1.
          5    1    4    4  501    0  0.23621527389E+02  0.10287335680E+02 -0.40776277896E+01  0.26505148179E+02  0.47000000000E+01 0. -1.
         -5    1    4    4    0  501 -0.15570060386E+03  0.20327143315E+01  0.11121564560E+01  0.15578875717E+03  0.47000000000E+01 0. -1.
          1    1    1    2  502    0  0.61460236667E+02  0.61841194348E+01 -0.75279077431E+03  0.75532082847E+03  0.00000000000E+00 0. -1.
          1    1    1    2  503    0  0.15000155069E+02  0.20590894256E+02  0.43270091494E+03  0.43345019479E+03  0.00000000000E+00 0. -1.
<mgrwt>
<rscale>  0 0.39732445E+02</rscale>
<asrwt>0</asrwt>
<pdfrwt beam="1">  1        2 0.79676759E-01 0.25475274E+02</pdfrwt>
<pdfrwt beam="2">  1        2 0.46183123E+00 0.61968604E+02</pdfrwt>
<totfact> 0.25336723E+01</totfact>
</mgrwt>
</event>
<event>
13    1  0.1589573E-008  0.6729235E+02  0.7546771E-02  0.1458024E+00
          2   -1    0    0  502    0  0.00000000000E+00  0.00000000000E+00  0.27670517182E+04  0.27670517182E+04  0.00000000000E+00 0. -1.
          4   -1    0    0  503    0 -0.00000000000E+00 -0.00000000000E+00 -0.24375831798E+04  0.24375831798E+04  0.00000000000E+00 0. -1.
         24    2    1    2    0    0  0.14197349323E+03 -0.96316490377E+03 -0.88216924432E+03  0.13167415456E+04  0.87992144949E+02 0.  0.
         25    2    1    2    0    0 -0.27511826168E+03  0.72074699293E+03 -0.38814545710E+03  0.87260786941E+03  0.12498524780E+03 0.  0.
         24    2    1    2    0    0  0.40835999156E+02  0.21989869991E+03  0.33641582785E+02  0.24106883980E+03  0.83423092610E+02 0.  0.
        -11    1    5    5    0    0 -0.36467875019E+01  0.54662034769E+02  0.43074357861E+02  0.69689578915E+02  0.00000000000E+00 0.  1.
         12    1    5    5    0    0  0.44482786658E+02  0.16523666514E+03 -0.94327750759E+01  0.17137926089E+03  0.00000000000E+00 0. -1.
        -13    1    3    3    0    0  0.12204469535E+03 -0.67262179707E+03 -0.57276886330E+03  0.89184032221E+03  0.00000000000E+00 0.  1.
         14    1    3    3    0    0  0.19928797878E+02 -0.29054310669E+03 -0.30940038102E+03  0.42490122336E+03  0.00000000000E+00 0. -1.
          5    1    4    4  501    0 -0.56419051752E+01  0.44125119283E+02  0.48938769690E+01  0.44998858625E+02  0.47000000000E+01 0. -1.
         -5    1    4    4    0  501 -0.26947635651E+03  0.67662187365E+03 -0.39303933407E+03  0.82760901079E+03  0.47000000000E+01 0. -1.
          1    1    1    2  502    0  0.67284720112E+02 -0.26817431622E+00  0.21691830023E+04  0.21702263022E+04  0.00000000000E+00 0. -1.
          3    1    1    2  503    0  0.25024049182E+02  0.22787385238E+02 -0.60304134522E+03  0.60399034099E+03  0.00000000000E+00 0. -1.
<mgrwt>
<rscale>  0 0.47723092E+02</rscale>
<asrwt>0</asrwt>
<pdfrwt beam="1">  1        2 0.40691937E+00 0.67292346E+02</pdfrwt>
<pdfrwt beam="2">  1        4 0.35846812E+00 0.33844763E+02</pdfrwt>
<totfact> 0.42253567E-02</totfact>
</mgrwt>
</event>
<event>
13    1  0.1589573E-008  0.6299071E+02  0.7546771E-02  0.1429513E+00
          2   -1    0    0  502    0  0.00000000000E+00  0.00000000000E+00  0.26626300222E+04  0.26626300222E+04  0.00000000000E+00 0. -1.
          2   -1    0    0  503    0 -0.00000000000E+00 -0.00000000000E+00 -0.19943181422E+04  0.19943181422E+04  0.00000000000E+00 0. -1.
         24    2    1    2    0    0 -0.48385131820E+03  0.23294383240E+03 -0.68913028838E+03  0.87722810208E+03  0.79080095756E+02 0.  0.
         25    2    1    2    0    0  0.11505695288E+04 -0.43759255044E+03  0.33519904182E+03  0.12819056065E+04  0.12500442206E+03 0.  0.
         24    2    1    2    0    0 -0.73749558076E+03  0.12477694701E+03  0.10366550995E+04  0.12828701245E+04  0.10785612134E+03 0.  0.
        -11    1    3    3    0    0 -0.31581872976E+03  0.16552242875E+03 -0.51210446676E+03  0.62401132151E+03  0.00000000000E+00 0.  1.
         12    1    3    3    0    0 -0.16803258844E+03  0.67421403654E+02 -0.17702582162E+03  0.25321678058E+03  0.00000000000E+00 0. -1.
        -13    1    5    5    0    0 -0.16831565773E+03  0.62353186994E+02  0.19640125746E+03  0.26606678578E+03  0.00000000000E+00 0.  1.
         14    1    5    5    0    0 -0.56917992303E+03  0.62423760019E+02  0.84025384202E+03  0.10168033387E+04  0.00000000000E+00 0. -1.
          5    1    4    4  501    0  0.93884776231E+03 -0.30460398485E+03  0.27667320909E+03  0.10250799301E+04  0.47000000000E+01 0. -1.
         -5    1    4    4    0  501  0.21172176651E+03 -0.13298856559E+03  0.58525832729E+02  0.25682567646E+03  0.47000000000E+01 0. -1.
          1    1    1    2  502    0  0.46645101194E+02  0.42255969188E+02  0.59779958321E+03  0.60110371325E+03  0.00000000000E+00 0. -1.
          1    1    1    2  503    0  0.24132268944E+02  0.37615801830E+02 -0.61221155613E+03  0.61384061808E+03  0.00000000000E+00 0. -1.
<mgrwt>
<rscale>  0 0.53057881E+02</rscale>
<asrwt>0</asrwt>
<pdfrwt beam="1">  1        2 0.39156324E+00 0.62990714E+02</pdfrwt>
<pdfrwt beam="2">  1        2 0.29328208E+00 0.44691330E+02</pdfrwt>
<totfact> 0.72468348E+00</totfact>
</mgrwt>
</event>
<event>
13    1  0.1589573E-008  0.2081610E+03  0.7546771E-02  0.1222178E+00
         -1   -1    0    0    0  501 -0.00000000000E+00  0.00000000000E+00  0.16952018664E+04  0.16952018664E+04  0.00000000000E+00 0.  1.
          2   -1    0    0  503    0  0.00000000000E+00 -0.00000000000E+00 -0.27455694997E+04  0.27455694997E+04  0.00000000000E+00 0. -1.
         24    2    1    2    0    0  0.57649543660E+02 -0.87206433091E+02  0.87673095222E+03  0.88660901717E+03  0.80560256243E+02 0.  0.
         25    2    1    2    0    0  0.24721269563E+03  0.11856226554E+02 -0.61529173965E+01  0.27733942579E+03  0.12499844685E+03 0.  0.
         24    2    1    2    0    0 -0.71093784304E+02 -0.10348905298E+03 -0.10258051508E+03  0.18070500658E+03  0.79794906342E+02 0.  0.
        -11    1    5    5    0    0 -0.81377333150E+02 -0.82138760429E+02 -0.10587964100E+03  0.15677864872E+03  0.00000000000E+00 0.  1.
         12    1    5    5    0    0  0.10283548846E+02 -0.21350292547E+02  0.32991259267E+01  0.23926357863E+02  0.00000000000E+00 0. -1.
        -13    1    3    3    0    0  0.61344408419E+02 -0.33847025751E+02  0.33525256209E+03  0.34249531090E+03  0.00000000000E+00 0.  1.
         14    1    3    3    0    0 -0.36948647591E+01 -0.53359407340E+02  0.54147839013E+03  0.54411370627E+03  0.00000000000E+00 0. -1.
          5    1    4    4  502    0  0.15007477098E+03  0.46788443981E+01 -0.64739456593E+02  0.16357755259E+03  0.47000000000E+01 0.  1.
         -5    1    4    4    0  502  0.97137924648E+02  0.71773821556E+01  0.58586539196E+02  0.11376187320E+03  0.47000000000E+01 0.  1.
          1    1    1    2  503    0 -0.16764584789E+03  0.12420321666E+03 -0.24499082772E+04  0.24587765527E+04  0.00000000000E+00 0. -1.
         -2    1    1    2    0  501 -0.66122607097E+02  0.54636042851E+02  0.63154312421E+03  0.63734136386E+03  0.00000000000E+00 0.  1.
<mgrwt>
<rscale>  0 0.13362241E+03</rscale>
<asrwt>0</asrwt>
<pdfrwt beam="2">  1        2 0.40376022E+00 0.20816104E+03</pdfrwt>
<pdfrwt beam="1">  1       -1 0.24929439E+00 0.85774684E+02</pdfrwt>
<totfact> 0.37134381E-01</totfact>
</mgrwt>
</event>
<event>
13    1  0.1589573E-008  0.6459308E+02  0.7546771E-02  0.1475291E+00
          2   -1    0    0  503    0  0.00000000000E+00  0.00000000000E+00  0.87649535666E+03  0.87649535666E+03  0.00000000000E+00 0. -1.
         -1   -1    0    0    0  501 -0.00000000000E+00 -0.00000000000E+00 -0.90935473949E+03  0.90935473949E+03  0.00000000000E+00 0.  1.
         24    2    1    2    0    0 -0.24957234921E+02  0.91819646578E+01 -0.79318104884E+02  0.11565750498E+03  0.79863162007E+02 0.  0.
         25    2    1    2    0    0  0.10619727228E+03 -0.11959430678E+01  0.44062549099E+03  0.47016206252E+03  0.12498900273E+03 0.  0.
         24    2    1    2    0    0 -0.20925780376E+01  0.15249178088E+02 -0.10862160918E+03  0.13637693977E+03  0.81012958254E+02 0.  0.
        -13    1    3    3    0    0 -0.48561141385E+02  0.12185799718E+02 -0.24170766315E+02  0.55595900133E+02  0.00000000000E+00 0.  1.
         14    1    3    3    0    0  0.23603906464E+02 -0.30038350598E+01 -0.55147338570E+02  0.60061604847E+02  0.00000000000E+00 0. -1.
        -13    1    5    5    0    0 -0.25576376282E+02 -0.83918564039E+01 -0.97653937735E+02  0.10129593197E+03  0.00000000000E+00 0.  1.
         14    1    5    5    0    0  0.23483798245E+02  0.23641034492E+02 -0.10967671450E+02  0.35081007809E+02  0.00000000000E+00 0. -1.
          5    1    4    4  502    0  0.26342598319E+02 -0.12720496151E+02  0.33912155273E+03  0.34041336788E+03  0.47000000000E+01 0. -1.
         -5    1    4    4    0  502  0.79854673963E+02  0.11524553083E+02  0.10150393826E+03  0.12974869464E+03  0.47000000000E+01 0. -1.
          1    1    1    2  503    0 -0.14731947794E+02 -0.27433726398E+02  0.38688297648E+03  0.38813409683E+03  0.00000000000E+00 0. -1.
         -2    1    1    2    0  501 -0.64415511529E+02  0.41985267196E+01 -0.67242813622E+03  0.67551949205E+03  0.00000000000E+00 0.  1.
<mgrwt>
<rscale>  0 0.44848260E+02</rscale>
<asrwt>0</asrwt>
<pdfrwt beam="1">  1        2 0.12889638E+00 0.31139037E+02</pdfrwt>
<pdfrwt beam="2">  1       -1 0.13372864E+00 0.64593085E+02</pdfrwt>
<totfact> 0.23257894E+01</totfact>
</mgrwt>
</event>
<event>
13    1  0.1589573E-008  0.9803098E+02  0.7546771E-02  0.1294621E+00
          2   -1    0    0  502    0  0.00000000000E+00  0.00000000000E+00  0.38276175441E+03  0.38276175441E+03  0.00000000000E+00 0. -1.
          2   -1    0    0  503    0 -0.00000000000E+00 -0.00000000000E+00 -0.23947291309E+04  0.23947291309E+04  0.00000000000E+00 0. -1.
         24    2    1    2    0    0  0.60813008530E+02  0.18329949978E+03 -0.40130790765E+03  0.45255362617E+03  0.80373000364E+02 0.  0.
         25    2    1    2    0    0 -0.18051160008E+03 -0.22811481655E+03 -0.39076383175E+03  0.50293415224E+03  0.12500232794E+03 0.  0.
         24    2    1    2    0    0 -0.16325645751E+02  0.15573365911E+02  0.48985228023E+02  0.96797290853E+02  0.80381008435E+02 0.  0.
        -11    1    3    3    0    0 -0.10109399893E+02  0.47727011642E+01 -0.58800764388E+02  0.59854060306E+02  0.00000000000E+00 0.  1.
         12    1    3    3    0    0  0.70922408422E+02  0.17852679862E+03 -0.34250714327E+03  0.39269956586E+03  0.00000000000E+00 0. -1.
        -13    1    5    5    0    0  0.28887722858E+02 -0.10088824851E+02  0.11433276089E+02  0.32665038205E+02  0.00000000000E+00 0.  1.
         14    1    5    5    0    0 -0.45213368609E+02  0.25662190762E+02  0.37551951934E+02  0.64132252648E+02  0.00000000000E+00 0. -1.
          5    1    4    4  501    0 -0.37669707725E+02 -0.14744052821E+03 -0.19807662282E+03  0.24982825049E+03  0.47000000000E+01 0.  1.
         -5    1    4    4    0  501 -0.14284189236E+03 -0.80674288348E+02 -0.19268720893E+03  0.25310590174E+03  0.47000000000E+01 0.  1.
          1    1    1    2  502    0  0.49594173467E+02  0.76054308359E+02  0.21744158390E+03  0.23563675917E+03  0.00000000000E+00 0. -1.
          1    1    1    2  503    0  0.86430063839E+02 -0.46812357497E+02 -0.14863224491E+04  0.14895690569E+04  0.00000000000E+00 0. -1.
<mgrwt>
<rscale>  0 0.93487018E+02</rscale>
<asrwt>0</asrwt>
<pdfrwt beam="1">  1        2 0.56288495E-01 0.89153681E+02</pdfrwt>
<pdfrwt beam="2">  1        2 0.35216604E+00 0.98030978E+02</pdfrwt>
<totfact> 0.80936028E+01</totfact>
</mgrwt>
</event>
<event>
13    1  0.1589573E-008  0.2050318E+03  0.7546771E-02  0.1195326E+00
          2   -1    0    0  502    0  0.00000000000E+00  0.00000000000E+00  0.15835320682E+04  0.15835320682E+04  0.00000000000E+00 0. -1.
          2   -1    0    0  503    0 -0.00000000000E+00 -0.00000000000E+00 -0.23580395315E+04  0.23580395315E+04  0.00000000000E+00 0. -1.
         24    2    1    2    0    0  0.10171343007E+02 -0.45518839573E+02  0.15682230193E+02  0.90960483833E+02  0.76501348359E+02 0.  0.
         25    2    1    2    0    0 -0.17647785674E+03  0.28049035926E+03  0.44793749659E+03  0.57104463057E+03  0.12499877476E+03 0.  0.
         24    2    1    2    0    0  0.26422069716E+03 -0.78934790803E+02 -0.96081464644E+02  0.30314360091E+03  0.81370245920E+02 0.  0.
        -11    1    3    3    0    0  0.27976301461E+02  0.10697635412E+02  0.37971806070E-01  0.29951866197E+02  0.00000000000E+00 0.  1.
         12    1    3    3    0    0 -0.17804958454E+02 -0.56216474986E+02  0.15644258387E+02  0.61008617636E+02  0.00000000000E+00 0. -1.
        -13    1    5    5    0    0 -0.57317519078E+01 -0.97099538449E-01 -0.47839853814E+01  0.74665202325E+01  0.00000000000E+00 0.  1.
         14    1    5    5    0    0  0.26995244907E+03 -0.78837691264E+02 -0.91297479262E+02  0.29567708068E+03  0.00000000000E+00 0. -1.
          5    1    4    4  501    0 -0.56758444116E+02  0.10639236659E+03  0.26632726534E+03  0.29239213209E+03  0.47000000000E+01 0.  1.
         -5    1    4    4    0  501 -0.11971941263E+03  0.17409799267E+03  0.18161023125E+03  0.27865249848E+03  0.47000000000E+01 0.  1.
          1    1    1    2  502    0  0.94692716726E+02 -0.84484189340E+02  0.90763791900E+03  0.91646651923E+03  0.00000000000E+00 0. -1.
          1    1    1    2  503    0 -0.19260690015E+03 -0.71552539541E+02 -0.20496836444E+04  0.20599563651E+04  0.00000000000E+00 0. -1.
<mgrwt>
<rscale>  0 0.15426663E+03</rscale>
<asrwt>0</asrwt>
<pdfrwt beam="1">  1        2 0.23287236E+00 0.11607074E+03</pdfrwt>
<pdfrwt beam="2">  1        2 0.34677052E+00 0.20503182E+03</pdfrwt>
<totfact> 0.12659105E+01</totfact>
</mgrwt>
</event>
<event>
13    1  0.1589573E-008  0.1558504E+03  0.7546771E-02  0.1345560E+00
          2   -1    0    0  503    0  0.00000000000E+00  0.00000000000E+00  0.26330165664E+04  0.26330165664E+04  0.00000000000E+00 0. -1.
         -1   -1    0    0    0  501 -0.00000000000E+00 -0.00000000000E+00 -0.21149993619E+03  0.21149993619E+03  0.00000000000E+00 0.  1.
         24    2    1    2    0    0  0.33127740399E+02 -0.39411221452E+02  0.38035056872E+03  0.39212061199E+03  0.80257882229E+02 0.  0.
         25    2    1    2    0    0  0.21892576605E+03 -0.38446703550E+02  0.31446068482E+03  0.40486656162E+03  0.12499908145E+03 0.  0.
         24    2    1    2    0    0  0.16997807098E+02 -0.49841205965E+02  0.18405179677E+02  0.10356634495E+03  0.87259188109E+02 0.  0.
        -11    1    5    5    0    0  0.51346897217E+02 -0.39291452766E+02  0.19761799188E+02  0.67608067725E+02  0.00000000000E+00 0.  1.
         12    1    5    5    0    0 -0.34349090120E+02 -0.10549753198E+02 -0.13566195105E+01  0.35958277226E+02  0.00000000000E+00 0. -1.
        -11    1    3    3    0    0 -0.16853060524E+02 -0.42027433764E+02  0.17643431191E+03  0.18215212669E+03  0.00000000000E+00 0.  1.
         12    1    3    3    0    0  0.49980800923E+02  0.26162123125E+01  0.20391625681E+03  0.20996848530E+03  0.00000000000E+00 0. -1.
          5    1    4    4  502    0  0.17401113577E+03  0.21524105763E+02  0.25294677064E+03  0.30781052821E+03  0.47000000000E+01 0. -1.
         -5    1    4    4    0  502  0.44914630283E+02 -0.59970809313E+02  0.61513914184E+02  0.97056033410E+02  0.47000000000E+01 0. -1.
          1    1    1    2  503    0 -0.32324322827E+02  0.14848881535E+02  0.16797918181E+04  0.16801684151E+04  0.00000000000E+00 0. -1.
         -2    1    1    2    0  501 -0.23672699072E+03  0.11285024943E+03  0.28508378950E+02  0.26379456894E+03  0.00000000000E+00 0.  1.
<mgrwt>
<rscale>  0 0.74457213E+02</rscale>
<asrwt>0</asrwt>
<pdfrwt beam="1">  1        2 0.38720830E+00 0.35571774E+02</pdfrwt>
<pdfrwt beam="2">  1       -1 0.31102933E-01 0.15585044E+03</pdfrwt>
<totfact> 0.57010894E+01</totfact>
</mgrwt>
</event>
<event>
13    1  0.1589573E-008  0.6554550E+02  0.7546771E-02  0.1426352E+00
          2   -1    0    0  503    0  0.00000000000E+00  0.00000000000E+00  0.42254880332E+04  0.42254880332E+04  0.00000000000E+00 0. -1.
         -1   -1    0    0    0  501 -0.00000000000E+00 -0.00000000000E+00 -0.25820014355E+03  0.25820014355E+03  0.00000000000E+00 0.  1.
         24    2    1    2    0    0 -0.11539314272E+03  0.22118822042E+02  0.80894248133E+02  0.16375928716E+03  0.80426395400E+02 0.  0.
         25    2    1    2    0    0  0.23320386612E+03 -0.74399424546E+02  0.18237403082E+04  0.18443351809E+04  0.12499692111E+03 0.  0.
         24    2    1    2    0    0 -0.13926191523E+03  0.35821701864E+02  0.23975847864E+03  0.29078492974E+03  0.79966692610E+02 0.  0.
        -11    1    3    3    0    0 -0.34583777342E+02 -0.14277171246E+02 -0.79691735943E+01  0.38254189337E+02  0.00000000000E+00 0.  1.
         12    1    3    3    0    0 -0.80809365375E+02  0.36395993288E+02  0.88863421727E+02  0.12550509783E+03  0.00000000000E+00 0. -1.
        -13    1    5    5    0    0 -0.66922810033E+02  0.58013384509E+02  0.13802342175E+03  0.16399597628E+03  0.00000000000E+00 0.  1.
         14    1    5    5    0    0 -0.72339105193E+02 -0.22191682644E+02  0.10173505690E+03  0.12678895346E+03  0.00000000000E+00 0. -1.
          5    1    4    4  502    0  0.11537066256E+03 -0.98007905032E+02  0.11520775626E+04  0.11619899912E+04  0.47000000000E+01 0.  1.
         -5    1    4    4    0  502  0.11783320356E+03  0.23608480486E+02  0.67166274557E+03  0.68234518977E+03  0.47000000000E+01 0.  1.
          1    1    1    2  503    0  0.26832073729E+02  0.60122550663E+02  0.20006283380E+04  0.20017113749E+04  0.00000000000E+00 0. -1.
         -2    1    1    2    0  501 -0.53808819071E+01 -0.43663650023E+02 -0.17773348342E+03  0.18309740401E+03  0.00000000000E+00 0.  1.
<mgrwt>
<rscale>  0 0.53699219E+02</rscale>
<asrwt>0</asrwt>
<pdfrwt beam="1">  1        2 0.62139526E+00 0.65545505E+02</pdfrwt>
<pdfrwt beam="2">  1       -1 0.37970612E-01 0.43993957E+02</pdfrwt>
<totfact> 0.43515576E+00</totfact>
</mgrwt>
</event>
<event>
13    1  0.1589573E-008  0.1066103E+03  0.7546771E-02  0.1309226E+00
          2   -1    0    0  503    0  0.00000000000E+00  0.00000000000E+00  0.33286460122E+04  0.33286460122E+04  0.00000000000E+00 0. -1.
         -1   -1    0    0    0  501 -0.00000000000E+00 -0.00000000000E+00 -0.11523576464E+04  0.11523576464E+04  0.00000000000E+00 0.  1.
         24    2    1    2    0    0 -0.17437966007E+03  0.29472254835E+03  0.12016899207E+03  0.37157546230E+03  0.79737639652E+02 0.  0.
         25    2    1    2    0    0 -0.37131961580E+01 -0.18704601244E+02 -0.10529062790E+03  0.16455325068E+03  0.12501202364E+03 0.  0.
         24    2    1    2    0    0  0.45028360299E+02 -0.23198321129E+03  0.17510480505E+04  0.17687494702E+04  0.80384387541E+02 0.  0.
        -13    1    5    5    0    0  0.41305778285E+02 -0.42307999411E+02  0.35972744780E+03  0.36455448267E+03  0.00000000000E+00 0.  1.
         14    1    5    5    0    0  0.37225820145E+01 -0.18967521188E+03  0.13913206027E+04  0.14041949876E+04  0.00000000000E+00 0. -1.
        -13    1    3    3    0    0 -0.18226024808E+02  0.82697003706E+02  0.70200751989E+01  0.84972135774E+02  0.00000000000E+00 0.  1.
         14    1    3    3    0    0 -0.15615363526E+03  0.21202554464E+03  0.11314891687E+03  0.28660332652E+03  0.00000000000E+00 0. -1.
          5    1    4    4  502    0  0.20285171975E+01 -0.26982678575E+02 -0.13241816579E+03  0.13523623943E+03  0.47000000000E+01 0. -1.
         -5    1    4    4    0  502 -0.57417133555E+01  0.82780773307E+01  0.27127537892E+02  0.29317011250E+02  0.47000000000E+01 0. -1.
          1    1    1    2  503    0  0.70797269155E+02 -0.79546109644E+02  0.12895905120E+04  0.12939797237E+04  0.00000000000E+00 0. -1.
         -2    1    1    2    0  501  0.62267226773E+02  0.35511373830E+02 -0.87922856074E+03  0.88214575168E+03  0.00000000000E+00 0.  1.
<mgrwt>
<rscale>  0 0.87418574E+02</rscale>
<asrwt>0</asrwt>
<pdfrwt beam="1">  1        2 0.48950676E+00 0.10661030E+03</pdfrwt>
<pdfrwt beam="2">  1       -1 0.16946436E+00 0.71681694E+02</pdfrwt>
<totfact> 0.65321405E-01</totfact>
</mgrwt>
</event>
<event>
13    1  0.1589573E-008  0.9449755E+02  0.7546771E-02  0.1383362E+00
          2   -1    0    0  502    0  0.00000000000E+00  0.00000000000E+00  0.10366227035E+04  0.10366227035E+04  0.00000000000E+00 0. -1.
          2   -1    0    0  503    0 -0.00000000000E+00 -0.00000000000E+00 -0.69206867591E+03  0.69206867591E+03  0.00000000000E+00 0. -1.
         24    2    1    2    0    0 -0.96556048863E+02  0.87927657634E+02 -0.23675421970E+03  0.28208516970E+03  0.80406087272E+02 0.  0.
         25    2    1    2    0    0 -0.93647787778E+01 -0.11932956965E+03  0.64615170797E+03  0.66892820345E+03  0.12500266549E+03 0.  0.
         24    2    1    2    0    0  0.63171043970E+02 -0.43650956633E+01  0.41117881556E+02  0.11015259301E+03  0.80207722243E+02 0.  0.
        -11    1    3    3    0    0 -0.44512929125E+02  0.50455882952E+01 -0.31718270743E+02  0.54889958276E+02  0.00000000000E+00 0.  1.
         12    1    3    3    0    0 -0.52043119738E+02  0.82882069339E+02 -0.20503594896E+03  0.22719521143E+03  0.00000000000E+00 0. -1.
        -13    1    5    5    0    0  0.65155886767E+02 -0.20810552289E+02  0.55602871621E+02  0.88147875751E+02  0.00000000000E+00 0.  1.
         14    1    5    5    0    0 -0.19848427975E+01  0.16445456626E+02 -0.14484990065E+02  0.22004717261E+02  0.00000000000E+00 0. -1.
          5    1    4    4  501    0 -0.39517287158E+01 -0.31750721425E+01 -0.43044692227E+01  0.81434451090E+01  0.47000000000E+01 0. -1.
         -5    1    4    4    0  501 -0.54130500620E+01 -0.11615449751E+03  0.65045617720E+03  0.66078475834E+03  0.47000000000E+01 0. -1.
          1    1    1    2  502    0 -0.13374837963E+02 -0.40645025298E+02  0.27328157867E+03  0.27661114513E+03  0.00000000000E+00 0. -1.
          1    1    1    2  503    0  0.56124621634E+02  0.76412032978E+02 -0.37924292092E+03  0.39091426810E+03  0.00000000000E+00 0. -1.
<mgrwt>
<rscale>  0 0.63588222E+02</rscale>
<asrwt>0</asrwt>
<pdfrwt beam="1">  1        2 0.15244452E+00 0.42789068E+02</pdfrwt>
<pdfrwt beam="2">  1        2 0.10177480E+00 0.94497547E+02</pdfrwt>
<totfact> 0.21053541E+02</totfact>
</mgrwt>
</event>
<event>
13    1  0.1589573E-008  0.6867334E+02  0.7546771E-02  0.1468686E+00
          2   -1    0    0  503    0  0.00000000000E+00  0.00000000000E+00  0.68001598962E+03  0.68001598962E+03  0.00000000000E+00 0. -1.
         -1   -1    0    0    0  501 -0.00000000000E+00 -0.00000000000E+00 -0.81709065549E+03  0.81709065549E+03  0.00000000000E+00 0.  1.
         24    2    1    2    0    0 -0.40533707235E+02  0.17546315088E+02 -0.85776173982E+02  0.12507022731E+03  0.79587405671E+02 0.  0.
         25    2    1    2    0    0  0.11912922029E+03  0.16375814399E+03 -0.13600546486E+02  0.23836362185E+03  0.12499496192E+03 0.  0.
         24    2    1    2    0    0 -0.34316891755E+02 -0.19992972955E+03  0.26246318395E+03  0.34223032469E+03  0.84173192842E+02 0.  0.
        -13    1    5    5    0    0  0.28229249440E+02 -0.66440381250E+02  0.84150499141E+02  0.11087164331E+03  0.00000000000E+00 0.  1.
         14    1    5    5    0    0 -0.62546141194E+02 -0.13348934830E+03  0.17831268481E+03  0.23135868138E+03  0.00000000000E+00 0. -1.
        -13    1    3    3    0    0  0.22748453087E+02  0.14849653589E+02 -0.32043288404E+02  0.42009244951E+02  0.00000000000E+00 0.  1.
         14    1    3    3    0    0 -0.63282160322E+02  0.26966614987E+01 -0.53732885577E+02  0.83060982361E+02  0.00000000000E+00 0. -1.
          5    1    4    4  502    0  0.62309941560E+02  0.10702752554E+03 -0.67905583630E+02  0.14131765045E+03  0.47000000000E+01 0. -1.
         -5    1    4    4    0  502  0.56819278726E+02  0.56730618453E+02  0.54305037144E+02  0.97045971396E+02  0.47000000000E+01 0. -1.
          1    1    1    2  503    0 -0.69105473780E+02  0.55987948270E+00  0.24033570071E+03  0.25007424699E+03  0.00000000000E+00 0. -1.
         -2    1    1    2    0  501  0.24826852483E+02  0.18065390985E+02 -0.54049683006E+03  0.54136822428E+03  0.00000000000E+00 0.  1.
<mgrwt>
<rscale>  0 0.45918853E+02</rscale>
<asrwt>0</asrwt>
<pdfrwt beam="1">  1        2 0.10000235E+00 0.68673340E+02</pdfrwt>
<pdfrwt beam="2">  1       -1 0.12016039E+00 0.30703924E+02</pdfrwt>
<totfact> 0.40597854E+01</totfact>
</mgrwt>
</event>
<event>
13    1  0.1589573E-008  0.3175659E+03  0.7546771E-02  0.1111046E+00
          2   -1    0    0  502    0  0.00000000000E+00  0.00000000000E+00  0.26501109754E+04  0.26501109754E+04  0.00000000000E+00 0. -1.
          2   -1    0    0  503    0 -0.00000000000E+00 -0.00000000000E+00 -0.36987434059E+04  0.36987434059E+04  0.00000000000E+00 0. -1.
         24    2    1    2    0    0  0.37609748249E+02  0.85629186140E+02 -0.26509214729E+03  0.29290602014E+03  0.82299692583E+02 0.  0.
         25    2    1    2    0    0 -0.44153789569E+03 -0.10649301467E+03  0.44704560633E+03  0.64943864151E+03  0.12499719777E+03 0.  0.
         24    2    1    2    0    0 -0.16074760933E+03  0.13634939613E+03 -0.89076542561E+03  0.91969765512E+03  0.89161548008E+02 0.  0.
        -11    1    3    3    0    0 -0.57485772326E+01 -0.13776439911E+02 -0.47410138612E+02  0.49704704808E+02  0.00000000000E+00 0.  1.
         12    1    3    3    0    0  0.43358325481E+02  0.99405626051E+02 -0.21768200868E+03  0.24320131533E+03  0.00000000000E+00 0. -1.
        -13    1    5    5    0    0 -0.48580760637E+02  0.72334172837E+02 -0.51595372559E+03  0.52325956256E+03  0.00000000000E+00 0.  1.
         14    1    5    5    0    0 -0.11216684869E+03  0.64015223294E+02 -0.37481170002E+03  0.39643809256E+03  0.00000000000E+00 0. -1.
          5    1    4    4  501    0 -0.22327777659E+03 -0.47800557913E+02  0.13905386166E+03  0.26738721977E+03  0.47000000000E+01 0. -1.
         -5    1    4    4    0  501 -0.21826011910E+03 -0.58692456753E+02  0.30799174467E+03  0.38205142174E+03  0.47000000000E+01 0. -1.
          1    1    1    2  502    0  0.35019400282E+03  0.17163669560E+03  0.20416303993E+04  0.20785450879E+04  0.00000000000E+00 0. -1.
          1    1    1    2  503    0  0.21448175395E+03 -0.28712226321E+03 -0.23814508632E+04  0.24082669766E+04  0.00000000000E+00 0. -1.
<mgrwt>
<rscale>  0 0.25360751E+03</rscale>
<asrwt>0</asrwt>
<pdfrwt beam="1">  1        2 0.38972220E+00 0.31756586E+03</pdfrwt>
<pdfrwt beam="2">  1        2 0.54393285E+00 0.20253049E+03</pdfrwt>
<totfact> 0.59922966E-01</totfact>
</mgrwt>
</event>
<event>
13    1  0.1589573E-008  0.1885839E+03  0.7546771E-02  0.1234955E+00
          2   -1    0    0  503    0  0.00000000000E+00  0.00000000000E+00  0.24967862302E+04  0.24967862302E+04  0.00000000000E+00 0. -1.
          2   -1    0    0  502    0 -0.00000000000E+00 -0.00000000000E+00 -0.21249041553E+04  0.21249041553E+04  0.00000000000E+00 0. -1.
         24    2    1    2    0    0 -0.33167701655E+02 -0.11996168994E+03  0.80827303915E+02  0.16598726623E+03  0.74349283835E+02 0.  0.
         25    2    1    2    0    0 -0.10014062692E+03  0.10226545347E+03  0.88428016977E+02  0.20956865002E+03  0.12495253799E+03 0.  0.
         24    2    1    2    0    0  0.23953310244E+02 -0.64201718105E+02  0.11968921587E+04  0.12018811063E+04  0.85274452837E+02 0.  0.
        -11    1    3    3    0    0 -0.38835212304E+02 -0.46203165141E+02  0.67973840553E+02  0.90902965756E+02  0.00000000000E+00 0.  1.
         12    1    3    3    0    0  0.56675106491E+01 -0.73758524801E+02  0.12853463362E+02  0.75084300477E+02  0.00000000000E+00 0. -1.
        -13    1    5    5    0    0  0.43449952335E+02 -0.15243604561E+01  0.51951631579E+03  0.52133235503E+03  0.00000000000E+00 0.  1.
         14    1    5    5    0    0 -0.19496642091E+02 -0.62677357649E+02  0.67737584294E+03  0.68054875124E+03  0.00000000000E+00 0. -1.
          5    1    4    4  501    0 -0.11417410651E+03  0.83105487815E+02  0.27418333144E+02  0.14393089903E+03  0.47000000000E+01 0.  1.
         -5    1    4    4    0  501  0.14033479594E+02  0.19159965652E+02  0.61009683833E+02  0.65637750988E+02  0.47000000000E+01 0.  1.
          1    1    1    2  502    0  0.94907286895E+02  0.16358158722E+03 -0.20131419559E+04  0.20220056536E+04  0.00000000000E+00 0. -1.
          1    1    1    2  503    0  0.14447731434E+02 -0.81683632637E+02  0.10188765511E+04  0.10222477093E+04  0.00000000000E+00 0. -1.
<mgrwt>
<rscale>  0 0.12507326E+03</rscale>
<asrwt>0</asrwt>
<pdfrwt beam="1">  1        2 0.36717444E+00 0.82951509E+02</pdfrwt>
<pdfrwt beam="2">  1        2 0.31248591E+00 0.18858392E+03</pdfrwt>
<totfact> 0.62420788E+00</totfact>
</mgrwt>
</event>
<event>
13    1  0.1589573E-008  0.4142667E+02  0.7546771E-02  0.1525892E+00
          2   -1    0    0  503    0  0.00000000000E+00  0.00000000000E+00  0.28984782046E+04  0.28984782046E+04  0.00000000000E+00 0. -1.
          2   -1    0    0  502    0 -0.00000000000E+00 -0.00000000000E+00 -0.89628126656E+03  0.89628126656E+03  0.00000000000E+00 0. -1.
         24    2    1    2    0    0  0.95610213408E+02 -0.10105523130E+03 -0.47221876528E+03  0.49879262532E+03  0.80312191524E+02 0.  0.
         25    2    1    2    0    0 -0.10719054051E+03  0.64012170039E+02  0.44883533169E+03  0.48235296568E+03  0.12499543450E+03 0.  0.
         24    2    1    2    0    0 -0.29726183768E+02 -0.79252569099E+01 -0.73770153745E+02  0.11333340333E+03  0.80349044973E+02 0.  0.
        -11    1    3    3    0    0 -0.61722010813E+01 -0.39198737495E+01 -0.14561945873E+01  0.74553322579E+01  0.00000000000E+00 0.  1.
         12    1    3    3    0    0  0.10178241449E+03 -0.97135357547E+02 -0.47076257069E+03  0.49133729306E+03  0.00000000000E+00 0. -1.
        -13    1    5    5    0    0 -0.31472910997E+02 -0.23721156396E+02 -0.85122222498E+02  0.93803145738E+02  0.00000000000E+00 0.  1.
         14    1    5    5    0    0  0.17467272296E+01  0.15795899486E+02  0.11352068753E+02  0.19530257591E+02  0.00000000000E+00 0. -1.
          5    1    4    4  501    0  0.19900263900E+02  0.23068700910E+02  0.17462892794E+03  0.17732889764E+03  0.47000000000E+01 0. -1.
         -5    1    4    4    0  501 -0.12709080441E+03  0.40943469129E+02  0.27420640375E+03  0.30502406804E+03  0.47000000000E+01 0. -1.
          1    1    1    2  502    0  0.39992644136E+02  0.10693794538E+02 -0.29891583170E+03  0.30176885736E+03  0.00000000000E+00 0. -1.
          1    1    1    2  503    0  0.13138667328E+01  0.34274523629E+02  0.23982663571E+04  0.23985116195E+04  0.00000000000E+00 0. -1.
<mgrwt>
<rscale>  0 0.37695123E+02</rscale>
<asrwt>0</asrwt>
<pdfrwt beam="1">  1        2 0.42624679E+00 0.34299697E+02</pdfrwt>
<pdfrwt beam="2">  1        2 0.13180607E+00 0.41426673E+02</pdfrwt>
<totfact> 0.21258573E+01</totfact>
</mgrwt>
</event>
<event>
13    1  0.1589573E-008  0.1037685E+03  0.7546771E-02  0.1406216E+00
          2   -1    0    0  503    0  0.00000000000E+00  0.00000000000E+00  0.25132047796E+04  0.25132047796E+04  0.00000000000E+00 0. -1.
          2   -1    0    0  502    0 -0.00000000000E+00 -0.00000000000E+00 -0.98602766132E+03  0.98602766132E+03  0.00000000000E+00 0. -1.
         24    2    1    2    0    0 -0.54696936639E+02 -0.73442670416E+02  0.14023065205E+02  0.12464567847E+03  0.83392554152E+02 0.  0.
         25    2    1    2    0    0  0.18400939400E+03  0.54365376876E+02  0.15843732362E+03  0.27846401592E+03  0.12499908545E+03 0.  0.
         24    2    1    2    0    0 -0.20273935055E+02 -0.50202612268E+02  0.50398992795E+03  0.51541432189E+03  0.93352777227E+02 0.  0.
        -11    1    5    5    0    0  0.28028395900E+02 -0.52476592169E+02  0.26885659515E+03  0.27536022308E+03  0.00000000000E+00 0.  1.
         12    1    5    5    0    0 -0.48302330954E+02  0.22739799007E+01  0.23513333280E+03  0.24005409881E+03  0.00000000000E+00 0. -1.
        -11    1    3    3    0    0 -0.46630718512E+02 -0.10882759902E+02 -0.21236753519E+02  0.52381848688E+02  0.00000000000E+00 0.  1.
         12    1    3    3    0    0 -0.80662181279E+01 -0.62559910514E+02  0.35259818723E+02  0.72263829782E+02  0.00000000000E+00 0. -1.
          5    1    4    4  501    0  0.16784127321E+03  0.84052165444E+02  0.15622747680E+03  0.24426332925E+03  0.47000000000E+01 0.  1.
         -5    1    4    4    0  501  0.16168120791E+02 -0.29686788568E+02  0.22098468114E+01  0.34200686665E+02  0.47000000000E+01 0.  1.
          1    1    1    2  502    0 -0.95596582081E+02  0.39722080058E+02 -0.86173904956E+03  0.86793475543E+03  0.00000000000E+00 0. -1.
          1    1    1    2  503    0 -0.13441940224E+02  0.29557825750E+02  0.17124658510E+04  0.17127736692E+04  0.00000000000E+00 0. -1.
<mgrwt>
<rscale>  0 0.58046917E+02</rscale>
<asrwt>0</asrwt>
<pdfrwt beam="1">  1        2 0.36958894E+00 0.32470769E+02</pdfrwt>
<pdfrwt beam="2">  1        2 0.14500407E+00 0.10376855E+03</pdfrwt>
<totfact> 0.28033537E+01</totfact>
</mgrwt>
</event>
<event>
13    1  0.1589573E-008  0.1223314E+03  0.7546771E-02  0.1368025E+00
          2   -1    0    0  502    0  0.00000000000E+00  0.00000000000E+00  0.26582371457E+03  0.26582371457E+03  0.00000000000E+00 0. -1.
          2   -1    0    0  503    0 -0.00000000000E+00 -0.00000000000E+00 -0.31814685245E+04  0.31814685245E+04  0.00000000000E+00 0. -1.
         24    2    1    2    0    0  0.43764140336E+02  0.43123879139E+02 -0.25851925220E+04  0.25872118587E+04  0.81669192381E+02 0.  0.
         25    2    1    2    0    0 -0.41799617192E+02  0.14486557705E+03 -0.40395677931E+02  0.19997622463E+03  0.12500174483E+03 0.  0.
         24    2    1    2    0    0  0.74549038355E+02 -0.11663399468E+03 -0.20164182463E+03  0.25679326556E+03  0.78245178518E+02 0.  0.
        -13    1    3    3    0    0  0.32532022202E+02 -0.47295007371E+01 -0.18891011080E+04  0.18893871220E+04  0.00000000000E+00 0.  1.
         14    1    3    3    0    0  0.11232118135E+02  0.47853379876E+02 -0.69609141406E+03  0.69782473672E+03  0.00000000000E+00 0. -1.
        -13    1    5    5    0    0 -0.13827832541E+02 -0.30186871157E+02 -0.61689986790E+02  0.70057908998E+02  0.00000000000E+00 0.  1.
         14    1    5    5    0    0  0.88376870896E+02 -0.86447123520E+02 -0.13995183784E+03  0.18673535656E+03  0.00000000000E+00 0. -1.
          5    1    4    4  501    0 -0.47148731467E+02  0.88473185119E+02 -0.81946873730E+02  0.12956808048E+03  0.47000000000E+01 0.  1.
         -5    1    4    4    0  501  0.53491142744E+01  0.56392391930E+02  0.41551195799E+02  0.70408144156E+02  0.47000000000E+01 0.  1.
          1    1    1    2  502    0 -0.69320258169E+02 -0.10814654791E+03  0.12937678509E+03  0.18231655585E+03  0.00000000000E+00 0. -1.
          1    1    1    2  503    0 -0.71933033299E+01  0.36791086401E+02 -0.21779157040E+03  0.22099433429E+03  0.00000000000E+00 0. -1.
<mgrwt>
<rscale>  0 0.67719440E+02</rscale>
<asrwt>0</asrwt>
<pdfrwt beam="1">  1        2 0.39091725E-01 0.12233139E+03</pdfrwt>
<pdfrwt beam="2">  1        2 0.46786299E+00 0.37487700E+02</pdfrwt>
<totfact> 0.55168257E+01</totfact>
</mgrwt>
</event>
<event>
13    1  0.1589573E-008  0.8936599E+02  0.7546771E-02  0.1353508E+00
          2   -1    0    0  502    0  0.00000000000E+00  0.00000000000E+00  0.16021305747E+04  0.16021305747E+04  0.00000000000E+00 0. -1.
          2   -1    0    0  503    0 -0.00000000000E+00 -0.00000000000E+00 -0.24691227653E+04  0.24691227653E+04  0.00000000000E+00 0. -1.
         24    2    1    2    0    0  0.81224562069E+03 -0.48202652983E+03 -0.36174279463E+03  0.10146633492E+04  0.81187061874E+02 0.  0.
         25    2    1    2    0    0 -0.63387914579E+03 -0.25919614019E+03 -0.43817558588E+03  0.82256281684E+03  0.12500533202E+03 0.  0.
         24    2    1    2    0    0 -0.31943952745E+03  0.71757674942E+03  0.33406955089E+03  0.85597756224E+03  0.64320441704E+02 0.  0.
        -13    1    5    5    0    0 -0.31488649550E+03  0.69686844212E+03  0.33474138662E+03  0.83476399455E+03  0.00000000000E+00 0.  1.
         14    1    5    5    0    0 -0.45530319454E+01  0.20708307299E+02 -0.67183572711E+00  0.21213567695E+02  0.00000000000E+00 0. -1.
        -13    1    3    3    0    0  0.43391094813E+03 -0.21896736230E+03 -0.21074363310E+03  0.52975305148E+03  0.00000000000E+00 0.  1.
         14    1    3    3    0    0  0.37833467256E+03 -0.26305916753E+03 -0.15099916154E+03  0.48491029775E+03  0.00000000000E+00 0. -1.
          5    1    4    4  501    0 -0.39260004884E+02 -0.46204251854E+02 -0.64616830165E+02  0.88733339920E+02  0.47000000000E+01 0.  1.
         -5    1    4    4    0  501 -0.59461914091E+03 -0.21299188833E+03 -0.37355875571E+03  0.73382947692E+03  0.47000000000E+01 0.  1.
          1    1    1    2  502    0  0.83601484266E+02  0.31200750038E+02  0.48342111122E+03  0.49158790236E+03  0.00000000000E+00 0. -1.
          1    1    1    2  503    0  0.57471568287E+02 -0.75548294381E+01 -0.88456447221E+03  0.88646170932E+03  0.00000000000E+00 0. -1.
<mgrwt>
<rscale>  0 0.71973526E+02</rscale>
<asrwt>0</asrwt>
<pdfrwt beam="1">  1        2 0.23560744E+00 0.89365989E+02</pdfrwt>
<pdfrwt beam="2">  1        2 0.36310628E+00 0.57965995E+02</pdfrwt>
<totfact> 0.13051997E+01</totfact>
</mgrwt>
</event>
<event>
13    1  0.1589573E-008  0.4235552E+03  0.7546771E-02  0.1197813E+00
          2   -1    0    0  503    0  0.00000000000E+00  0.00000000000E+00  0.27006001402E+04  0.27006001402E+04  0.00000000000E+00 0. -1.
          2   -1    0    0  502    0 -0.00000000000E+00 -0.00000000000E+00 -0.52982745223E+03  0.52982745223E+03  0.00000000000E+00 0. -1.
         24    2    1    2    0    0 -0.27654777566E+02 -0.46544226496E+02 -0.62463859416E-01  0.96230042542E+02  0.79555423722E+02 0.  0.
         25    2    1    2    0    0 -0.35674069253E+03  0.33784583856E+03  0.65850839227E+03  0.83106073439E+03  0.12499963688E+03 0.  0.
         24    2    1    2    0    0 -0.10408221206E+02 -0.73371974992E+02  0.17547023507E+03  0.20730437759E+03  0.81813958413E+02 0.  0.
        -13    1    3    3    0    0 -0.29394270533E+01  0.18820761221E+02  0.15592065631E+02  0.24616534991E+02  0.00000000000E+00 0.  1.
         14    1    3    3    0    0 -0.24715350512E+02 -0.65364987717E+02 -0.15654529490E+02  0.71613507551E+02  0.00000000000E+00 0. -1.
        -13    1    5    5    0    0 -0.38101590329E+02 -0.71335829616E+02  0.14537081171E+03  0.16635265153E+03  0.00000000000E+00 0.  1.
         14    1    5    5    0    0  0.27693369122E+02 -0.20361453762E+01  0.30099423362E+02  0.40951726070E+02  0.00000000000E+00 0. -1.
          5    1    4    4  501    0 -0.41324403527E+02  0.10357214970E+03  0.11356211123E+03  0.15922732060E+03  0.47000000000E+01 0.  1.
         -5    1    4    4    0  501 -0.31541628901E+03  0.23427368886E+03  0.54494628104E+03  0.67183341379E+03  0.47000000000E+01 0.  1.
          1    1    1    2  502    0  0.20146763898E+02 -0.50834101001E+02 -0.35283921685E+03  0.35705113201E+03  0.00000000000E+00 0. -1.
          1    1    1    2  503    0  0.37465692741E+03 -0.16709553607E+03  0.16896957413E+04  0.17387813058E+04  0.00000000000E+00 0. -1.
<mgrwt>
<rscale>  0 0.15218530E+03</rscale>
<asrwt>0</asrwt>
<pdfrwt beam="1">  1        2 0.39714707E+00 0.42355515E+03</pdfrwt>
<pdfrwt beam="2">  1        2 0.77915803E-01 0.54680873E+02</pdfrwt>
<totfact> 0.33623781E+01</totfact>
</mgrwt>
</event>
<event>
13    1  0.1589573E-008  0.1027358E+03  0.7546771E-02  0.1333171E+00
          2   -1    0    0  503    0  0.00000000000E+00  0.00000000000E+00  0.64629773970E+03  0.64629773970E+03  0.00000000000E+00 0. -1.
         -1   -1    0    0    0  501 -0.00000000000E+00 -0.00000000000E+00 -0.45829828109E+03  0.45829828109E+03  0.00000000000E+00 0.  1.
         24    2    1    2    0    0 -0.32022893099E+02 -0.11934670806E+03 -0.24588381006E+03  0.28676573888E+03  0.80663737430E+02 0.  0.
         25    2    1    2    0    0  0.27918208566E+02  0.18735031401E+02 -0.62433726255E+02  0.14371158611E+03  0.12499848814E+03 0.  0.
         24    2    1    2    0    0 -0.68009391145E+02  0.15815416905E+03  0.34465358539E+03  0.39379476796E+03  0.81548800613E+02 0.  0.
        -11    1    3    3    0    0  0.97668895302E+01 -0.10055915239E+03 -0.18179240298E+03  0.20798079969E+03  0.00000000000E+00 0.  1.
         12    1    3    3    0    0 -0.41789782630E+02 -0.18787555669E+02 -0.64091407084E+02  0.78784939184E+02  0.00000000000E+00 0. -1.
        -13    1    5    5    0    0 -0.49371048241E+02  0.33314308401E+02  0.72743633462E+02  0.94015848440E+02  0.00000000000E+00 0.  1.
         14    1    5    5    0    0 -0.18638342903E+02  0.12483986065E+03  0.27190995193E+03  0.29977891952E+03  0.00000000000E+00 0. -1.
          5    1    4    4  502    0 -0.16082244795E+02  0.45671370944E+02  0.14678367948E+02  0.50813946975E+02  0.47000000000E+01 0. -1.
         -5    1    4    4    0  502  0.44000453362E+02 -0.26936339543E+02 -0.77112094203E+02  0.92897639133E+02  0.47000000000E+01 0. -1.
          1    1    1    2  503    0  0.10346698387E+03 -0.62893110950E+01  0.18466915811E+03  0.21177268507E+03  0.00000000000E+00 0. -1.
         -2    1    1    2    0  501 -0.31352908197E+02 -0.51253181303E+02 -0.33005748571E+02  0.68551242766E+02  0.00000000000E+00 0.  1.
<mgrwt>
<rscale>  0 0.78565984E+02</rscale>
<asrwt>0</asrwt>
<pdfrwt beam="1">  1        2 0.95043785E-01 0.10273583E+03</pdfrwt>
<pdfrwt beam="2">  1       -1 0.67396806E-01 0.60082389E+02</pdfrwt>
<totfact> 0.13733150E+02</totfact>
</mgrwt>
</event>
<event>
13    1  0.1589573E-008  0.4888256E+02  0.7546771E-02  0.1496617E+00
          4   -1    0    0  503    0 -0.00000000000E+00  0.00000000000E+00  0.55352766711E+03  0.55352766711E+03  0.00000000000E+00 0. -1.
          2   -1    0    0  502    0  0.00000000000E+00 -0.00000000000E+00 -0.70209434036E+03  0.70209434036E+03  0.00000000000E+00 0. -1.
         24    2    1    2    0    0  0.25937842289E+02 -0.54714101225E+02  0.26222326433E+03  0.28111537471E+03  0.81230591573E+02 0.  0.
         25    2    1    2    0    0 -0.37852508890E+02  0.50859419541E+02 -0.32185059201E+03  0.35104528332E+03  0.12500197752E+03 0.  0.
         24    2    1    2    0    0  0.29441534319E+02  0.20928437465E+02 -0.11300486164E+02  0.89029976933E+02  0.80584318371E+02 0.  0.
        -11    1    5    5    0    0 -0.19337307107E+02  0.18723769882E+02  0.17722300504E+02  0.32227177038E+02  0.00000000000E+00 0.  1.
         12    1    5    5    0    0  0.48778841425E+02  0.22046675838E+01 -0.29022786667E+02  0.56802799895E+02  0.00000000000E+00 0. -1.
        -11    1    3    3    0    0  0.22099700010E+02  0.16784612576E+02  0.50643922248E+02  0.57748825274E+02  0.00000000000E+00 0.  1.
         12    1    3    3    0    0  0.38381422795E+01 -0.71498713801E+02  0.21157934208E+03  0.22336654943E+03  0.00000000000E+00 0. -1.
          5    1    4    4  501    0 -0.63641651224E+02  0.70538207522E+02 -0.16194067908E+03  0.18781046837E+03  0.47000000000E+01 0.  1.
         -5    1    4    4    0  501  0.25789142334E+02 -0.19678787981E+02 -0.15990991293E+03  0.16323481495E+03  0.47000000000E+01 0.  1.
          1    1    1    2  502    0 -0.15295401283E+02  0.31965529139E+02 -0.30235055999E+03  0.30442011346E+03  0.00000000000E+00 0. -1.
          3    1    1    2  503    0 -0.22314664343E+01 -0.49039284920E+02  0.22471170059E+03  0.23001125905E+03  0.00000000000E+00 0. -1.
<mgrwt>
<rscale>  0 0.41620018E+02</rscale>
<asrwt>0</asrwt>
<pdfrwt beam="2">  1        2 0.10324917E+00 0.35436483E+02</pdfrwt>
<pdfrwt beam="1">  1        4 0.81401128E-01 0.48882556E+02</pdfrwt>
<totfact> 0.31046548E+01</totfact>
</mgrwt>
</event>
<event>
13    1  0.1589573E-008  0.2031974E+03  0.7546771E-02  0.1199837E+00
          2   -1    0    0  503    0  0.00000000000E+00  0.00000000000E+00  0.24424882432E+04  0.24424882432E+04  0.00000000000E+00 0. -1.
          2   -1    0    0  502    0 -0.00000000000E+00 -0.00000000000E+00 -0.13640316402E+04  0.13640316402E+04  0.00000000000E+00 0. -1.
         24    2    1    2    0    0  0.24378470593E+02  0.75789003447E+02 -0.41886529527E+02  0.11969938657E+03  0.78963149104E+02 0.  0.
         25    2    1    2    0    0 -0.40360263117E+01  0.14924844996E+02 -0.34945201544E+03  0.37146044623E+03  0.12500844577E+03 0.  0.
         24    2    1    2    0    0  0.68096931811E+02  0.16578334893E+03  0.75781404083E+03  0.78296501923E+03  0.81429662581E+02 0.  0.
        -11    1    5    5    0    0 -0.12145393137E+00 -0.82275067571E+01  0.16313051196E+02  0.18270803425E+02  0.00000000000E+00 0.  1.
         12    1    5    5    0    0  0.68218385742E+02  0.17401085569E+03  0.74150098964E+03  0.76469421580E+03  0.00000000000E+00 0. -1.
        -13    1    3    3    0    0 -0.23900788558E+02  0.12611677188E+02 -0.28126041027E+02  0.39004823792E+02  0.00000000000E+00 0.  1.
         14    1    3    3    0    0  0.48279259152E+02  0.63177326258E+02 -0.13760488501E+02  0.80694562773E+02  0.00000000000E+00 0. -1.
          5    1    4    4  501    0  0.50569298458E+02  0.34656157044E+02 -0.12134300189E+03  0.13603130991E+03  0.47000000000E+01 0. -1.
         -5    1    4    4    0  501 -0.54605324769E+02 -0.19731312048E+02 -0.22810901355E+03  0.23542913633E+03  0.47000000000E+01 0. -1.
          1    1    1    2  502    0 -0.12530105167E+03 -0.28954189249E+02 -0.89741111100E+03  0.90657895451E+03  0.00000000000E+00 0. -1.
          1    1    1    2  503    0  0.36861675573E+02 -0.22754300813E+03  0.16093922181E+04  0.16258160768E+04  0.00000000000E+00 0. -1.
<mgrwt>
<rscale>  0 0.15051847E+03</rscale>
<asrwt>0</asrwt>
<pdfrwt beam="1">  1        2 0.35918945E+00 0.20319738E+03</pdfrwt>
<pdfrwt beam="2">  1        2 0.20059289E+00 0.11149657E+03</pdfrwt>
<totfact> 0.14833124E+01</totfact>
</mgrwt>
</event>
<event>
13    1  0.1589573E-008  0.1228069E+03  0.7546771E-02  0.1279631E+00
          2   -1    0    0  502    0  0.00000000000E+00  0.00000000000E+00  0.14606389415E+04  0.14606389415E+04  0.00000000000E+00 0. -1.
          2   -1    0    0  503    0 -0.00000000000E+00 -0.00000000000E+00 -0.70455913641E+03  0.70455913641E+03  0.00000000000E+00 0. -1.
         24    2    1    2    0    0 -0.63812290731E+02 -0.88439225628E+02  0.13733928786E+03  0.19250893398E+03  0.79398391627E+02 0.  0.
         25    2    1    2    0    0  0.12921127098E+03  0.16624450358E+03  0.56573281196E+02  0.25131421480E+03  0.12500204358E+03 0.  0.
         24    2    1    2    0    0  0.18769766639E+02 -0.15044826849E+02  0.76965610157E+02  0.12319536691E+03  0.93138296774E+02 0.  0.
        -11    1    3    3    0    0  0.10473595593E+02 -0.36542241292E+02  0.69836127418E+02  0.79511736844E+02  0.00000000000E+00 0.  1.
         12    1    3    3    0    0 -0.74285886324E+02 -0.51896984336E+02  0.67503160441E+02  0.11299719713E+03  0.00000000000E+00 0. -1.
        -13    1    5    5    0    0 -0.16884764685E+02 -0.25706506633E+02 -0.68323703182E+01  0.31505571665E+02  0.00000000000E+00 0.  1.
         14    1    5    5    0    0  0.35654531325E+02  0.10661679785E+02  0.83797980475E+02  0.91689795242E+02  0.00000000000E+00 0. -1.
          5    1    4    4  501    0  0.13441517034E+03  0.17243504341E+03  0.27059112316E+02  0.22035327947E+03  0.47000000000E+01 0. -1.
         -5    1    4    4    0  501 -0.52038993610E+01 -0.61905398336E+01  0.29514168880E+02  0.30960935333E+02  0.47000000000E+01 0. -1.
          1    1    1    2  502    0  0.39679703613E+02 -0.71698074793E+02  0.10331213299E+04  0.10363661395E+04  0.00000000000E+00 0. -1.
          1    1    1    2  503    0 -0.12384845050E+03  0.89376236932E+01 -0.54791970406E+03  0.56181342269E+03  0.00000000000E+00 0. -1.
<mgrwt>
<rscale>  0 0.10031698E+03</rscale>
<asrwt>0</asrwt>
<pdfrwt beam="1">  1        2 0.21479984E+00 0.81945670E+02</pdfrwt>
<pdfrwt beam="2">  1        2 0.10361164E+00 0.12280695E+03</pdfrwt>
<totfact> 0.11908923E+02</totfact>
</mgrwt>
</event>
<event>
13    1  0.1589573E-008  0.1306011E+03  0.7546771E-02  0.1385443E+00
          2   -1    0    0  502    0  0.00000000000E+00  0.00000000000E+00  0.10754043546E+04  0.10754043546E+04  0.00000000000E+00 0. -1.
          2   -1    0    0  503    0 -0.00000000000E+00 -0.00000000000E+00 -0.25532471426E+04  0.25532471426E+04  0.00000000000E+00 0. -1.
         24    2    1    2    0    0  0.25307185575E+03  0.64340311536E+03 -0.37734506729E+03  0.79167827413E+03  0.79701047058E+02 0.  0.
         25    2    1    2    0    0 -0.10524192164E+03 -0.40144782276E+03  0.18861457818E+03  0.47269253668E+03  0.12500623448E+03 0.  0.
         24    2    1    2    0    0 -0.16140820973E+03 -0.85517091768E+02 -0.37999517818E+01  0.19803962086E+03  0.76416416052E+02 0.  0.
        -11    1    3    3    0    0  0.16413912164E+02  0.11627802778E+03 -0.77490943044E+02  0.14069414526E+03  0.00000000000E+00 0.  1.
         12    1    3    3    0    0  0.23665794358E+03  0.52712508757E+03 -0.29985412424E+03  0.65098412887E+03  0.00000000000E+00 0. -1.
        -13    1    5    5    0    0 -0.38774850990E+02 -0.61537117627E+02  0.39666918363E+01  0.72842573810E+02  0.00000000000E+00 0.  1.
         14    1    5    5    0    0 -0.12263335874E+03 -0.23979974141E+02 -0.77666436181E+01  0.12519704705E+03  0.00000000000E+00 0. -1.
          5    1    4    4  501    0 -0.12563728929E+03 -0.24307720374E+03  0.12112774606E+03  0.29927458345E+03  0.47000000000E+01 0. -1.
         -5    1    4    4    0  501  0.20395367642E+02 -0.15837061902E+03  0.67486832120E+02  0.17341795322E+03  0.47000000000E+01 0. -1.
          1    1    1    2  502    0 -0.11195497088E+02 -0.28309536185E+02  0.43746751506E+03  0.43852547900E+03  0.00000000000E+00 0. -1.
          1    1    1    2  503    0  0.24773772716E+02 -0.12812866465E+03 -0.17227798622E+04  0.17277155866E+04  0.00000000000E+00 0. -1.
<mgrwt>
<rscale>  0 0.63054531E+02</rscale>
<asrwt>0</asrwt>
<pdfrwt beam="1">  1        2 0.15814770E+00 0.30442881E+02</pdfrwt>
<pdfrwt beam="2">  1        2 0.37547752E+00 0.13060110E+03</pdfrwt>
<totfact> 0.21013996E+01</totfact>
</mgrwt>
</event>
<event>
13    1  0.1589573E-008  0.7389989E+02  0.7546771E-02  0.1388859E+00
          2   -1    0    0  502    0  0.00000000000E+00  0.00000000000E+00  0.12071338546E+04  0.12071338546E+04  0.00000000000E+00 0. -1.
          2   -1    0    0  503    0 -0.00000000000E+00 -0.00000000000E+00 -0.32766615313E+04  0.32766615313E+04  0.00000000000E+00 0. -1.
         24    2    1    2    0    0  0.44876638890E+02  0.10989243599E+02 -0.67049187608E+03  0.67645273882E+03  0.76774186903E+02 0.  0.
         25    2    1    2    0    0 -0.10819151520E+03 -0.70204810009E+02  0.21435879007E+03  0.27966148040E+03  0.12500693352E+03 0.  0.
         24    2    1    2    0    0 -0.31593161990E+02 -0.45914624480E+01 -0.75097505039E+01  0.85475705906E+02  0.78933456377E+02 0.  0.
        -11    1    5    5    0    0 -0.58719550495E+01  0.31161325038E+02  0.16035291492E+02  0.35533626433E+02  0.00000000000E+00 0.  1.
         12    1    5    5    0    0 -0.25721206940E+02 -0.35752787486E+02 -0.23545041996E+02  0.49942079473E+02  0.00000000000E+00 0. -1.
        -13    1    3    3    0    0  0.65350538800E+02 -0.19113330875E+01 -0.48194218355E+03  0.48635646844E+03  0.00000000000E+00 0.  1.
         14    1    3    3    0    0 -0.20473899910E+02  0.12900576687E+02 -0.18854969253E+03  0.19009627037E+03  0.00000000000E+00 0. -1.
          5    1    4    4  501    0  0.88798579982E+01 -0.22244073431E+02  0.11816806711E+03  0.12066247456E+03  0.47000000000E+01 0. -1.
         -5    1    4    4    0  501 -0.11707137320E+03 -0.47960736577E+02  0.96190722955E+02  0.15899900584E+03  0.47000000000E+01 0. -1.
          1    1    1    2  502    0  0.23005665937E+02  0.47010796061E+02  0.91687383905E+03  0.91836643686E+03  0.00000000000E+00 0. -1.
          1    1    1    2  503    0  0.71902372363E+02  0.16796232797E+02 -0.25227586792E+04  0.25238390238E+04  0.00000000000E+00 0. -1.
<mgrwt>
<rscale>  0 0.62191470E+02</rscale>
<asrwt>0</asrwt>
<pdfrwt beam="1">  1        2 0.17751969E+00 0.52338089E+02</pdfrwt>
<pdfrwt beam="2">  1        2 0.48186198E+00 0.73899887E+02</pdfrwt>
<totfact> 0.78786073E+00</totfact>
</mgrwt>
</event>
<event>
13    1  0.1589573E-008  0.2792651E+03  0.7546771E-02  0.1164574E+00
          2   -1    0    0  502    0  0.00000000000E+00  0.00000000000E+00  0.42411324324E+04  0.42411324324E+04  0.00000000000E+00 0. -1.
          2   -1    0    0  503    0 -0.00000000000E+00 -0.00000000000E+00 -0.15005320800E+04  0.15005320800E+04  0.00000000000E+00 0. -1.
         24    2    1    2    0    0 -0.16565272423E+03 -0.86350956713E+02 -0.87777291717E+02  0.22407566103E+03  0.87222337478E+02 0.  0.
         25    2    1    2    0    0 -0.12858247757E+03 -0.67033351814E+02  0.16067173520E+03  0.24993598070E+03  0.12500265662E+03 0.  0.
         24    2    1    2    0    0 -0.59716822176E+02 -0.53974375415E+02  0.42662978699E+03  0.44157035737E+03  0.80573403259E+02 0.  0.
        -13    1    3    3    0    0 -0.11361595221E+03 -0.99625555728E+02 -0.53182953782E+02  0.16019445222E+03  0.00000000000E+00 0.  1.
         14    1    3    3    0    0 -0.52036772027E+02  0.13274599015E+02 -0.34594337935E+02  0.63881208811E+02  0.00000000000E+00 0. -1.
        -13    1    5    5    0    0 -0.56097467830E+01 -0.85194125011E+01  0.11533783953E+01  0.10265472715E+02  0.00000000000E+00 0.  1.
         14    1    5    5    0    0 -0.54107075393E+02 -0.45454962914E+02  0.42547640859E+03  0.43130488466E+03  0.00000000000E+00 0. -1.
          5    1    4    4  501    0 -0.11733567730E+02 -0.67361314853E+02  0.30703555912E+02  0.75100077869E+02  0.47000000000E+01 0. -1.
         -5    1    4    4    0  501 -0.11684890984E+03  0.32796303913E+00  0.12996817929E+03  0.17483590283E+03  0.47000000000E+01 0. -1.
          1    1    1    2  502    0  0.15604010226E+03 -0.27792315823E+02  0.35134957371E+04  0.35170688394E+04  0.00000000000E+00 0. -1.
          1    1    1    2  503    0  0.19791192172E+03  0.23515099977E+03 -0.12724196152E+04  0.13090136739E+04  0.00000000000E+00 0. -1.
<mgrwt>
<rscale>  0 0.18337716E+03</rscale>
<asrwt>0</asrwt>
<pdfrwt beam="1">  1        2 0.62369594E+00 0.12041314E+03</pdfrwt>
<pdfrwt beam="2">  1        2 0.22066648E+00 0.27926507E+03</pdfrwt>
<totfact> 0.11142929E+00</totfact>
</mgrwt>
</event>
<event>
13    1  0.1589573E-008  0.5259843E+02  0.7546771E-02  0.1506053E+00
          2   -1    0    0  502    0  0.00000000000E+00  0.00000000000E+00  0.29639961305E+04  0.29639961305E+04  0.00000000000E+00 0. -1.
          2   -1    0    0  503    0 -0.00000000000E+00 -0.00000000000E+00 -0.24970461922E+04  0.24970461922E+04  0.00000000000E+00 0. -1.
         24    2    1    2    0    0  0.18406082748E+03 -0.13441517610E+03 -0.10711800411E+04  0.10968819460E+04  0.61461330083E+02 0.  0.
         25    2    1    2    0    0 -0.29667924522E+03  0.38674300849E+03 -0.17308060991E+03  0.53213654434E+03  0.12499470041E+03 0.  0.
         24    2    1    2    0    0  0.13540320934E+03 -0.17937113269E+03  0.36900644753E+02  0.24147760909E+03  0.80260486962E+02 0.  0.
        -11    1    5    5    0    0  0.62912615892E+02 -0.13450975914E+03 -0.22398159182E+00  0.14849553095E+03  0.00000000000E+00 0.  1.
         12    1    5    5    0    0  0.72490593445E+02 -0.44861373543E+02  0.37124626345E+02  0.92982078141E+02  0.00000000000E+00 0. -1.
        -13    1    3    3    0    0  0.36214254496E+02 -0.30207781021E+02 -0.12570162360E+03  0.13425677055E+03  0.00000000000E+00 0.  1.
         14    1    3    3    0    0  0.14784657299E+03 -0.10420739508E+03 -0.94547841752E+03  0.96262517541E+03  0.00000000000E+00 0. -1.
          5    1    4    4  501    0 -0.19976948164E+03  0.33193554287E+03 -0.16271136667E+03  0.42022152403E+03  0.47000000000E+01 0.  1.
         -5    1    4    4    0  501 -0.96909763585E+02  0.54807465625E+02 -0.10369243242E+02  0.11191502031E+03  0.47000000000E+01 0.  1.
          1    1    1    2  502    0 -0.30272626684E+02 -0.43009302563E+02  0.26319166415E+04  0.26324421057E+04  0.00000000000E+00 0. -1.
          1    1    1    2  503    0  0.74878350879E+01 -0.29947397139E+02 -0.95760669694E+03  0.95810411767E+03  0.00000000000E+00 0. -1.
<mgrwt>
<rscale>  0 0.40294877E+02</rscale>
<asrwt>0</asrwt>
<pdfrwt beam="1">  1        2 0.43588179E+00 0.52598426E+02</pdfrwt>
<pdfrwt beam="2">  1        2 0.36721267E+00 0.30869310E+02</pdfrwt>
<totfact> 0.32238672E+00</totfact>
</mgrwt>
</event>
<event>
13    1  0.1589573E-008  0.2246318E+03  0.7546771E-02  0.1363526E+00
          2   -1    0    0  502    0  0.00000000000E+00  0.00000000000E+00  0.26629054080E+04  0.26629054080E+04  0.00000000000E+00 0. -1.
          2   -1    0    0  503    0 -0.00000000000E+00 -0.00000000000E+00 -0.17935930446E+04  0.17935930446E+04  0.00000000000E+00 0. -1.
         24    2    1    2    0    0  0.50404168078E+02  0.12850638421E+02 -0.74204317981E+03  0.75076288479E+03  0.10154363297E+03 0.  0.
         25    2    1    2    0    0 -0.90529666250E+03 -0.68426801420E+02  0.13390505801E+04  0.16226294716E+04  0.12500268598E+03 0.  0.
         24    2    1    2    0    0  0.48047600362E+03  0.21151800312E+03  0.78389289057E+03  0.94702429092E+03  0.82279329138E+02 0.  0.
        -13    1    3    3    0    0 -0.27019533235E+02 -0.10441527223E+02 -0.11797558994E+03  0.12147971225E+03  0.00000000000E+00 0.  1.
         14    1    3    3    0    0  0.77423701313E+02  0.23292165643E+02 -0.62406758988E+03  0.62928317254E+03  0.00000000000E+00 0. -1.
        -13    1    5    5    0    0  0.23096707095E+03  0.64767691608E+02  0.39678205686E+03  0.46365573693E+03  0.00000000000E+00 0.  1.
         14    1    5    5    0    0  0.24950893267E+03  0.14675031151E+03  0.38711083370E+03  0.48336855398E+03  0.00000000000E+00 0. -1.
          5    1    4    4  501    0 -0.39651769390E+02 -0.29236596394E+02  0.61871709156E+02  0.79229033683E+02  0.47000000000E+01 0.  1.
         -5    1    4    4    0  501 -0.86564489311E+03 -0.39190205025E+02  0.12771788710E+04  0.15434004379E+04  0.47000000000E+01 0.  1.
          1    1    1    2  502    0  0.42766574450E+01  0.20758861189E+02  0.26074040769E+03  0.26160042110E+03  0.00000000000E+00 0. -1.
          1    1    1    2  503    0  0.37013983336E+03 -0.17670070131E+03 -0.77232833517E+03  0.87448138424E+03  0.00000000000E+00 0. -1.
<mgrwt>
<rscale>  0 0.69000212E+02</rscale>
<asrwt>0</asrwt>
<pdfrwt beam="1">  1        2 0.39160374E+00 0.21194813E+02</pdfrwt>
<pdfrwt beam="2">  1        2 0.26376368E+00 0.22463181E+03</pdfrwt>
<totfact> 0.91650611E+00</totfact>
</mgrwt>
</event>
<event>
13    1  0.1589573E-008  0.1504867E+03  0.7546771E-02  0.1366592E+00
          2   -1    0    0  503    0  0.00000000000E+00  0.00000000000E+00  0.20013308130E+04  0.20013308130E+04  0.00000000000E+00 0. -1.
          2   -1    0    0  502    0 -0.00000000000E+00 -0.00000000000E+00 -0.22707577408E+04  0.22707577408E+04  0.00000000000E+00 0. -1.
         24    2    1    2    0    0  0.96816430394E+01 -0.26208845867E+02 -0.11339278960E+03  0.14186203741E+03  0.80537414359E+02 0.  0.
         25    2    1    2    0    0  0.48672561620E+01 -0.64334780058E+02  0.14238006876E+03  0.20015021677E+03  0.12500148473E+03 0.  0.
         24    2    1    2    0    0  0.69041274026E+02 -0.51307614295E+02 -0.85042199473E+02  0.14529053536E+03  0.80485993635E+02 0.  0.
        -11    1    3    3    0    0  0.12200495354E+02  0.26349633456E+02 -0.22099562658E+02  0.36490354065E+02  0.00000000000E+00 0.  1.
         12    1    3    3    0    0 -0.25188523142E+01 -0.52558479323E+02 -0.91293226943E+02  0.10537168335E+03  0.00000000000E+00 0. -1.
        -11    1    5    5    0    0  0.35394510248E+02  0.14075743837E+02 -0.52539618797E+02  0.64894602731E+02  0.00000000000E+00 0.  1.
         12    1    5    5    0    0  0.33646763777E+02 -0.65383358132E+02 -0.32502580676E+02  0.80395932633E+02  0.00000000000E+00 0. -1.
          5    1    4    4  501    0  0.10464941714E+02  0.23724805273E+02 -0.63905962395E+01  0.27116620560E+02  0.47000000000E+01 0.  1.
         -5    1    4    4    0  501 -0.55976855522E+01 -0.88059585330E+02  0.14877066500E+03  0.17303359621E+03  0.47000000000E+01 0.  1.
          1    1    1    2  502    0 -0.99277145264E+02  0.11530012535E+03 -0.19960502378E+04  0.20018408084E+04  0.00000000000E+00 0. -1.
          1    1    1    2  503    0  0.15686972037E+02  0.26551114871E+02  0.17826782303E+04  0.17829449558E+04  0.00000000000E+00 0. -1.
<mgrwt>
<rscale>  0 0.68123830E+02</rscale>
<asrwt>0</asrwt>
<pdfrwt beam="1">  1        2 0.29431336E+00 0.30838982E+02</pdfrwt>
<pdfrwt beam="2">  1        2 0.33393496E+00 0.15048669E+03</pdfrwt>
<totfact> 0.10506380E+01</totfact>
</mgrwt>
</event>
<event>
13    1  0.1589573E-008  0.2063353E+03  0.7546771E-02  0.1238662E+00
          2   -1    0    0  503    0  0.00000000000E+00  0.00000000000E+00  0.14836328985E+04  0.14836328985E+04  0.00000000000E+00 0. -1.
         -1   -1    0    0    0  501 -0.00000000000E+00 -0.00000000000E+00 -0.15627131252E+04  0.15627131252E+04  0.00000000000E+00 0.  1.
         24    2    1    2    0    0  0.11660118167E+02  0.10481150275E+02 -0.64560126402E+03  0.65070145904E+03  0.79784608909E+02 0.  0.
         25    2    1    2    0    0 -0.24631274317E+02 -0.14838284162E+03 -0.30354212778E+03  0.36109115135E+03  0.12499931555E+03 0.  0.
         24    2    1    2    0    0 -0.10739122055E+03  0.38504611834E+03  0.19411804752E+02  0.40756916190E+03  0.77087068135E+02 0.  0.
        -11    1    3    3    0    0 -0.16374523942E+02  0.19786361033E+02 -0.73866005544E+02  0.78203656515E+02  0.00000000000E+00 0.  1.
         12    1    3    3    0    0  0.28034642108E+02 -0.93052107575E+01 -0.57173525848E+03  0.57249780252E+03  0.00000000000E+00 0. -1.
        -11    1    5    5    0    0 -0.62973463708E+02  0.97662585816E+02  0.13515304749E+01  0.11621301319E+03  0.00000000000E+00 0.  1.
         12    1    5    5    0    0 -0.44417756837E+02  0.28738353252E+03  0.18060274277E+02  0.29135614871E+03  0.00000000000E+00 0. -1.
          5    1    4    4  502    0  0.20162246914E+02 -0.13998836233E+03 -0.17765916582E+03  0.22713019832E+03  0.47000000000E+01 0.  1.
         -5    1    4    4    0  502 -0.44793521232E+02 -0.83944792909E+01 -0.12588296196E+03  0.13396095304E+03  0.47000000000E+01 0.  1.
          1    1    1    2  503    0  0.72330205010E+02 -0.19217356905E+03  0.12267758233E+04  0.12438413323E+04  0.00000000000E+00 0. -1.
         -2    1    1    2    0  501  0.48032171685E+02 -0.54970857943E+02 -0.37612446298E+03  0.38314291902E+03  0.00000000000E+00 0.  1.
<mgrwt>
<rscale>  0 0.12272861E+03</rscale>
<asrwt>0</asrwt>
<pdfrwt beam="1">  1        2 0.21818131E+00 0.20633528E+03</pdfrwt>
<pdfrwt beam="2">  1       -1 0.22981075E+00 0.72999211E+02</pdfrwt>
<totfact> 0.21634344E+00</totfact>
</mgrwt>
</event>
<event>
13    1  0.1589573E-008  0.8410899E+02  0.7546771E-02  0.1371271E+00
          2   -1    0    0  502    0  0.00000000000E+00  0.00000000000E+00  0.25186521659E+04  0.25186521659E+04  0.00000000000E+00 0. -1.
          2   -1    0    0  503    0 -0.00000000000E+00 -0.00000000000E+00 -0.22928504126E+04  0.22928504126E+04  0.00000000000E+00 0. -1.
         24    2    1    2    0    0 -0.12265513701E+02  0.34323457462E+02 -0.13515303914E+04  0.13539564701E+04  0.72354554312E+02 0.  0.
         25    2    1    2    0    0 -0.25569966405E+02 -0.57305914737E+02  0.35111614190E+03  0.37794917348E+03  0.12500096633E+03 0.  0.
         24    2    1    2    0    0 -0.58933396107E+02  0.36933844111E+01 -0.24173089930E+02  0.10100765166E+03  0.78303391697E+02 0.  0.
        -11    1    3    3    0    0 -0.32071191301E+02 -0.67323966815E+01 -0.40242046833E+03  0.40375254774E+03  0.00000000000E+00 0.  1.
         12    1    3    3    0    0  0.19805677600E+02  0.41055854143E+02 -0.94910992303E+03  0.95020392233E+03  0.00000000000E+00 0. -1.
        -13    1    5    5    0    0 -0.40095964034E+02  0.38472038619E+02 -0.18678847034E+01  0.55599218345E+02  0.00000000000E+00 0.  1.
         14    1    5    5    0    0 -0.18837432073E+02 -0.34778654208E+02 -0.22305205226E+02  0.45408433311E+02  0.00000000000E+00 0. -1.
          5    1    4    4  501    0 -0.42631934570E+02  0.11665260249E+02  0.25210025013E+03  0.25598864478E+03  0.47000000000E+01 0.  1.
         -5    1    4    4    0  501  0.17061968165E+02 -0.68971174987E+02  0.99015891774E+02  0.12196052870E+03  0.47000000000E+01 0.  1.
          1    1    1    2  502    0  0.78383880236E+02 -0.30502123817E+02  0.21128365948E+04  0.21145100824E+04  0.00000000000E+00 0. -1.
          1    1    1    2  503    0  0.18384995977E+02  0.49791196681E+02 -0.86244750215E+03  0.86407920083E+03  0.00000000000E+00 0. -1.
<mgrwt>
<rscale>  0 0.66815085E+02</rscale>
<asrwt>0</asrwt>
<pdfrwt beam="1">  1        2 0.37039003E+00 0.84108991E+02</pdfrwt>
<pdfrwt beam="2">  1        2 0.33718388E+00 0.53077032E+02</pdfrwt>
<totfact> 0.58279186E+00</totfact>
</mgrwt>
</event>
<event>
13    1  0.1589573E-008  0.7829228E+02  0.7546771E-02  0.1378832E+00
          2   -1    0    0  503    0  0.00000000000E+00  0.00000000000E+00  0.99898888207E+03  0.99898888207E+03  0.00000000000E+00 0. -1.
          2   -1    0    0  502    0 -0.00000000000E+00 -0.00000000000E+00 -0.15984887814E+04  0.15984887814E+04  0.00000000000E+00 0. -1.
         24    2    1    2    0    0  0.14536636783E+03 -0.76755173279E+02 -0.99209190911E+02  0.20891634063E+03  0.82345833541E+02 0.  0.
         25    2    1    2    0    0  0.51518369339E+02  0.98427466952E+02  0.28063076505E+03  0.32667940005E+03  0.12499478186E+03 0.  0.
         24    2    1    2    0    0 -0.11808243902E+03  0.74323593749E+02 -0.19938619960E+03  0.25639295905E+03  0.80715759712E+02 0.  0.
        -11    1    5    5    0    0 -0.71888280915E+02  0.68159321271E+02 -0.77111414773E+02  0.12553799543E+03  0.00000000000E+00 0.  1.
         12    1    5    5    0    0 -0.46194158106E+02  0.61642724787E+01 -0.12227478483E+03  0.13085496362E+03  0.00000000000E+00 0. -1.
        -13    1    3    3    0    0  0.69998741243E+01 -0.48921575227E+01 -0.41964098290E+02  0.42824257008E+02  0.00000000000E+00 0.  1.
         14    1    3    3    0    0  0.13836649371E+03 -0.71863015756E+02 -0.57245092620E+02  0.16609208363E+03  0.00000000000E+00 0. -1.
          5    1    4    4  501    0  0.17092666503E+02 -0.12184536089E+02  0.15197621567E+03  0.15349098442E+03  0.47000000000E+01 0.  1.
         -5    1    4    4    0  501  0.34425702836E+02  0.11061200304E+03  0.12865454938E+03  0.17318841563E+03  0.47000000000E+01 0.  1.
          1    1    1    2  502    0 -0.47696135847E+02 -0.24424396705E+02 -0.11904190646E+04  0.11916245306E+04  0.00000000000E+00 0. -1.
          1    1    1    2  503    0 -0.31106162302E+02 -0.71571490717E+02  0.60888379076E+03  0.61386443313E+03  0.00000000000E+00 0. -1.
<mgrwt>
<rscale>  0 0.64771753E+02</rscale>
<asrwt>0</asrwt>
<pdfrwt beam="1">  1        2 0.14691013E+00 0.78292284E+02</pdfrwt>
<pdfrwt beam="2">  1        2 0.23507188E+00 0.53586123E+02</pdfrwt>
<totfact> 0.70007013E+01</totfact>
</mgrwt>
</event>
<event>
13    1  0.1589573E-008  0.1429392E+03  0.7546771E-02  0.1231966E+00
          2   -1    0    0  502    0  0.00000000000E+00  0.00000000000E+00  0.16891155298E+04  0.16891155298E+04  0.00000000000E+00 0. -1.
          2   -1    0    0  503    0 -0.00000000000E+00 -0.00000000000E+00 -0.20977277916E+04  0.20977277916E+04  0.00000000000E+00 0. -1.
         24    2    1    2    0    0 -0.77739921851E+02  0.33752288092E+01 -0.11852301192E+03  0.16315804823E+03  0.80733863577E+02 0.  0.
         25    2    1    2    0    0  0.14412832923E+03  0.21238645051E+03 -0.82252681576E+02  0.29710481215E+03  0.12499914453E+03 0.  0.
         24    2    1    2    0    0 -0.84021934755E+02  0.49315365300E+02 -0.11993431998E+03  0.17421385799E+03  0.80464504175E+02 0.  0.
        -11    1    5    5    0    0 -0.86259244318E+02  0.23998656544E+02 -0.56485547480E+02  0.10586411016E+03  0.00000000000E+00 0.  1.
         12    1    5    5    0    0  0.22373095629E+01  0.25316708756E+02 -0.63448772505E+02  0.68349747832E+02  0.00000000000E+00 0. -1.
        -13    1    3    3    0    0 -0.46507917275E+02 -0.33798819528E+02 -0.37307383196E+02  0.68536030026E+02  0.00000000000E+00 0.  1.
         14    1    3    3    0    0 -0.31232004576E+02  0.37174048337E+02 -0.81215628725E+02  0.94622018203E+02  0.00000000000E+00 0. -1.
          5    1    4    4  501    0  0.13792727245E+03  0.10512400473E+03 -0.25020890487E+02  0.17528012956E+03  0.47000000000E+01 0.  1.
         -5    1    4    4    0  501  0.62010567793E+01  0.10726244577E+03 -0.57231791089E+02  0.12182468259E+03  0.47000000000E+01 0.  1.
          1    1    1    2  502    0 -0.71687916615E+02 -0.87090123103E+02  0.15240204256E+04  0.15281891586E+04  0.00000000000E+00 0. -1.
          1    1    1    2  503    0  0.89321443994E+02 -0.17798692151E+03 -0.16119226739E+04  0.16241774445E+04  0.00000000000E+00 0. -1.
<mgrwt>
<rscale>  0 0.12700658E+03</rscale>
<asrwt>0</asrwt>
<pdfrwt beam="1">  1        2 0.24839934E+00 0.11284990E+03</pdfrwt>
<pdfrwt beam="2">  1        2 0.30848938E+00 0.14293918E+03</pdfrwt>
<totfact> 0.15781246E+01</totfact>
</mgrwt>
</event>
<event>
13    1  0.1589573E-008  0.9924944E+02  0.7546771E-02  0.1432747E+00
          4   -1    0    0  503    0 -0.00000000000E+00  0.00000000000E+00  0.26686179767E+03  0.26686179767E+03  0.00000000000E+00 0. -1.
          2   -1    0    0  502    0  0.00000000000E+00 -0.00000000000E+00 -0.14705389236E+04  0.14705389236E+04  0.00000000000E+00 0. -1.
         24    2    1    2    0    0 -0.13641058543E+03  0.11087348556E+03 -0.40394752406E+02  0.19699486747E+03  0.79211515410E+02 0.  0.
         25    2    1    2    0    0 -0.18230476383E+02 -0.59203356972E+02 -0.38686988628E+03  0.41125400285E+03  0.12499663278E+03 0.  0.
         24    2    1    2    0    0  0.55759801457E+02 -0.31496391946E+02 -0.13283823946E+03  0.16790151709E+03  0.80272930764E+02 0.  0.
        -11    1    5    5    0    0  0.48997778350E+01  0.20816638049E+02 -0.71099217807E+01  0.22536442271E+02  0.00000000000E+00 0.  1.
         12    1    5    5    0    0  0.50860023622E+02 -0.52313029995E+02 -0.12572831768E+03  0.14536507482E+03  0.00000000000E+00 0. -1.
        -13    1    3    3    0    0 -0.10874189027E+03  0.65598203267E+02 -0.59964055713E+02  0.14044077381E+03  0.00000000000E+00 0.  1.
         14    1    3    3    0    0 -0.27668695155E+02  0.45275282288E+02  0.19569303307E+02  0.56554093661E+02  0.00000000000E+00 0. -1.
          5    1    4    4  501    0 -0.56987022530E+02 -0.66209479204E+02 -0.33335154454E+03  0.34463975122E+03  0.47000000000E+01 0. -1.
         -5    1    4    4    0  501  0.38756546147E+02  0.70061222321E+01 -0.53518341739E+02  0.66614251632E+02  0.47000000000E+01 0. -1.
          1    1    1    2  502    0 -0.13279098542E+00 -0.27678069176E+02 -0.78662596868E+03  0.78711276686E+03  0.00000000000E+00 0. -1.
          3    1    1    2  503    0  0.99014051338E+02  0.75043325386E+01  0.14305172093E+03  0.17413756697E+03  0.00000000000E+00 0. -1.
<mgrwt>
<rscale>  0 0.52412446E+02</rscale>
<asrwt>0</asrwt>
<pdfrwt beam="2">  1        2 0.21625573E+00 0.27678388E+02</pdfrwt>
<pdfrwt beam="1">  1        4 0.39244381E-01 0.99249440E+02</pdfrwt>
<totfact> 0.57893967E+01</totfact>
</mgrwt>
</event>
<event>
13    1  0.1589573E-008  0.1024966E+03  0.7546771E-02  0.1278261E+00
          2   -1    0    0  503    0  0.00000000000E+00  0.00000000000E+00  0.28580012912E+04  0.28580012912E+04  0.00000000000E+00 0. -1.
          2   -1    0    0  502    0 -0.00000000000E+00 -0.00000000000E+00 -0.19490726365E+04  0.19490726365E+04  0.00000000000E+00 0. -1.
         24    2    1    2    0    0 -0.65156471680E+03 -0.98445763283E+03 -0.14988697130E+03  0.11925619335E+04  0.77746061068E+02 0.  0.
         25    2    1    2    0    0  0.32504019115E+03  0.57300965933E+03 -0.25393269103E+03  0.71700507632E+03  0.12499308924E+03 0.  0.
         24    2    1    2    0    0  0.32785942486E+03  0.22803419610E+03  0.97589309097E+03  0.10575233612E+04  0.80603581384E+02 0.  0.
        -11    1    5    5    0    0  0.23334685583E+03  0.12707560813E+03  0.70418011853E+03  0.75264108621E+03  0.00000000000E+00 0.  1.
         12    1    5    5    0    0  0.94512569033E+02  0.10095858797E+03  0.27171297243E+03  0.30488227495E+03  0.00000000000E+00 0. -1.
        -11    1    3    3    0    0 -0.22590924339E+03 -0.37187401007E+03 -0.89059475367E+02  0.44413607799E+03  0.00000000000E+00 0.  1.
         12    1    3    3    0    0 -0.42565547341E+03 -0.61258362276E+03 -0.60827495935E+02  0.74842585550E+03  0.00000000000E+00 0. -1.
          5    1    4    4  501    0  0.28978053632E+03  0.56357583814E+03 -0.23953633196E+03  0.67748817621E+03  0.47000000000E+01 0.  1.
         -5    1    4    4    0  501  0.35259654823E+02  0.94338211843E+01 -0.14396359071E+02  0.39516900118E+02  0.47000000000E+01 0.  1.
          1    1    1    2  502    0 -0.42797196315E+02  0.92993237429E+02 -0.74578759854E+03  0.75278050211E+03  0.00000000000E+00 0. -1.
          1    1    1    2  503    0  0.41462297110E+02  0.90420539968E+02  0.10826428247E+04  0.10872030546E+04  0.00000000000E+00 0. -1.
<mgrwt>
<rscale>  0 0.10097377E+03</rscale>
<asrwt>0</asrwt>
<pdfrwt beam="1">  1        2 0.42029431E+00 0.99473595E+02</pdfrwt>
<pdfrwt beam="2">  1        2 0.28662833E+00 0.10249656E+03</pdfrwt>
<totfact> 0.51817278E+00</totfact>
</mgrwt>
</event>
<event>
13    1  0.1589573E-008  0.6758266E+02  0.7546771E-02  0.1431604E+00
          2   -1    0    0  503    0  0.00000000000E+00  0.00000000000E+00  0.12208971206E+04  0.12208971206E+04  0.00000000000E+00 0. -1.
          2   -1    0    0  502    0 -0.00000000000E+00 -0.00000000000E+00 -0.12624200986E+04  0.12624200986E+04  0.00000000000E+00 0. -1.
         24    2    1    2    0    0  0.72411970477E+02 -0.93359523456E+02 -0.23133069489E+03  0.27176937511E+03  0.79907501288E+02 0.  0.
         25    2    1    2    0    0 -0.19323442872E+03  0.15630428702E+03  0.82154063058E+03  0.86736679481E+03  0.12500229787E+03 0.  0.
         24    2    1    2    0    0  0.29408238766E+02 -0.26420176058E+02 -0.42690449900E+02  0.10001186674E+03  0.81345121343E+02 0.  0.
        -13    1    3    3    0    0 -0.12177176885E+02  0.46151351524E+01 -0.25251228533E+02  0.28411400032E+02  0.00000000000E+00 0.  1.
         14    1    3    3    0    0  0.84589147362E+02 -0.97974658609E+02 -0.20607946635E+03  0.24335797508E+03  0.00000000000E+00 0. -1.
        -13    1    5    5    0    0  0.27126590552E+02  0.24804175026E+02 -0.66911995406E+01  0.37361359250E+02  0.00000000000E+00 0.  1.
         14    1    5    5    0    0  0.22816482140E+01 -0.51224351085E+02 -0.35999250360E+02  0.62650507493E+02  0.00000000000E+00 0. -1.
          5    1    4    4  501    0 -0.10107335221E+02  0.27699100215E+02  0.27723975334E+03  0.27884291135E+03  0.47000000000E+01 0.  1.
         -5    1    4    4    0  501 -0.18312709350E+03  0.12860518680E+03  0.54430087724E+03  0.58852388347E+03  0.47000000000E+01 0.  1.
          1    1    1    2  502    0  0.51127977185E+02 -0.44142282090E+02 -0.91407177561E+03  0.91656413965E+03  0.00000000000E+00 0. -1.
          1    1    1    2  503    0  0.40286242296E+02  0.76176945885E+01  0.32502931184E+03  0.32760504292E+03  0.00000000000E+00 0. -1.
<mgrwt>
<rscale>  0 0.52639319E+02</rscale>
<asrwt>0</asrwt>
<pdfrwt beam="1">  1        2 0.17954369E+00 0.41000129E+02</pdfrwt>
<pdfrwt beam="2">  1        2 0.18565001E+00 0.67582662E+02</pdfrwt>
<totfact> 0.79342168E+01</totfact>
</mgrwt>
</event>
<event>
13    1  0.1589573E-008  0.1466686E+03  0.7546771E-02  0.1320095E+00
          2   -1    0    0  503    0  0.00000000000E+00  0.00000000000E+00  0.22349826761E+04  0.22349826761E+04  0.00000000000E+00 0. -1.
          2   -1    0    0  502    0 -0.00000000000E+00 -0.00000000000E+00 -0.75809097624E+03  0.75809097624E+03  0.00000000000E+00 0. -1.
         24    2    1    2    0    0 -0.98260882772E+02  0.11047607775E+03 -0.41318200598E+03  0.44618363394E+03  0.80624439784E+02 0.  0.
         25    2    1    2    0    0  0.28213790275E+03 -0.24300405389E+03  0.38747229603E+03  0.55173722086E+03  0.12500565716E+03 0.  0.
         24    2    1    2    0    0  0.45160524759E+02  0.35898983969E+02  0.46674556403E+03  0.47725331886E+03  0.81185582305E+02 0.  0.
        -13    1    5    5    0    0 -0.19881640376E+02  0.12076849368E+02  0.54924329462E+02  0.59647396268E+02  0.00000000000E+00 0.  1.
         14    1    5    5    0    0  0.65042165135E+02  0.23822134601E+02  0.41182123457E+03  0.41760592259E+03  0.00000000000E+00 0. -1.
        -13    1    3    3    0    0 -0.70352005905E+02  0.99354762195E+02 -0.38903791974E+03  0.40764111238E+03  0.00000000000E+00 0.  1.
         14    1    3    3    0    0 -0.27908876867E+02  0.11121315553E+02 -0.24144086234E+02  0.38542521554E+02  0.00000000000E+00 0. -1.
          5    1    4    4  501    0  0.26315849360E+02  0.67726076686E+01  0.63500840590E+02  0.69230332209E+02  0.47000000000E+01 0. -1.
         -5    1    4    4    0  501  0.25582205339E+03 -0.24977666156E+03  0.32397145544E+03  0.48250688865E+03  0.47000000000E+01 0. -1.
          1    1    1    2  502    0 -0.47238532377E+02 -0.73172414887E+00 -0.23028102987E+03  0.23507736403E+03  0.00000000000E+00 0. -1.
          1    1    1    2  503    0 -0.18179901236E+03  0.97360716318E+02  0.12661368757E+04  0.12828221147E+04  0.00000000000E+00 0. -1.
<mgrwt>
<rscale>  0 0.83242051E+02</rscale>
<asrwt>0</asrwt>
<pdfrwt beam="1">  1        2 0.32867392E+00 0.14666857E+03</pdfrwt>
<pdfrwt beam="2">  1        2 0.11148397E+00 0.47244199E+02</pdfrwt>
<totfact> 0.44719495E+01</totfact>
</mgrwt>
</event>
<event>
13    1  0.1589573E-008  0.1376641E+03  0.7546771E-02  0.1256568E+00
          2   -1    0    0  503    0  0.00000000000E+00  0.00000000000E+00  0.37682290909E+04  0.37682290909E+04  0.00000000000E+00 0. -1.
          2   -1    0    0  502    0 -0.00000000000E+00 -0.00000000000E+00 -0.32866605783E+03  0.32866605783E+03  0.00000000000E+00 0. -1.
         24    2    1    2    0    0  0.18791560603E+02 -0.20739451449E+01  0.40302259478E+01  0.83423332956E+02  0.81152854305E+02 0.  0.
         25    2    1    2    0    0  0.19590421008E+03  0.24260795338E+03  0.11805233395E+04  0.12273945267E+04  0.12499956171E+03 0.  0.
         24    2    1    2    0    0 -0.55043511943E+02 -0.45806772071E+01 -0.31786621267E+02  0.10240719999E+03  0.80162800023E+02 0.  0.
        -11    1    3    3    0    0 -0.75308688095E+01  0.19594815311E+02 -0.29101466244E+02  0.35882671440E+02  0.00000000000E+00 0.  1.
         12    1    3    3    0    0  0.26322429413E+02 -0.21668760456E+02  0.33131692192E+02  0.47540661516E+02  0.00000000000E+00 0. -1.
        -13    1    5    5    0    0 -0.25408662946E+02  0.35492525158E+02 -0.29166727168E+02  0.52497785367E+02  0.00000000000E+00 0.  1.
         14    1    5    5    0    0 -0.29634848997E+02 -0.40073202365E+02 -0.26198940991E+01  0.49909414623E+02  0.00000000000E+00 0. -1.
          5    1    4    4  501    0  0.16929954167E+03  0.16433597482E+03  0.67334743280E+03  0.71350368092E+03  0.47000000000E+01 0.  1.
         -5    1    4    4    0  501  0.26604668410E+02  0.78271978551E+02  0.50717590668E+03  0.51389084573E+03  0.47000000000E+01 0.  1.
          1    1    1    2  502    0 -0.17743735304E+03 -0.14628811592E+03 -0.13065588750E+03  0.26449043093E+03  0.00000000000E+00 0. -1.
          1    1    1    2  503    0  0.17785094296E+02 -0.89665215103E+02  0.24174519764E+04  0.24191796582E+04  0.00000000000E+00 0. -1.
<mgrwt>
<rscale>  0 0.11218955E+03</rscale>
<asrwt>0</asrwt>
<pdfrwt beam="1">  1        2 0.55415131E+00 0.91429063E+02</pdfrwt>
<pdfrwt beam="2">  1        2 0.48333246E-01 0.13766405E+03</pdfrwt>
<totfact> 0.17100771E+01</totfact>
</mgrwt>
</event>
<event>
13    1  0.1589573E-008  0.2159149E+03  0.7546771E-02  0.1189575E+00
          2   -1    0    0  502    0  0.00000000000E+00  0.00000000000E+00  0.11073458999E+04  0.11073458999E+04  0.00000000000E+00 0. -1.
          2   -1    0    0  503    0 -0.00000000000E+00 -0.00000000000E+00 -0.54184033224E+03  0.54184033224E+03  0.00000000000E+00 0. -1.
         24    2    1    2    0    0  0.11404572064E+03  0.12965792654E+03 -0.10480575306E+03  0.21778590551E+03  0.81417752685E+02 0.  0.
         25    2    1    2    0    0  0.28288375553E+01 -0.15460336701E+03  0.94556941980E+01  0.19905921771E+03  0.12499983435E+03 0.  0.
         24    2    1    2    0    0 -0.25829530991E+02  0.41809223004E+02  0.42239057496E+03  0.43246321678E+03  0.78711246018E+02 0.  0.
        -11    1    5    5    0    0 -0.16350030805E+02  0.64515360154E+02  0.26896409723E+03  0.27707623644E+03  0.00000000000E+00 0.  1.
         12    1    5    5    0    0 -0.94795001861E+01 -0.22706137150E+02  0.15342647773E+03  0.15538698033E+03  0.00000000000E+00 0. -1.
        -13    1    3    3    0    0  0.46257094261E+02  0.65905373961E+02 -0.40341077452E+01  0.80619545469E+02  0.00000000000E+00 0.  1.
         14    1    3    3    0    0  0.67788626380E+02  0.63752552581E+02 -0.10077164531E+03  0.13716636004E+03  0.00000000000E+00 0. -1.
          5    1    4    4  501    0 -0.24574938868E+02  0.12749487839E+02  0.87427361319E+01  0.29410924766E+02  0.47000000000E+01 0. -1.
         -5    1    4    4    0  501  0.27403776423E+02 -0.16735285485E+03  0.71295806619E+00  0.16964829294E+03  0.47000000000E+01 0. -1.
          1    1    1    2  502    0  0.15081294522E+03  0.37289036057E+02  0.44872649512E+03  0.47485838318E+03  0.00000000000E+00 0. -1.
          1    1    1    2  503    0 -0.24185797242E+03 -0.54152818590E+02 -0.21026144353E+03  0.32501950899E+03  0.00000000000E+00 0. -1.
<mgrwt>
<rscale>  0 0.15922430E+03</rscale>
<asrwt>0</asrwt>
<pdfrwt beam="1">  1        2 0.16284499E+00 0.11741837E+03</pdfrwt>
<pdfrwt beam="2">  1        2 0.79682402E-01 0.21591493E+03</pdfrwt>
<totfact> 0.23655357E+02</totfact>
</mgrwt>
</event>
<event>
13    1  0.1589573E-008  0.1732510E+03  0.7546771E-02  0.1253766E+00
          2   -1    0    0  502    0  0.00000000000E+00  0.00000000000E+00  0.12615722751E+04  0.12615722751E+04  0.00000000000E+00 0. -1.
          2   -1    0    0  503    0 -0.00000000000E+00 -0.00000000000E+00 -0.14358105472E+04  0.14358105472E+04  0.00000000000E+00 0. -1.
         24    2    1    2    0    0 -0.66905046627E+02  0.86844123550E+02 -0.50513079914E+03  0.52327568696E+03  0.81499283861E+02 0.  0.
         25    2    1    2    0    0  0.17443468445E+03 -0.65487353823E+02  0.64338267900E+03  0.68138227672E+03  0.12499793094E+03 0.  0.
         24    2    1    2    0    0  0.36252389514E+02  0.11209361381E+03  0.14455222412E+03  0.20753996039E+03  0.91094871743E+02 0.  0.
        -13    1    5    5    0    0  0.46896407012E+02  0.12413109851E+03  0.12584457881E+03  0.18287881403E+03  0.00000000000E+00 0.  1.
         14    1    5    5    0    0 -0.10644017498E+02 -0.12037484699E+02  0.18707645314E+02  0.24661146356E+02  0.00000000000E+00 0. -1.
        -13    1    3    3    0    0 -0.10187521260E+02  0.75617098467E+02 -0.33533206848E+03  0.34390307838E+03  0.00000000000E+00 0.  1.
         14    1    3    3    0    0 -0.56717525367E+02  0.11227025083E+02 -0.16979873066E+03  0.17937260858E+03  0.00000000000E+00 0. -1.
          5    1    4    4  501    0  0.10794460244E+03 -0.10050032596E+03  0.46200424262E+03  0.48499728134E+03  0.47000000000E+01 0. -1.
         -5    1    4    4    0  501  0.66490082011E+02  0.35012972139E+02  0.18137843638E+03  0.19638499538E+03  0.47000000000E+01 0. -1.
          1    1    1    2  502    0  0.14483358055E+02 -0.73275519748E+02  0.40237401134E+03  0.40924798650E+03  0.00000000000E+00 0. -1.
          1    1    1    2  503    0 -0.15826538539E+03 -0.60174863786E+02 -0.85941638745E+03  0.87593691180E+03  0.00000000000E+00 0. -1.
<mgrwt>
<rscale>  0 0.11375705E+03</rscale>
<asrwt>0</asrwt>
<pdfrwt beam="1">  1        2 0.18552534E+00 0.74693169E+02</pdfrwt>
<pdfrwt beam="2">  1        2 0.21114861E+00 0.17325102E+03</pdfrwt>
<totfact> 0.55621400E+01</totfact>
</mgrwt>
</event>
<event>
13    1  0.1589573E-008  0.1376218E+03  0.7546771E-02  0.1272185E+00
          2   -1    0    0  503    0  0.00000000000E+00  0.00000000000E+00  0.13510756021E+04  0.13510756021E+04  0.00000000000E+00 0. -1.
         -1   -1    0    0    0  501 -0.00000000000E+00 -0.00000000000E+00 -0.62277106003E+03  0.62277106003E+03  0.00000000000E+00 0.  1.
         24    2    1    2    0    0  0.75098773774E+02  0.20744222267E+02 -0.20961791285E+02  0.11479766485E+03  0.81663691946E+02 0.  0.
         25    2    1    2    0    0 -0.59594108955E+01  0.69054296911E+02  0.33232436648E+03  0.36175969216E+03  0.12500631911E+03 0.  0.
         24    2    1    2    0    0 -0.50993997182E+02  0.28799309709E+02  0.43001847586E+01  0.10065459869E+03  0.81750037674E+02 0.  0.
        -11    1    3    3    0    0  0.61824849076E+02 -0.19115645459E+02  0.58223824751E+01  0.64973994816E+02  0.00000000000E+00 0.  1.
         12    1    3    3    0    0  0.13273924698E+02  0.39859867726E+02 -0.26784173760E+02  0.49823670038E+02  0.00000000000E+00 0. -1.
        -13    1    5    5    0    0 -0.43891594356E+02  0.56690683775E+02  0.49411938646E+01  0.71865993897E+02  0.00000000000E+00 0.  1.
         14    1    5    5    0    0 -0.71024028254E+01 -0.27891374065E+02 -0.64100910600E+00  0.28788604791E+02  0.00000000000E+00 0. -1.
          5    1    4    4  502    0  0.32326981206E+01  0.72806987876E+02  0.76727539764E+02  0.10592692377E+03  0.47000000000E+01 0.  1.
         -5    1    4    4    0  502 -0.91921090161E+01 -0.37526909653E+01  0.25559682671E+03  0.25583276839E+03  0.47000000000E+01 0.  1.
          1    1    1    2  503    0 -0.15407114204E+02  0.77003343915E+02  0.88338242827E+03  0.88686606019E+03  0.00000000000E+00 0. -1.
         -2    1    1    2    0  501 -0.27382514925E+01 -0.19560117280E+03 -0.47074064611E+03  0.50976864628E+03  0.00000000000E+00 0.  1.
<mgrwt>
<rscale>  0 0.10395857E+03</rscale>
<asrwt>0</asrwt>
<pdfrwt beam="1">  1        2 0.19868759E+00 0.78529575E+02</pdfrwt>
<pdfrwt beam="2">  1       -1 0.91583980E-01 0.13762182E+03</pdfrwt>
<totfact> 0.28017332E+01</totfact>
</mgrwt>
</event>
<event>
13    1  0.1589573E-008  0.7846458E+02  0.7546771E-02  0.1488032E+00
          2   -1    0    0  503    0  0.00000000000E+00  0.00000000000E+00  0.15490989997E+04  0.15490989997E+04  0.00000000000E+00 0. -1.
         -1   -1    0    0    0  501 -0.00000000000E+00 -0.00000000000E+00 -0.36805958827E+03  0.36805958827E+03  0.00000000000E+00 0.  1.
         24    2    1    2    0    0  0.35091067449E+02  0.67624463282E+02 -0.10550652807E+02  0.11147297660E+03  0.80687404156E+02 0.  0.
         25    2    1    2    0    0 -0.74924736186E+02  0.90038200334E+02  0.65713887353E+03  0.67910036027E+03  0.12500082640E+03 0.  0.
         24    2    1    2    0    0 -0.82783251524E+01 -0.10770236334E+03  0.12883169002E+03  0.18651513214E+03  0.80758655425E+02 0.  0.
        -11    1    5    5    0    0 -0.28085006178E+02 -0.55801699102E+01  0.42946715731E+02  0.51617112088E+02  0.00000000000E+00 0.  1.
         12    1    5    5    0    0  0.19806681025E+02 -0.10212219343E+03  0.85884974290E+02  0.13489802005E+03  0.00000000000E+00 0. -1.
        -13    1    3    3    0    0  0.22849247087E+02  0.85824774604E+02 -0.11272467181E+02  0.89526803499E+02  0.00000000000E+00 0.  1.
         14    1    3    3    0    0  0.12241820362E+02 -0.18200311322E+02  0.72181437418E+00  0.21946173105E+02  0.00000000000E+00 0. -1.
          5    1    4    4  502    0 -0.83418609322E+02  0.13384225958E+02  0.45285702466E+03  0.46069445045E+03  0.47000000000E+01 0. -1.
         -5    1    4    4    0  502  0.84938731362E+01  0.76653974376E+02  0.20428184886E+03  0.21840590982E+03  0.47000000000E+01 0. -1.
          1    1    1    2  503    0  0.12300557266E+02  0.19944625515E+02  0.66686308209E+03  0.66727465263E+03  0.00000000000E+00 0. -1.
         -2    1    1    2    0  501  0.35811436624E+02 -0.69904925787E+02 -0.26124358139E+03  0.27279546634E+03  0.00000000000E+00 0.  1.
<mgrwt>
<rscale>  0 0.42879337E+02</rscale>
<asrwt>0</asrwt>
<pdfrwt beam="1">  1        2 0.22780868E+00 0.23432708E+02</pdfrwt>
<pdfrwt beam="2">  1       -1 0.54126410E-01 0.78464580E+02</pdfrwt>
<totfact> 0.70943604E+01</totfact>
</mgrwt>
</event>
<event>
13    1  0.1589573E-008  0.4867562E+02  0.7546771E-02  0.1564793E+00
          2   -1    0    0  502    0  0.00000000000E+00  0.00000000000E+00  0.21702359847E+04  0.21702359847E+04  0.00000000000E+00 0. -1.
          4   -1    0    0  503    0 -0.00000000000E+00 -0.00000000000E+00 -0.14547028543E+03  0.14547028543E+03  0.00000000000E+00 0. -1.
         24    2    1    2    0    0  0.12777935906E+02  0.29082609825E+02 -0.25184712748E+02  0.90184296502E+02  0.80559690535E+02 0.  0.
         25    2    1    2    0    0 -0.90686851943E+02 -0.10704195729E+02  0.62852287458E+03  0.64730541820E+03  0.12499846257E+03 0.  0.
         24    2    1    2    0    0  0.19700754247E+02 -0.54376078073E+02  0.11405556137E+03  0.14829936116E+03  0.75094286441E+02 0.  0.
        -13    1    5    5    0    0  0.15447719527E+02  0.70590769126E+01 -0.18147434737E+01  0.17080863541E+02  0.00000000000E+00 0.  1.
         14    1    5    5    0    0  0.42530347194E+01 -0.61435154986E+02  0.11587030484E+03  0.13121849761E+03  0.00000000000E+00 0. -1.
        -13    1    3    3    0    0  0.39672021805E+02  0.32167999163E+02 -0.34410181528E+02  0.61584982561E+02  0.00000000000E+00 0.  1.
         14    1    3    3    0    0 -0.26894085898E+02 -0.30853893383E+01  0.92254687806E+01  0.28599313941E+02  0.00000000000E+00 0. -1.
          5    1    4    4  501    0 -0.22745168668E+02  0.50879287983E+02  0.33866723158E+03  0.34325446594E+03  0.47000000000E+01 0. -1.
         -5    1    4    4    0  501 -0.67941683276E+02 -0.61583483712E+02  0.28985564300E+03  0.30405095226E+03  0.47000000000E+01 0. -1.
          1    1    1    2  502    0  0.22462231767E+02  0.32877797773E+01  0.13589559939E+04  0.13591455973E+04  0.00000000000E+00 0. -1.
          3    1    1    2  503    0  0.35745930023E+02  0.32709884200E+02 -0.51584017833E+02  0.70771596939E+02  0.00000000000E+00 0. -1.
<mgrwt>
<rscale>  0 0.33241738E+02</rscale>
<asrwt>0</asrwt>
<pdfrwt beam="1">  1        2 0.31915233E+00 0.22701572E+02</pdfrwt>
<pdfrwt beam="2">  1        4 0.21392690E-01 0.48675623E+02</pdfrwt>
<totfact> 0.81312940E+01</totfact>
</mgrwt>
</event>
<event>
13    1  0.1589573E-008  0.1373072E+03  0.7546771E-02  0.1233685E+00
         -1   -1    0    0    0  501 -0.00000000000E+00  0.00000000000E+00  0.18097771362E+03  0.18097771362E+03  0.00000000000E+00 0.  1.
          2   -1    0    0  503    0  0.00000000000E+00 -0.00000000000E+00 -0.27010751918E+04  0.27010751918E+04  0.00000000000E+00 0. -1.
         24    2    1    2    0    0  0.54352506856E+02 -0.31829011293E+02 -0.29901679373E+02  0.10869319558E+03  0.83383567778E+02 0.  0.
         25    2    1    2    0    0 -0.22607147955E+03  0.73903469474E+02 -0.66027108309E+03  0.71284877943E+03  0.12500177002E+03 0.  0.
         24    2    1    2    0    0  0.66733567789E+02  0.92254191921E+02 -0.16235086348E+03  0.21359598889E+03  0.79380341405E+02 0.  0.
        -11    1    3    3    0    0  0.37903478761E+02 -0.59372573949E+02 -0.10545699986E+02  0.71224911567E+02  0.00000000000E+00 0.  1.
         12    1    3    3    0    0  0.16449028095E+02  0.27543562656E+02 -0.19355979388E+02  0.37468284016E+02  0.00000000000E+00 0. -1.
        -13    1    5    5    0    0 -0.77444280616E+01  0.47667227977E+02 -0.82797231453E+02  0.95851564021E+02  0.00000000000E+00 0.  1.
         14    1    5    5    0    0  0.74477995851E+02  0.44586963944E+02 -0.79553632027E+02  0.11774442487E+03  0.00000000000E+00 0. -1.
          5    1    4    4  502    0 -0.28559469251E+02 -0.38036580504E+00 -0.12451061213E+02  0.31510425058E+02  0.47000000000E+01 0. -1.
         -5    1    4    4    0  502 -0.19751201030E+03  0.74283835279E+02 -0.64782002187E+03  0.68133835437E+03  0.47000000000E+01 0. -1.
          1    1    1    2  503    0 -0.27014805083E+02 -0.11195631296E+03 -0.17042202945E+04  0.17081073818E+04  0.00000000000E+00 0. -1.
         -2    1    1    2    0  501  0.13200020999E+03 -0.22372337139E+02  0.36646442219E+02  0.13880755971E+03  0.00000000000E+00 0.  1.
<mgrwt>
<rscale>  0 0.12589002E+03</rscale>
<asrwt>0</asrwt>
<pdfrwt beam="2">  1        2 0.39721692E+00 0.11542220E+03</pdfrwt>
<pdfrwt beam="1">  1       -1 0.26614371E-01 0.13730719E+03</pdfrwt>
<totfact> 0.57535829E+01</totfact>
</mgrwt>
</event>
<event>
13    1  0.1589573E-008  0.7684881E+02  0.7546771E-02  0.1385849E+00
          2   -1    0    0  502    0  0.00000000000E+00  0.00000000000E+00  0.10754048024E+03  0.10754048024E+03  0.00000000000E+00 0. -1.
          2   -1    0    0  503    0 -0.00000000000E+00 -0.00000000000E+00 -0.30051223638E+04  0.30051223638E+04  0.00000000000E+00 0. -1.
         24    2    1    2    0    0 -0.97443169718E+02  0.94845433240E+02 -0.11771108673E+03  0.19670474397E+03  0.79661966033E+02 0.  0.
         25    2    1    2    0    0 -0.11470396167E+03  0.16759301686E+02 -0.76488993331E+03  0.78365644518E+03  0.12499176365E+03 0.  0.
         24    2    1    2    0    0  0.89575453824E+02 -0.14715704356E+03 -0.33579815845E+03  0.38545952316E+03  0.78356131717E+02 0.  0.
        -11    1    3    3    0    0  0.14106073764E+02  0.13623703491E+02 -0.14623700163E+02  0.24463017399E+02  0.00000000000E+00 0.  1.
         12    1    3    3    0    0 -0.11154924348E+03  0.81221729749E+02 -0.10308738657E+03  0.17224172658E+03  0.00000000000E+00 0. -1.
        -11    1    5    5    0    0 -0.76448036917E+01 -0.48182004590E+01 -0.12589529033E+01  0.91237624674E+01  0.00000000000E+00 0.  1.
         12    1    5    5    0    0  0.97220257516E+02 -0.14233884310E+03 -0.33453920555E+03  0.37633576069E+03  0.00000000000E+00 0. -1.
          5    1    4    4  501    0 -0.97640168232E+01  0.45975835759E+02 -0.10942387024E+03  0.11918383648E+03  0.47000000000E+01 0. -1.
         -5    1    4    4    0  501 -0.10493994485E+03 -0.29216534073E+02 -0.65546606307E+03  0.66447260871E+03  0.47000000000E+01 0. -1.
          1    1    1    2  502    0  0.48429097384E+02  0.17711939180E+02  0.12808489509E+02  0.53133300918E+02  0.00000000000E+00 0. -1.
          1    1    1    2  503    0  0.74142580185E+02  0.17840369458E+02 -0.16919911945E+04  0.16937088308E+04  0.00000000000E+00 0. -1.
<mgrwt>
<rscale>  0 0.62950885E+02</rscale>
<asrwt>0</asrwt>
<pdfrwt beam="1">  1        2 0.15814778E-01 0.51566368E+02</pdfrwt>
<pdfrwt beam="2">  1        2 0.44192970E+00 0.76848809E+02</pdfrwt>
<totfact> 0.15711782E+02</totfact>
</mgrwt>
</event>
<event>
13    1  0.1589573E-008  0.1139890E+03  0.7546771E-02  0.1272870E+00
          2   -1    0    0  502    0  0.00000000000E+00  0.00000000000E+00  0.11234051561E+04  0.11234051561E+04  0.00000000000E+00 0. -1.
          2   -1    0    0  503    0 -0.00000000000E+00 -0.00000000000E+00 -0.16892417666E+04  0.16892417666E+04  0.00000000000E+00 0. -1.
         24    2    1    2    0    0  0.26870791461E+01 -0.12547017591E+03 -0.66863604630E+03  0.68491288598E+03  0.79255999919E+02 0.  0.
         25    2    1    2    0    0 -0.12112572212E+03  0.10306050317E+03 -0.13417083646E+02  0.20272749082E+03  0.12500203810E+03 0.  0.
         24    2    1    2    0    0  0.18885812751E+02 -0.57183217159E+02 -0.37224534177E+03  0.38544326934E+03  0.79833108196E+02 0.  0.
        -11    1    3    3    0    0  0.13406789694E+02 -0.12264597534E+03 -0.65828219854E+03  0.66974415279E+03  0.00000000000E+00 0.  1.
         12    1    3    3    0    0 -0.10719710547E+02 -0.28242005777E+01 -0.10353847763E+02  0.15168733191E+02  0.00000000000E+00 0. -1.
        -13    1    5    5    0    0  0.16265700800E+02 -0.74024164281E+02 -0.34560338167E+03  0.35381612081E+03  0.00000000000E+00 0.  1.
         14    1    5    5    0    0  0.26201119503E+01  0.16840947122E+02 -0.26641960096E+02  0.31627148533E+02  0.00000000000E+00 0. -1.
          5    1    4    4  501    0  0.12518038116E+02  0.65825425665E+01  0.28874843647E+02  0.32494272427E+02  0.47000000000E+01 0.  1.
         -5    1    4    4    0  501 -0.13364376024E+03  0.96477960603E+02 -0.42291927292E+02  0.17023321840E+03  0.47000000000E+01 0.  1.
          1    1    1    2  502    0 -0.27538172072E+02  0.90072118451E+02  0.10040402536E+04  0.10084483965E+04  0.00000000000E+00 0. -1.
          1    1    1    2  503    0  0.12709100230E+03 -0.10479228548E+02 -0.51557839244E+03  0.53111488008E+03  0.00000000000E+00 0. -1.
<mgrwt>
<rscale>  0 0.10361645E+03</rscale>
<asrwt>0</asrwt>
<pdfrwt beam="1">  1        2 0.16520664E+00 0.94187778E+02</pdfrwt>
<pdfrwt beam="2">  1        2 0.24841791E+00 0.11398897E+03</pdfrwt>
<totfact> 0.50071438E+01</totfact>
</mgrwt>
</event>
<event>
13    1  0.1589573E-008  0.1784164E+03  0.7546771E-02  0.1197781E+00
          2   -1    0    0  502    0  0.00000000000E+00  0.00000000000E+00  0.34396748072E+04  0.34396748072E+04  0.00000000000E+00 0. -1.
          2   -1    0    0  503    0 -0.00000000000E+00 -0.00000000000E+00 -0.30891311504E+04  0.30891311504E+04  0.00000000000E+00 0. -1.
         24    2    1    2    0    0 -0.11595669442E+03 -0.53499087835E+02 -0.14637613978E+04  0.14714947915E+04  0.79946135647E+02 0.  0.
         25    2    1    2    0    0  0.43900426783E+02 -0.20220262832E+02  0.79780360923E+03  0.80898161461E+03  0.12499818948E+03 0.  0.
         24    2    1    2    0    0 -0.16753505312E+03 -0.65734582996E+02 -0.88093142576E+03  0.90271155985E+03  0.80367617661E+02 0.  0.
        -11    1    5    5    0    0 -0.10158991205E+03  0.32411507200E+01 -0.44650781868E+03  0.45793039584E+03  0.00000000000E+00 0.  1.
         12    1    5    5    0    0 -0.65945141071E+02 -0.68975733716E+02 -0.43442360708E+03  0.44478116402E+03  0.00000000000E+00 0. -1.
        -13    1    3    3    0    0 -0.26659652526E+02 -0.51349761810E+01 -0.75573483567E+03  0.75622235281E+03  0.00000000000E+00 0.  1.
         14    1    3    3    0    0 -0.89297041892E+02 -0.48364111654E+02 -0.70802656209E+03  0.71527243874E+03  0.00000000000E+00 0. -1.
          5    1    4    4  501    0  0.33995667018E+01  0.37669674744E+02  0.91263893068E+02  0.98902728108E+02  0.47000000000E+01 0. -1.
         -5    1    4    4    0  501  0.40500860081E+02 -0.57889937576E+02  0.70653971616E+03  0.71007888650E+03  0.47000000000E+01 0. -1.
          1    1    1    2  502    0  0.17653166475E+03  0.25937643729E+02  0.26126361088E+04  0.26187217544E+04  0.00000000000E+00 0. -1.
          1    1    1    2  503    0  0.63059656013E+02  0.11351628993E+03 -0.71520323774E+03  0.72689623715E+03  0.00000000000E+00 0. -1.
<mgrwt>
<rscale>  0 0.15221159E+03</rscale>
<asrwt>0</asrwt>
<pdfrwt beam="1">  1        2 0.50583453E+00 0.17841645E+03</pdfrwt>
<pdfrwt beam="2">  1        2 0.45428399E+00 0.12985557E+03</pdfrwt>
<totfact> 0.57896479E-01</totfact>
</mgrwt>
</event>
<event>
13    1  0.1589573E-008  0.1049380E+03  0.7546771E-02  0.1367038E+00
          2   -1    0    0  502    0  0.00000000000E+00  0.00000000000E+00  0.13317055024E+04  0.13317055024E+04  0.00000000000E+00 0. -1.
          2   -1    0    0  503    0 -0.00000000000E+00 -0.00000000000E+00 -0.33143728221E+04  0.33143728221E+04  0.00000000000E+00 0. -1.
         24    2    1    2    0    0 -0.12843744555E+03  0.41856748312E+03 -0.67309446594E+03  0.80624618487E+03  0.72676235429E+02 0.  0.
         25    2    1    2    0    0 -0.40930088131E+03  0.50909376081E+03 -0.11443142990E+04  0.13235492519E+04  0.12499495369E+03 0.  0.
         24    2    1    2    0    0  0.52148696402E+03 -0.10196401409E+04 -0.62879848079E+03  0.13089998528E+04  0.80488598820E+02 0.  0.
        -11    1    5    5    0    0  0.43154874168E+03 -0.85524155917E+03 -0.55840052047E+03  0.11088208071E+04  0.00000000000E+00 0.  1.
         12    1    5    5    0    0  0.89938222339E+02 -0.16439858176E+03 -0.70397960318E+02  0.20017904570E+03  0.00000000000E+00 0. -1.
        -11    1    3    3    0    0 -0.66755370241E+02  0.30743837749E+03 -0.51370848260E+03  0.60238778250E+03  0.00000000000E+00 0.  1.
         12    1    3    3    0    0 -0.61682075307E+02  0.11112910562E+03 -0.15938598334E+03  0.20385840237E+03  0.00000000000E+00 0. -1.
          5    1    4    4  501    0 -0.23539508206E+03  0.37475525435E+03 -0.81915706695E+03  0.93107074685E+03  0.47000000000E+01 0. -1.
         -5    1    4    4    0  501 -0.17390579924E+03  0.13433850646E+03 -0.32515723209E+03  0.39247850503E+03  0.47000000000E+01 0. -1.
          1    1    1    2  502    0 -0.26770907137E+02  0.10148913253E+03  0.83079265866E+03  0.83739666059E+03  0.00000000000E+00 0. -1.
          1    1    1    2  503    0  0.43022269971E+02 -0.95102355283E+01 -0.36725273259E+03  0.36988637429E+03  0.00000000000E+00 0. -1.
<mgrwt>
<rscale>  0 0.67997494E+02</rscale>
<asrwt>0</asrwt>
<pdfrwt beam="1">  1        2 0.19583904E+00 0.10493799E+03</pdfrwt>
<pdfrwt beam="2">  1        2 0.48740777E+00 0.44060870E+02</pdfrwt>
<totfact> 0.68109332E+00</totfact>
</mgrwt>
</event>
<event>
13    1  0.1589573E-008  0.7137369E+02  0.7546771E-02  0.1413871E+00
          2   -1    0    0  503    0  0.00000000000E+00  0.00000000000E+00  0.17050249844E+04  0.17050249844E+04  0.00000000000E+00 0. -1.
          2   -1    0    0  502    0 -0.00000000000E+00 -0.00000000000E+00 -0.11807449697E+04  0.11807449697E+04  0.00000000000E+00 0. -1.
         24    2    1    2    0    0 -0.38858766638E+02 -0.15840535171E+02 -0.24846522703E+03  0.26440519716E+03  0.80088781635E+02 0.  0.
         25    2    1    2    0    0 -0.50476787033E+02  0.10002924635E+03 -0.13892318134E+03  0.21789992127E+03  0.12500787663E+03 0.  0.
         24    2    1    2    0    0  0.54649784141E+02 -0.10233082047E+03  0.76967161340E+02  0.15837013567E+03  0.75491457941E+02 0.  0.
        -13    1    5    5    0    0  0.33590728247E+02 -0.67525270470E-01  0.13622040938E+02  0.36247780389E+02  0.00000000000E+00 0.  1.
         14    1    5    5    0    0  0.21059055893E+02 -0.10226329520E+03  0.63345120403E+02  0.12212235528E+03  0.00000000000E+00 0. -1.
        -13    1    3    3    0    0 -0.42631835673E+02  0.77992454213E+01 -0.57803182903E+02  0.72246173571E+02  0.00000000000E+00 0.  1.
         14    1    3    3    0    0  0.37730690356E+01 -0.23639780592E+02 -0.19066204412E+03  0.19215902359E+03  0.00000000000E+00 0. -1.
          5    1    4    4  501    0 -0.40527417268E+02  0.36976327754E+02  0.98559534581E+01  0.55937019792E+02  0.47000000000E+01 0. -1.
         -5    1    4    4    0  501 -0.99493697643E+01  0.63052918596E+02 -0.14877913480E+03  0.16196290148E+03  0.47000000000E+01 0. -1.
          1    1    1    2  502    0  0.28338615636E+00 -0.44470436783E+02 -0.70366579686E+03  0.70506968005E+03  0.00000000000E+00 0. -1.
          1    1    1    2  503    0  0.34402383373E+02  0.62612546071E+02  0.15383670587E+04  0.15400250200E+04  0.00000000000E+00 0. -1.
<mgrwt>
<rscale>  0 0.56339007E+02</rscale>
<asrwt>0</asrwt>
<pdfrwt beam="1">  1        2 0.25073897E+00 0.71373693E+02</pdfrwt>
<pdfrwt beam="2">  1        2 0.17363897E+00 0.44471340E+02</pdfrwt>
<totfact> 0.50014648E+01</totfact>
</mgrwt>
</event>
<event>
13    1  0.1589573E-008  0.1896547E+03  0.7546771E-02  0.1208737E+00
          2   -1    0    0  503    0  0.00000000000E+00  0.00000000000E+00  0.25746143567E+04  0.25746143567E+04  0.00000000000E+00 0. -1.
          2   -1    0    0  502    0 -0.00000000000E+00 -0.00000000000E+00 -0.28558489819E+04  0.28558489819E+04  0.00000000000E+00 0. -1.
         24    2    1    2    0    0 -0.44121203492E+02 -0.95413163446E+01 -0.64779926985E+03  0.65434658337E+03  0.80547128009E+02 0.  0.
         25    2    1    2    0    0  0.11344425158E+03 -0.53078908929E+02  0.60490530923E+03  0.63025522436E+03  0.12499698359E+03 0.  0.
         24    2    1    2    0    0  0.44150293102E+02  0.19599893674E+03 -0.25512204312E+03  0.33509868108E+03  0.82698473936E+02 0.  0.
        -13    1    5    5    0    0 -0.21875424991E+02  0.74850154183E+02 -0.74889383801E+02  0.10811798928E+03  0.00000000000E+00 0.  1.
         14    1    5    5    0    0  0.66025718093E+02  0.12114878256E+03 -0.18023265932E+03  0.22698069180E+03  0.00000000000E+00 0. -1.
        -13    1    3    3    0    0 -0.10720334705E+02 -0.13454133543E+02 -0.56095048196E+03  0.56121420375E+03  0.00000000000E+00 0.  1.
         14    1    3    3    0    0 -0.33400868787E+02  0.39128171981E+01 -0.86848787891E+02  0.93132379613E+02  0.00000000000E+00 0. -1.
          5    1    4    4  501    0  0.11425381614E+03 -0.78917299115E+02  0.39522883628E+03  0.41893889486E+03  0.47000000000E+01 0. -1.
         -5    1    4    4    0  501 -0.80956456274E+00  0.25838390186E+02  0.20967647296E+03  0.21131632950E+03  0.47000000000E+01 0. -1.
          1    1    1    2  502    0  0.12050372119E+03 -0.88957675457E+02 -0.18866017553E+04  0.18925381893E+04  0.00000000000E+00 0. -1.
          1    1    1    2  503    0 -0.23397706238E+03 -0.44421036011E+02  0.19033831339E+04  0.19182246606E+04  0.00000000000E+00 0. -1.
<mgrwt>
<rscale>  0 0.14346805E+03</rscale>
<asrwt>0</asrwt>
<pdfrwt beam="1">  1        2 0.37861976E+00 0.18965469E+03</pdfrwt>
<pdfrwt beam="2">  1        2 0.41997779E+00 0.10852925E+03</pdfrwt>
<totfact> 0.23439715E+00</totfact>
</mgrwt>
</event>
<event>
13    1  0.1589573E-008  0.1736641E+03  0.7546771E-02  0.1262383E+00
          2   -1    0    0  503    0  0.00000000000E+00  0.00000000000E+00  0.37884253622E+04  0.37884253622E+04  0.00000000000E+00 0. -1.
          2   -1    0    0  502    0 -0.00000000000E+00 -0.00000000000E+00 -0.10349585864E+04  0.10349585864E+04  0.00000000000E+00 0. -1.
         24    2    1    2    0    0  0.22608957416E+03  0.74801372176E+02  0.17177456983E+03  0.30406972055E+03  0.78994628261E+02 0.  0.
         25    2    1    2    0    0  0.38495779671E+02  0.14825246361E+00  0.11137788735E+04  0.11214322051E+04  0.12499945768E+03 0.  0.
         24    2    1    2    0    0 -0.20888687194E+03  0.13068085268E+03  0.67920101767E+03  0.72692941840E+03  0.80007164718E+02 0.  0.
        -13    1    5    5    0    0 -0.29473623765E+02  0.42051956036E+02  0.78775884672E+02  0.94035639574E+02  0.00000000000E+00 0.  1.
         14    1    5    5    0    0 -0.17941324817E+03  0.88628896639E+02  0.60042513300E+03  0.63289377882E+03  0.00000000000E+00 0. -1.
        -13    1    3    3    0    0  0.19907690229E+03  0.87776094463E+02  0.16572575627E+03  0.27349823048E+03  0.00000000000E+00 0.  1.
         14    1    3    3    0    0  0.27012671861E+02 -0.12974722287E+02  0.60488135634E+01  0.30571490069E+02  0.00000000000E+00 0. -1.
          5    1    4    4  501    0  0.61912934378E+02 -0.26645152232E+02  0.99639393023E+03  0.99868219659E+03  0.47000000000E+01 0. -1.
         -5    1    4    4    0  501 -0.23417154707E+02  0.26793404696E+02  0.11738494331E+03  0.12275000849E+03  0.47000000000E+01 0. -1.
          1    1    1    2  502    0  0.46508627032E+01 -0.17333587344E+03 -0.93244712519E+03  0.94843270547E+03  0.00000000000E+00 0. -1.
          1    1    1    2  503    0 -0.60349344591E+02 -0.32294603878E+02  0.17211594399E+04  0.17225198990E+04  0.00000000000E+00 0. -1.
<mgrwt>
<rscale>  0 0.10902649E+03</rscale>
<asrwt>0</asrwt>
<pdfrwt beam="1">  1        2 0.55712137E+00 0.68446949E+02</pdfrwt>
<pdfrwt beam="2">  1        2 0.15219979E+00 0.17366408E+03</pdfrwt>
<totfact> 0.46510610E+00</totfact>
</mgrwt>
</event>
<event>
13    1  0.1589573E-008  0.7538930E+02  0.7546771E-02  0.1417680E+00
          2   -1    0    0  502    0  0.00000000000E+00  0.00000000000E+00  0.62647250810E+03  0.62647250810E+03  0.00000000000E+00 0. -1.
          2   -1    0    0  503    0 -0.00000000000E+00 -0.00000000000E+00 -0.30593742252E+04  0.30593742252E+04  0.00000000000E+00 0. -1.
         24    2    1    2    0    0  0.13140097430E+03  0.66591188485E+02 -0.17053713136E+03  0.23981416859E+03  0.82020240504E+02 0.  0.
         25    2    1    2    0    0 -0.14918135519E+03 -0.50634918058E+02 -0.76866200512E+03  0.79453218549E+03  0.12498457502E+03 0.  0.
         24    2    1    2    0    0 -0.16688158582E+01 -0.59805335647E+02  0.25852934637E+02  0.10350535139E+03  0.80408459872E+02 0.  0.
        -13    1    5    5    0    0  0.32903446874E+02 -0.34692886284E+02  0.35679748654E+02  0.59659681854E+02  0.00000000000E+00 0.  1.
         14    1    5    5    0    0 -0.34572262732E+02 -0.25112449364E+02 -0.98268140169E+01  0.43845669537E+02  0.00000000000E+00 0. -1.
        -13    1    3    3    0    0  0.99189664939E+02  0.76134006080E+02 -0.16290902330E+03  0.20536388774E+03  0.00000000000E+00 0.  1.
         14    1    3    3    0    0  0.32211309357E+02 -0.95428175948E+01 -0.76281080576E+01  0.34450280850E+02  0.00000000000E+00 0. -1.
          5    1    4    4  501    0 -0.41883670014E+02  0.18924019650E+02 -0.43047517459E+03  0.43294725576E+03  0.47000000000E+01 0. -1.
         -5    1    4    4    0  501 -0.10729768518E+03 -0.69558937708E+02 -0.33818683054E+03  0.36158492973E+03  0.47000000000E+01 0. -1.
          1    1    1    2  502    0  0.26109737206E+02 -0.31455378062E+02  0.51270336369E+03  0.51433053411E+03  0.00000000000E+00 0. -1.
          1    1    1    2  503    0 -0.66605404525E+01  0.75304443283E+02 -0.20322588789E+04  0.20336644937E+04  0.00000000000E+00 0. -1.
<mgrwt>
<rscale>  0 0.55514867E+02</rscale>
<asrwt>0</asrwt>
<pdfrwt beam="1">  1        2 0.92128312E-01 0.40879814E+02</pdfrwt>
<pdfrwt beam="2">  1        2 0.44990796E+00 0.75389298E+02</pdfrwt>
<totfact> 0.23093422E+01</totfact>
</mgrwt>
</event>
<event>
13    1  0.1589573E-008  0.8103810E+02  0.7546771E-02  0.1469862E+00
         -1   -1    0    0    0  501 -0.00000000000E+00  0.00000000000E+00  0.10166764439E+04  0.10166764439E+04  0.00000000000E+00 0.  1.
          2   -1    0    0  503    0  0.00000000000E+00 -0.00000000000E+00 -0.37281040017E+03  0.37281040017E+03  0.00000000000E+00 0. -1.
         24    2    1    2    0    0 -0.44952229661E+02  0.52613212920E+02  0.22013768611E+03  0.24558759634E+03  0.84046496112E+02 0.  0.
         25    2    1    2    0    0 -0.18380936862E+02 -0.64253067811E+02  0.25940660188E+03  0.29559825562E+03  0.12498091080E+03 0.  0.
         24    2    1    2    0    0 -0.17187167799E+02  0.11696605671E+02 -0.49850788834E+01  0.82333382881E+02  0.79509279986E+02 0.  0.
        -11    1    3    3    0    0 -0.14670647680E+02 -0.22336818566E+02  0.72498620215E+02  0.77267142435E+02  0.00000000000E+00 0.  1.
         12    1    3    3    0    0 -0.30281581981E+02  0.74950031486E+02  0.14763906589E+03  0.16832045391E+03  0.00000000000E+00 0. -1.
        -13    1    5    5    0    0 -0.11318378673E+02 -0.32419247936E+02 -0.13723640191E+02  0.36979070197E+02  0.00000000000E+00 0.  1.
         14    1    5    5    0    0 -0.58687891261E+01  0.44115853607E+02  0.87385613080E+01  0.45354312684E+02  0.00000000000E+00 0. -1.
          5    1    4    4  502    0  0.10437256439E+02  0.29870527704E+02  0.22781490359E+02  0.39271758940E+02  0.47000000000E+01 0. -1.
         -5    1    4    4    0  502 -0.28818193301E+02 -0.94123595514E+02  0.23662511152E+03  0.25632649668E+03  0.47000000000E+01 0. -1.
          1    1    1    2  503    0  0.95652642451E+02 -0.20953723387E+02 -0.28992340071E+03  0.30601317751E+03  0.00000000000E+00 0. -1.
         -2    1    1    2    0  501 -0.15132308129E+02  0.20896972606E+02  0.45923023529E+03  0.45995443168E+03  0.00000000000E+00 0.  1.
<mgrwt>
<rscale>  0 0.45725599E+02</rscale>
<asrwt>0</asrwt>
<pdfrwt beam="2">  1        2 0.54825059E-01 0.81038099E+02</pdfrwt>
<pdfrwt beam="1">  1       -1 0.14951124E+00 0.25800586E+02</pdfrwt>
<totfact> 0.46574124E+01</totfact>
</mgrwt>
</event>
<event>
13    1  0.1589573E-008  0.1713076E+03  0.7546771E-02  0.1266797E+00
          2   -1    0    0  502    0  0.00000000000E+00  0.00000000000E+00  0.33439888064E+04  0.33439888064E+04  0.00000000000E+00 0. -1.
          2   -1    0    0  503    0 -0.00000000000E+00 -0.00000000000E+00 -0.26590764127E+04  0.26590764127E+04  0.00000000000E+00 0. -1.
         24    2    1    2    0    0  0.73429610711E+02 -0.71066259226E+00 -0.21727329550E+03  0.24298544220E+03  0.80260995602E+02 0.  0.
         25    2    1    2    0    0 -0.13736312226E+03  0.10093791796E+02  0.23950209988E+03  0.30324319394E+03  0.12499866734E+03 0.  0.
         24    2    1    2    0    0  0.17224136908E+03  0.59252598068E+02  0.19620362197E+03  0.27901159976E+03  0.78572590160E+02 0.  0.
        -11    1    3    3    0    0 -0.69758335122E+01 -0.24011406725E+02 -0.46440395494E+02  0.52743911874E+02  0.00000000000E+00 0.  1.
         12    1    3    3    0    0  0.80405444223E+02  0.23300744133E+02 -0.17083290000E+03  0.19024153033E+03  0.00000000000E+00 0. -1.
        -13    1    5    5    0    0  0.99863209171E+02  0.48445774708E+02  0.64585491819E+02  0.12841705255E+03  0.00000000000E+00 0.  1.
         14    1    5    5    0    0  0.72378159910E+02  0.10806823359E+02  0.13161813015E+03  0.15059454720E+03  0.00000000000E+00 0. -1.
          5    1    4    4  501    0 -0.10958839503E+03 -0.97288549409E+01  0.70471380038E+02  0.13073856488E+03  0.47000000000E+01 0. -1.
         -5    1    4    4    0  501 -0.27774727232E+02  0.19822646737E+02  0.16903071984E+03  0.17250462906E+03  0.47000000000E+01 0. -1.
          1    1    1    2  502    0 -0.10701384025E+03 -0.13508776935E+03  0.28190516634E+04  0.28243145979E+04  0.00000000000E+00 0. -1.
          1    1    1    2  503    0 -0.12940172818E+01  0.66452042077E+02 -0.23525716960E+04  0.23535103852E+04  0.00000000000E+00 0. -1.
<mgrwt>
<rscale>  0 0.10670471E+03</rscale>
<asrwt>0</asrwt>
<pdfrwt beam="1">  1        2 0.49176306E+00 0.17130756E+03</pdfrwt>
<pdfrwt beam="2">  1        2 0.39104065E+00 0.66464640E+02</pdfrwt>
<totfact> 0.12281923E+00</totfact>
</mgrwt>
</event>
<event>
13    1  0.1589573E-008  0.3317408E+03  0.7546771E-02  0.1182931E+00
         -3   -1    0    0    0  501  0.00000000000E+00  0.00000000000E+00  0.12180008584E+04  0.12180008584E+04  0.00000000000E+00 0.  1.
         -3   -1    0    0    0  502 -0.00000000000E+00 -0.00000000000E+00 -0.32602825444E+03  0.32602825444E+03  0.00000000000E+00 0.  1.
         24    2    1    2    0    0  0.59490961493E+01  0.10193788084E+03  0.66582665732E+01  0.13027079652E+03  0.80619009044E+02 0.  0.
         25    2    1    2    0    0  0.48947603509E+02 -0.39286783119E+03  0.42353740763E+03  0.59308456352E+03  0.12499745258E+03 0.  0.
         24    2    1    2    0    0 -0.18365228141E+02 -0.71145622843E+02  0.61842498445E+01  0.10973074287E+03  0.81262597360E+02 0.  0.
        -11    1    5    5    0    0 -0.14534976858E+02  0.14908039301E+02 -0.82405373218E+01  0.22392446124E+02  0.00000000000E+00 0.  1.
         12    1    5    5    0    0 -0.38302512827E+01 -0.86053662144E+02  0.14424787166E+02  0.87338296744E+02  0.00000000000E+00 0. -1.
        -13    1    3    3    0    0  0.18491319189E+02  0.79762833055E+02  0.37677025231E+02  0.90130997179E+02  0.00000000000E+00 0.  1.
         14    1    3    3    0    0 -0.12542223040E+02  0.22175047781E+02 -0.31018758658E+02  0.40139799346E+02  0.00000000000E+00 0. -1.
          5    1    4    4  503    0  0.62487924642E+02 -0.39002395576E+03  0.42254692682E+03  0.57843877996E+03  0.47000000000E+01 0.  1.
         -5    1    4    4    0  503 -0.13540321133E+02 -0.28438754286E+01  0.99048080603E+00  0.14645783560E+02  0.47000000000E+01 0.  1.
         -4    1    1    2    0  501  0.20083823456E+02  0.30236801154E+03  0.52308432676E+03  0.60452211479E+03  0.00000000000E+00 0.  1.
         -4    1    1    2    0  502 -0.56615294974E+02  0.59707561660E+02 -0.67491646800E+02  0.10642089519E+03  0.00000000000E+00 0.  1.
<mgrwt>
<rscale>  0 0.16521565E+03</rscale>
<asrwt>0</asrwt>
<pdfrwt beam="1">  1       -3 0.17911777E+00 0.33174082E+03</pdfrwt>
<pdfrwt beam="2">  1       -3 0.47945332E-01 0.82281739E+02</pdfrwt>
<totfact> 0.21671006E+00</totfact>
</mgrwt>
</event>
<event>
13    1  0.3379971E-008  0.5404354E+02  0.7546771E-02  0.1505188E+00
          2   -1    0    0  502    0  0.00000000000E+00  0.00000000000E+00  0.18868307178E+04  0.18868307178E+04  0.00000000000E+00 0. -1.
          2   -1    0    0  503    0 -0.00000000000E+00 -0.00000000000E+00 -0.35706236245E+04  0.35706236245E+04  0.00000000000E+00 0. -1.
         24    2    1    2    0    0 -0.25749021207E+02  0.65928975209E+02 -0.30640361953E+04  0.30657455308E+04  0.73947357277E+02 0.  0.
         25    2    1    2    0    0 -0.15185210052E+02 -0.12199512239E+02  0.36534758105E+03  0.38662874827E+03  0.12499406106E+03 0.  0.
         24    2    1    2    0    0 -0.27971717315E+01 -0.46782188528E+02 -0.25150425006E+03  0.26816284514E+03  0.80377399694E+02 0.  0.
        -11    1    3    3    0    0 -0.46228399806E+02  0.67144137446E+02 -0.25403956462E+04  0.25417032556E+04  0.00000000000E+00 0.  1.
         12    1    3    3    0    0  0.20479378599E+02 -0.12151622364E+01 -0.52364054910E+03  0.52404227523E+03  0.00000000000E+00 0. -1.
        -13    1    5    5    0    0 -0.39006313241E+02 -0.39962777532E+02 -0.13990536301E+03  0.15063872895E+03  0.00000000000E+00 0.  1.
         14    1    5    5    0    0  0.36209141510E+02 -0.68194109960E+01 -0.11159888704E+03  0.11752411618E+03  0.00000000000E+00 0. -1.
          5    1    4    4  501    0  0.17899874419E+02 -0.13900848882E+02  0.37037608624E+01  0.23440284734E+02  0.47000000000E+01 0. -1.
         -5    1    4    4    0  501 -0.33085084471E+02  0.17013366438E+01  0.36164382019E+03  0.36318846353E+03  0.47000000000E+01 0. -1.
          1    1    1    2  502    0  0.48995718464E+02  0.22812217377E+02  0.15001993986E+04  0.15011726127E+04  0.00000000000E+00 0. -1.
          1    1    1    2  503    0 -0.52643154732E+01 -0.29759491819E+02 -0.23379944097E+03  0.23574460538E+03  0.00000000000E+00 0. -1.
<mgrwt>
<rscale>  0 0.40413835E+02</rscale>
<asrwt>0</asrwt>
<pdfrwt beam="1">  1        2 0.27747511E+00 0.54043542E+02</pdfrwt>
<pdfrwt beam="2">  1        2 0.52509171E+00 0.30221522E+02</pdfrwt>
<totfact> 0.30194743E+00</totfact>
</mgrwt>
</event>
<event>
13    1  0.1589573E-008  0.6029345E+02  0.7546771E-02  0.1427962E+00
          2   -1    0    0  503    0  0.00000000000E+00  0.00000000000E+00  0.15752967685E+04  0.15752967685E+04  0.00000000000E+00 0. -1.
          2   -1    0    0  502    0 -0.00000000000E+00 -0.00000000000E+00 -0.15780649490E+04  0.15780649490E+04  0.00000000000E+00 0. -1.
         24    2    1    2    0    0  0.19885354272E+02 -0.69886839071E+02 -0.13577566239E+03  0.16505345090E+03  0.59397083809E+02 0.  0.
         25    2    1    2    0    0 -0.19188769371E+02  0.28349651573E+03  0.90344797791E+03  0.95529647500E+03  0.12503848627E+03 0.  0.
         24    2    1    2    0    0  0.45359158306E+02 -0.16504760014E+03  0.26535862317E+03  0.32573082451E+03  0.79920007412E+02 0.  0.
        -13    1    3    3    0    0 -0.15889427397E+02 -0.31614810646E+02 -0.27652661752E+02  0.44907013452E+02  0.00000000000E+00 0.  1.
         14    1    3    3    0    0  0.35774781669E+02 -0.38272028425E+02 -0.10812300064E+03  0.12014643744E+03  0.00000000000E+00 0. -1.
        -13    1    5    5    0    0  0.43003063665E+02 -0.45858140441E+02  0.53123152130E+02  0.82306146924E+02  0.00000000000E+00 0.  1.
         14    1    5    5    0    0  0.23560946405E+01 -0.11918945970E+03  0.21223547104E+03  0.24342467758E+03  0.00000000000E+00 0. -1.
          5    1    4    4  501    0 -0.60196609116E+02  0.68223316199E+02  0.25233833891E+03  0.26828115832E+03  0.47000000000E+01 0.  1.
         -5    1    4    4    0  501  0.41007839744E+02  0.21527319954E+03  0.65110963900E+03  0.68701531668E+03  0.47000000000E+01 0.  1.
          1    1    1    2  502    0 -0.29292701051E+00 -0.60298893226E+02 -0.13692111928E+04  0.13705383369E+04  0.00000000000E+00 0. -1.
          1    1    1    2  503    0 -0.45762816195E+02  0.11736816706E+02  0.33341207361E+03  0.33674263027E+03  0.00000000000E+00 0. -1.
<mgrwt>
<rscale>  0 0.53371332E+02</rscale>
<asrwt>0</asrwt>
<pdfrwt beam="1">  1        2 0.23166129E+00 0.47243922E+02</pdfrwt>
<pdfrwt beam="2">  1        2 0.23206837E+00 0.60293449E+02</pdfrwt>
<totfact> 0.37311666E+01</totfact>
</mgrwt>
</event>
<event>
13    1  0.1589573E-008  0.8499146E+02  0.7546771E-02  0.1414513E+00
         -3   -1    0    0    0  501 -0.00000000000E+00  0.00000000000E+00  0.10037052871E+03  0.10037052871E+03  0.00000000000E+00 0.  1.
          2   -1    0    0  503    0  0.00000000000E+00 -0.00000000000E+00 -0.52975906298E+04  0.52975906298E+04  0.00000000000E+00 0. -1.
         24    2    1    2    0    0 -0.34374606531E+02  0.76956990367E+02 -0.28671222971E+02  0.11961380539E+03  0.79883862405E+02 0.  0.
         25    2    1    2    0    0 -0.45793339763E+02 -0.23744042615E+02 -0.15664150910E+04  0.15722406170E+04  0.12499404323E+03 0.  0.
         24    2    1    2    0    0 -0.16900835791E+02  0.22224954881E+01 -0.23090171817E+03  0.24518431106E+03  0.80679397612E+02 0.  0.
        -11    1    3    3    0    0 -0.42543209266E+02  0.88811371465E+02 -0.14725021462E+02  0.99570129121E+02  0.00000000000E+00 0.  1.
         12    1    3    3    0    0  0.81686027349E+01 -0.11854381098E+02 -0.13946201510E+02  0.20043676270E+02  0.00000000000E+00 0. -1.
        -11    1    5    5    0    0 -0.85573763318E+01 -0.36250963005E+02 -0.15801204649E+03  0.16234274805E+03  0.00000000000E+00 0.  1.
         12    1    5    5    0    0 -0.83434594592E+01  0.38473458493E+02 -0.72889671682E+02  0.82841563011E+02  0.00000000000E+00 0. -1.
          5    1    4    4  502    0 -0.46133408360E+02 -0.63097573142E+02 -0.61011040679E+03  0.61511494339E+03  0.47000000000E+01 0.  1.
         -5    1    4    4    0  502  0.34006859740E+00  0.39353530527E+02 -0.95630468422E+03  0.95712567360E+03  0.47000000000E+01 0.  1.
          1    1    1    2  503    0  0.60174751684E+02 -0.59875832249E+02 -0.34077587804E+04  0.34088159266E+04  0.00000000000E+00 0. -1.
         -4    1    1    2    0  501  0.36894030400E+02  0.44403890083E+01  0.36526711451E+02  0.52106498473E+02  0.00000000000E+00 0.  1.
<mgrwt>
<rscale>  0 0.56198812E+02</rscale>
<asrwt>0</asrwt>
<pdfrwt beam="2">  1        2 0.77905748E+00 0.84991457E+02</pdfrwt>
<pdfrwt beam="1">  1       -3 0.14760371E-01 0.37160282E+02</pdfrwt>
<totfact> 0.11468748E+00</totfact>
</mgrwt>
</event>
<event>
13    1  0.1589573E-008  0.1268238E+03  0.7546771E-02  0.1238961E+00
          2   -1    0    0  502    0  0.00000000000E+00  0.00000000000E+00  0.18259411883E+04  0.18259411883E+04  0.00000000000E+00 0. -1.
          2   -1    0    0  503    0 -0.00000000000E+00 -0.00000000000E+00 -0.19247775842E+04  0.19247775842E+04  0.00000000000E+00 0. -1.
         24    2    1    2    0    0 -0.19494961658E+03  0.54223977965E+02 -0.72199002258E+03  0.75432592704E+03  0.82416131360E+02 0.  0.
         25    2    1    2    0    0  0.31083250058E+03 -0.22012529665E+03 -0.68445620982E+03  0.79320666895E+03  0.12499810740E+03 0.  0.
         24    2    1    2    0    0 -0.12937616235E+03  0.14904644008E+03  0.16621512298E+03  0.27014077744E+03  0.79972119180E+02 0.  0.
        -13    1    5    5    0    0 -0.10557489366E+03  0.15565360243E+03  0.14334937774E+03  0.23648075233E+03  0.00000000000E+00 0.  1.
         14    1    5    5    0    0 -0.23801268686E+02 -0.66071623553E+01  0.22865745242E+02  0.33660025118E+02  0.00000000000E+00 0. -1.
        -13    1    3    3    0    0  0.77784202802E+01 -0.16275829408E+01 -0.34071023768E+02  0.34985532851E+02  0.00000000000E+00 0.  1.
         14    1    3    3    0    0 -0.20272803686E+03  0.55851560906E+02 -0.68791899882E+03  0.71934039419E+03  0.00000000000E+00 0. -1.
          5    1    4    4  501    0  0.14308496435E+03 -0.11556029180E+03 -0.20997363930E+03  0.27917468951E+03  0.47000000000E+01 0. -1.
         -5    1    4    4    0  501  0.16774753623E+03 -0.10456500486E+03 -0.47448257052E+03  0.51403197944E+03  0.47000000000E+01 0. -1.
          1    1    1    2  502    0  0.12485684492E+03 -0.23370165129E+02  0.15256663377E+04  0.15309451886E+04  0.00000000000E+00 0. -1.
          1    1    1    2  503    0 -0.11136356657E+03  0.40225043739E+02 -0.38427162421E+03  0.40210021049E+03  0.00000000000E+00 0. -1.
<mgrwt>
<rscale>  0 0.12254246E+03</rscale>
<asrwt>0</asrwt>
<pdfrwt beam="1">  1        2 0.26852077E+00 0.12682379E+03</pdfrwt>
<pdfrwt beam="2">  1        2 0.28305552E+00 0.11840565E+03</pdfrwt>
<totfact> 0.16577548E+01</totfact>
</mgrwt>
</event>
<event>
13    1  0.1589573E-008  0.7651154E+02  0.7546771E-02  0.1375975E+00
          2   -1    0    0  503    0  0.00000000000E+00  0.00000000000E+00  0.22481380175E+04  0.22481380175E+04  0.00000000000E+00 0. -1.
          2   -1    0    0  502    0 -0.00000000000E+00 -0.00000000000E+00 -0.28903518866E+04  0.28903518866E+04  0.00000000000E+00 0. -1.
         24    2    1    2    0    0  0.10040278100E+03  0.71741118489E+03 -0.99701224380E+03  0.12367248793E+04  0.10341898371E+03 0.  0.
         25    2    1    2    0    0  0.10257000328E+04 -0.15095944428E+03  0.77070904565E+03  0.12978700224E+04  0.12499940311E+03 0.  0.
         24    2    1    2    0    0 -0.10334138870E+04 -0.65409397405E+03 -0.45527773674E+03  0.13075299339E+04  0.81077258234E+02 0.  0.
        -11    1    3    3    0    0  0.33632291131E+02  0.94231977272E+02 -0.19195721609E+03  0.21646794071E+03  0.00000000000E+00 0.  1.
         12    1    3    3    0    0  0.66770489868E+02  0.62317920762E+03 -0.80505502771E+03  0.10202569386E+04  0.00000000000E+00 0. -1.
        -13    1    5    5    0    0 -0.20899047089E+03 -0.10251105652E+03 -0.66009477702E+02  0.24195616293E+03  0.00000000000E+00 0.  1.
         14    1    5    5    0    0 -0.82442341611E+03 -0.55158291754E+03 -0.38926825904E+03  0.10655737710E+04  0.00000000000E+00 0. -1.
          5    1    4    4  501    0  0.96233874688E+03 -0.11714033475E+03  0.74004977128E+03  0.12196366163E+04  0.47000000000E+01 0.  1.
         -5    1    4    4    0  501  0.63361285960E+02 -0.33819109532E+02  0.30659274376E+02  0.78233406121E+02  0.47000000000E+01 0.  1.
          1    1    1    2  502    0 -0.41771035923E+02  0.64019371434E+02 -0.62498680244E+03  0.62964418729E+03  0.00000000000E+00 0. -1.
          1    1    1    2  503    0 -0.50917890914E+02  0.23622862007E+02  0.66435386817E+03  0.66672088116E+03  0.00000000000E+00 0. -1.
<mgrwt>
<rscale>  0 0.65533633E+02</rscale>
<asrwt>0</asrwt>
<pdfrwt beam="1">  1        2 0.33060853E+00 0.56130840E+02</pdfrwt>
<pdfrwt beam="2">  1        2 0.42505175E+00 0.76511541E+02</pdfrwt>
<totfact> 0.39965176E+00</totfact>
</mgrwt>
</event>
<event>
13    1  0.1589573E-008  0.1112601E+03  0.7546771E-02  0.1447018E+00
          2   -1    0    0  503    0  0.00000000000E+00  0.00000000000E+00  0.56493005198E+03  0.56493005198E+03  0.00000000000E+00 0. -1.
          2   -1    0    0  502    0 -0.00000000000E+00 -0.00000000000E+00 -0.21779537500E+04  0.21779537500E+04  0.00000000000E+00 0. -1.
         24    2    1    2    0    0  0.26115898510E+03 -0.23256141841E+03 -0.32622704336E+03  0.48506527628E+03  0.81088899364E+02 0.  0.
         25    2    1    2    0    0 -0.25886334046E+03  0.17890370325E+03  0.15700423186E+03  0.37322121579E+03  0.12500793183E+03 0.  0.
         24    2    1    2    0    0 -0.79440355250E+02 -0.73147419820E+02 -0.30790861564E+03  0.33568174976E+03  0.78823895288E+02 0.  0.
        -11    1    3    3    0    0  0.25574360970E+03 -0.23885753197E+03 -0.32278524236E+03  0.47607565278E+03  0.00000000000E+00 0.  1.
         12    1    3    3    0    0  0.54153753977E+01  0.62961135550E+01 -0.34418009989E+01  0.89896235022E+01  0.00000000000E+00 0. -1.
        -13    1    5    5    0    0  0.72304047189E+01 -0.40350402341E+02 -0.97952456490E+02  0.10618435598E+03  0.00000000000E+00 0.  1.
         14    1    5    5    0    0 -0.86670759969E+02 -0.32797017478E+02 -0.20995615915E+03  0.22949739379E+03  0.00000000000E+00 0. -1.
          5    1    4    4  501    0 -0.52597820764E+02  0.10822890035E+03  0.59695491359E+02  0.13440858346E+03  0.47000000000E+01 0.  1.
         -5    1    4    4    0  501 -0.20626551970E+03  0.70674802907E+02  0.97308740498E+02  0.23881263233E+03  0.47000000000E+01 0.  1.
          1    1    1    2  502    0  0.65433886608E+02  0.14565629058E+03 -0.13370430430E+04  0.13465442612E+04  0.00000000000E+00 0. -1.
          1    1    1    2  503    0  0.11710824008E+02 -0.18851155599E+02  0.20115077219E+03  0.20237129890E+03  0.00000000000E+00 0. -1.
<mgrwt>
<rscale>  0 0.49690494E+02</rscale>
<asrwt>0</asrwt>
<pdfrwt beam="1">  1        2 0.83077951E-01 0.22192554E+02</pdfrwt>
<pdfrwt beam="2">  1        2 0.32028731E+00 0.11126007E+03</pdfrwt>
<totfact> 0.68630156E+01</totfact>
</mgrwt>
</event>
<event>
13    1  0.1589573E-008  0.9076792E+02  0.7546771E-02  0.1307534E+00
          2   -1    0    0  502    0  0.00000000000E+00  0.00000000000E+00  0.70157311123E+03  0.70157311123E+03  0.00000000000E+00 0. -1.
          2   -1    0    0  503    0 -0.00000000000E+00 -0.00000000000E+00 -0.16901444599E+04  0.16901444599E+04  0.00000000000E+00 0. -1.
         24    2    1    2    0    0 -0.26295368040E+02 -0.53925473024E+02 -0.54013875827E+03  0.54972264180E+03  0.82738755776E+02 0.  0.
         25    2    1    2    0    0  0.22752445166E+02  0.10403571908E+03 -0.93459494529E+02  0.18894568396E+03  0.12499875905E+03 0.  0.
         24    2    1    2    0    0  0.66112866705E+02 -0.14358418999E+03 -0.24108265249E+03  0.29904378785E+03  0.79492206929E+02 0.  0.
        -11    1    3    3    0    0  0.27747141198E+02 -0.55572456540E+01 -0.19530432591E+03  0.19734377756E+03  0.00000000000E+00 0.  1.
         12    1    3    3    0    0 -0.54042509237E+02 -0.48368227370E+02 -0.34483443236E+03  0.35237886424E+03  0.00000000000E+00 0. -1.
        -13    1    5    5    0    0  0.27324737644E+02 -0.11010827622E+03 -0.21116982261E+03  0.23971476334E+03  0.00000000000E+00 0.  1.
         14    1    5    5    0    0  0.38788129061E+02 -0.33475913769E+02 -0.29912829881E+02  0.59329024518E+02  0.00000000000E+00 0. -1.
          5    1    4    4  501    0 -0.31274748428E+02 -0.13792011744E+02 -0.19333047650E+02  0.39549794040E+02  0.47000000000E+01 0. -1.
         -5    1    4    4    0  501  0.54027193594E+02  0.11782773082E+03 -0.74126446879E+02  0.14939588992E+03  0.47000000000E+01 0. -1.
          1    1    1    2  502    0  0.27828662466E+02  0.80843547771E+02  0.61424716867E+03  0.62016908815E+03  0.00000000000E+00 0. -1.
          1    1    1    2  503    0 -0.90398606298E+02  0.12630396164E+02 -0.72813761202E+03  0.73383636934E+03  0.00000000000E+00 0. -1.
<mgrwt>
<rscale>  0 0.88094183E+02</rscale>
<asrwt>0</asrwt>
<pdfrwt beam="1">  1        2 0.10317252E+00 0.85499203E+02</pdfrwt>
<pdfrwt beam="2">  1        2 0.24855065E+00 0.90767924E+02</pdfrwt>
<totfact> 0.92660208E+01</totfact>
</mgrwt>
</event>
<event>
13    1  0.1589573E-008  0.9915588E+02  0.7546771E-02  0.1289922E+00
          2   -1    0    0  502    0  0.00000000000E+00  0.00000000000E+00  0.24001184901E+04  0.24001184901E+04  0.00000000000E+00 0. -1.
          2   -1    0    0  503    0 -0.00000000000E+00 -0.00000000000E+00 -0.10062244420E+04  0.10062244420E+04  0.00000000000E+00 0. -1.
         24    2    1    2    0    0  0.65085215851E+02 -0.13497504045E+03 -0.17825929904E+03  0.24998786930E+03  0.90902201504E+02 0.  0.
         25    2    1    2    0    0  0.16577731890E+02  0.27033329718E+03  0.88655178027E+02  0.31118962744E+03  0.12499732349E+03 0.  0.
         24    2    1    2    0    0  0.88597105034E+01  0.40139216919E+02 -0.37030621127E+03  0.38118436601E+03  0.80530612658E+02 0.  0.
        -11    1    5    5    0    0 -0.17246763786E+02 -0.13410973999E+02 -0.19088304440E+03  0.19212923183E+03  0.00000000000E+00 0.  1.
         12    1    5    5    0    0  0.26106474289E+02  0.53550190918E+02 -0.17942316687E+03  0.18905513418E+03  0.00000000000E+00 0. -1.
        -13    1    3    3    0    0  0.26642172469E+01  0.10884562303E+02 -0.33105398968E+02  0.34950524902E+02  0.00000000000E+00 0.  1.
         14    1    3    3    0    0  0.62420998604E+02 -0.14585960275E+03 -0.14515390007E+03  0.21503734440E+03  0.00000000000E+00 0. -1.
          5    1    4    4  501    0  0.54462332825E+02  0.24399924920E+03  0.61697452655E+02  0.25754697624E+03  0.47000000000E+01 0.  1.
         -5    1    4    4    0  501 -0.37884600934E+02  0.26334047979E+02  0.26957725372E+02  0.53642651204E+02  0.47000000000E+01 0.  1.
          1    1    1    2  502    0 -0.76460034072E+02 -0.62857651302E+02  0.21471541861E+04  0.21494344186E+04  0.00000000000E+00 0. -1.
          1    1    1    2  503    0 -0.14062624173E+02 -0.11263982235E+03 -0.29334980572E+03  0.31454665074E+03  0.00000000000E+00 0. -1.
<mgrwt>
<rscale>  0 0.95558986E+02</rscale>
<asrwt>0</asrwt>
<pdfrwt beam="1">  1        2 0.35295860E+00 0.99155875E+02</pdfrwt>
<pdfrwt beam="2">  1        2 0.14797418E+00 0.92092574E+02</pdfrwt>
<totfact> 0.26701402E+01</totfact>
</mgrwt>
</event>
<event>
13    1  0.1589573E-008  0.5776876E+02  0.7546771E-02  0.1439949E+00
          2   -1    0    0  503    0  0.00000000000E+00  0.00000000000E+00  0.22310534840E+04  0.22310534840E+04  0.00000000000E+00 0. -1.
          2   -1    0    0  502    0 -0.00000000000E+00 -0.00000000000E+00 -0.42159709287E+03  0.42159709287E+03  0.00000000000E+00 0. -1.
         24    2    1    2    0    0 -0.11740445489E+02  0.16655452080E+03 -0.22102183544E+03  0.28314034782E+03  0.58647748147E+02 0.  0.
         25    2    1    2    0    0  0.60583593300E+02 -0.16642159368E+03  0.14559938153E+04  0.14720422536E+04  0.12499555053E+03 0.  0.
         24    2    1    2    0    0 -0.10068008233E+03  0.50590481661E+02  0.11962682036E+03  0.18303912142E+03  0.80603151350E+02 0.  0.
        -11    1    5    5    0    0 -0.22772820475E+02  0.48273081579E+02  0.21060073143E+02  0.57379599496E+02  0.00000000000E+00 0.  1.
         12    1    5    5    0    0 -0.77907261858E+02  0.23174000828E+01  0.98566747221E+02  0.12565952193E+03  0.00000000000E+00 0. -1.
        -13    1    3    3    0    0  0.20090895733E+02  0.67575856982E+02 -0.66629213723E+02  0.97003054898E+02  0.00000000000E+00 0.  1.
         14    1    3    3    0    0 -0.31831341222E+02  0.98978663814E+02 -0.15439262172E+03  0.18613729292E+03  0.00000000000E+00 0. -1.
          5    1    4    4  501    0 -0.59756590085E+01 -0.92701526655E+02  0.10474807206E+04  0.10516022211E+04  0.47000000000E+01 0. -1.
         -5    1    4    4    0  501  0.66559252308E+02 -0.73720067022E+02  0.40851309471E+03  0.42044003246E+03  0.47000000000E+01 0. -1.
          1    1    1    2  502    0 -0.56207184376E+01 -0.44696465880E+02 -0.12439583676E+03  0.13230151451E+03  0.00000000000E+00 0. -1.
          1    1    1    2  503    0  0.57457652960E+02 -0.60269429004E+01  0.57925342771E+03  0.58212733954E+03  0.00000000000E+00 0. -1.
<mgrwt>
<rscale>  0 0.51013679E+02</rscale>
<asrwt>0</asrwt>
<pdfrwt beam="1">  1        2 0.32809610E+00 0.57768760E+02</pdfrwt>
<pdfrwt beam="2">  1        2 0.61999573E-01 0.45048491E+02</pdfrwt>
<totfact> 0.93834885E+01</totfact>
</mgrwt>
</event>
<event>
13    1  0.1589573E-008  0.1045118E+03  0.7546771E-02  0.1297539E+00
          2   -1    0    0  503    0  0.00000000000E+00  0.00000000000E+00  0.17940105608E+04  0.17940105608E+04  0.00000000000E+00 0. -1.
          2   -1    0    0  502    0 -0.00000000000E+00 -0.00000000000E+00 -0.45769760068E+03  0.45769760068E+03  0.00000000000E+00 0. -1.
         24    2    1    2    0    0 -0.58741956240E+02  0.20323932552E+02  0.13182272612E+03  0.16658576320E+03  0.80683986775E+02 0.  0.
         25    2    1    2    0    0  0.11419513610E+03 -0.19940163346E+03  0.42579235725E+03  0.49972481103E+03  0.12499685886E+03 0.  0.
         24    2    1    2    0    0 -0.57070471221E+02  0.15327405926E+02  0.32239591919E+03  0.34290097056E+03  0.10074710339E+03 0.  0.
        -13    1    3    3    0    0 -0.58937045380E+02  0.34174719668E+02  0.13600620424E+03  0.15211566117E+03  0.00000000000E+00 0.  1.
         14    1    3    3    0    0  0.19508913987E+00 -0.13850787116E+02 -0.41834781191E+01  0.14470102027E+02  0.00000000000E+00 0. -1.
        -13    1    5    5    0    0 -0.32433105674E+02 -0.89711485135E+01  0.21305351421E+02  0.39828455261E+02  0.00000000000E+00 0.  1.
         14    1    5    5    0    0 -0.24637365547E+02  0.24298554440E+02  0.30109056777E+03  0.30307251530E+03  0.00000000000E+00 0. -1.
          5    1    4    4  501    0  0.78538515994E+02 -0.13352274082E+03  0.38336557843E+03  0.41350680471E+03  0.47000000000E+01 0.  1.
         -5    1    4    4    0  501  0.35656620103E+02 -0.65878892641E+02  0.42426778817E+02  0.86218006318E+02  0.47000000000E+01 0.  1.
          1    1    1    2  502    0 -0.40569638669E+02  0.70560617678E+02 -0.38575543700E+03  0.39424859356E+03  0.00000000000E+00 0. -1.
          1    1    1    2  503    0  0.42186930033E+02  0.93189677308E+02  0.84205739460E+03  0.84824802317E+03  0.00000000000E+00 0. -1.
<mgrwt>
<rscale>  0 0.92230396E+02</rscale>
<asrwt>0</asrwt>
<pdfrwt beam="1">  1        2 0.26382508E+00 0.10451176E+03</pdfrwt>
<pdfrwt beam="2">  1        2 0.67308471E-01 0.81392238E+02</pdfrwt>
<totfact> 0.13023148E+02</totfact>
</mgrwt>
</event>
<event>
13    1  0.1589573E-008  0.4096801E+02  0.7546771E-02  0.1568342E+00
          2   -1    0    0  503    0  0.00000000000E+00  0.00000000000E+00  0.62588465095E+03  0.62588465095E+03  0.00000000000E+00 0. -1.
          2   -1    0    0  502    0 -0.00000000000E+00 -0.00000000000E+00 -0.79055238829E+03  0.79055238829E+03  0.00000000000E+00 0. -1.
         24    2    1    2    0    0  0.22958946580E+02  0.77591677944E+02 -0.39516555591E+03  0.41136296288E+03  0.80722295156E+02 0.  0.
         25    2    1    2    0    0  0.19304797384E+02 -0.26514898995E+02  0.21285333458E+03  0.24900894451E+03  0.12499278913E+03 0.  0.
         24    2    1    2    0    0 -0.30450272715E+02 -0.75274419160E+02 -0.40612075109E+02  0.12273064973E+03  0.82583378773E+02 0.  0.
        -11    1    5    5    0    0  0.39215882069E+01 -0.76724980950E+02 -0.11535219314E+02  0.77686310509E+02  0.00000000000E+00 0.  1.
         12    1    5    5    0    0 -0.34371860922E+02  0.14505617904E+01 -0.29076855795E+02  0.45044339218E+02  0.00000000000E+00 0. -1.
        -11    1    3    3    0    0  0.45550073221E+02  0.74813297831E+02 -0.26165361828E+03  0.27592472644E+03  0.00000000000E+00 0.  1.
         12    1    3    3    0    0 -0.22591126642E+02  0.27783801122E+01 -0.13351193763E+03  0.13543823644E+03  0.00000000000E+00 0. -1.
          5    1    4    4  501    0 -0.11232963228E+02  0.24463374280E+02  0.17773368508E+03  0.17982210363E+03  0.47000000000E+01 0.  1.
         -5    1    4    4    0  501  0.30537760612E+02 -0.50978273275E+02  0.35119649498E+02  0.69186840874E+02  0.47000000000E+01 0.  1.
          1    1    1    2  502    0 -0.37265534099E+02  0.17271072974E+02 -0.28556443499E+03  0.28850313087E+03  0.00000000000E+00 0. -1.
          1    1    1    2  503    0  0.25452062850E+02  0.69265672374E+01  0.34382099408E+03  0.34483135126E+03  0.00000000000E+00 0. -1.
<mgrwt>
<rscale>  0 0.32873140E+02</rscale>
<asrwt>0</asrwt>
<pdfrwt beam="1">  1        2 0.92041861E-01 0.26377734E+02</pdfrwt>
<pdfrwt beam="2">  1        2 0.11625770E+00 0.40968012E+02</pdfrwt>
<totfact> 0.33739993E+02</totfact>
</mgrwt>
</event>
<event>
13    1  0.1589573E-008  0.1039809E+03  0.7546771E-02  0.1463440E+00
          2   -1    0    0  502    0  0.00000000000E+00  0.00000000000E+00  0.15551493972E+04  0.15551493972E+04  0.00000000000E+00 0. -1.
          2   -1    0    0  503    0 -0.00000000000E+00 -0.00000000000E+00 -0.27744889336E+04  0.27744889336E+04  0.00000000000E+00 0. -1.
         24    2    1    2    0    0  0.48870643643E+03  0.60962609129E+02 -0.75814638897E+03  0.90826281952E+03  0.87206544983E+02 0.  0.
         25    2    1    2    0    0 -0.16563973672E+03  0.17830389242E+03  0.77717369358E+02  0.28441377103E+03  0.12498961244E+03 0.  0.
         24    2    1    2    0    0 -0.21095484401E+03 -0.19861085038E+03 -0.29139115059E+03  0.41903313162E+03  0.82047222123E+02 0.  0.
        -11    1    5    5    0    0 -0.28557786667E+02 -0.73324963995E+02 -0.93156482426E+02  0.12194354326E+03  0.00000000000E+00 0.  1.
         12    1    5    5    0    0 -0.18239705734E+03 -0.12528588638E+03 -0.19823466816E+03  0.29708958837E+03  0.00000000000E+00 0. -1.
        -13    1    3    3    0    0  0.52866524018E+02 -0.15356742107E+02 -0.57561706804E+02  0.79649538480E+02  0.00000000000E+00 0.  1.
         14    1    3    3    0    0  0.43583991242E+03  0.76319351236E+02 -0.70058468217E+03  0.82861328104E+03  0.00000000000E+00 0. -1.
          5    1    4    4  501    0 -0.16297210336E+03  0.10216394607E+03  0.30903972423E+02  0.19487053103E+03  0.47000000000E+01 0. -1.
         -5    1    4    4    0  501 -0.26676333585E+01  0.76139946351E+02  0.46813396935E+02  0.89543240005E+02  0.47000000000E+01 0. -1.
          1    1    1    2  502    0 -0.10678828511E+02 -0.18150423549E+02  0.12332944669E+04  0.12334742467E+04  0.00000000000E+00 0. -1.
          1    1    1    2  503    0 -0.10143302719E+03 -0.22505227624E+02 -0.14808138331E+04  0.14844543619E+04  0.00000000000E+00 0. -1.
<mgrwt>
<rscale>  0 0.46794436E+02</rscale>
<asrwt>0</asrwt>
<pdfrwt beam="1">  1        2 0.22869844E+00 0.21058852E+02</pdfrwt>
<pdfrwt beam="2">  1        2 0.40801308E+00 0.10398094E+03</pdfrwt>
<totfact> 0.10135320E+01</totfact>
</mgrwt>
</event>
<event>
13    1  0.1589573E-008  0.1994794E+03  0.7546771E-02  0.1190352E+00
          2   -1    0    0  502    0  0.00000000000E+00  0.00000000000E+00  0.28488120749E+04  0.28488120749E+04  0.00000000000E+00 0. -1.
          2   -1    0    0  503    0 -0.00000000000E+00 -0.00000000000E+00 -0.22597213147E+04  0.22597213147E+04  0.00000000000E+00 0. -1.
         24    2    1    2    0    0 -0.14874122779E+04 -0.39445619252E+03  0.13144446365E+02  0.15421669467E+04  0.10057406668E+03 0.  0.
         25    2    1    2    0    0 -0.14299730645E+02  0.21914567317E+03  0.17028115975E+03  0.30470718808E+03  0.12498595415E+03 0.  0.
         24    2    1    2    0    0  0.12269447997E+04  0.28109725712E+03 -0.60366631807E+02  0.12649330714E+04  0.10955517019E+03 0.  0.
        -11    1    5    5    0    0  0.23390273223E+03  0.66580166560E+02  0.29698301683E+02  0.24500080785E+03  0.00000000000E+00 0.  1.
         12    1    5    5    0    0  0.99304206751E+03  0.21451709056E+03 -0.90064933490E+02  0.10199322635E+04  0.00000000000E+00 0. -1.
        -13    1    3    3    0    0 -0.13617108076E+03 -0.31875348500E+02 -0.27521681770E+02  0.14253436092E+03  0.00000000000E+00 0.  1.
         14    1    3    3    0    0 -0.13512411971E+04 -0.36258084402E+03  0.40666128135E+02  0.13996325858E+04  0.00000000000E+00 0. -1.
          5    1    4    4  501    0  0.42682494645E+02  0.51291091113E+02  0.84358789610E+02  0.10766181663E+03  0.47000000000E+01 0. -1.
         -5    1    4    4    0  501 -0.56982225290E+02  0.16785458206E+03  0.85922370139E+02  0.19704537145E+03  0.47000000000E+01 0. -1.
          1    1    1    2  502    0  0.12377533465E+03  0.23610805730E+02  0.12151494176E+04  0.12216652204E+04  0.00000000000E+00 0. -1.
          1    1    1    2  503    0  0.15099187415E+03 -0.12939754350E+03 -0.74911763173E+03  0.77506096308E+03  0.00000000000E+00 0. -1.
<mgrwt>
<rscale>  0 0.15854285E+03</rscale>
<asrwt>0</asrwt>
<pdfrwt beam="1">  1        2 0.41894295E+00 0.12600716E+03</pdfrwt>
<pdfrwt beam="2">  1        2 0.33231196E+00 0.19947944E+03</pdfrwt>
<totfact> 0.33232993E+00</totfact>
</mgrwt>
</event>
<event>
13    1  0.1589573E-008  0.1679010E+03  0.7546771E-02  0.1372098E+00
         -3   -1    0    0    0  501 -0.00000000000E+00  0.00000000000E+00  0.36912887092E+03  0.36912887092E+03  0.00000000000E+00 0.  1.
          2   -1    0    0  503    0  0.00000000000E+00 -0.00000000000E+00 -0.15334845846E+04  0.15334845846E+04  0.00000000000E+00 0. -1.
         24    2    1    2    0    0 -0.16191238903E+03 -0.84719914858E+01 -0.17251152954E+03  0.25011623240E+03  0.80687703687E+02 0.  0.
         25    2    1    2    0    0 -0.60261865547E+01 -0.77998144162E+02  0.88997287647E+02  0.17223684003E+03  0.12499994575E+03 0.  0.
         24    2    1    2    0    0  0.27323437821E+03 -0.67475979674E+02 -0.20183810264E+03  0.35947623947E+03  0.96304277121E+02 0.  0.
        -11    1    3    3    0    0 -0.92138319460E+02 -0.40700568233E+02 -0.73091868129E+02  0.12445251044E+03  0.00000000000E+00 0.  1.
         12    1    3    3    0    0 -0.69774069566E+02  0.32228576747E+02 -0.99419661408E+02  0.12566372196E+03  0.00000000000E+00 0. -1.
        -11    1    5    5    0    0  0.19351174199E+03 -0.82653480000E+02 -0.17594809150E+03  0.27429203953E+03  0.00000000000E+00 0.  1.
         12    1    5    5    0    0  0.79722636225E+02  0.15177500326E+02 -0.25890011141E+02  0.85184199942E+02  0.00000000000E+00 0. -1.
          5    1    4    4  502    0 -0.22298660646E+02 -0.40335218315E+02  0.11462617106E+03  0.12363417486E+03  0.47000000000E+01 0.  1.
         -5    1    4    4    0  502  0.16272474091E+02 -0.37662925848E+02 -0.25628883409E+02  0.48602665166E+02  0.47000000000E+01 0.  1.
          1    1    1    2  503    0 -0.78996182463E+02  0.15155854525E+03 -0.99104412025E+03  0.10056733256E+04  0.00000000000E+00 0. -1.
         -4    1    1    2    0  501 -0.26299620170E+02  0.23875700755E+01  0.11204075113E+03  0.11511081803E+03  0.00000000000E+00 0.  1.
<mgrwt>
<rscale>  0 0.66587478E+02</rscale>
<asrwt>0</asrwt>
<pdfrwt beam="2">  1        2 0.22551244E+00 0.16790102E+03</pdfrwt>
<pdfrwt beam="1">  1       -3 0.54283658E-01 0.26407774E+02</pdfrwt>
<totfact> 0.27458353E+01</totfact>
</mgrwt>
</event>
<event>
13    1  0.1589573E-008  0.9092410E+02  0.7546771E-02  0.1376034E+00
          2   -1    0    0  502    0  0.00000000000E+00  0.00000000000E+00  0.96876708088E+03  0.96876708088E+03  0.00000000000E+00 0. -1.
          2   -1    0    0  503    0 -0.00000000000E+00 -0.00000000000E+00 -0.15545962641E+04  0.15545962641E+04  0.00000000000E+00 0. -1.
         24    2    1    2    0    0 -0.35764870476E+03  0.27780629284E+03 -0.80614083306E+02  0.46841383099E+03  0.88453119074E+02 0.  0.
         25    2    1    2    0    0 -0.43296045174E+02 -0.50839828579E+02  0.14582963648E+03  0.20332862676E+03  0.12496804346E+03 0.  0.
         24    2    1    2    0    0  0.49657869240E+03 -0.30623246716E+03  0.55022972305E+01  0.59318762563E+03  0.10711004729E+03 0.  0.
        -11    1    5    5    0    0  0.46452500090E+03 -0.27591469024E+03  0.32836570302E+02  0.54128609173E+03  0.00000000000E+00 0.  1.
         12    1    5    5    0    0  0.32053691498E+02 -0.30317776922E+02 -0.27334273071E+02  0.51901533894E+02  0.00000000000E+00 0. -1.
        -11    1    3    3    0    0 -0.22103611529E+03  0.19146158334E+03 -0.11531198988E+02  0.29265589129E+03  0.00000000000E+00 0.  1.
         12    1    3    3    0    0 -0.13661258947E+03  0.86344709506E+02 -0.69082884318E+02  0.17575793970E+03  0.00000000000E+00 0. -1.
          5    1    4    4  501    0 -0.15299269384E+02  0.36537251528E+02  0.13258743656E+02  0.42034779365E+02  0.47000000000E+01 0. -1.
         -5    1    4    4    0  501 -0.27996775790E+02 -0.87377080107E+02  0.13257089282E+03  0.16129384739E+03  0.47000000000E+01 0. -1.
          1    1    1    2  502    0 -0.47146802360E+02  0.24531094173E+01  0.29691959957E+03  0.30064944259E+03  0.00000000000E+00 0. -1.
          1    1    1    2  503    0 -0.48487140104E+02  0.76812893484E+02 -0.95346663323E+03  0.95778381905E+03  0.00000000000E+00 0. -1.
<mgrwt>
<rscale>  0 0.65517777E+02</rscale>
<asrwt>0</asrwt>
<pdfrwt beam="1">  1        2 0.14246575E+00 0.47210578E+02</pdfrwt>
<pdfrwt beam="2">  1        2 0.22861709E+00 0.90924096E+02</pdfrwt>
<totfact> 0.74915279E+01</totfact>
</mgrwt>
</event>
<event>
13    1  0.1589573E-008  0.1094726E+03  0.7546771E-02  0.1365323E+00
          2   -1    0    0  503    0  0.00000000000E+00  0.00000000000E+00  0.21696084227E+04  0.21696084227E+04  0.00000000000E+00 0. -1.
         -1   -1    0    0    0  501 -0.00000000000E+00 -0.00000000000E+00 -0.10908556416E+04  0.10908556416E+04  0.00000000000E+00 0.  1.
         24    2    1    2    0    0 -0.63277936196E+02  0.46938306046E+02 -0.13822095097E+03  0.18076908618E+03  0.85820332360E+02 0.  0.
         25    2    1    2    0    0  0.27151977130E+02  0.15253616837E+03  0.99751383811E+03  0.10171847693E+04  0.12500594078E+03 0.  0.
         24    2    1    2    0    0  0.17438084091E+02 -0.23273283916E+02  0.24037044396E+02  0.90549133580E+02  0.82314236727E+02 0.  0.
        -11    1    3    3    0    0 -0.75477886869E+02  0.60733849658E+02 -0.12476173104E+03  0.15795885994E+03  0.00000000000E+00 0.  1.
         12    1    3    3    0    0  0.12199950674E+02 -0.13795543612E+02 -0.13459219933E+02  0.22810226241E+02  0.00000000000E+00 0. -1.
        -11    1    5    5    0    0 -0.30361484280E+02  0.63678185719E+01  0.97627010475E+01  0.32521979841E+02  0.00000000000E+00 0.  1.
         12    1    5    5    0    0  0.47799568370E+02 -0.29641102488E+02  0.14274343348E+02  0.58027153739E+02  0.00000000000E+00 0. -1.
          5    1    4    4  502    0 -0.35948676499E+01  0.38987444414E+02  0.56884145880E+02  0.69215893752E+02  0.47000000000E+01 0.  1.
         -5    1    4    4    0  502  0.30746844780E+02  0.11354872396E+03  0.94062969223E+03  0.94796887559E+03  0.47000000000E+01 0.  1.
          1    1    1    2  503    0 -0.30358645890E+02 -0.30230481784E+02  0.10765887537E+04  0.10774408912E+04  0.00000000000E+00 0. -1.
         -2    1    1    2    0  501  0.49046520864E+02 -0.14597070872E+03 -0.88116590414E+03  0.89452018403E+03  0.00000000000E+00 0.  1.
<mgrwt>
<rscale>  0 0.68484609E+02</rscale>
<asrwt>0</asrwt>
<pdfrwt beam="1">  1        2 0.31906006E+00 0.42843079E+02</pdfrwt>
<pdfrwt beam="2">  1       -1 0.16041995E+00 0.10947256E+03</pdfrwt>
<totfact> 0.32603028E+00</totfact>
</mgrwt>
</event>
<event>
13    1  0.1589573E-008  0.8565825E+02  0.7546771E-02  0.1365619E+00
         -3   -1    0    0    0  501 -0.00000000000E+00  0.00000000000E+00  0.52290334710E+03  0.52290334710E+03  0.00000000000E+00 0.  1.
          2   -1    0    0  503    0  0.00000000000E+00 -0.00000000000E+00 -0.29390538317E+04  0.29390538317E+04  0.00000000000E+00 0. -1.
         24    2    1    2    0    0 -0.78655840594E+02 -0.15264216210E+02  0.25373430999E+03  0.27811215943E+03  0.80904484435E+02 0.  0.
         25    2    1    2    0    0 -0.60115250046E+02 -0.16557036608E+03 -0.81340971823E+03  0.84159804913E+03  0.12499806871E+03 0.  0.
         24    2    1    2    0    0  0.11842055566E+03  0.47954170504E+02 -0.10517862236E+03  0.18393544341E+03  0.80291184251E+02 0.  0.
        -11    1    5    5    0    0 -0.70921146523E+01 -0.75988295726E+01  0.94451256240E+00  0.10437068798E+02  0.00000000000E+00 0.  1.
         12    1    5    5    0    0  0.12551267031E+03  0.55553000076E+02 -0.10612313493E+03  0.17349837461E+03  0.00000000000E+00 0. -1.
        -13    1    3    3    0    0 -0.46816450384E+02  0.31877823997E+02  0.13731817686E+03  0.14854042341E+03  0.00000000000E+00 0.  1.
         14    1    3    3    0    0 -0.31839390210E+02 -0.47142040208E+02  0.11641613313E+03  0.12957173602E+03  0.00000000000E+00 0. -1.
          5    1    4    4  502    0  0.30448779173E+02 -0.73437493487E+02 -0.42026431003E+03  0.42774335049E+03  0.47000000000E+01 0. -1.
         -5    1    4    4    0  502 -0.90564029219E+02 -0.92132872590E+02 -0.39314540820E+03  0.41385469864E+03  0.47000000000E+01 0. -1.
          1    1    1    2  503    0 -0.10816728585E+02  0.53537709160E+02 -0.19454770859E+04  0.19462436589E+04  0.00000000000E+00 0. -1.
         -4    1    1    2    0  501  0.31167263568E+02  0.79342702623E+02  0.19418063195E+03  0.21206786791E+03  0.00000000000E+00 0.  1.
<mgrwt>
<rscale>  0 0.68400360E+02</rscale>
<asrwt>0</asrwt>
<pdfrwt beam="2">  1        2 0.43221380E+00 0.54619483E+02</pdfrwt>
<pdfrwt beam="1">  1       -3 0.76897551E-01 0.85658249E+02</pdfrwt>
<totfact> 0.33671765E+00</totfact>
</mgrwt>
</event>
<event>
13    1  0.1589573E-008  0.8894489E+02  0.7546771E-02  0.1337615E+00
          2   -1    0    0  503    0  0.00000000000E+00  0.00000000000E+00  0.24482768748E+04  0.24482768748E+04  0.00000000000E+00 0. -1.
         -1   -1    0    0    0  501 -0.00000000000E+00 -0.00000000000E+00 -0.46263048050E+03  0.46263048050E+03  0.00000000000E+00 0.  1.
         24    2    1    2    0    0 -0.11702999810E+03 -0.79213299531E+02 -0.89945260808E+02  0.18224501562E+03  0.71779722073E+02 0.  0.
         25    2    1    2    0    0  0.11134733567E+03  0.10036374067E+03  0.93166051685E+03  0.95188604513E+03  0.12499845865E+03 0.  0.
         24    2    1    2    0    0  0.21312475329E+02 -0.38854431737E+02 -0.68885178566E+02  0.11596195454E+03  0.82086043909E+02 0.  0.
        -11    1    5    5    0    0  0.46724534297E+02 -0.16311703112E+02 -0.14029755391E+02  0.51440138025E+02  0.00000000000E+00 0.  1.
         12    1    5    5    0    0 -0.25412058968E+02 -0.22542728626E+02 -0.54855423175E+02  0.64521816516E+02  0.00000000000E+00 0. -1.
        -13    1    3    3    0    0 -0.31181794949E+02 -0.50150603335E+02 -0.65873491997E+02  0.88468662808E+02  0.00000000000E+00 0.  1.
         14    1    3    3    0    0 -0.85848203147E+02 -0.29062696196E+02 -0.24071768811E+02  0.93776352816E+02  0.00000000000E+00 0. -1.
          5    1    4    4  502    0  0.46421059647E+02 -0.87796719935E+00  0.87304368547E+02  0.98994082513E+02  0.47000000000E+01 0. -1.
         -5    1    4    4    0  502  0.64926276023E+02  0.10124170786E+03  0.84435614830E+03  0.85289196262E+03  0.47000000000E+01 0. -1.
          1    1    1    2  503    0 -0.40176869981E+02  0.79786089828E+02  0.14304167854E+04  0.14332034681E+04  0.00000000000E+00 0. -1.
         -2    1    1    2    0  501  0.24547057079E+02 -0.62082099225E+02 -0.21760046860E+03  0.22761087187E+03  0.00000000000E+00 0.  1.
<mgrwt>
<rscale>  0 0.77057506E+02</rscale>
<asrwt>0</asrwt>
<pdfrwt beam="1">  1        2 0.36004071E+00 0.88944891E+02</pdfrwt>
<pdfrwt beam="2">  1       -1 0.68033896E-01 0.66758858E+02</pdfrwt>
<totfact> 0.15187114E+01</totfact>
</mgrwt>
</event>
<event>
13    1  0.1589573E-008  0.1735303E+03  0.7546771E-02  0.1365592E+00
          2   -1    0    0  503    0  0.00000000000E+00  0.00000000000E+00  0.14901033663E+04  0.14901033663E+04  0.00000000000E+00 0. -1.
          2   -1    0    0  502    0 -0.00000000000E+00 -0.00000000000E+00 -0.13285236429E+04  0.13285236429E+04  0.00000000000E+00 0. -1.
         24    2    1    2    0    0 -0.82567572603E+02  0.18534601516E+03 -0.10695392900E+04  0.10915048754E+04  0.79360258583E+02 0.  0.
         25    2    1    2    0    0 -0.10598474926E+03 -0.11185699450E+03  0.12588606685E+04  0.12744052745E+04  0.12503546211E+03 0.  0.
         24    2    1    2    0    0  0.16055492864E+02 -0.26228795009E+02  0.16759190282E+02  0.86583999111E+02  0.79184530715E+02 0.  0.
        -11    1    3    3    0    0 -0.17094930902E+02 -0.34437236323E+01 -0.65974813018E+02  0.68240544017E+02  0.00000000000E+00 0.  1.
         12    1    3    3    0    0 -0.65472641701E+02  0.18878973879E+03 -0.10035644770E+04  0.10232643313E+04  0.00000000000E+00 0. -1.
        -13    1    5    5    0    0 -0.29093949861E+02  0.49810712593E+01  0.10556253992E+02  0.31348101821E+02  0.00000000000E+00 0.  1.
         14    1    5    5    0    0  0.45149442725E+02 -0.31209866268E+02  0.62029362896E+01  0.55235897291E+02  0.00000000000E+00 0. -1.
          5    1    4    4  501    0 -0.10542873700E+03 -0.12448887128E+03  0.86187993623E+03  0.87719542414E+03  0.47000000000E+01 0.  1.
         -5    1    4    4    0  501 -0.55601225793E+00  0.12631876778E+02  0.39698073224E+03  0.39720985036E+03  0.47000000000E+01 0.  1.
          1    1    1    2  502    0  0.15791352685E+03 -0.69944227343E+02 -0.16727213919E+03  0.24043470101E+03  0.00000000000E+00 0. -1.
          1    1    1    2  503    0  0.14583302145E+02  0.22684001694E+02  0.12277129391E+03  0.12569815926E+03  0.00000000000E+00 0. -1.
<mgrwt>
<rscale>  0 0.68407955E+02</rscale>
<asrwt>0</asrwt>
<pdfrwt beam="1">  1        2 0.21913285E+00 0.26967325E+02</pdfrwt>
<pdfrwt beam="2">  1        2 0.19537112E+00 0.17353031E+03</pdfrwt>
<totfact> 0.52905084E+01</totfact>
</mgrwt>
</event>
<event>
13    1  0.1589573E-008  0.5405022E+02  0.7546771E-02  0.1469981E+00
         -3   -1    0    0    0  501 -0.00000000000E+00  0.00000000000E+00  0.60059250895E+03  0.60059250895E+03  0.00000000000E+00 0.  1.
          2   -1    0    0  503    0  0.00000000000E+00 -0.00000000000E+00 -0.15527241570E+04  0.15527241570E+04  0.00000000000E+00 0. -1.
         24    2    1    2    0    0 -0.23670636574E+02  0.18248440670E+02 -0.15306228958E+02  0.86845889487E+02  0.80091343185E+02 0.  0.
         25    2    1    2    0    0 -0.49519804072E+02 -0.10327480144E+03 -0.75936785005E+02  0.18577068263E+03  0.12500582227E+03 0.  0.
         24    2    1    2    0    0  0.45610258860E+01  0.12269702601E+03 -0.23143703368E+03  0.27422756121E+03  0.81007972586E+02 0.  0.
        -11    1    3    3    0    0  0.30676303947E+01 -0.26728531325E+02  0.10026353167E+02  0.28711539507E+02  0.00000000000E+00 0.  1.
         12    1    3    3    0    0 -0.26738266969E+02  0.44976971996E+02 -0.25332582125E+02  0.58134349980E+02  0.00000000000E+00 0. -1.
        -11    1    5    5    0    0 -0.13587479147E+02 -0.34065831331E+01 -0.54011060056E+02  0.55798019737E+02  0.00000000000E+00 0.  1.
         12    1    5    5    0    0  0.18148505033E+02  0.12610360914E+03 -0.17742597362E+03  0.21842954148E+03  0.00000000000E+00 0. -1.
          5    1    4    4  502    0 -0.36701202170E+02 -0.11033531894E+03 -0.85885098957E+01  0.11669067379E+03  0.47000000000E+01 0.  1.
         -5    1    4    4    0  502 -0.12818601902E+02  0.70605174996E+01 -0.67348275109E+02  0.69080008847E+02  0.47000000000E+01 0.  1.
          1    1    1    2  503    0  0.53923083448E+02 -0.19275786296E+01 -0.11165450561E+04  0.11178480562E+04  0.00000000000E+00 0. -1.
         -4    1    1    2    0  501  0.14706331311E+02 -0.35743086609E+02  0.48709345566E+03  0.48862447643E+03  0.00000000000E+00 0.  1.
<mgrwt>
<rscale>  0 0.45706197E+02</rscale>
<asrwt>0</asrwt>
<pdfrwt beam="2">  1        2 0.22834178E+00 0.54050222E+02</pdfrwt>
<pdfrwt beam="1">  1       -3 0.88322429E-01 0.38650284E+02</pdfrwt>
<totfact> 0.11218301E+01</totfact>
</mgrwt>
</event>
<event>
13    1  0.1589573E-008  0.6809963E+02  0.7546771E-02  0.1437130E+00
          2   -1    0    0  503    0  0.00000000000E+00  0.00000000000E+00  0.17191573552E+04  0.17191573552E+04  0.00000000000E+00 0. -1.
          2   -1    0    0  502    0 -0.00000000000E+00 -0.00000000000E+00 -0.34538824008E+04  0.34538824008E+04  0.00000000000E+00 0. -1.
         24    2    1    2    0    0  0.65434914094E+02 -0.95766489835E+02 -0.79220013770E+03  0.80462335178E+03  0.79904514859E+02 0.  0.
         25    2    1    2    0    0 -0.17341122762E+03 -0.61402239150E+01  0.50132443843E+02  0.21965420674E+03  0.12500220957E+03 0.  0.
         24    2    1    2    0    0  0.16979049749E+03  0.79365894864E+02 -0.32745896780E+03  0.38682102350E+03  0.85284056655E+02 0.  0.
        -13    1    3    3    0    0  0.66390302732E+02 -0.32112152002E+02 -0.33567932404E+03  0.34368513380E+03  0.00000000000E+00 0.  1.
         14    1    3    3    0    0 -0.95538863830E+00 -0.63654337833E+02 -0.45652081366E+03  0.46093821798E+03  0.00000000000E+00 0. -1.
        -13    1    5    5    0    0 -0.10049959529E+02  0.35335002871E+01 -0.19577789108E+02  0.22288497867E+02  0.00000000000E+00 0.  1.
         14    1    5    5    0    0  0.17984045702E+03  0.75832394577E+02 -0.30788117869E+03  0.36453252563E+03  0.00000000000E+00 0. -1.
          5    1    4    4  501    0  0.17430228636E+02  0.35309535854E+01 -0.77167367726E+01  0.19947895376E+02  0.47000000000E+01 0. -1.
         -5    1    4    4    0  501 -0.19084145625E+03 -0.96711775005E+01  0.57849180615E+02  0.19970631136E+03  0.47000000000E+01 0. -1.
          1    1    1    2  502    0 -0.66176136734E+02 -0.16244677885E+02 -0.22127992802E+04  0.22138481937E+04  0.00000000000E+00 0. -1.
          1    1    1    2  503    0  0.43619527662E+01  0.38785496771E+02  0.15476008962E+04  0.15480929802E+04  0.00000000000E+00 0. -1.
<mgrwt>
<rscale>  0 0.51555107E+02</rscale>
<asrwt>0</asrwt>
<pdfrwt beam="1">  1        2 0.25281726E+00 0.39030006E+02</pdfrwt>
<pdfrwt beam="2">  1        2 0.50792388E+00 0.68099631E+02</pdfrwt>
<totfact> 0.36936804E+00</totfact>
</mgrwt>
</event>
<event>
13    1  0.1589573E-008  0.9145813E+02  0.7546771E-02  0.1311206E+00
          2   -1    0    0  502    0  0.00000000000E+00  0.00000000000E+00  0.34284345803E+04  0.34284345803E+04  0.00000000000E+00 0. -1.
          2   -1    0    0  503    0 -0.00000000000E+00 -0.00000000000E+00 -0.22777837536E+04  0.22777837536E+04  0.00000000000E+00 0. -1.
         24    2    1    2    0    0  0.35965068388E+02 -0.30200329885E+02 -0.40557597043E+03  0.41700390316E+03  0.84822410937E+02 0.  0.
         25    2    1    2    0    0 -0.80446908245E+02 -0.15723767526E+02  0.44498975153E+02  0.15596895645E+03  0.12500885838E+03 0.  0.
         24    2    1    2    0    0  0.12296649178E+02 -0.44453031719E+02 -0.41926447850E+02  0.98582717960E+02  0.76376996806E+02 0.  0.
        -11    1    5    5    0    0 -0.10323068353E+02  0.17056653280E+02  0.14521973750E+01  0.19990098513E+02  0.00000000000E+00 0.  1.
         12    1    5    5    0    0  0.22619717531E+02 -0.61509685000E+02 -0.43378645225E+02  0.78592619447E+02  0.00000000000E+00 0. -1.
        -13    1    3    3    0    0 -0.36508321659E+01  0.27009730498E+02 -0.10530490707E+03  0.10877489403E+03  0.00000000000E+00 0.  1.
         14    1    3    3    0    0  0.39615900554E+02 -0.57210060383E+02 -0.30027106335E+03  0.30822900914E+03  0.00000000000E+00 0. -1.
          5    1    4    4  501    0  0.10994844994E+02 -0.42998886644E+02  0.40626030952E+02  0.60351928387E+02  0.47000000000E+01 0. -1.
         -5    1    4    4    0  501 -0.91441753239E+02  0.27275119118E+02  0.38729442010E+01  0.95617028061E+02  0.47000000000E+01 0. -1.
          1    1    1    2  502    0 -0.48858183596E+02  0.77437098308E+02  0.32925542628E+04  0.32938271357E+04  0.00000000000E+00 0. -1.
          1    1    1    2  503    0  0.81043374275E+02  0.12940030823E+02 -0.17388999929E+04  0.17408356207E+04  0.00000000000E+00 0. -1.
<mgrwt>
<rscale>  0 0.86636956E+02</rscale>
<asrwt>0</asrwt>
<pdfrwt beam="1">  1        2 0.50418156E+00 0.91458132E+02</pdfrwt>
<pdfrwt beam="2">  1        2 0.33496820E+00 0.82069927E+02</pdfrwt>
<totfact> 0.18228530E+00</totfact>
</mgrwt>
</event>
<event>
13    1  0.1589573E-008  0.9138530E+02  0.7546771E-02  0.1398739E+00
          2   -1    0    0  502    0  0.00000000000E+00  0.00000000000E+00  0.22048009779E+04  0.22048009779E+04  0.00000000000E+00 0. -1.
          2   -1    0    0  503    0 -0.00000000000E+00 -0.00000000000E+00 -0.33156490316E+04  0.33156490316E+04  0.00000000000E+00 0. -1.
         24    2    1    2    0    0  0.20456547689E+03 -0.26232239197E+03 -0.48569613694E+03  0.59207737485E+03  0.63204499106E+02 0.  0.
         25    2    1    2    0    0 -0.40285381047E+03  0.24338010618E+03  0.68461046968E+03  0.84014160455E+03  0.12498540633E+03 0.  0.
         24    2    1    2    0    0  0.98805969689E+02  0.41129340377E+02  0.14118201413E+03  0.19355625592E+03  0.77957814272E+02 0.  0.
        -11    1    5    5    0    0  0.28113546779E+02  0.48956874865E+02  0.37319430479E+02  0.67674862396E+02  0.00000000000E+00 0.  1.
         12    1    5    5    0    0  0.70692422910E+02 -0.78275344878E+01  0.10386258365E+03  0.12588139352E+03  0.00000000000E+00 0. -1.
        -11    1    3    3    0    0  0.37916223990E+02 -0.95353927261E+02 -0.15348211504E+03  0.18462603046E+03  0.00000000000E+00 0.  1.
         12    1    3    3    0    0  0.16664925290E+03 -0.16696846471E+03 -0.33221402190E+03  0.40745134439E+03  0.00000000000E+00 0. -1.
          5    1    4    4  501    0 -0.32384222506E+03  0.24752056731E+03  0.57895302700E+03  0.70805996600E+03  0.47000000000E+01 0.  1.
         -5    1    4    4    0  501 -0.79011585413E+02 -0.41404611337E+01  0.10565744268E+03  0.13208163855E+03  0.47000000000E+01 0.  1.
          1    1    1    2  502    0  0.24695764696E+02  0.30328014825E+02  0.12207708222E+04  0.12213971793E+04  0.00000000000E+00 0. -1.
          1    1    1    2  503    0  0.74786599195E+02 -0.52515069412E+02 -0.26717152227E+04  0.26732775949E+04  0.00000000000E+00 0. -1.
<mgrwt>
<rscale>  0 0.59784356E+02</rscale>
<asrwt>0</asrwt>
<pdfrwt beam="1">  1        2 0.32423544E+00 0.39110987E+02</pdfrwt>
<pdfrwt beam="2">  1        2 0.48759544E+00 0.91385298E+02</pdfrwt>
<totfact> 0.25110216E+00</totfact>
</mgrwt>
</event>
<event>
13    1  0.1589573E-008  0.7091099E+02  0.7546771E-02  0.1414655E+00
          2   -1    0    0  503    0  0.00000000000E+00  0.00000000000E+00  0.11830601878E+04  0.11830601878E+04  0.00000000000E+00 0. -1.
          2   -1    0    0  502    0 -0.00000000000E+00 -0.00000000000E+00 -0.14310172843E+04  0.14310172843E+04  0.00000000000E+00 0. -1.
         24    2    1    2    0    0 -0.15664650136E+03  0.20150334787E+02  0.33716014045E+02  0.18057222258E+03  0.80779920673E+02 0.  0.
         25    2    1    2    0    0  0.10824845884E+03 -0.73887954847E+02  0.87724947268E+03  0.89575032168E+03  0.12499937107E+03 0.  0.
         24    2    1    2    0    0  0.21801931901E+02  0.31831676138E+02 -0.11226542700E+03  0.14374671638E+03  0.81061782170E+02 0.  0.
        -11    1    3    3    0    0 -0.78759877624E+02  0.50736782493E+02  0.16095514602E+02  0.95060007424E+02  0.00000000000E+00 0.  1.
         12    1    3    3    0    0 -0.77886623734E+02 -0.30586447706E+02  0.17620499444E+02  0.85512215154E+02  0.00000000000E+00 0. -1.
        -11    1    5    5    0    0  0.33017586821E+02  0.48430682602E+02 -0.10856101542E+03  0.12337417122E+03  0.00000000000E+00 0.  1.
         12    1    5    5    0    0 -0.11215654920E+02 -0.16599006464E+02 -0.37044115891E+01  0.20372545155E+02  0.00000000000E+00 0. -1.
          5    1    4    4  501    0 -0.26868216053E+02 -0.38241656096E+01  0.17748161052E+03  0.17960606156E+03  0.47000000000E+01 0.  1.
         -5    1    4    4    0  501  0.13511667489E+03 -0.70063789238E+02  0.69976786216E+03  0.71614426012E+03  0.47000000000E+01 0.  1.
          1    1    1    2  502    0  0.25085689375E+02  0.66370446381E+02 -0.12164326108E+04  0.12185001538E+04  0.00000000000E+00 0. -1.
          1    1    1    2  503    0  0.15104212426E+01 -0.44464502459E+02  0.16977545461E+03  0.17550805776E+03  0.00000000000E+00 0. -1.
<mgrwt>
<rscale>  0 0.56167968E+02</rscale>
<asrwt>0</asrwt>
<pdfrwt beam="1">  1        2 0.17397944E+00 0.44490149E+02</pdfrwt>
<pdfrwt beam="2">  1        2 0.21044372E+00 0.70910993E+02</pdfrwt>
<totfact> 0.67689577E+01</totfact>
</mgrwt>
</event>
<event>
13    1  0.1589573E-008  0.6900981E+02  0.7546771E-02  0.1401471E+00
          4   -1    0    0  503    0  0.00000000000E+00  0.00000000000E+00  0.17770107709E+04  0.17770107709E+04  0.00000000000E+00 0. -1.
         -1   -1    0    0    0  501 -0.00000000000E+00 -0.00000000000E+00 -0.21687726117E+04  0.21687726117E+04  0.00000000000E+00 0.  1.
         24    2    1    2    0    0 -0.11077088301E+03 -0.31849627468E+02 -0.44296800278E+03  0.46448954872E+03  0.79027223692E+02 0.  0.
         25    2    1    2    0    0 -0.98956321746E+02  0.83311004520E+02  0.12946389149E+04  0.13070761773E+04  0.12500054560E+03 0.  0.
         24    2    1    2    0    0  0.15265753907E+03 -0.48967490501E+02 -0.20205380466E+03  0.27004842362E+03  0.79989197783E+02 0.  0.
        -11    1    3    3    0    0 -0.12002731735E+03 -0.15607549405E+02 -0.38613148939E+03  0.40465748431E+03  0.00000000000E+00 0.  1.
         12    1    3    3    0    0  0.92564343423E+01 -0.16242078063E+02 -0.56836513396E+02  0.59832064410E+02  0.00000000000E+00 0. -1.
        -13    1    5    5    0    0  0.98727428801E+02  0.80691490852E+01 -0.13047495438E+03  0.16381675764E+03  0.00000000000E+00 0.  1.
         14    1    5    5    0    0  0.53930110269E+02 -0.57036639586E+02 -0.71578850279E+02  0.10623166598E+03  0.00000000000E+00 0. -1.
          5    1    4    4  502    0 -0.84266397633E+02  0.32254634254E+02  0.11384948586E+04  0.11420743497E+04  0.47000000000E+01 0.  1.
         -5    1    4    4    0  502 -0.14689924113E+02  0.51056370266E+02  0.15614405626E+03  0.16500182763E+03  0.47000000000E+01 0.  1.
          3    1    1    2  503    0  0.71577304749E+01 -0.50176155645E+02  0.42909400482E+03  0.43207701244E+03  0.00000000000E+00 0. -1.
         -2    1    1    2    0  501  0.49911935207E+02  0.47682269094E+02 -0.14704729531E+04  0.14720922205E+04  0.00000000000E+00 0.  1.
<mgrwt>
<rscale>  0 0.59141365E+02</rscale>
<asrwt>0</asrwt>
<pdfrwt beam="1">  1        4 0.26132511E+00 0.50684117E+02</pdfrwt>
<pdfrwt beam="2">  1       -1 0.31893715E+00 0.69009806E+02</pdfrwt>
<totfact> 0.91283538E-03</totfact>
</mgrwt>
</event>
<event>
13    1  0.1589573E-008  0.1297170E+03  0.7546771E-02  0.1253613E+00
          2   -1    0    0  503    0  0.00000000000E+00  0.00000000000E+00  0.36903332462E+04  0.36903332462E+04  0.00000000000E+00 0. -1.
         -3   -1    0    0    0  501 -0.00000000000E+00 -0.00000000000E+00 -0.11804351019E+04  0.11804351019E+04  0.00000000000E+00 0.  1.
         24    2    1    2    0    0 -0.17151609049E+03  0.23273588544E+02 -0.35511052522E+03  0.40254229688E+03  0.77313559158E+02 0.  0.
         25    2    1    2    0    0  0.44035519557E+03  0.94320981167E+02  0.56916244115E+03  0.73646634190E+03  0.12501056990E+03 0.  0.
         24    2    1    2    0    0 -0.27774011064E+02 -0.41471143764E+02 -0.49879291588E+01  0.92600922033E+02  0.77838293072E+02 0.  0.
        -11    1    5    5    0    0  0.79687417761E+01 -0.50453374283E+02  0.11290605366E+02  0.52311772973E+02  0.00000000000E+00 0.  1.
         12    1    5    5    0    0 -0.35742752840E+02  0.89822305189E+01 -0.16278534525E+02  0.40289149060E+02  0.00000000000E+00 0. -1.
        -13    1    3    3    0    0  0.35941651075E+00 -0.16728320378E+01 -0.60685209437E+02  0.60709325409E+02  0.00000000000E+00 0.  1.
         14    1    3    3    0    0 -0.17187550700E+03  0.24946420582E+02 -0.29442531579E+03  0.34183297147E+03  0.00000000000E+00 0. -1.
          5    1    4    4  502    0  0.33385810650E+03  0.72179449644E+02  0.33608915165E+03  0.47921719094E+03  0.47000000000E+01 0.  1.
         -5    1    4    4    0  502  0.10649708907E+03  0.22141531523E+02  0.23307328949E+03  0.25724915097E+03  0.47000000000E+01 0.  1.
          1    1    1    2  503    0 -0.94633534362E+02 -0.31956917744E+02  0.29604035673E+04  0.29620881202E+04  0.00000000000E+00 0. -1.
         -4    1    1    2    0  501 -0.14643155966E+03 -0.44166508203E+02 -0.65956940975E+03  0.67707066720E+03  0.00000000000E+00 0.  1.
<mgrwt>
<rscale>  0 0.11384391E+03</rscale>
<asrwt>0</asrwt>
<pdfrwt beam="1">  1        2 0.54269607E+00 0.99913148E+02</pdfrwt>
<pdfrwt beam="2">  1       -3 0.17359340E+00 0.12971702E+03</pdfrwt>
<totfact> 0.17139481E-01</totfact>
</mgrwt>
</event>
<event>
13    1  0.1589573E-008  0.2047270E+03  0.7546771E-02  0.1226101E+00
          2   -1    0    0  503    0  0.00000000000E+00  0.00000000000E+00  0.16682464799E+04  0.16682464799E+04  0.00000000000E+00 0. -1.
          2   -1    0    0  502    0 -0.00000000000E+00 -0.00000000000E+00 -0.44353767696E+03  0.44353767696E+03  0.00000000000E+00 0. -1.
         24    2    1    2    0    0 -0.25987932501E+03 -0.24441348159E+03 -0.58921749704E+02  0.37055019434E+03  0.80996668981E+02 0.  0.
         25    2    1    2    0    0 -0.72343527948E+02  0.20828684764E+02  0.65173641681E+03  0.66787291585E+03  0.12500581820E+03 0.  0.
         24    2    1    2    0    0  0.12278990869E+03  0.37117515391E+02 -0.15009642052E+02  0.15198280716E+03  0.80114996675E+02 0.  0.
        -11    1    5    5    0    0 -0.11596897714E+02 -0.23734459936E+00 -0.30231863912E+01  0.11986827145E+02  0.00000000000E+00 0.  1.
         12    1    5    5    0    0  0.13438680640E+03  0.37354859990E+02 -0.11986455661E+02  0.13999598001E+03  0.00000000000E+00 0. -1.
        -13    1    3    3    0    0 -0.15297548998E+03 -0.12507050429E+03  0.59692775324E+01  0.19768602341E+03  0.00000000000E+00 0.  1.
         14    1    3    3    0    0 -0.10690383503E+03 -0.11934297730E+03 -0.64891027236E+02  0.17286417093E+03  0.00000000000E+00 0. -1.
          5    1    4    4  501    0 -0.75535661127E+02 -0.15220823685E+02  0.59771578884E+03  0.60268031643E+03  0.47000000000E+01 0. -1.
         -5    1    4    4    0  501  0.31921331790E+01  0.36049508449E+02  0.54020627966E+02  0.65192599423E+02  0.47000000000E+01 0. -1.
          1    1    1    2  502    0  0.19155609891E+03  0.10468001172E+03 -0.46290632777E+02  0.22314673775E+03  0.00000000000E+00 0. -1.
          1    1    1    2  503    0  0.17876845361E+02  0.81787269719E+02  0.69319441064E+03  0.69823150175E+03  0.00000000000E+00 0. -1.
<mgrwt>
<rscale>  0 0.13091746E+03</rscale>
<asrwt>0</asrwt>
<pdfrwt beam="1">  1        2 0.24533036E+00 0.83718212E+02</pdfrwt>
<pdfrwt beam="2">  1        2 0.65226130E-01 0.20472705E+03</pdfrwt>
<totfact> 0.15680013E+02</totfact>
</mgrwt>
</event>
<event>
13    1  0.1589573E-008  0.2160094E+03  0.7546771E-02  0.1346025E+00
          2   -1    0    0  502    0  0.00000000000E+00  0.00000000000E+00  0.12435234350E+04  0.12435234350E+04  0.00000000000E+00 0. -1.
          2   -1    0    0  503    0 -0.00000000000E+00 -0.00000000000E+00 -0.14268816334E+04  0.14268816334E+04  0.00000000000E+00 0. -1.
         24    2    1    2    0    0 -0.14016762861E+03 -0.43265050613E+02 -0.36198666951E+03  0.39648286686E+03  0.68157802915E+02 0.  0.
         25    2    1    2    0    0  0.22543492330E+03  0.15264558232E+03  0.72548245151E+03  0.78490061744E+03  0.12499045310E+03 0.  0.
         24    2    1    2    0    0 -0.45652677852E+02  0.67948863830E+02 -0.10870089538E+02  0.11127986733E+03  0.74591118337E+02 0.  0.
        -11    1    5    5    0    0  0.74534051395E+01  0.27235418569E+02 -0.30479649770E+02  0.41549131433E+02  0.00000000000E+00 0.  1.
         12    1    5    5    0    0 -0.53106082991E+02  0.40713445261E+02  0.19609560232E+02  0.69730735893E+02  0.00000000000E+00 0. -1.
        -13    1    3    3    0    0 -0.22045487153E+02 -0.37479485769E+02 -0.99044268376E+02  0.10816876839E+03  0.00000000000E+00 0.  1.
         14    1    3    3    0    0 -0.11812214146E+03 -0.57855648434E+01 -0.26294240113E+03  0.28831409847E+03  0.00000000000E+00 0. -1.
          5    1    4    4  501    0  0.21839733647E+03  0.10446315256E+03  0.66104324257E+03  0.70399588448E+03  0.47000000000E+01 0.  1.
         -5    1    4    4    0  501  0.70375868326E+01  0.48182429767E+02  0.64439208934E+02  0.80904732956E+02  0.47000000000E+01 0.  1.
          1    1    1    2  502    0  0.25559294427E+02 -0.42243719623E+00  0.41119162613E+03  0.41198544802E+03  0.00000000000E+00 0. -1.
          1    1    1    2  503    0 -0.65173911266E+02 -0.17690695834E+03 -0.94717551703E+03  0.96575626878E+03  0.00000000000E+00 0. -1.
<mgrwt>
<rscale>  0 0.74308833E+02</rscale>
<asrwt>0</asrwt>
<pdfrwt beam="1">  1        2 0.18287109E+00 0.25562785E+02</pdfrwt>
<pdfrwt beam="2">  1        2 0.20983553E+00 0.21600943E+03</pdfrwt>
<totfact> 0.60788832E+01</totfact>
</mgrwt>
</event>
<event>
13    1  0.1589573E-008  0.1316506E+03  0.7546771E-02  0.1258048E+00
          2   -1    0    0  502    0  0.00000000000E+00  0.00000000000E+00  0.75993416770E+03  0.75993416770E+03  0.00000000000E+00 0. -1.
          2   -1    0    0  503    0 -0.00000000000E+00 -0.00000000000E+00 -0.18630317231E+04  0.18630317231E+04  0.00000000000E+00 0. -1.
         24    2    1    2    0    0 -0.12689438126E+02 -0.29946569739E+02 -0.19266742573E+03  0.21077141795E+03  0.79031859434E+02 0.  0.
         25    2    1    2    0    0  0.80612407377E+02  0.22500136035E+03  0.23322951745E+03  0.35657470584E+03  0.12500216260E+03 0.  0.
         24    2    1    2    0    0 -0.13683665105E+03  0.64826723541E+02  0.73759669436E+02  0.18735570147E+03  0.82066417520E+02 0.  0.
        -11    1    5    5    0    0  0.19444603423E+01  0.30760903739E+01 -0.12261809122E+02  0.12790434744E+02  0.00000000000E+00 0.  1.
         12    1    5    5    0    0 -0.13878111139E+03  0.61750633167E+02  0.86021478558E+02  0.17456526673E+03  0.00000000000E+00 0. -1.
        -11    1    3    3    0    0  0.15510871223E+02 -0.19577350896E+02 -0.17315072033E+03  0.17494293854E+03  0.00000000000E+00 0.  1.
         12    1    3    3    0    0 -0.28200309348E+02 -0.10369218843E+02 -0.19516705402E+02  0.35828479405E+02  0.00000000000E+00 0. -1.
          5    1    4    4  501    0  0.63700647874E+02  0.14085562451E+03  0.65214748420E+02  0.16784854157E+03  0.47000000000E+01 0.  1.
         -5    1    4    4    0  501  0.16911759503E+02  0.84145735843E+02  0.16801476903E+03  0.18872616428E+03  0.47000000000E+01 0.  1.
          1    1    1    2  502    0 -0.51657988268E+01 -0.93949808403E+02  0.31313201322E+03  0.32696316257E+03  0.00000000000E+00 0. -1.
          1    1    1    2  503    0  0.74079480624E+02 -0.16593170575E+03 -0.15305513297E+04  0.15413009029E+04  0.00000000000E+00 0. -1.
<mgrwt>
<rscale>  0 0.11137327E+03</rscale>
<asrwt>0</asrwt>
<pdfrwt beam="1">  1        2 0.11175502E+00 0.94219103E+02</pdfrwt>
<pdfrwt beam="2">  1        2 0.27397525E+00 0.13165065E+03</pdfrwt>
<totfact> 0.67083281E+01</totfact>
</mgrwt>
</event>
<event>
13    1  0.1589573E-008  0.4634246E+02  0.7546771E-02  0.1547403E+00
         -1   -1    0    0    0  501 -0.00000000000E+00  0.00000000000E+00  0.19779341290E+03  0.19779341290E+03  0.00000000000E+00 0.  1.
          2   -1    0    0  503    0  0.00000000000E+00 -0.00000000000E+00 -0.29437755037E+04  0.29437755037E+04  0.00000000000E+00 0. -1.
         24    2    1    2    0    0  0.14207993921E+03  0.11252719997E+03 -0.28669384178E+03  0.34838626730E+03  0.79564769022E+02 0.  0.
         25    2    1    2    0    0 -0.10270116393E+03  0.51406571995E+02 -0.12404643409E+04  0.12520240025E+04  0.12498862840E+03 0.  0.
         24    2    1    2    0    0  0.12827312026E+02 -0.19254318985E+03 -0.52694968629E+03  0.56665343939E+03  0.78630328712E+02 0.  0.
        -13    1    5    5    0    0  0.32973637042E+02 -0.11064599276E+03 -0.38076799063E+03  0.39788699293E+03  0.00000000000E+00 0.  1.
         14    1    5    5    0    0 -0.20146325016E+02 -0.81897197093E+02 -0.14618169566E+03  0.16876644646E+03  0.00000000000E+00 0. -1.
        -13    1    3    3    0    0  0.41151191243E+02  0.22566458931E+02 -0.23478361362E+02  0.52477605335E+02  0.00000000000E+00 0.  1.
         14    1    3    3    0    0  0.10092874796E+03  0.89960741042E+02 -0.26321548041E+03  0.29590866196E+03  0.00000000000E+00 0. -1.
          5    1    4    4  502    0 -0.12846736769E+03  0.60055036885E+02 -0.10633513324E+04  0.10727761267E+04  0.47000000000E+01 0. -1.
         -5    1    4    4    0  502  0.25766203764E+02 -0.86484648900E+01 -0.17711300849E+03  0.17924787580E+03  0.47000000000E+01 0. -1.
          1    1    1    2  503    0 -0.27092672447E+02  0.37492678176E+02 -0.83128563862E+03  0.83257163463E+03  0.00000000000E+00 0. -1.
         -2    1    1    2    0  501 -0.25113414858E+02 -0.88832602918E+01  0.13941141682E+03  0.14193357270E+03  0.00000000000E+00 0.  1.
<mgrwt>
<rscale>  0 0.35135190E+02</rscale>
<asrwt>0</asrwt>
<pdfrwt beam="2">  1        2 0.43290815E+00 0.46342458E+02</pdfrwt>
<pdfrwt beam="1">  1       -1 0.29087268E-01 0.26638242E+02</pdfrwt>
<totfact> 0.41054889E+01</totfact>
</mgrwt>
</event>
<event>
13    1  0.1589573E-008  0.2201024E+03  0.7546771E-02  0.1232947E+00
          2   -1    0    0  502    0  0.00000000000E+00  0.00000000000E+00  0.20852944146E+04  0.20852944146E+04  0.00000000000E+00 0. -1.
          2   -1    0    0  503    0 -0.00000000000E+00 -0.00000000000E+00 -0.98288778624E+03  0.98288778624E+03  0.00000000000E+00 0. -1.
         24    2    1    2    0    0  0.75718033143E+02  0.21249706483E+03 -0.40763574971E+03  0.47291441697E+03  0.81196787055E+02 0.  0.
         25    2    1    2    0    0 -0.45454631386E+03 -0.31873040957E+03  0.66779954640E+02  0.57296230780E+03  0.12499927355E+03 0.  0.
         24    2    1    2    0    0  0.94486072299E+02 -0.60912146646E+02  0.14617230838E+03  0.20044123084E+03  0.78564851026E+02 0.  0.
        -11    1    5    5    0    0  0.78362252405E+02 -0.91630771358E+01  0.10964169492E+03  0.13507740688E+03  0.00000000000E+00 0.  1.
         12    1    5    5    0    0  0.16123819894E+02 -0.51749069510E+02  0.36530613461E+02  0.65363823962E+02  0.00000000000E+00 0. -1.
        -13    1    3    3    0    0  0.43067560112E+02  0.64652472130E+02 -0.21028198266E+03  0.22417240936E+03  0.00000000000E+00 0.  1.
         14    1    3    3    0    0  0.32650473031E+02  0.14784459270E+03 -0.19735376706E+03  0.24874200761E+03  0.00000000000E+00 0. -1.
          5    1    4    4  501    0 -0.23245086634E+03 -0.88412357412E+02  0.38801710293E+02  0.25174950432E+03  0.47000000000E+01 0. -1.
         -5    1    4    4    0  501 -0.22209544752E+03 -0.23031805216E+03  0.27978244346E+02  0.32121280347E+03  0.47000000000E+01 0. -1.
          1    1    1    2  502    0  0.24676103683E+03  0.10508543013E+03  0.15426598474E+04  0.15658011884E+04  0.00000000000E+00 0. -1.
          1    1    1    2  503    0  0.37581171585E+02  0.62060061263E+02 -0.24556973229E+03  0.25606305684E+03  0.00000000000E+00 0. -1.
<mgrwt>
<rscale>  0 0.12636802E+03</rscale>
<asrwt>0</asrwt>
<pdfrwt beam="1">  1        2 0.30666094E+00 0.22010244E+03</pdfrwt>
<pdfrwt beam="2">  1        2 0.14454232E+00 0.72552020E+02</pdfrwt>
<totfact> 0.36486614E+01</totfact>
</mgrwt>
</event>
<event>
13    1  0.1589573E-008  0.2115284E+03  0.7546771E-02  0.1268162E+00
          2   -1    0    0  502    0  0.00000000000E+00  0.00000000000E+00  0.20876126845E+04  0.20876126845E+04  0.00000000000E+00 0. -1.
          2   -1    0    0  503    0 -0.00000000000E+00 -0.00000000000E+00 -0.12029111154E+04  0.12029111154E+04  0.00000000000E+00 0. -1.
         24    2    1    2    0    0 -0.15005112574E+03  0.51224797803E+01  0.16546722685E+02  0.17100597990E+03  0.80172757197E+02 0.  0.
         25    2    1    2    0    0  0.14350443032E+03 -0.57635273920E+02  0.17270166935E+03  0.26337418392E+03  0.12499899135E+03 0.  0.
         24    2    1    2    0    0 -0.65059111170E+02 -0.10336755958E+03 -0.64259948115E+02  0.16288119798E+03  0.86506666808E+02 0.  0.
        -11    1    3    3    0    0 -0.48373105984E+02 -0.40368796481E+01  0.43756888119E+02  0.65352268803E+02  0.00000000000E+00 0.  1.
         12    1    3    3    0    0 -0.10167801975E+03  0.91593594284E+01 -0.27210165434E+02  0.10565371110E+03  0.00000000000E+00 0. -1.
        -11    1    5    5    0    0 -0.66800504467E+02 -0.29163563354E+02 -0.16862276908E+02  0.74814151115E+02  0.00000000000E+00 0.  1.
         12    1    5    5    0    0  0.17413932974E+01 -0.74203996230E+02 -0.47397671208E+02  0.88067046862E+02  0.00000000000E+00 0. -1.
          5    1    4    4  501    0  0.10120265393E+03  0.22541669298E+02  0.11901043043E+03  0.15791034345E+03  0.47000000000E+01 0. -1.
         -5    1    4    4    0  501  0.42301776390E+02 -0.80176943218E+02  0.53691238914E+02  0.10546384046E+03  0.47000000000E+01 0. -1.
          1    1    1    2  502    0 -0.25097526709E+02 -0.46814737999E+02  0.17130280008E+04  0.17138513462E+04  0.00000000000E+00 0. -1.
          1    1    1    2  503    0  0.96703333297E+02  0.20269509172E+03 -0.95331487554E+03  0.97941109184E+03  0.00000000000E+00 0. -1.
<mgrwt>
<rscale>  0 0.10599967E+03</rscale>
<asrwt>0</asrwt>
<pdfrwt beam="1">  1        2 0.30700186E+00 0.53117846E+02</pdfrwt>
<pdfrwt beam="2">  1        2 0.17689869E+00 0.21152836E+03</pdfrwt>
<totfact> 0.30212180E+01</totfact>
</mgrwt>
</event>
<event>
13    1  0.1589573E-008  0.2575808E+03  0.7546771E-02  0.1277529E+00
          2   -1    0    0  502    0  0.00000000000E+00  0.00000000000E+00  0.98848418689E+03  0.98848418689E+03  0.00000000000E+00 0. -1.
          2   -1    0    0  503    0 -0.00000000000E+00 -0.00000000000E+00 -0.36551732649E+04  0.36551732649E+04  0.00000000000E+00 0. -1.
         24    2    1    2    0    0  0.69679462091E+02 -0.21662596388E+03 -0.92093701796E+03  0.95191234827E+03  0.78930932326E+02 0.  0.
         25    2    1    2    0    0 -0.30114384010E+02 -0.10928569386E+03  0.27187071830E+03  0.31998545396E+03  0.12500705688E+03 0.  0.
         24    2    1    2    0    0 -0.23839087588E+02  0.67858786638E+02  0.22112818710E+02  0.11188115926E+03  0.82796739214E+02 0.  0.
        -11    1    3    3    0    0  0.61815090064E+02 -0.22198123595E+03 -0.89771848340E+03  0.92681996629E+03  0.00000000000E+00 0.  1.
         12    1    3    3    0    0  0.78643720271E+01  0.53552720752E+01 -0.23218534560E+02  0.25092381981E+02  0.00000000000E+00 0. -1.
        -13    1    5    5    0    0 -0.23429440478E+02 -0.97082057407E+01  0.23103373940E+02  0.34306760664E+02  0.00000000000E+00 0.  1.
         14    1    5    5    0    0 -0.40964710965E+00  0.77566992379E+02 -0.99055523018E+00  0.77574398594E+02  0.00000000000E+00 0. -1.
          5    1    4    4  501    0 -0.21713901774E+02 -0.10117620878E+03  0.88674981406E+02  0.13635784202E+03  0.47000000000E+01 0.  1.
         -5    1    4    4    0  501 -0.84004822357E+01 -0.81094850793E+01  0.18319573689E+03  0.18362761193E+03  0.47000000000E+01 0.  1.
          1    1    1    2  502    0  0.39078232070E+02 -0.78565793939E+01  0.60245671682E+03  0.60377390612E+03  0.00000000000E+00 0. -1.
          1    1    1    2  503    0 -0.54804222563E+02  0.26590945049E+03 -0.26421923139E+04  0.26561045842E+04  0.00000000000E+00 0. -1.
<mgrwt>
<rscale>  0 0.10132728E+03</rscale>
<asrwt>0</asrwt>
<pdfrwt beam="1">  1        2 0.14536532E+00 0.39860181E+02</pdfrwt>
<pdfrwt beam="2">  1        2 0.53752547E+00 0.25758079E+03</pdfrwt>
<totfact> 0.50397940E+00</totfact>
</mgrwt>
</event>
<event>
13    1  0.1589573E-008  0.3943054E+02  0.7546771E-02  0.1589917E+00
          2   -1    0    0  502    0  0.00000000000E+00  0.00000000000E+00  0.16201612819E+04  0.16201612819E+04  0.00000000000E+00 0. -1.
          2   -1    0    0  503    0 -0.00000000000E+00 -0.00000000000E+00 -0.18244266375E+04  0.18244266375E+04  0.00000000000E+00 0. -1.
         24    2    1    2    0    0  0.90284909859E+02  0.54035413079E+02 -0.34623383611E+03  0.37073019883E+03  0.80571832806E+02 0.  0.
         25    2    1    2    0    0 -0.71365492776E+02 -0.18900052045E+03 -0.14317565880E+03  0.27738169066E+03  0.12500841073E+03 0.  0.
         24    2    1    2    0    0 -0.59811445059E+02  0.89204870263E+02 -0.53591478209E+03  0.55295084789E+03  0.83756006850E+02 0.  0.
        -13    1    5    5    0    0  0.24555878156E+01  0.53605727084E+02 -0.12824231369E+03  0.13901688713E+03  0.00000000000E+00 0.  1.
         14    1    5    5    0    0 -0.62267032875E+02  0.35599143179E+02 -0.40767246840E+03  0.41393396076E+03  0.00000000000E+00 0. -1.
        -13    1    3    3    0    0  0.14669751299E+02 -0.21086360855E+02 -0.58613327534E+02  0.63994987162E+02  0.00000000000E+00 0.  1.
         14    1    3    3    0    0  0.75615158560E+02  0.75121773934E+02 -0.28762050858E+03  0.30673521167E+03  0.00000000000E+00 0. -1.
          5    1    4    4  501    0 -0.59492947540E+02 -0.14947853172E+02 -0.51588070732E+02  0.80288655259E+02  0.47000000000E+01 0.  1.
         -5    1    4    4    0  501 -0.11872545237E+02 -0.17405266727E+03 -0.91587588066E+02  0.19709303540E+03  0.47000000000E+01 0.  1.
          1    1    1    2  502    0  0.20764484392E+02  0.12003507601E+02  0.15316551500E+04  0.15318429249E+04  0.00000000000E+00 0. -1.
          1    1    1    2  503    0  0.20127543585E+02  0.33756729504E+02 -0.71059622870E+03  0.71168225708E+03  0.00000000000E+00 0. -1.
<mgrwt>
<rscale>  0 0.30752481E+02</rscale>
<asrwt>0</asrwt>
<pdfrwt beam="1">  1        2 0.23825901E+00 0.23984328E+02</pdfrwt>
<pdfrwt beam="2">  1        2 0.26829803E+00 0.39430542E+02</pdfrwt>
<totfact> 0.30267529E+01</totfact>
</mgrwt>
</event>
<event>
13    1  0.1589573E-008  0.7188129E+02  0.7546771E-02  0.1522061E+00
          4   -1    0    0  503    0 -0.00000000000E+00  0.00000000000E+00  0.11004432416E+04  0.11004432416E+04  0.00000000000E+00 0. -1.
          2   -1    0    0  502    0  0.00000000000E+00 -0.00000000000E+00 -0.88393990535E+03  0.88393990535E+03  0.00000000000E+00 0. -1.
         24    2    1    2    0    0  0.16545672566E+02  0.61019995476E+01  0.65614287379E+03  0.66107012035E+03  0.78608139004E+02 0.  0.
         25    2    1    2    0    0 -0.30178221716E+02 -0.37258548513E+01 -0.27505858946E+03  0.30365025742E+03  0.12498657582E+03 0.  0.
         24    2    1    2    0    0 -0.33951410472E+02  0.17779505248E+02  0.89482537979E+02  0.12636324541E+03  0.80571310698E+02 0.  0.
        -11    1    3    3    0    0 -0.15243087730E+02  0.10082169871E+02  0.54742982378E+03  0.54773480247E+03  0.00000000000E+00 0.  1.
         12    1    3    3    0    0  0.31788760296E+02 -0.39801703232E+01  0.10871305001E+03  0.11333531788E+03  0.00000000000E+00 0. -1.
        -13    1    5    5    0    0 -0.45467222114E+02 -0.11096711205E+02  0.81955078053E+02  0.94377116427E+02  0.00000000000E+00 0.  1.
         14    1    5    5    0    0  0.11515811642E+02  0.28876216453E+02  0.75274599264E+01  0.31986128984E+02  0.00000000000E+00 0. -1.
          5    1    4    4  501    0  0.39630667641E+01 -0.45218384371E+02 -0.34740161675E+02  0.57353090732E+02  0.47000000000E+01 0.  1.
         -5    1    4    4    0  501 -0.34141288480E+02  0.41492529520E+02 -0.24031842779E+03  0.24629716669E+03  0.47000000000E+01 0.  1.
          1    1    1    2  502    0  0.65880365821E+02 -0.28898050556E+02 -0.57110100872E+03  0.57561417815E+03  0.00000000000E+00 0. -1.
          3    1    1    2  503    0 -0.18296406200E+02  0.87424006107E+01  0.31703752263E+03  0.31768534559E+03  0.00000000000E+00 0. -1.
<mgrwt>
<rscale>  0 0.38178430E+02</rscale>
<asrwt>0</asrwt>
<pdfrwt beam="2">  1        2 0.12999116E+00 0.71881293E+02</pdfrwt>
<pdfrwt beam="1">  1        4 0.16182989E+00 0.20277772E+02</pdfrwt>
<totfact> 0.44850081E+00</totfact>
</mgrwt>
</event>
<event>
13    1  0.1589573E-008  0.6987660E+02  0.7546771E-02  0.1362940E+00
          2   -1    0    0  502    0  0.00000000000E+00  0.00000000000E+00  0.34673988001E+04  0.34673988001E+04  0.00000000000E+00 0. -1.
          2   -1    0    0  503    0 -0.00000000000E+00 -0.00000000000E+00 -0.15502832511E+04  0.15502832511E+04  0.00000000000E+00 0. -1.
         24    2    1    2    0    0 -0.47565918953E+03  0.67498587224E+03 -0.28630453025E+03  0.87987314609E+03  0.10172942968E+03 0.  0.
         25    2    1    2    0    0  0.45164006386E+03 -0.25161660262E+03  0.83384385442E+02  0.53840967881E+03  0.12506943870E+03 0.  0.
         24    2    1    2    0    0  0.29633663654E+02 -0.29847907146E+03 -0.13108516063E+03  0.33675580152E+03  0.79077432912E+02 0.  0.
        -11    1    5    5    0    0 -0.23064356868E+02 -0.15428722058E+03 -0.54974381664E+02  0.16540463606E+03  0.00000000000E+00 0.  1.
         12    1    5    5    0    0  0.52698020522E+02 -0.14419185088E+03 -0.76110778962E+02  0.17135116545E+03  0.00000000000E+00 0. -1.
        -11    1    3    3    0    0 -0.44837492442E+03  0.59073464115E+03 -0.27322244315E+03  0.79035308094E+03  0.00000000000E+00 0.  1.
         12    1    3    3    0    0 -0.27284265108E+02  0.84251231088E+02 -0.13082087106E+02  0.89520065155E+02  0.00000000000E+00 0. -1.
          5    1    4    4  501    0  0.29574190789E+03 -0.16695789146E+03  0.11411426312E+03  0.35830485435E+03  0.47000000000E+01 0.  1.
         -5    1    4    4    0  501  0.15589815597E+03 -0.84658711164E+02 -0.30729877677E+02  0.18010482446E+03  0.47000000000E+01 0.  1.
          1    1    1    2  502    0  0.26645425362E+02 -0.63072156492E+02  0.27540512255E+04  0.27549022175E+04  0.00000000000E+00 0. -1.
          1    1    1    2  503    0 -0.32259963345E+02 -0.61818041664E+02 -0.50293037099E+03  0.50774120729E+03  0.00000000000E+00 0. -1.
<mgrwt>
<rscale>  0 0.69169483E+02</rscale>
<asrwt>0</asrwt>
<pdfrwt beam="1">  1        2 0.50991159E+00 0.68469523E+02</pdfrwt>
<pdfrwt beam="2">  1        2 0.22798283E+00 0.69876599E+02</pdfrwt>
<totfact> 0.41296246E+00</totfact>
</mgrwt>
</event>
<event>
13    1  0.1589573E-008  0.1016537E+03  0.7546771E-02  0.1405318E+00
         -3   -1    0    0    0  501 -0.00000000000E+00  0.00000000000E+00  0.15944141101E+04  0.15944141101E+04  0.00000000000E+00 0.  1.
          2   -1    0    0  503    0  0.00000000000E+00 -0.00000000000E+00 -0.11769418063E+04  0.11769418063E+04  0.00000000000E+00 0. -1.
         24    2    1    2    0    0 -0.96817885972E+01 -0.17650347172E+02  0.31385952889E+03  0.32466608593E+03  0.80591511276E+02 0.  0.
         25    2    1    2    0    0  0.14035027941E+03 -0.16179460542E+03 -0.53013448684E+03  0.58527351986E+03  0.12500729435E+03 0.  0.
         24    2    1    2    0    0 -0.57379016618E+02  0.86085438174E+02  0.17822418504E+03  0.22040299341E+03  0.78170103993E+02 0.  0.
        -13    1    5    5    0    0 -0.17118556218E+02  0.34059684652E+02  0.94676759391E+01  0.39277779638E+02  0.00000000000E+00 0.  1.
         14    1    5    5    0    0 -0.40260460401E+02  0.52025753521E+02  0.16875650910E+03  0.18112521377E+03  0.00000000000E+00 0. -1.
        -13    1    3    3    0    0 -0.17567720533E+02 -0.43853257243E+02  0.25996727284E+03  0.26422474510E+03  0.00000000000E+00 0.  1.
         14    1    3    3    0    0  0.78859319356E+01  0.26202910071E+02  0.53892256053E+02  0.60441340829E+02  0.00000000000E+00 0. -1.
          5    1    4    4  502    0  0.38848764507E+02 -0.26923558344E+02 -0.27174793796E+02  0.54723522507E+02  0.47000000000E+01 0. -1.
         -5    1    4    4    0  502  0.10150151490E+03 -0.13487104708E+03 -0.50295969305E+03  0.53054999736E+03  0.47000000000E+01 0. -1.
          1    1    1    2  503    0 -0.81137965978E+02  0.60914599761E+02 -0.58813467209E+03  0.59682187502E+03  0.00000000000E+00 0. -1.
         -4    1    1    2    0  501  0.78484917875E+01  0.32444914658E+02  0.10436577488E+04  0.10441914421E+04  0.00000000000E+00 0.  1.
<mgrwt>
<rscale>  0 0.58251810E+02</rscale>
<asrwt>0</asrwt>
<pdfrwt beam="2">  1        2 0.17307968E+00 0.10165374E+03</pdfrwt>
<pdfrwt beam="1">  1       -3 0.23447266E+00 0.33380703E+02</pdfrwt>
<totfact> 0.15885013E+00</totfact>
</mgrwt>
</event>
<event>
13    1  0.1589573E-008  0.1390735E+03  0.7546771E-02  0.1311725E+00
          2   -1    0    0  503    0  0.00000000000E+00  0.00000000000E+00  0.22847985882E+04  0.22847985882E+04  0.00000000000E+00 0. -1.
          2   -1    0    0  502    0 -0.00000000000E+00 -0.00000000000E+00 -0.96918900452E+03  0.96918900452E+03  0.00000000000E+00 0. -1.
         24    2    1    2    0    0  0.19165887090E+02  0.48731204879E+02  0.71341281278E+02  0.12062831954E+03  0.81972870542E+02 0.  0.
         25    2    1    2    0    0  0.69303596602E+02 -0.98657460871E+02  0.33657629761E+03  0.37874152926E+03  0.12500103513E+03 0.  0.
         24    2    1    2    0    0  0.97775873218E+02  0.13036012277E+02  0.62169104710E+03  0.63453798980E+03  0.80054003417E+02 0.  0.
        -11    1    3    3    0    0 -0.27547328270E+02  0.29677084453E+02  0.10967844049E+02  0.41950902726E+02  0.00000000000E+00 0.  1.
         12    1    3    3    0    0  0.46713215360E+02  0.19054120426E+02  0.60373437228E+02  0.78677416819E+02  0.00000000000E+00 0. -1.
        -13    1    5    5    0    0  0.16523894858E+02 -0.29616062576E+02  0.21198906522E+03  0.21468468515E+03  0.00000000000E+00 0.  1.
         14    1    5    5    0    0  0.81251978361E+02  0.42652074853E+02  0.40970198188E+03  0.41985330465E+03  0.00000000000E+00 0. -1.
          5    1    4    4  501    0  0.71145986377E+02 -0.34653519634E+01  0.93453975882E+02  0.11759887606E+03  0.47000000000E+01 0. -1.
         -5    1    4    4    0  501 -0.18423897752E+01 -0.95192108908E+02  0.24312232173E+03  0.26114265320E+03  0.47000000000E+01 0. -1.
          1    1    1    2  502    0 -0.13963395472E+03  0.10187794683E+02 -0.91108988001E+03  0.92178424912E+03  0.00000000000E+00 0. -1.
          1    1    1    2  503    0 -0.46611402193E+02  0.26702449032E+02  0.11970908377E+04  0.11982955050E+04  0.00000000000E+00 0. -1.
<mgrwt>
<rscale>  0 0.86433653E+02</rscale>
<asrwt>0</asrwt>
<pdfrwt beam="1">  1        2 0.33599979E+00 0.53718187E+02</pdfrwt>
<pdfrwt beam="2">  1        2 0.14252780E+00 0.13907350E+03</pdfrwt>
<totfact> 0.33806176E+01</totfact>
</mgrwt>
</event>
<event>
13    1  0.1589573E-008  0.7210235E+02  0.7546771E-02  0.1426009E+00
          2   -1    0    0  502    0  0.00000000000E+00  0.00000000000E+00  0.13418025762E+04  0.13418025762E+04  0.00000000000E+00 0. -1.
          2   -1    0    0  503    0 -0.00000000000E+00 -0.00000000000E+00 -0.16216817505E+04  0.16216817505E+04  0.00000000000E+00 0. -1.
         24    2    1    2    0    0 -0.55045837074E+01  0.12560058942E+03 -0.15571571055E+03  0.21451475573E+03  0.77222984968E+02 0.  0.
         25    2    1    2    0    0 -0.73092950227E+01 -0.16245035201E+03  0.63406828120E+03  0.66641704385E+03  0.12500219378E+03 0.  0.
         24    2    1    2    0    0  0.50278162787E+02 -0.58607372404E+02  0.17099358721E+03  0.20290398732E+03  0.77256090037E+02 0.  0.
        -13    1    3    3    0    0  0.10584941506E+02  0.10895710722E+03 -0.15692382359E+03  0.19133420659E+03  0.00000000000E+00 0.  1.
         14    1    3    3    0    0 -0.16089525214E+02  0.16643482197E+02  0.12081130375E+01  0.23180549138E+02  0.00000000000E+00 0. -1.
        -13    1    5    5    0    0 -0.18111936607E+02 -0.13763862455E+01  0.16601455819E+02  0.24607824407E+02  0.00000000000E+00 0.  1.
         14    1    5    5    0    0  0.68390099395E+02 -0.57230986159E+02  0.15439213140E+03  0.17829616291E+03  0.00000000000E+00 0. -1.
          5    1    4    4  501    0 -0.79341380883E+01  0.18797803196E+02  0.38038243421E+02  0.43420109566E+02  0.47000000000E+01 0. -1.
         -5    1    4    4    0  501  0.62484306563E+00 -0.18124815520E+03  0.59603003778E+03  0.62299693429E+03  0.47000000000E+01 0. -1.
          1    1    1    2  502    0 -0.32448711142E+02  0.23556985979E+02  0.47343882503E+03  0.47513384587E+03  0.00000000000E+00 0. -1.
          1    1    1    2  503    0 -0.50155729151E+01  0.71900149011E+02 -0.14026641572E+04  0.14045146939E+04  0.00000000000E+00 0. -1.
<mgrwt>
<rscale>  0 0.53769517E+02</rscale>
<asrwt>0</asrwt>
<pdfrwt beam="1">  1        2 0.19732391E+00 0.40098010E+02</pdfrwt>
<pdfrwt beam="2">  1        2 0.23848261E+00 0.72102354E+02</pdfrwt>
<totfact> 0.45867786E+01</totfact>
</mgrwt>
</event>
<event>
13    1  0.1589573E-008  0.6368923E+02  0.7546771E-02  0.1518187E+00
          2   -1    0    0  503    0  0.00000000000E+00  0.00000000000E+00  0.10056438879E+04  0.10056438879E+04  0.00000000000E+00 0. -1.
          2   -1    0    0  502    0 -0.00000000000E+00 -0.00000000000E+00 -0.18107358082E+04  0.18107358082E+04  0.00000000000E+00 0. -1.
         24    2    1    2    0    0  0.17505608953E+03  0.19117727854E+03 -0.68933316365E+03  0.74133992375E+03  0.84919289551E+02 0.  0.
         25    2    1    2    0    0 -0.14265351293E+03 -0.11603400319E+03  0.46042459825E+03  0.51130269594E+03  0.12500288618E+03 0.  0.
         24    2    1    2    0    0 -0.85347339946E+02 -0.10020361111E+02 -0.64304807405E+03  0.65376018417E+03  0.80665834109E+02 0.  0.
        -11    1    3    3    0    0  0.57821715632E+02  0.15271993858E+02 -0.18730663439E+03  0.19662237889E+03  0.00000000000E+00 0.  1.
         12    1    3    3    0    0  0.11723437389E+03  0.17590528468E+03 -0.50202652925E+03  0.54471754486E+03  0.00000000000E+00 0. -1.
        -13    1    5    5    0    0  0.47216585493E+01 -0.19675908389E+02 -0.51777772208E+02  0.55591124519E+02  0.00000000000E+00 0.  1.
         14    1    5    5    0    0 -0.90068998495E+02  0.96555472776E+01 -0.59127030184E+03  0.59816905965E+03  0.00000000000E+00 0. -1.
          5    1    4    4  501    0 -0.14835690010E+03 -0.93963076376E+02  0.28825964313E+03  0.33757153521E+03  0.47000000000E+01 0. -1.
         -5    1    4    4    0  501  0.57033871683E+01 -0.22070926818E+02  0.17216495512E+03  0.17373116073E+03  0.47000000000E+01 0. -1.
          1    1    1    2  502    0  0.31681925513E+02 -0.55147570796E+02 -0.41887187995E+03  0.42367281100E+03  0.00000000000E+00 0. -1.
          1    1    1    2  503    0  0.21262837837E+02 -0.99753434419E+01  0.48573659907E+03  0.48630408123E+03  0.00000000000E+00 0. -1.
<mgrwt>
<rscale>  0 0.38676053E+02</rscale>
<asrwt>0</asrwt>
<pdfrwt beam="1">  1        2 0.14788881E+00 0.23486501E+02</pdfrwt>
<pdfrwt beam="2">  1        2 0.26628468E+00 0.63689225E+02</pdfrwt>
<totfact> 0.57630773E+01</totfact>
</mgrwt>
</event>
<event>
13    1  0.1589573E-008  0.1246688E+03  0.7546771E-02  0.1359469E+00
          2   -1    0    0  502    0  0.00000000000E+00  0.00000000000E+00  0.20102504872E+04  0.20102504872E+04  0.00000000000E+00 0. -1.
          2   -1    0    0  503    0 -0.00000000000E+00 -0.00000000000E+00 -0.68822573804E+03  0.68822573804E+03  0.00000000000E+00 0. -1.
         24    2    1    2    0    0 -0.17204958806E+02 -0.32341051558E+02 -0.21830716918E+02  0.97651037519E+02  0.87847542391E+02 0.  0.
         25    2    1    2    0    0 -0.29129436511E+02  0.13675072569E+03  0.10322551338E+04  0.10491544744E+04  0.12500065970E+03 0.  0.
         24    2    1    2    0    0 -0.11493273425E+03 -0.41327924722E+01  0.25489320465E+03  0.29110337329E+03  0.80895085068E+02 0.  0.
        -11    1    3    3    0    0  0.33741251486E+02 -0.26164568387E+02 -0.23604862167E+01  0.42762467023E+02  0.00000000000E+00 0.  1.
         12    1    3    3    0    0 -0.50946210293E+02 -0.61764831706E+01 -0.19470230701E+02  0.54888570496E+02  0.00000000000E+00 0. -1.
        -13    1    5    5    0    0 -0.11277116002E+03  0.23127700813E+01  0.25945748133E+03  0.28291494845E+03  0.00000000000E+00 0.  1.
         14    1    5    5    0    0 -0.21615742285E+01 -0.64455625535E+01 -0.45642766792E+01  0.81884248412E+01  0.00000000000E+00 0. -1.
          5    1    4    4  501    0  0.43057891953E+02  0.25866498402E+02  0.19125379896E+03  0.19779576188E+03  0.47000000000E+01 0. -1.
         -5    1    4    4    0  501 -0.72187328463E+02  0.11088422729E+03  0.84100133484E+03  0.85135871256E+03  0.47000000000E+01 0. -1.
          1    1    1    2  502    0  0.39322484962E+02 -0.38521435258E+01  0.64798765733E+03  0.64919111276E+03  0.00000000000E+00 0. -1.
          1    1    1    2  503    0  0.12194464461E+03 -0.96424738138E+02 -0.59128052968E+03  0.61137622725E+03  0.00000000000E+00 0. -1.
<mgrwt>
<rscale>  0 0.70183721E+02</rscale>
<asrwt>0</asrwt>
<pdfrwt beam="1">  1        2 0.29562507E+00 0.39510718E+02</pdfrwt>
<pdfrwt beam="2">  1        2 0.10120967E+00 0.12466882E+03</pdfrwt>
<totfact> 0.72196740E+01</totfact>
</mgrwt>
</event>
<event>
13    1  0.1589573E-008  0.2076654E+03  0.7546771E-02  0.1164881E+00
          2   -1    0    0  502    0  0.00000000000E+00  0.00000000000E+00  0.51221997362E+04  0.51221997362E+04  0.00000000000E+00 0. -1.
          2   -1    0    0  503    0 -0.00000000000E+00 -0.00000000000E+00 -0.31889105280E+04  0.31889105280E+04  0.00000000000E+00 0. -1.
         24    2    1    2    0    0  0.18003482284E+03 -0.14879116729E+03 -0.22050176014E+03  0.33085664708E+03  0.79333131777E+02 0.  0.
         25    2    1    2    0    0  0.27062503857E+03  0.13868134587E+03 -0.16096777798E+02  0.32917200407E+03  0.12499869924E+03 0.  0.
         24    2    1    2    0    0  0.37871912396E+02 -0.49423768886E+02  0.46075768280E+03  0.47201478251E+03  0.81383794312E+02 0.  0.
        -11    1    5    5    0    0  0.32949942538E+02 -0.55145885829E+02  0.17938124982E+03  0.19053713607E+03  0.00000000000E+00 0.  1.
         12    1    5    5    0    0  0.49219698579E+01  0.57221169436E+01  0.28137643298E+03  0.28147764644E+03  0.00000000000E+00 0. -1.
        -13    1    3    3    0    0  0.14571731610E+03 -0.15066827528E+03 -0.17056049834E+03  0.27023202805E+03  0.00000000000E+00 0.  1.
         14    1    3    3    0    0  0.34317506734E+02  0.18771079959E+01 -0.49941261804E+02  0.60624619037E+02  0.00000000000E+00 0. -1.
          5    1    4    4  501    0  0.12137913387E+03  0.13097730106E+03 -0.18870610197E+02  0.17962777475E+03  0.47000000000E+01 0.  1.
         -5    1    4    4    0  501  0.14924590470E+03  0.77040448129E+01  0.27738323991E+01  0.14954422932E+03  0.47000000000E+01 0.  1.
          1    1    1    2  502    0 -0.28606239651E+03  0.13187555349E+02  0.44355309617E+04  0.44447655190E+04  0.00000000000E+00 0. -1.
          1    1    1    2  503    0 -0.20246937729E+03  0.46346034952E+02 -0.27264008984E+04  0.27343013116E+04  0.00000000000E+00 0. -1.
<mgrwt>
<rscale>  0 0.18305263E+03</rscale>
<asrwt>0</asrwt>
<pdfrwt beam="1">  1        2 0.75326467E+00 0.16135701E+03</pdfrwt>
<pdfrwt beam="2">  1        2 0.46895743E+00 0.20766538E+03</pdfrwt>
<totfact> 0.24354172E-02</totfact>
</mgrwt>
</event>
<event>
13    1  0.1589573E-008  0.1863446E+03  0.7546771E-02  0.1249758E+00
          2   -1    0    0  503    0  0.00000000000E+00  0.00000000000E+00  0.28761166288E+04  0.28761166288E+04  0.00000000000E+00 0. -1.
          2   -1    0    0  502    0 -0.00000000000E+00 -0.00000000000E+00 -0.65884913416E+03  0.65884913416E+03  0.00000000000E+00 0. -1.
         24    2    1    2    0    0  0.22639057571E+03 -0.28752606856E+01 -0.12301774225E+03  0.26981144320E+03  0.80024309308E+02 0.  0.
         25    2    1    2    0    0 -0.67753860990E+02  0.16913950109E+03  0.77589579431E+03  0.80674524243E+03  0.12499938416E+03 0.  0.
         24    2    1    2    0    0 -0.11243419898E+03 -0.20459456013E+02  0.20856564696E+03  0.25149482570E+03  0.81792296845E+02 0.  0.
        -11    1    3    3    0    0  0.10740378955E+03 -0.31589425560E+02 -0.29504804988E+02  0.11577564223E+03  0.00000000000E+00 0.  1.
         12    1    3    3    0    0  0.11898678616E+03  0.28714164874E+02 -0.93512937260E+02  0.15403580097E+03  0.00000000000E+00 0. -1.
        -11    1    5    5    0    0 -0.11437083149E+03 -0.17312853574E+01  0.14211902478E+03  0.18243218370E+03  0.00000000000E+00 0.  1.
         12    1    5    5    0    0  0.19366325108E+01 -0.18728170656E+02  0.66446622180E+02  0.69062642005E+02  0.00000000000E+00 0. -1.
          5    1    4    4  501    0  0.29083533831E+02  0.90856204538E+01  0.70413282359E+02  0.76866902967E+02  0.47000000000E+01 0. -1.
         -5    1    4    4    0  501 -0.96837394821E+02  0.16005388064E+03  0.70548251195E+03  0.72987833946E+03  0.47000000000E+01 0. -1.
          1    1    1    2  502    0  0.72203373841E+02 -0.31846349267E+01 -0.41761068564E+03  0.42381853882E+03  0.00000000000E+00 0. -1.
          1    1    1    2  503    0 -0.11840588959E+03 -0.14262014946E+03  0.17734344813E+04  0.17830957128E+04  0.00000000000E+00 0. -1.
<mgrwt>
<rscale>  0 0.11605081E+03</rscale>
<asrwt>0</asrwt>
<pdfrwt beam="1">  1        2 0.42295832E+00 0.18634460E+03</pdfrwt>
<pdfrwt beam="2">  1        2 0.96889580E-01 0.72273571E+02</pdfrwt>
<totfact> 0.23601095E+01</totfact>
</mgrwt>
</event>
<event>
13    1  0.1589573E-008  0.9736660E+02  0.7546771E-02  0.1330463E+00
          2   -1    0    0  502    0  0.00000000000E+00  0.00000000000E+00  0.35022263936E+04  0.35022263936E+04  0.00000000000E+00 0. -1.
          2   -1    0    0  503    0 -0.00000000000E+00 -0.00000000000E+00 -0.16113617117E+04  0.16113617117E+04  0.00000000000E+00 0. -1.
         24    2    1    2    0    0 -0.13397568412E+03 -0.55005926736E+03  0.93004892086E+03  0.10918481269E+04  0.81404272577E+02 0.  0.
         25    2    1    2    0    0  0.46819951054E+03  0.98811211033E+03  0.24371625118E+03  0.11272086282E+04  0.12500142481E+03 0.  0.
         24    2    1    2    0    0 -0.30099041088E+03 -0.46233104887E+03 -0.33092595944E+03  0.64908442029E+03  0.86332889646E+02 0.  0.
        -11    1    3    3    0    0 -0.82314609666E+02 -0.35476321331E+03  0.52142813393E+03  0.63601881367E+03  0.00000000000E+00 0.  1.
         12    1    3    3    0    0 -0.51661074451E+02 -0.19529605405E+03  0.40862078692E+03  0.45582931328E+03  0.00000000000E+00 0. -1.
        -13    1    5    5    0    0 -0.56247707146E+02 -0.15876314030E+03 -0.10219553566E+03  0.19701133670E+03  0.00000000000E+00 0.  1.
         14    1    5    5    0    0 -0.24474270374E+03 -0.30356790857E+03 -0.22873042378E+03  0.45207308359E+03  0.00000000000E+00 0. -1.
          5    1    4    4  501    0  0.44202730106E+03  0.91295950826E+03  0.25697713792E+03  0.10463950201E+04  0.47000000000E+01 0. -1.
         -5    1    4    4    0  501  0.26172209486E+02  0.75152602070E+02 -0.13260886735E+02  0.80813608163E+02  0.47000000000E+01 0. -1.
          1    1    1    2  502    0 -0.40066218827E+02  0.88837210109E+02  0.16435287107E+04  0.16464154927E+04  0.00000000000E+00 0. -1.
          1    1    1    2  503    0  0.68328032832E+01 -0.64559004206E+02 -0.59550324138E+03  0.59903143717E+03  0.00000000000E+00 0. -1.
<mgrwt>
<rscale>  0 0.79504711E+02</rscale>
<asrwt>0</asrwt>
<pdfrwt beam="1">  1        2 0.51503329E+00 0.97366600E+02</pdfrwt>
<pdfrwt beam="2">  1        2 0.23696496E+00 0.64919583E+02</pdfrwt>
<totfact> 0.34742403E+00</totfact>
</mgrwt>
</event>
<event>
13    1  0.1589573E-008  0.7182258E+02  0.7546771E-02  0.1355332E+00
          2   -1    0    0  503    0  0.00000000000E+00  0.00000000000E+00  0.13900057989E+04  0.13900057989E+04  0.00000000000E+00 0. -1.
         -1   -1    0    0    0  501 -0.00000000000E+00 -0.00000000000E+00 -0.27126201542E+04  0.27126201542E+04  0.00000000000E+00 0.  1.
         24    2    1    2    0    0  0.66661214124E+03 -0.16435983133E+03 -0.10443706030E+04  0.12509000980E+04  0.51528610561E+02 0.  0.
         25    2    1    2    0    0  0.36908407600E+02  0.54882423574E+02  0.21486478208E+03  0.25722692932E+03  0.12499803046E+03 0.  0.
         24    2    1    2    0    0 -0.64203364358E+03  0.23824443569E+03 -0.34409914916E+03  0.77057986305E+03  0.80134201577E+02 0.  0.
        -11    1    5    5    0    0 -0.47397746046E+03  0.13830952537E+03 -0.23776705073E+03  0.54801216068E+03  0.00000000000E+00 0.  1.
         12    1    5    5    0    0 -0.16805618311E+03  0.99934910322E+02 -0.10633209843E+03  0.22256770237E+03  0.00000000000E+00 0. -1.
        -13    1    3    3    0    0  0.51225563471E+03 -0.14197856784E+03 -0.83444249711E+03  0.98937254359E+03  0.00000000000E+00 0.  1.
         14    1    3    3    0    0  0.15435650653E+03 -0.22381263492E+02 -0.20992810587E+03  0.26152755438E+03  0.00000000000E+00 0. -1.
          5    1    4    4  502    0 -0.29483039642E+02  0.42164018881E+02  0.16553827953E+03  0.17341299290E+03  0.47000000000E+01 0.  1.
         -5    1    4    4    0  502  0.66391447243E+02  0.12718404693E+02  0.49326502551E+02  0.83813936424E+02  0.47000000000E+01 0.  1.
          1    1    1    2  503    0 -0.33107070732E+02 -0.63665846052E+02  0.83463506849E+03  0.83771422074E+03  0.00000000000E+00 0. -1.
         -2    1    1    2    0  501 -0.28379834534E+02 -0.65101181887E+02 -0.98364445374E+03  0.98620484194E+03  0.00000000000E+00 0.  1.
<mgrwt>
<rscale>  0 0.71419239E+02</rscale>
<asrwt>0</asrwt>
<pdfrwt beam="1">  1        2 0.20441262E+00 0.71822583E+02</pdfrwt>
<pdfrwt beam="2">  1       -1 0.39891472E+00 0.71018159E+02</pdfrwt>
<totfact> 0.23761999E-01</totfact>
</mgrwt>
</event>
<event>
13    1  0.1589573E-008  0.1222119E+03  0.7546771E-02  0.1344582E+00
          2   -1    0    0  503    0  0.00000000000E+00  0.00000000000E+00  0.19356928599E+04  0.19356928599E+04  0.00000000000E+00 0. -1.
          2   -1    0    0  502    0 -0.00000000000E+00 -0.00000000000E+00 -0.11702322094E+04  0.11702322094E+04  0.00000000000E+00 0. -1.
         24    2    1    2    0    0  0.10022205241E+03 -0.37007976728E+02 -0.22104381068E+03  0.25821002294E+03  0.79987496364E+02 0.  0.
         25    2    1    2    0    0 -0.68196028928E+02 -0.12230879455E+03  0.58419258470E+03  0.61360915029E+03  0.12500029484E+03 0.  0.
         24    2    1    2    0    0 -0.58039799845E+02 -0.28170950403E+02 -0.12081400933E+03  0.15916879012E+03  0.81095364138E+02 0.  0.
        -11    1    5    5    0    0 -0.66633963217E+01 -0.47581200432E+02 -0.47468045709E+02  0.67539520642E+02  0.00000000000E+00 0.  1.
         12    1    5    5    0    0 -0.51376403523E+02  0.19410250030E+02 -0.73345963625E+02  0.91629269479E+02  0.00000000000E+00 0. -1.
        -11    1    3    3    0    0  0.60161328613E+02 -0.42557834219E+02 -0.69262309728E+02  0.10113269631E+03  0.00000000000E+00 0.  1.
         12    1    3    3    0    0  0.40060723798E+02  0.55498574917E+01 -0.15178150095E+03  0.15707732663E+03  0.00000000000E+00 0. -1.
          5    1    4    4  501    0  0.10266291974E+02 -0.44193972039E+02  0.48520319128E+02  0.66594408802E+02  0.47000000000E+01 0.  1.
         -5    1    4    4    0  501 -0.78462320902E+02 -0.78114822508E+02  0.53567226558E+03  0.54701474149E+03  0.47000000000E+01 0.  1.
          1    1    1    2  502    0 -0.94221427061E+01  0.15855733996E+03 -0.76736713276E+03  0.78363353888E+03  0.00000000000E+00 0. -1.
          1    1    1    2  503    0  0.35435919068E+02  0.28930381718E+02  0.12904930186E+04  0.12913035671E+04  0.00000000000E+00 0. -1.
<mgrwt>
<rscale>  0 0.74770791E+02</rscale>
<asrwt>0</asrwt>
<pdfrwt beam="1">  1        2 0.28466071E+00 0.45745725E+02</pdfrwt>
<pdfrwt beam="2">  1        2 0.17209297E+00 0.12221188E+03</pdfrwt>
<totfact> 0.38867549E+01</totfact>
</mgrwt>
</event>
<event>
13    1  0.1589573E-008  0.5494633E+02  0.7546771E-02  0.1519181E+00
          2   -1    0    0  503    0  0.00000000000E+00  0.00000000000E+00  0.31330403452E+04  0.31330403452E+04  0.00000000000E+00 0. -1.
          2   -1    0    0  502    0 -0.00000000000E+00 -0.00000000000E+00 -0.81035058864E+03  0.81035058864E+03  0.00000000000E+00 0. -1.
         24    2    1    2    0    0 -0.28593317242E+03 -0.37995215700E+02 -0.27485074018E+03  0.40655491780E+03  0.80886069900E+02 0.  0.
         25    2    1    2    0    0  0.12856511582E+03  0.74921077945E+02  0.15890941441E+04  0.16009332767E+04  0.12500000226E+03 0.  0.
         24    2    1    2    0    0  0.20746806406E+03 -0.25359370536E+02 -0.49056865545E+02  0.22770255307E+03  0.75866865882E+02 0.  0.
        -13    1    3    3    0    0 -0.24851186590E+03 -0.13750369054E+02 -0.25907109780E+03  0.35925625097E+03  0.00000000000E+00 0.  1.
         14    1    3    3    0    0 -0.37421306518E+02 -0.24244846646E+02 -0.15779642374E+02  0.47298666830E+02  0.00000000000E+00 0. -1.
        -13    1    5    5    0    0  0.16101311019E+03  0.15467555893E+00 -0.62998992271E+02  0.17289915733E+03  0.00000000000E+00 0.  1.
         14    1    5    5    0    0  0.46454953869E+02 -0.25514046095E+02  0.13942126726E+02  0.54803395741E+02  0.00000000000E+00 0. -1.
          5    1    4    4  501    0  0.97478907157E+00 -0.21957707082E+02  0.45679009624E+03  0.45734273049E+03  0.47000000000E+01 0.  1.
         -5    1    4    4    0  501  0.12759032675E+03  0.96878785027E+02  0.11323040479E+04  0.11435905462E+04  0.47000000000E+01 0.  1.
          1    1    1    2  502    0 -0.52774331804E+02  0.15343908635E+02 -0.32289408064E+03  0.32753801755E+03  0.00000000000E+00 0. -1.
          1    1    1    2  503    0  0.26743243474E+01 -0.26910400343E+02  0.13803972988E+04  0.13806621687E+04  0.00000000000E+00 0. -1.
<mgrwt>
<rscale>  0 0.38547520E+02</rscale>
<asrwt>0</asrwt>
<pdfrwt beam="1">  1        2 0.46074122E+00 0.27042959E+02</pdfrwt>
<pdfrwt beam="2">  1        2 0.11916921E+00 0.54946326E+02</pdfrwt>
<totfact> 0.18846911E+01</totfact>
</mgrwt>
</event>
<event>
13    1  0.1589573E-008  0.1481926E+03  0.7546771E-02  0.1304776E+00
          2   -1    0    0  502    0  0.00000000000E+00  0.00000000000E+00  0.11297772262E+04  0.11297772262E+04  0.00000000000E+00 0. -1.
          2   -1    0    0  503    0 -0.00000000000E+00 -0.00000000000E+00 -0.11711444202E+04  0.11711444202E+04  0.00000000000E+00 0. -1.
         24    2    1    2    0    0 -0.12367435590E+03 -0.28714797076E+01 -0.28917683257E+03  0.32470084251E+03  0.80646171183E+02 0.  0.
         25    2    1    2    0    0  0.33704821994E+03  0.98777644126E+02  0.20776306334E+03  0.42679258264E+03  0.12501156974E+03 0.  0.
         24    2    1    2    0    0 -0.10015173724E+03 -0.97289002623E+02 -0.42496215954E+03  0.45464472692E+03  0.81323244958E+02 0.  0.
        -11    1    3    3    0    0 -0.71074674963E+02  0.38388669197E+02 -0.15434727407E+03  0.17420786537E+03  0.00000000000E+00 0.  1.
         12    1    3    3    0    0 -0.52599680937E+02 -0.41260148905E+02 -0.13482955850E+03  0.15049297714E+03  0.00000000000E+00 0. -1.
        -11    1    5    5    0    0 -0.38695959426E+02 -0.35298854709E+02 -0.28440690914E+03  0.28918968928E+03  0.00000000000E+00 0.  1.
         12    1    5    5    0    0 -0.61455777810E+02 -0.61990147914E+02 -0.14055525040E+03  0.16545503764E+03  0.00000000000E+00 0. -1.
          5    1    4    4  501    0  0.10239977494E+03 -0.84369226993E+01  0.11071945517E+03  0.15112175001E+03  0.47000000000E+01 0. -1.
         -5    1    4    4    0  501  0.23464844499E+03  0.10721456682E+03  0.97043608170E+02  0.27567083263E+03  0.47000000000E+01 0. -1.
          1    1    1    2  502    0 -0.13959063739E+03 -0.45401028339E+02  0.77062713317E+03  0.78448261790E+03  0.00000000000E+00 0. -1.
          1    1    1    2  503    0  0.26368510587E+02  0.46783866544E+02 -0.30561839836E+03  0.31030087646E+03  0.00000000000E+00 0. -1.
<mgrwt>
<rscale>  0 0.89209910E+02</rscale>
<asrwt>0</asrwt>
<pdfrwt beam="1">  1        2 0.16614371E+00 0.14819257E+03</pdfrwt>
<pdfrwt beam="2">  1        2 0.17222712E+00 0.53703152E+02</pdfrwt>
<totfact> 0.92787428E+01</totfact>
</mgrwt>
</event>
<event>
13    1  0.1589573E-008  0.1304059E+03  0.7546771E-02  0.1257545E+00
          2   -1    0    0  502    0  0.00000000000E+00  0.00000000000E+00  0.14491355494E+03  0.14491355494E+03  0.00000000000E+00 0. -1.
          2   -1    0    0  503    0 -0.00000000000E+00 -0.00000000000E+00 -0.26683557106E+04  0.26683557106E+04  0.00000000000E+00 0. -1.
         24    2    1    2    0    0 -0.31177621559E+02 -0.44584776438E+02 -0.50232649290E+03  0.51159304777E+03  0.80222781568E+02 0.  0.
         25    2    1    2    0    0  0.33268458068E+02  0.19371432541E+03 -0.15729877327E+03  0.28105936320E+03  0.12497772361E+03 0.  0.
         24    2    1    2    0    0 -0.60663975389E+02  0.18913825743E+02 -0.32236491692E+02  0.10667871100E+03  0.79393357848E+02 0.  0.
        -13    1    3    3    0    0  0.10007866534E+02 -0.48155022977E+02 -0.36129811650E+03  0.36463048778E+03  0.00000000000E+00 0.  1.
         14    1    3    3    0    0 -0.41185488093E+02  0.35702465394E+01 -0.14102837640E+03  0.14696255999E+03  0.00000000000E+00 0. -1.
        -13    1    5    5    0    0 -0.27446601149E+02  0.49445677655E+02 -0.19018475396E+02  0.59664841907E+02  0.00000000000E+00 0.  1.
         14    1    5    5    0    0 -0.33217374240E+02 -0.30531851912E+02 -0.13218016295E+02  0.47013869096E+02  0.00000000000E+00 0. -1.
          5    1    4    4  501    0  0.20966967309E+02 -0.10299803279E+02 -0.36528416621E+02  0.43613242101E+02  0.47000000000E+01 0.  1.
         -5    1    4    4    0  501  0.12301490759E+02  0.20401412869E+03 -0.12077035665E+03  0.23744612109E+03  0.47000000000E+01 0.  1.
          1    1    1    2  502    0 -0.71195281646E+02 -0.63787998244E+02 -0.23799176841E+02  0.98509277061E+02  0.00000000000E+00 0. -1.
          1    1    1    2  503    0  0.12976842053E+03 -0.10425537647E+03 -0.18077812209E+04  0.18154288665E+04  0.00000000000E+00 0. -1.
<mgrwt>
<rscale>  0 0.11164972E+03</rscale>
<asrwt>0</asrwt>
<pdfrwt beam="1">  1        2 0.21310819E-01 0.95591197E+02</pdfrwt>
<pdfrwt beam="2">  1        2 0.39240522E+00 0.13040594E+03</pdfrwt>
<totfact> 0.16016999E+02</totfact>
</mgrwt>
</event>
<event>
13    1  0.2541549E-008  0.3257168E+03  0.7546771E-02  0.1139235E+00
          2   -1    0    0  503    0  0.00000000000E+00  0.00000000000E+00  0.32142656635E+04  0.32142656635E+04  0.00000000000E+00 0. -1.
          2   -1    0    0  502    0 -0.00000000000E+00 -0.00000000000E+00 -0.12157466426E+04  0.12157466426E+04  0.00000000000E+00 0. -1.
         24    2    1    2    0    0  0.42235286081E+02  0.67424649707E+02 -0.38987484868E+03  0.40633772530E+03  0.82328892802E+02 0.  0.
         25    2    1    2    0    0  0.99946176981E+02 -0.68665663659E+03  0.14115077177E+04  0.15778031755E+04  0.12498899357E+03 0.  0.
         24    2    1    2    0    0 -0.23410990422E+02  0.16897402632E+03  0.42521667952E+03  0.46521725383E+03  0.80731485074E+02 0.  0.
        -11    1    5    5    0    0  0.22490446321E+02  0.13929897530E+02  0.48053080001E+02  0.54853994554E+02  0.00000000000E+00 0.  1.
         12    1    5    5    0    0 -0.45901436744E+02  0.15504412879E+03  0.37716359952E+03  0.41036325928E+03  0.00000000000E+00 0. -1.
        -13    1    3    3    0    0  0.58392211956E+02  0.17091521289E+02 -0.18473708158E+03  0.19449822577E+03  0.00000000000E+00 0.  1.
         14    1    3    3    0    0 -0.16156925875E+02  0.50333128419E+02 -0.20513776711E+03  0.21183949954E+03  0.00000000000E+00 0. -1.
          5    1    4    4  501    0  0.78842823087E+02 -0.49225234618E+03  0.87948399058E+03  0.10109612964E+04  0.47000000000E+01 0. -1.
         -5    1    4    4    0  501  0.21103353894E+02 -0.19440429042E+03  0.53202372716E+03  0.56684187913E+03  0.47000000000E+01 0. -1.
          1    1    1    2  502    0 -0.64261660243E+02  0.10996608899E+03 -0.68506273081E+03  0.69680201410E+03  0.00000000000E+00 0. -1.
          1    1    1    2  503    0 -0.54508812397E+02  0.34029187158E+03  0.12367322031E+04  0.12838521374E+04  0.00000000000E+00 0. -1.
<mgrwt>
<rscale>  0 0.21297109E+03</rscale>
<asrwt>0</asrwt>
<pdfrwt beam="1">  1        2 0.47268613E+00 0.32571680E+03</pdfrwt>
<pdfrwt beam="2">  1        2 0.17878627E+00 0.13925191E+03</pdfrwt>
<totfact> 0.62985702E+00</totfact>
</mgrwt>
</event>
<event>
13    1  0.1589573E-008  0.9078397E+02  0.7546771E-02  0.1304185E+00
          2   -1    0    0  502    0  0.00000000000E+00  0.00000000000E+00  0.18406709862E+04  0.18406709862E+04  0.00000000000E+00 0. -1.
          2   -1    0    0  503    0 -0.00000000000E+00 -0.00000000000E+00 -0.17071295441E+04  0.17071295441E+04  0.00000000000E+00 0. -1.
         24    2    1    2    0    0  0.71007082840E+02 -0.38545938663E+02 -0.81864354311E+03  0.82651310783E+03  0.80117860297E+02 0.  0.
         25    2    1    2    0    0 -0.98168302578E+02 -0.12509456503E+02  0.91356774954E+03  0.92737464336E+03  0.12499677604E+03 0.  0.
         24    2    1    2    0    0  0.29700079282E+02  0.13049454665E+03  0.28948185970E+03  0.33032578000E+03  0.86049127953E+02 0.  0.
        -11    1    3    3    0    0  0.11684700600E+02 -0.49650876353E+02 -0.46096669482E+03  0.46378015857E+03  0.00000000000E+00 0.  1.
         12    1    3    3    0    0  0.59322382240E+02  0.11104937690E+02 -0.35767684829E+03  0.36273294926E+03  0.00000000000E+00 0. -1.
        -13    1    5    5    0    0  0.38827232988E+02  0.12671378344E+03  0.29152680914E+03  0.32023712680E+03  0.00000000000E+00 0.  1.
         14    1    5    5    0    0 -0.91271537061E+01  0.37807632012E+01 -0.20449494341E+01  0.10088653198E+02  0.00000000000E+00 0. -1.
          5    1    4    4  501    0 -0.35911940118E+02  0.18105506173E+02  0.72930183264E+03  0.73042503372E+03  0.47000000000E+01 0. -1.
         -5    1    4    4    0  501 -0.62256362460E+02 -0.30614962676E+02  0.18426591689E+03  0.19694960963E+03  0.47000000000E+01 0. -1.
          1    1    1    2  502    0 -0.81290483502E+02 -0.34064363787E+02  0.60072722927E+03  0.60715873343E+03  0.00000000000E+00 0. -1.
          1    1    1    2  503    0  0.78751623959E+02 -0.45374787693E+02 -0.85159185334E+03  0.85642826571E+03  0.00000000000E+00 0. -1.
<mgrwt>
<rscale>  0 0.89451824E+02</rscale>
<asrwt>0</asrwt>
<pdfrwt beam="1">  1        2 0.27068691E+00 0.88139228E+02</pdfrwt>
<pdfrwt beam="2">  1        2 0.25104846E+00 0.90783968E+02</pdfrwt>
<totfact> 0.22044360E+01</totfact>
</mgrwt>
</event>
<event>
13    1  0.1589573E-008  0.1128604E+03  0.7546771E-02  0.1315977E+00
          2   -1    0    0  502    0  0.00000000000E+00  0.00000000000E+00  0.84846177127E+03  0.84846177127E+03  0.00000000000E+00 0. -1.
          2   -1    0    0  503    0 -0.00000000000E+00 -0.00000000000E+00 -0.44279316623E+03  0.44279316623E+03  0.00000000000E+00 0. -1.
         24    2    1    2    0    0  0.95372288085E+02 -0.94318300895E+02 -0.69141497048E+02  0.17198662695E+03  0.82504775726E+02 0.  0.
         25    2    1    2    0    0 -0.10636479244E+03 -0.16847076507E+02  0.38445271869E+03  0.41835923767E+03  0.12499306292E+03 0.  0.
         24    2    1    2    0    0  0.95517464942E+01  0.57418809886E+02  0.75739255899E+02  0.12475603855E+03  0.80246362412E+02 0.  0.
        -11    1    3    3    0    0  0.67615811918E+02 -0.13815510218E+02 -0.13655242024E+02  0.70350778095E+02  0.00000000000E+00 0.  1.
         12    1    3    3    0    0  0.27756476167E+02 -0.80502790677E+02 -0.55486255024E+02  0.10163584886E+03  0.00000000000E+00 0. -1.
        -13    1    5    5    0    0 -0.21834469637E+02 -0.65260197810E+01  0.37571519152E+02  0.43942599489E+02  0.00000000000E+00 0.  1.
         14    1    5    5    0    0  0.31386216131E+02  0.63944829667E+02  0.38167736747E+02  0.80813439059E+02  0.00000000000E+00 0. -1.
          5    1    4    4  501    0  0.22083767706E+02 -0.42218203071E+01  0.14013478953E+03  0.14200480908E+03  0.47000000000E+01 0.  1.
         -5    1    4    4    0  501 -0.12844856014E+03 -0.12625256200E+02  0.24431792916E+03  0.27635442860E+03  0.47000000000E+01 0.  1.
          1    1    1    2  502    0  0.31864409183E+02 -0.55162531748E+02  0.28027895338E+03  0.28742744683E+03  0.00000000000E+00 0. -1.
          1    1    1    2  503    0 -0.30423651324E+02  0.10890909926E+03 -0.26566082589E+03  0.28872558750E+03  0.00000000000E+00 0. -1.
<mgrwt>
<rscale>  0 0.84792098E+02</rscale>
<asrwt>0</asrwt>
<pdfrwt beam="1">  1        2 0.12477379E+00 0.63704360E+02</pdfrwt>
<pdfrwt beam="2">  1        2 0.65116642E-01 0.11286041E+03</pdfrwt>
<totfact> 0.43252345E+02</totfact>
</mgrwt>
</event>
<event>
13    1  0.1589573E-008  0.8046393E+02  0.7546771E-02  0.1348024E+00
          2   -1    0    0  503    0  0.00000000000E+00  0.00000000000E+00  0.22693253608E+04  0.22693253608E+04  0.00000000000E+00 0. -1.
          2   -1    0    0  502    0 -0.00000000000E+00 -0.00000000000E+00 -0.19217580544E+04  0.19217580544E+04  0.00000000000E+00 0. -1.
         24    2    1    2    0    0 -0.85787963008E+02 -0.63776241511E+02 -0.76028554787E+03  0.77180297058E+03  0.78858909018E+02 0.  0.
         25    2    1    2    0    0  0.13362398714E+03  0.17143690671E+03 -0.74107724739E+02  0.26146349991E+03  0.12500089598E+03 0.  0.
         24    2    1    2    0    0 -0.15137798047E+02 -0.16777517043E+02 -0.44520364624E+03  0.45287653774E+03  0.79876365768E+02 0.  0.
        -13    1    5    5    0    0  0.19182136298E+02  0.81627682359E+01 -0.32004020291E+03  0.32071843822E+03  0.00000000000E+00 0.  1.
         14    1    5    5    0    0 -0.34319934345E+02 -0.24940285279E+02 -0.12516344333E+03  0.13215809952E+03  0.00000000000E+00 0. -1.
        -13    1    3    3    0    0 -0.72440567363E+02 -0.80862135664E+01 -0.50053311363E+03  0.50581263378E+03  0.00000000000E+00 0.  1.
         14    1    3    3    0    0 -0.13347395645E+02 -0.55690027944E+02 -0.25975243424E+03  0.26599033681E+03  0.00000000000E+00 0. -1.
          5    1    4    4  501    0  0.10463050731E+03  0.78756379171E+02 -0.95206855829E+02  0.16197699132E+03  0.47000000000E+01 0.  1.
         -5    1    4    4    0  501  0.28993479827E+02  0.92680527543E+02  0.21099131090E+02  0.99486508587E+02  0.47000000000E+01 0.  1.
          1    1    1    2  502    0  0.39257678222E+02 -0.54859428697E+02 -0.53602589409E+03  0.54025408962E+03  0.00000000000E+00 0. -1.
          1    1    1    2  503    0 -0.71955904303E+02 -0.36023719463E+02  0.21631901193E+04  0.21646863174E+04  0.00000000000E+00 0. -1.
<mgrwt>
<rscale>  0 0.73675095E+02</rscale>
<asrwt>0</asrwt>
<pdfrwt beam="1">  1        2 0.33372432E+00 0.80463931E+02</pdfrwt>
<pdfrwt beam="2">  1        2 0.28261148E+00 0.67459041E+02</pdfrwt>
<totfact> 0.11285098E+01</totfact>
</mgrwt>
</event>
<event>
13    1  0.1589573E-008  0.9366138E+02  0.7546771E-02  0.1410025E+00
          2   -1    0    0  503    0  0.00000000000E+00  0.00000000000E+00  0.32530887712E+04  0.32530887712E+04  0.00000000000E+00 0. -1.
          2   -1    0    0  502    0 -0.00000000000E+00 -0.00000000000E+00 -0.12322050952E+04  0.12322050952E+04  0.00000000000E+00 0. -1.
         24    2    1    2    0    0  0.42418437440E+02  0.30285447128E+02 -0.67256184411E+02  0.11689597945E+03  0.80154497861E+02 0.  0.
         25    2    1    2    0    0 -0.64773414134E+02  0.46191829457E+02  0.16299208349E+04  0.16366395882E+04  0.12497172977E+03 0.  0.
         24    2    1    2    0    0 -0.39487682848E+02 -0.47563036528E+02  0.38510586074E+02  0.10694281149E+03  0.78308238065E+02 0.  0.
        -11    1    3    3    0    0  0.25530415245E+01 -0.26208733351E+02 -0.21353417492E+02  0.33902568685E+02  0.00000000000E+00 0.  1.
         12    1    3    3    0    0  0.39865395915E+02  0.56494180479E+02 -0.45902766919E+02  0.82993410764E+02  0.00000000000E+00 0. -1.
        -13    1    5    5    0    0  0.18253788972E+02 -0.68218256436E+01 -0.93291329923E+01  0.21604879989E+02  0.00000000000E+00 0.  1.
         14    1    5    5    0    0 -0.57741471820E+02 -0.40741210885E+02  0.47839719067E+02  0.85337931500E+02  0.00000000000E+00 0. -1.
          5    1    4    4  501    0  0.14986605105E+01  0.75329677620E+02  0.79994953932E+03  0.80350367876E+03  0.47000000000E+01 0.  1.
         -5    1    4    4    0  501 -0.66272074645E+02 -0.29137848163E+02  0.82997129560E+03  0.83313590944E+03  0.47000000000E+01 0.  1.
          1    1    1    2  502    0  0.69333198978E+02 -0.63019775714E+02 -0.11003621435E+04  0.11043438918E+04  0.00000000000E+00 0. -1.
          1    1    1    2  503    0 -0.74905394351E+01  0.34105535658E+02  0.15200705829E+04  0.15204715955E+04  0.00000000000E+00 0. -1.
<mgrwt>
<rscale>  0 0.57188346E+02</rscale>
<asrwt>0</asrwt>
<pdfrwt beam="1">  1        2 0.47839541E+00 0.34918416E+02</pdfrwt>
<pdfrwt beam="2">  1        2 0.18120663E+00 0.93661380E+02</pdfrwt>
<totfact> 0.87182612E+00</totfact>
</mgrwt>
</event>
<event>
13    1  0.1589573E-008  0.1220538E+03  0.7546771E-02  0.1381638E+00
          2   -1    0    0  503    0  0.00000000000E+00  0.00000000000E+00  0.20520586304E+04  0.20520586304E+04  0.00000000000E+00 0. -1.
         -1   -1    0    0    0  501 -0.00000000000E+00 -0.00000000000E+00 -0.13287633291E+04  0.13287633291E+04  0.00000000000E+00 0.  1.
         24    2    1    2    0    0 -0.83807638938E+02 -0.15372123511E+03 -0.27169015548E+03  0.33295772312E+03  0.79946021367E+02 0.  0.
         25    2    1    2    0    0 -0.10696677371E+03  0.34241728691E+03  0.56427230115E+03  0.68023622678E+03  0.12500642113E+03 0.  0.
         24    2    1    2    0    0  0.14696726143E+03 -0.43346891903E+02  0.15169069891E+03  0.23023655564E+03  0.80749454766E+02 0.  0.
        -11    1    5    5    0    0  0.13804252555E+03 -0.54921263986E+02  0.15557068741E+03  0.21511467379E+03  0.00000000000E+00 0.  1.
         12    1    5    5    0    0  0.89247358844E+01  0.11574372083E+02 -0.38799885059E+01  0.15121881845E+02  0.00000000000E+00 0. -1.
        -11    1    3    3    0    0 -0.71028970546E+01 -0.14751186279E+02  0.20747427581E+01  0.16503126998E+02  0.00000000000E+00 0.  1.
         12    1    3    3    0    0 -0.76704741883E+02 -0.13897004884E+03 -0.27376489824E+03  0.31645459612E+03  0.00000000000E+00 0. -1.
          5    1    4    4  502    0 -0.12131384764E+02 -0.67519111147E+01  0.44971786997E+02  0.47300215916E+02  0.47000000000E+01 0.  1.
         -5    1    4    4    0  502 -0.94835388944E+02  0.34916919803E+03  0.51930051415E+03  0.63293601086E+03  0.47000000000E+01 0.  1.
          1    1    1    2  503    0  0.47931469421E+02 -0.11200741570E+03  0.12048301931E+04  0.12109743520E+04  0.00000000000E+00 0. -1.
         -2    1    1    2    0  501 -0.41243182094E+01 -0.33341744195E+02 -0.92580773648E+03  0.92641710198E+03  0.00000000000E+00 0.  1.
<mgrwt>
<rscale>  0 0.64035158E+02</rscale>
<asrwt>0</asrwt>
<pdfrwt beam="1">  1        2 0.30177333E+00 0.12205377E+03</pdfrwt>
<pdfrwt beam="2">  1       -1 0.19540637E+00 0.33595861E+02</pdfrwt>
<totfact> 0.20969992E+00</totfact>
</mgrwt>
</event>
<event>
13    1  0.1589573E-008  0.3861319E+02  0.7546771E-02  0.1558880E+00
          2   -1    0    0  502    0  0.00000000000E+00  0.00000000000E+00  0.27168483188E+04  0.27168483188E+04  0.00000000000E+00 0. -1.
          2   -1    0    0  503    0 -0.00000000000E+00 -0.00000000000E+00 -0.31018069446E+04  0.31018069446E+04  0.00000000000E+00 0. -1.
         24    2    1    2    0    0 -0.34681427087E+03 -0.19504485574E+03 -0.94400041912E+03  0.10275757261E+04  0.80327127250E+02 0.  0.
         25    2    1    2    0    0  0.66607056872E+03 -0.20884990492E+03  0.29580323955E+03  0.76836989174E+03  0.12499779477E+03 0.  0.
         24    2    1    2    0    0 -0.27475341017E+03  0.36277919637E+03 -0.85505052012E+03  0.97186794986E+03  0.79484201542E+02 0.  0.
        -13    1    3    3    0    0 -0.27050928778E+03 -0.12639142927E+03 -0.76547537005E+03  0.82164628053E+03  0.00000000000E+00 0.  1.
         14    1    3    3    0    0 -0.76304983089E+02 -0.68653426472E+02 -0.17852504908E+03  0.20592944558E+03  0.00000000000E+00 0. -1.
        -13    1    5    5    0    0 -0.21742577417E+02  0.30871367224E+02 -0.33892260741E+02  0.50739199099E+02  0.00000000000E+00 0.  1.
         14    1    5    5    0    0 -0.25301083275E+03  0.33190782914E+03 -0.82115825938E+03  0.92112875077E+03  0.00000000000E+00 0. -1.
          5    1    4    4  501    0  0.43607485440E+03 -0.19773611410E+03  0.19882080186E+03  0.51847145603E+03  0.47000000000E+01 0. -1.
         -5    1    4    4    0  501  0.22999571432E+03 -0.11113790826E+02  0.96982437692E+02  0.24989843571E+03  0.47000000000E+01 0. -1.
          1    1    1    2  502    0 -0.79796512299E+01  0.28615975435E+02  0.20840739309E+04  0.20842856566E+04  0.00000000000E+00 0. -1.
          1    1    1    2  503    0 -0.36523236452E+02  0.12499588867E+02 -0.96578485701E+03  0.96655603902E+03  0.00000000000E+00 0. -1.
<mgrwt>
<rscale>  0 0.33869010E+02</rscale>
<asrwt>0</asrwt>
<pdfrwt beam="1">  1        2 0.39953652E+00 0.29707724E+02</pdfrwt>
<pdfrwt beam="2">  1        2 0.45614808E+00 0.38613186E+02</pdfrwt>
<totfact> 0.22844462E+00</totfact>
</mgrwt>
</event>
<event>
13    1  0.1589573E-008  0.5300754E+02  0.7546771E-02  0.1434959E+00
          2   -1    0    0  503    0  0.00000000000E+00  0.00000000000E+00  0.28161296274E+04  0.28161296274E+04  0.00000000000E+00 0. -1.
          2   -1    0    0  502    0 -0.00000000000E+00 -0.00000000000E+00 -0.23505539615E+04  0.23505539615E+04  0.00000000000E+00 0. -1.
         24    2    1    2    0    0 -0.19637623428E+03 -0.89762657597E+03 -0.11937042859E+04  0.15087159154E+04  0.83646253723E+02 0.  0.
         25    2    1    2    0    0 -0.16153527898E+03  0.50107438373E+03  0.13946385169E+04  0.14959310634E+04  0.12499587698E+03 0.  0.
         24    2    1    2    0    0  0.37315475458E+03  0.29907684427E+03  0.29361746077E+03  0.56694243347E+03  0.80753203983E+02 0.  0.
        -11    1    3    3    0    0 -0.32118004448E+02 -0.28792851953E+03 -0.33615606001E+03  0.44377392358E+03  0.00000000000E+00 0.  1.
         12    1    3    3    0    0 -0.16425822984E+03 -0.60969805643E+03 -0.85754822593E+03  0.10649419918E+04  0.00000000000E+00 0. -1.
        -11    1    5    5    0    0  0.14224679826E+03  0.67797726902E+02  0.82499682970E+02  0.17786759423E+03  0.00000000000E+00 0.  1.
         12    1    5    5    0    0  0.23090795632E+03  0.23127911737E+03  0.21111777780E+03  0.38907483924E+03  0.00000000000E+00 0. -1.
          5    1    4    4  501    0 -0.59896378388E+02  0.48734791713E+02  0.20972065697E+03  0.22353411379E+03  0.47000000000E+01 0.  1.
         -5    1    4    4    0  501 -0.10163890059E+03  0.45233959201E+03  0.11849178600E+04  0.12723969496E+04  0.47000000000E+01 0.  1.
          1    1    1    2  502    0 -0.23628094051E+02  0.45159294333E+02 -0.81033731262E+03  0.81193854996E+03  0.00000000000E+00 0. -1.
          1    1    1    2  503    0  0.83848527285E+01  0.52316053632E+02  0.78136128677E+03  0.78315562674E+03  0.00000000000E+00 0. -1.
<mgrwt>
<rscale>  0 0.51977324E+02</rscale>
<asrwt>0</asrwt>
<pdfrwt beam="1">  1        2 0.41413671E+00 0.53007537E+02</pdfrwt>
<pdfrwt beam="2">  1        2 0.34566970E+00 0.50967133E+02</pdfrwt>
<totfact> 0.41810706E+00</totfact>
</mgrwt>
</event>
<event>
13    1  0.1589573E-008  0.1449815E+03  0.7546771E-02  0.1343142E+00
          2   -1    0    0  503    0  0.00000000000E+00  0.00000000000E+00  0.39150009968E+04  0.39150009968E+04  0.00000000000E+00 0. -1.
          2   -1    0    0  502    0 -0.00000000000E+00 -0.00000000000E+00 -0.18609258896E+04  0.18609258896E+04  0.00000000000E+00 0. -1.
         24    2    1    2    0    0 -0.18784149995E+01 -0.57664599392E+02 -0.48993124365E+03  0.49993662779E+03  0.81088062218E+02 0.  0.
         25    2    1    2    0    0  0.15190513815E+03 -0.56828687940E+02  0.17963353589E+04  0.18079654660E+04  0.12495492625E+03 0.  0.
         24    2    1    2    0    0 -0.17244561630E+02  0.18143849119E+03  0.83187040048E+02  0.21567204202E+03  0.79856402908E+02 0.  0.
        -11    1    5    5    0    0  0.20683328683E+02  0.94272141505E+01  0.72630466889E+01  0.23862613001E+02  0.00000000000E+00 0.  1.
         12    1    5    5    0    0 -0.37927890313E+02  0.17201127704E+03  0.75923993359E+02  0.19180942902E+03  0.00000000000E+00 0. -1.
        -13    1    3    3    0    0  0.22748211171E+02  0.10636610552E+02 -0.17178468834E+03  0.17361047706E+03  0.00000000000E+00 0.  1.
         14    1    3    3    0    0 -0.24626626171E+02 -0.68301209944E+02 -0.31814655531E+03  0.32632615073E+03  0.00000000000E+00 0. -1.
          5    1    4    4  501    0  0.52780038587E+02  0.34109817178E+02  0.81646077097E+03  0.81888918215E+03  0.47000000000E+01 0. -1.
         -5    1    4    4    0  501  0.99125099566E+02 -0.90938505119E+02  0.97987458795E+03  0.98907628380E+03  0.47000000000E+01 0. -1.
          1    1    1    2  502    0 -0.17182298539E+03 -0.67316342884E+02 -0.12871584976E+04  0.13003198169E+04  0.00000000000E+00 0. -1.
          1    1    1    2  503    0  0.39040823862E+02  0.37113902415E+00  0.19516424495E+04  0.19520329338E+04  0.00000000000E+00 0. -1.
<mgrwt>
<rscale>  0 0.75235980E+02</rscale>
<asrwt>0</asrwt>
<pdfrwt beam="1">  1        2 0.57573544E+00 0.39042588E+02</pdfrwt>
<pdfrwt beam="2">  1        2 0.27366557E+00 0.14498149E+03</pdfrwt>
<totfact> 0.16561363E+00</totfact>
</mgrwt>
</event>
<event>
13    1  0.1589573E-008  0.1726292E+03  0.7546771E-02  0.1239752E+00
          2   -1    0    0  502    0  0.00000000000E+00  0.00000000000E+00  0.11038467677E+04  0.11038467677E+04  0.00000000000E+00 0. -1.
          2   -1    0    0  503    0 -0.00000000000E+00 -0.00000000000E+00 -0.25109820785E+04  0.25109820785E+04  0.00000000000E+00 0. -1.
         24    2    1    2    0    0  0.12620256327E+03  0.52951035294E+02 -0.14879800075E+02  0.15785336163E+03  0.77235847979E+02 0.  0.
         25    2    1    2    0    0  0.33633575265E+02  0.36940591598E+02 -0.39040325347E+03  0.41296139172E+03  0.12500634400E+03 0.  0.
         24    2    1    2    0    0 -0.50827065005E+02  0.95990167687E+02  0.66211723223E+03  0.67580026022E+03  0.80679983026E+02 0.  0.
        -11    1    5    5    0    0  0.20676157505E+02  0.16097906489E+02  0.18056902202E+03  0.18246045543E+03  0.00000000000E+00 0.  1.
         12    1    5    5    0    0 -0.71503222510E+02  0.79892261198E+02  0.48154821021E+03  0.49333980478E+03  0.00000000000E+00 0. -1.
        -13    1    3    3    0    0  0.40946570794E+02  0.45542446588E+02 -0.34167337579E+02  0.70129473535E+02  0.00000000000E+00 0.  1.
         14    1    3    3    0    0  0.85255992473E+02  0.74085887060E+01  0.19287537504E+02  0.87723888093E+02  0.00000000000E+00 0. -1.
          5    1    4    4  501    0  0.29464127120E+02 -0.44072203400E+02 -0.14533977446E+03  0.15477801504E+03  0.47000000000E+01 0. -1.
         -5    1    4    4    0  501  0.41694481443E+01  0.81012794998E+02 -0.24506347901E+03  0.25818337668E+03  0.47000000000E+01 0. -1.
          1    1    1    2  502    0 -0.99852941631E+02 -0.27168572138E+03  0.29152465731E+03  0.41081670727E+03  0.00000000000E+00 0. -1.
          1    1    1    2  503    0 -0.91561318963E+01  0.85803926803E+02 -0.19554941467E+04  0.19573971254E+04  0.00000000000E+00 0. -1.
<mgrwt>
<rscale>  0 0.12205063E+03</rscale>
<asrwt>0</asrwt>
<pdfrwt beam="1">  1        2 0.16233041E+00 0.17262917E+03</pdfrwt>
<pdfrwt beam="2">  1        2 0.36926207E+00 0.86291069E+02</pdfrwt>
<totfact> 0.20439130E+01</totfact>
</mgrwt>
</event>
<event>
13    1  0.1589573E-008  0.7190517E+02  0.7546771E-02  0.1361419E+00
          2   -1    0    0  502    0  0.00000000000E+00  0.00000000000E+00  0.13909539654E+04  0.13909539654E+04  0.00000000000E+00 0. -1.
          2   -1    0    0  503    0 -0.00000000000E+00 -0.00000000000E+00 -0.23259057968E+04  0.23259057968E+04  0.00000000000E+00 0. -1.
         24    2    1    2    0    0 -0.91059347308E+02  0.48722154297E+02 -0.93577572486E+03  0.94490127144E+03  0.80601194078E+02 0.  0.
         25    2    1    2    0    0  0.17571370201E+03 -0.65332114186E+02  0.29275396645E+03  0.36942337651E+03  0.12500062408E+03 0.  0.
         24    2    1    2    0    0  0.30139054273E+02  0.18704293044E+02 -0.35575194739E+03  0.36674081499E+03  0.81738388379E+02 0.  0.
        -11    1    5    5    0    0  0.85868057052E+00 -0.26168532807E+02 -0.20668308743E+03  0.20833489403E+03  0.00000000000E+00 0.  1.
         12    1    5    5    0    0  0.29280373703E+02  0.44872825851E+02 -0.14906885996E+03  0.15840592096E+03  0.00000000000E+00 0. -1.
        -13    1    3    3    0    0 -0.24709010902E+02  0.45279224731E+02 -0.21634976403E+03  0.22241394697E+03  0.00000000000E+00 0.  1.
         14    1    3    3    0    0 -0.66350336406E+02  0.34429295661E+01 -0.71942596083E+03  0.72248732447E+03  0.00000000000E+00 0. -1.
          5    1    4    4  501    0  0.29514295571E+02 -0.63131082111E+02  0.14783070524E+03  0.16350117609E+03  0.47000000000E+01 0. -1.
         -5    1    4    4    0  501  0.14619940644E+03 -0.22010320752E+01  0.14492326121E+03  0.20592220042E+03  0.47000000000E+01 0. -1.
          1    1    1    2  502    0 -0.53999572198E+02 -0.40318421732E+02  0.10474162181E+04  0.10495819467E+04  0.00000000000E+00 0. -1.
          1    1    1    2  503    0 -0.60793836774E+02  0.38224088577E+02 -0.98359434365E+03  0.98621235259E+03  0.00000000000E+00 0. -1.
<mgrwt>
<rscale>  0 0.69611432E+02</rscale>
<asrwt>0</asrwt>
<pdfrwt beam="1">  1        2 0.20455206E+00 0.67390867E+02</pdfrwt>
<pdfrwt beam="2">  1        2 0.34204497E+00 0.71905166E+02</pdfrwt>
<totfact> 0.19300068E+01</totfact>
</mgrwt>
</event>
<event>
13    1  0.1589573E-008  0.7325349E+02  0.7546771E-02  0.1439558E+00
          2   -1    0    0  503    0  0.00000000000E+00  0.00000000000E+00  0.27460806405E+03  0.27460806405E+03  0.00000000000E+00 0. -1.
          2   -1    0    0  502    0 -0.00000000000E+00 -0.00000000000E+00 -0.66118416590E+03  0.66118416590E+03  0.00000000000E+00 0. -1.
         24    2    1    2    0    0 -0.40791928005E+02 -0.10377952329E+03 -0.25567326418E+03  0.29019988271E+03  0.80081103033E+02 0.  0.
         25    2    1    2    0    0  0.54324533244E+02 -0.31418576243E+02 -0.64220163156E+02  0.15391625365E+03  0.12501080728E+03 0.  0.
         24    2    1    2    0    0 -0.50470668777E+02  0.15160235078E+03  0.71087541020E+02  0.19268891647E+03  0.80901290926E+02 0.  0.
        -11    1    5    5    0    0 -0.38560958357E+02  0.16163136784E+02  0.70519942008E+01  0.42401947153E+02  0.00000000000E+00 0.  1.
         12    1    5    5    0    0 -0.11909710419E+02  0.13543921400E+03  0.64035546819E+02  0.15028696932E+03  0.00000000000E+00 0. -1.
        -13    1    3    3    0    0 -0.49061275993E+02 -0.21413081712E+02 -0.83937398242E+02  0.99554084266E+02  0.00000000000E+00 0.  1.
         14    1    3    3    0    0  0.82693479878E+01 -0.82366441574E+02 -0.17173586594E+03  0.19064579844E+03  0.00000000000E+00 0. -1.
          5    1    4    4  501    0  0.72416410447E+02  0.89202647761E+00 -0.84538103884E+02  0.11141684442E+03  0.47000000000E+01 0. -1.
         -5    1    4    4    0  501 -0.18091877202E+02 -0.32310602720E+02  0.20317940728E+02  0.42499409223E+02  0.47000000000E+01 0. -1.
          1    1    1    2  502    0  0.72567825128E+02 -0.16283560033E+02 -0.20763976394E+03  0.22055728312E+03  0.00000000000E+00 0. -1.
          1    1    1    2  503    0 -0.35629761591E+02 -0.12069122084E+00  0.69869548404E+02  0.78429893992E+02  0.00000000000E+00 0. -1.
<mgrwt>
<rscale>  0 0.51088349E+02</rscale>
<asrwt>0</asrwt>
<pdfrwt beam="1">  1        2 0.40383539E-01 0.35629966E+02</pdfrwt>
<pdfrwt beam="2">  1        2 0.97232966E-01 0.73253491E+02</pdfrwt>
<totfact> 0.93620391E+02</totfact>
</mgrwt>
</event>
<event>
13    1  0.1589573E-008  0.6781361E+02  0.7546771E-02  0.1400995E+00
          4   -1    0    0  503    0 -0.00000000000E+00  0.00000000000E+00  0.30400705031E+03  0.30400705031E+03  0.00000000000E+00 0. -1.
          2   -1    0    0  502    0  0.00000000000E+00 -0.00000000000E+00 -0.15892692115E+04  0.15892692115E+04  0.00000000000E+00 0. -1.
         24    2    1    2    0    0  0.44110564072E+02  0.77321884515E+02  0.86153459925E+02  0.14756334356E+03  0.80175470172E+02 0.  0.
         25    2    1    2    0    0 -0.89328070601E+02 -0.15014396016E+03 -0.57230147940E+03  0.61128940937E+03  0.12499218264E+03 0.  0.
         24    2    1    2    0    0  0.34380225496E+02  0.19568948205E+02 -0.21356414243E+02  0.91085509786E+02  0.79218243003E+02 0.  0.
        -13    1    5    5    0    0  0.30901187049E+02  0.49434565380E+02 -0.16833186162E+02  0.60679615784E+02  0.00000000000E+00 0.  1.
         14    1    5    5    0    0  0.34790384477E+01 -0.29865617175E+02 -0.45232280809E+01  0.30405894002E+02  0.00000000000E+00 0. -1.
        -13    1    3    3    0    0  0.97091984612E+01  0.43190672219E+02  0.88597520490E+02  0.99041523304E+02  0.00000000000E+00 0.  1.
         14    1    3    3    0    0  0.34401365611E+02  0.34131212296E+02 -0.24440605649E+01  0.48521820254E+02  0.00000000000E+00 0. -1.
          5    1    4    4  501    0 -0.14503280395E+02 -0.13583614658E+03 -0.40379235077E+03  0.42630054704E+03  0.47000000000E+01 0.  1.
         -5    1    4    4    0  501 -0.74824790206E+02 -0.14307813577E+02 -0.16850912862E+03  0.18498886234E+03  0.47000000000E+01 0.  1.
          1    1    1    2  502    0  0.58917588695E+02  0.34052295386E+02 -0.90417391727E+03  0.90673111436E+03  0.00000000000E+00 0. -1.
          3    1    1    2  503    0 -0.48080307662E+02  0.19200832054E+02  0.12641618976E+03  0.13660688478E+03  0.00000000000E+00 0. -1.
<mgrwt>
<rscale>  0 0.59252661E+02</rscale>
<asrwt>0</asrwt>
<pdfrwt beam="2">  1        2 0.23371606E+00 0.67813613E+02</pdfrwt>
<pdfrwt beam="1">  1        4 0.44706920E-01 0.51772463E+02</pdfrwt>
<totfact> 0.34243054E+01</totfact>
</mgrwt>
</event>
<event>
13    1  0.1589573E-008  0.1290488E+03  0.7546771E-02  0.1339244E+00
          2   -1    0    0  502    0  0.00000000000E+00  0.00000000000E+00  0.10614188418E+04  0.10614188418E+04  0.00000000000E+00 0. -1.
          2   -1    0    0  503    0 -0.00000000000E+00 -0.00000000000E+00 -0.14427762364E+04  0.14427762364E+04  0.00000000000E+00 0. -1.
         24    2    1    2    0    0 -0.49634700732E+02 -0.16420385836E+02 -0.74020072903E+02  0.11189574798E+03  0.65638819575E+02 0.  0.
         25    2    1    2    0    0  0.98385380042E+02  0.84268160153E+02  0.66816228101E+03  0.69198606816E+03  0.12499231556E+03 0.  0.
         24    2    1    2    0    0  0.50460717793E+02 -0.25267311766E+02  0.25275973159E+02  0.10025977779E+03  0.78920384818E+02 0.  0.
        -11    1    3    3    0    0 -0.60062765330E+02 -0.21423170760E+02 -0.76975059240E+02  0.99958230124E+02  0.00000000000E+00 0.  1.
         12    1    3    3    0    0  0.10428064598E+02  0.50027849244E+01  0.29549863366E+01  0.11937517854E+02  0.00000000000E+00 0. -1.
        -13    1    5    5    0    0  0.67533466573E+02 -0.41053360439E+01  0.27380013800E+02  0.72988273353E+02  0.00000000000E+00 0.  1.
         14    1    5    5    0    0 -0.17072748780E+02 -0.21161975722E+02 -0.21040406412E+01  0.27271504439E+02  0.00000000000E+00 0. -1.
          5    1    4    4  501    0  0.25792992182E+02 -0.31799367253E+02  0.19967020985E+03  0.20387928023E+03  0.47000000000E+01 0. -1.
         -5    1    4    4    0  501  0.72592387860E+02  0.11606752741E+03  0.46849207116E+03  0.48810678794E+03  0.47000000000E+01 0. -1.
          1    1    1    2  502    0  0.43990547977E+02  0.11088619100E+02  0.29339345422E+03  0.29688018587E+03  0.00000000000E+00 0. -1.
          1    1    1    2  503    0 -0.14320194508E+03 -0.53669081651E+02 -0.12941690300E+04  0.13031732984E+04  0.00000000000E+00 0. -1.
<mgrwt>
<rscale>  0 0.76514728E+02</rscale>
<asrwt>0</asrwt>
<pdfrwt beam="1">  1        2 0.15609101E+00 0.45366571E+02</pdfrwt>
<pdfrwt beam="2">  1        2 0.21217298E+00 0.12904885E+03</pdfrwt>
<totfact> 0.73883649E+01</totfact>
</mgrwt>
</event>
<event>
13    1  0.1589573E-008  0.2952162E+02  0.7546771E-02  0.1617485E+00
          2   -1    0    0  502    0  0.00000000000E+00  0.00000000000E+00  0.32856052496E+04  0.32856052496E+04  0.00000000000E+00 0. -1.
          2   -1    0    0  503    0 -0.00000000000E+00 -0.00000000000E+00 -0.66772908631E+03  0.66772908631E+03  0.00000000000E+00 0. -1.
         24    2    1    2    0    0 -0.87778309138E+03  0.34174876603E+03  0.23363860049E+03  0.97384841130E+03  0.80612393276E+02 0.  0.
         25    2    1    2    0    0  0.74331854490E+03 -0.34916090196E+01  0.14114454073E+04  0.16001035850E+04  0.12497477507E+03 0.  0.
         24    2    1    2    0    0  0.14345808664E+03 -0.33807210384E+03  0.28329296691E+03  0.47176071491E+03  0.86199170647E+02 0.  0.
        -11    1    3    3    0    0 -0.57623655554E+03  0.18463584348E+03  0.13797245327E+03  0.62062497573E+03  0.00000000000E+00 0.  1.
         12    1    3    3    0    0 -0.30154653584E+03  0.15711292255E+03  0.95666147221E+02  0.35322343557E+03  0.00000000000E+00 0. -1.
        -13    1    5    5    0    0  0.69739225916E+02 -0.10802226652E+03  0.56617441917E+02  0.14049165251E+03  0.00000000000E+00 0.  1.
         14    1    5    5    0    0  0.73718860727E+02 -0.23004983732E+03  0.22667552499E+03  0.33126906240E+03  0.00000000000E+00 0. -1.
          5    1    4    4  501    0  0.47755194144E+03 -0.62003877362E+02  0.89925124153E+03  0.10200858900E+04  0.47000000000E+01 0. -1.
         -5    1    4    4    0  501  0.26576660345E+03  0.58512268342E+02  0.51219416575E+03  0.58001769497E+03  0.47000000000E+01 0. -1.
          1    1    1    2  502    0 -0.12533355456E+02  0.26743026483E+02  0.79659158284E+03  0.79713889901E+03  0.00000000000E+00 0. -1.
          1    1    1    2  503    0  0.35398152952E+01 -0.26928079656E+02 -0.10709239426E+03  0.11048272568E+03  0.00000000000E+00 0. -1.
<mgrwt>
<rscale>  0 0.28316067E+02</rscale>
<asrwt>0</asrwt>
<pdfrwt beam="1">  1        2 0.48317724E+00 0.29521620E+02</pdfrwt>
<pdfrwt beam="2">  1        2 0.98195455E-01 0.27159745E+02</pdfrwt>
<totfact> 0.19548108E+01</totfact>
</mgrwt>
</event>
<event>
13    1  0.1589573E-008  0.1961879E+03  0.7546771E-02  0.1208717E+00
          2   -1    0    0  503    0  0.00000000000E+00  0.00000000000E+00  0.21603214374E+04  0.21603214374E+04  0.00000000000E+00 0. -1.
          2   -1    0    0  502    0 -0.00000000000E+00 -0.00000000000E+00 -0.97742258377E+03  0.97742258377E+03  0.00000000000E+00 0. -1.
         24    2    1    2    0    0  0.76666310311E+02 -0.90826770140E+02  0.12926160439E+02  0.14351545866E+03  0.79387504944E+02 0.  0.
         25    2    1    2    0    0 -0.36418795452E+03  0.26033309782E+03  0.72594221154E+03  0.86198808405E+03  0.12500069807E+03 0.  0.
         24    2    1    2    0    0  0.14114762464E+03  0.89282378691E+01  0.26941591220E+03  0.31537425119E+03  0.82907292752E+02 0.  0.
        -13    1    5    5    0    0  0.66773426567E+01  0.26459441130E+02  0.32945809514E+02  0.42779846825E+02  0.00000000000E+00 0.  1.
         14    1    5    5    0    0  0.13447028199E+03 -0.17531203260E+02  0.23647010269E+03  0.27259440436E+03  0.00000000000E+00 0. -1.
        -13    1    3    3    0    0  0.16786261046E+02  0.64549119602E+01 -0.17714482983E+02  0.25243758747E+02  0.00000000000E+00 0.  1.
         14    1    3    3    0    0  0.59880049265E+02 -0.97281682100E+02  0.30640643422E+02  0.11827169992E+03  0.00000000000E+00 0. -1.
          5    1    4    4  501    0 -0.94030148005E+02  0.32644215391E+02  0.89011888738E+02  0.13361332220E+03  0.47000000000E+01 0.  1.
         -5    1    4    4    0  501 -0.27015780651E+03  0.22768888243E+03  0.63693032280E+03  0.72837476185E+03  0.47000000000E+01 0.  1.
          1    1    1    2  502    0 -0.24526362357E+02 -0.10203121350E+03 -0.80890807169E+03  0.81568632416E+03  0.00000000000E+00 0. -1.
          1    1    1    2  503    0  0.17090038192E+03 -0.76403352047E+02  0.98352264118E+03  0.10011799031E+04  0.00000000000E+00 0. -1.
<mgrwt>
<rscale>  0 0.14348344E+03</rscale>
<asrwt>0</asrwt>
<pdfrwt beam="1">  1        2 0.31769433E+00 0.19618791E+03</pdfrwt>
<pdfrwt beam="2">  1        2 0.14373861E+00 0.10493765E+03</pdfrwt>
<totfact> 0.33527843E+01</totfact>
</mgrwt>
</event>
<event>
13    1  0.1589573E-008  0.9690947E+02  0.7546771E-02  0.1327918E+00
         -1   -1    0    0    0  501 -0.00000000000E+00  0.00000000000E+00  0.17179017458E+04  0.17179017458E+04  0.00000000000E+00 0.  1.
          2   -1    0    0  503    0  0.00000000000E+00 -0.00000000000E+00 -0.18312386584E+04  0.18312386584E+04  0.00000000000E+00 0. -1.
         24    2    1    2    0    0  0.33482076298E+02 -0.27607808913E+03 -0.74259408781E+02  0.29904011471E+03  0.81057816918E+02 0.  0.
         25    2    1    2    0    0 -0.27479354639E+03  0.49740042076E+03 -0.25134467666E+03  0.63381109368E+03  0.12499473701E+03 0.  0.
         24    2    1    2    0    0  0.20045941521E+03 -0.19790299413E+03 -0.12500355616E+03  0.31824229350E+03  0.79389521276E+02 0.  0.
        -11    1    5    5    0    0  0.39798421150E+02 -0.87321457462E+02 -0.25530297303E+02  0.99301295760E+02  0.00000000000E+00 0.  1.
         12    1    5    5    0    0  0.16066099406E+03 -0.11058153667E+03 -0.99473258861E+02  0.21894099774E+03  0.00000000000E+00 0. -1.
        -13    1    3    3    0    0  0.40526896505E+02 -0.13750870877E+03 -0.37541050548E+01  0.14340560530E+03  0.00000000000E+00 0.  1.
         14    1    3    3    0    0 -0.70448202065E+01 -0.13856938036E+03 -0.70505303726E+02  0.15563450941E+03  0.00000000000E+00 0. -1.
          5    1    4    4  502    0 -0.11548013320E+03  0.30063912844E+03 -0.18742729271E+03  0.37265349424E+03  0.47000000000E+01 0.  1.
         -5    1    4    4    0  502 -0.15931341319E+03  0.19676129232E+03 -0.63917383945E+02  0.26115759945E+03  0.47000000000E+01 0.  1.
          1    1    1    2  503    0 -0.55153686551E+02 -0.37517222144E+02 -0.97746337727E+03  0.97973676312E+03  0.00000000000E+00 0. -1.
         -2    1    1    2    0  501  0.96005741438E+02  0.14097884645E+02  0.13147341063E+04  0.13183101391E+04  0.00000000000E+00 0.  1.
<mgrwt>
<rscale>  0 0.80400771E+02</rscale>
<asrwt>0</asrwt>
<pdfrwt beam="2">  1        2 0.26929980E+00 0.66704356E+02</pdfrwt>
<pdfrwt beam="1">  1       -1 0.25263261E+00 0.96909474E+02</pdfrwt>
<totfact> 0.11290411E+00</totfact>
</mgrwt>
</event>
<event>
13    1  0.1589573E-008  0.4994032E+02  0.7546771E-02  0.1521016E+00
          2   -1    0    0  503    0  0.00000000000E+00  0.00000000000E+00  0.34119919339E+04  0.34119919339E+04  0.00000000000E+00 0. -1.
          2   -1    0    0  502    0 -0.00000000000E+00 -0.00000000000E+00 -0.12153322247E+04  0.12153322247E+04  0.00000000000E+00 0. -1.
         24    2    1    2    0    0  0.43230756276E+03  0.17584189626E+03  0.13661179981E+03  0.49293872058E+03  0.80719248611E+02 0.  0.
         25    2    1    2    0    0 -0.44740632066E+03 -0.28596800676E+03  0.12563163247E+04  0.13696366724E+04  0.12499515988E+03 0.  0.
         24    2    1    2    0    0  0.10811298079E+02  0.81634337893E+02  0.25600742984E+02  0.11811841695E+03  0.80718728262E+02 0.  0.
        -11    1    3    3    0    0  0.19099473345E+03  0.83362991017E+02  0.10260406458E+03  0.23228424515E+03  0.00000000000E+00 0.  1.
         12    1    3    3    0    0  0.24131282931E+03  0.92478905248E+02  0.34007735235E+02  0.26065447543E+03  0.00000000000E+00 0. -1.
        -13    1    5    5    0    0  0.24785213372E+02  0.85023246894E+02  0.40525530345E+02  0.97393931659E+02  0.00000000000E+00 0.  1.
         14    1    5    5    0    0 -0.13973915293E+02 -0.33889090014E+01 -0.14924787361E+02  0.20724485291E+02  0.00000000000E+00 0. -1.
          5    1    4    4  501    0 -0.13076117935E+03 -0.14723278399E+03  0.52433722334E+03  0.56011391028E+03  0.47000000000E+01 0.  1.
         -5    1    4    4    0  501 -0.31664514131E+03 -0.13873522277E+03  0.73197910134E+03  0.80952276209E+03  0.47000000000E+01 0.  1.
          1    1    1    2  502    0  0.23511784359E+02 -0.17635644931E+02 -0.93365386395E+03  0.93411635123E+03  0.00000000000E+00 0. -1.
          1    1    1    2  503    0 -0.19224324539E+02  0.46127417535E+02  0.17117847057E+04  0.17125139976E+04  0.00000000000E+00 0. -1.
<mgrwt>
<rscale>  0 0.38311704E+02</rscale>
<asrwt>0</asrwt>
<pdfrwt beam="1">  1        2 0.50176352E+00 0.49940320E+02</pdfrwt>
<pdfrwt beam="2">  1        2 0.17872533E+00 0.29390814E+02</pdfrwt>
<totfact> 0.73225330E+00</totfact>
</mgrwt>
</event>
<event>
13    1  0.1589573E-008  0.2132659E+03  0.7546771E-02  0.1249240E+00
          2   -1    0    0  502    0  0.00000000000E+00  0.00000000000E+00  0.24923323668E+04  0.24923323668E+04  0.00000000000E+00 0. -1.
          2   -1    0    0  503    0 -0.00000000000E+00 -0.00000000000E+00 -0.93305647180E+03  0.93305647180E+03  0.00000000000E+00 0. -1.
         24    2    1    2    0    0  0.36343564188E+02  0.52963594070E+02  0.78682177953E+02  0.12888446592E+03  0.79336772512E+02 0.  0.
         25    2    1    2    0    0 -0.50304187511E+03 -0.48233959371E+03  0.57349544561E+03  0.91116662889E+03  0.12499995074E+03 0.  0.
         24    2    1    2    0    0  0.33681961389E+03  0.51446180086E+03 -0.44567598140E+02  0.62344571297E+03  0.92627692238E+02 0.  0.
        -13    1    5    5    0    0  0.72551540821E+02  0.18110664357E+03 -0.33151082473E+02  0.19789476165E+03  0.00000000000E+00 0.  1.
         14    1    5    5    0    0  0.26426807307E+03  0.33335515729E+03 -0.11416515668E+02  0.42555095132E+03  0.00000000000E+00 0. -1.
        -13    1    3    3    0    0 -0.11418821621E+02  0.23742324529E+02 -0.63246302283E+01  0.27094065933E+02  0.00000000000E+00 0.  1.
         14    1    3    3    0    0  0.47762385809E+02  0.29221269541E+02  0.85006808182E+02  0.10179039998E+03  0.00000000000E+00 0. -1.
          5    1    4    4  501    0 -0.45747001466E+03 -0.37595441128E+03  0.48415193082E+03  0.76488281180E+03  0.47000000000E+01 0.  1.
         -5    1    4    4    0  501 -0.45571860448E+02 -0.10638518243E+03  0.89343514797E+02  0.14628381709E+03  0.47000000000E+01 0.  1.
          1    1    1    2  502    0 -0.62747263781E+02  0.96023763822E+01  0.13275365333E+04  0.13290532992E+04  0.00000000000E+00 0. -1.
          1    1    1    2  503    0  0.19262596081E+03 -0.94688177609E+02 -0.37587066374E+03  0.43283873165E+03  0.00000000000E+00 0. -1.
<mgrwt>
<rscale>  0 0.11635137E+03</rscale>
<asrwt>0</asrwt>
<pdfrwt beam="1">  1        2 0.36651947E+00 0.63477750E+02</pdfrwt>
<pdfrwt beam="2">  1        2 0.13721419E+00 0.21326592E+03</pdfrwt>
<totfact> 0.27140837E+01</totfact>
</mgrwt>
</event>
<event>
13    1  0.1589573E-008  0.1169396E+03  0.7546771E-02  0.1444376E+00
          2   -1    0    0  502    0  0.00000000000E+00  0.00000000000E+00  0.36108009828E+04  0.36108009828E+04  0.00000000000E+00 0. -1.
          2   -1    0    0  503    0 -0.00000000000E+00 -0.00000000000E+00 -0.14117479754E+04  0.14117479754E+04  0.00000000000E+00 0. -1.
         24    2    1    2    0    0  0.23670921664E+03 -0.23380068108E+03 -0.52996131882E+03  0.63070375662E+03  0.78957060803E+02 0.  0.
         25    2    1    2    0    0 -0.23866889778E+03 -0.43593603237E+02  0.23452280058E+04  0.23610553466E+04  0.12499882159E+03 0.  0.
         24    2    1    2    0    0 -0.11651804631E+03  0.20832194713E+03 -0.26023889099E+03  0.36367565605E+03  0.86955239351E+02 0.  0.
        -11    1    5    5    0    0 -0.32292726433E+02  0.36778525031E+02 -0.11063475674E+03  0.12097739245E+03  0.00000000000E+00 0.  1.
         12    1    5    5    0    0 -0.84225319880E+02  0.17154342210E+03 -0.14960413425E+03  0.24269826361E+03  0.00000000000E+00 0. -1.
        -13    1    3    3    0    0  0.20655894293E+03 -0.19652617948E+03 -0.49546064431E+03  0.57163833513E+03  0.00000000000E+00 0.  1.
         14    1    3    3    0    0  0.30150273714E+02 -0.37274501598E+02 -0.34500674507E+02  0.59065421490E+02  0.00000000000E+00 0. -1.
          5    1    4    4  501    0 -0.12623949668E+03 -0.21929609755E+02  0.17630686220E+04  0.17677246319E+04  0.47000000000E+01 0.  1.
         -5    1    4    4    0  501 -0.11242940110E+03 -0.21663993482E+02  0.58215938376E+03  0.59333071465E+03  0.47000000000E+01 0.  1.
          1    1    1    2  502    0  0.14274726256E+02  0.16120478509E+02  0.11487905809E+04  0.11489923570E+04  0.00000000000E+00 0. -1.
          1    1    1    2  503    0  0.10420300119E+03  0.52951858678E+02 -0.50476536953E+03  0.51812184191E+03  0.00000000000E+00 0. -1.
<mgrwt>
<rscale>  0 0.50179400E+02</rscale>
<asrwt>0</asrwt>
<pdfrwt beam="1">  1        2 0.53100014E+00 0.21532246E+02</pdfrwt>
<pdfrwt beam="2">  1        2 0.20761000E+00 0.11693960E+03</pdfrwt>
<totfact> 0.49063498E+00</totfact>
</mgrwt>
</event>
<event>
13    1  0.1589573E-008  0.1207496E+03  0.7546771E-02  0.1439604E+00
          2   -1    0    0  502    0  0.00000000000E+00  0.00000000000E+00  0.24725744306E+03  0.24725744306E+03  0.00000000000E+00 0. -1.
          2   -1    0    0  503    0 -0.00000000000E+00 -0.00000000000E+00 -0.21064669185E+04  0.21064669185E+04  0.00000000000E+00 0. -1.
         24    2    1    2    0    0 -0.13800198726E+03  0.78106367829E+02 -0.81433657573E+03  0.83342135915E+03  0.79384822989E+02 0.  0.
         25    2    1    2    0    0  0.65812192046E+02  0.58336046305E+02 -0.12962384346E+03  0.20040584313E+03  0.12500328894E+03 0.  0.
         24    2    1    2    0    0 -0.14982385501E+02 -0.36502426573E+02  0.11203846758E+03  0.14309855129E+03  0.79797732682E+02 0.  0.
        -11    1    3    3    0    0 -0.89373826089E+02  0.68161121174E+02 -0.38048485903E+03  0.39673964659E+03  0.00000000000E+00 0.  1.
         12    1    3    3    0    0 -0.48628161169E+02  0.99452466547E+01 -0.43385171671E+03  0.43668171255E+03  0.00000000000E+00 0. -1.
        -13    1    5    5    0    0 -0.21852695350E+02  0.10391426843E+02  0.32249771197E+01  0.24411524396E+02  0.00000000000E+00 0.  1.
         14    1    5    5    0    0  0.68703098494E+01 -0.46893853416E+02  0.10881349046E+03  0.11868702689E+03  0.00000000000E+00 0. -1.
          5    1    4    4  501    0 -0.11394009803E+02  0.57365809286E+02 -0.12418641789E+02  0.59974763012E+02  0.47000000000E+01 0. -1.
         -5    1    4    4    0  501  0.77206201849E+02  0.97023701879E+00 -0.11720520167E+03  0.14043108012E+03  0.47000000000E+01 0. -1.
          1    1    1    2  502    0  0.10017660899E+03 -0.11719623943E+03 -0.49736807993E+01  0.15425643917E+03  0.00000000000E+00 0. -1.
          1    1    1    2  503    0 -0.13004428273E+02  0.17256251872E+02 -0.10223138430E+04  0.10225421688E+04  0.00000000000E+00 0. -1.
<mgrwt>
<rscale>  0 0.51079572E+02</rscale>
<asrwt>0</asrwt>
<pdfrwt beam="1">  1        2 0.36361390E-01 0.12074958E+03</pdfrwt>
<pdfrwt beam="2">  1        2 0.30977453E+00 0.21607716E+02</pdfrwt>
<totfact> 0.21292985E+02</totfact>
</mgrwt>
</event>
<event>
13    1  0.1589573E-008  0.9172220E+02  0.7546771E-02  0.1402062E+00
          2   -1    0    0  503    0  0.00000000000E+00  0.00000000000E+00  0.13824144220E+04  0.13824144220E+04  0.00000000000E+00 0. -1.
          2   -1    0    0  502    0 -0.00000000000E+00 -0.00000000000E+00 -0.52075408205E+03  0.52075408205E+03  0.00000000000E+00 0. -1.
         24    2    1    2    0    0  0.14593956218E+02  0.62790796125E+01  0.61195278324E+02  0.10033182184E+03  0.77905083184E+02 0.  0.
         25    2    1    2    0    0  0.10301251252E+03 -0.17374686366E+03 -0.86984913019E+02  0.25296203739E+03  0.12499546753E+03 0.  0.
         24    2    1    2    0    0 -0.46733969241E+02  0.92462504023E+02  0.91612750702E+03  0.92575922521E+03  0.83708753514E+02 0.  0.
        -13    1    5    5    0    0 -0.34935799828E+02 -0.10149490757E+01  0.15926939722E+03  0.16305913382E+03  0.00000000000E+00 0.  1.
         14    1    5    5    0    0 -0.11798169413E+02  0.93477453099E+02  0.75685810980E+03  0.76270009139E+03  0.00000000000E+00 0. -1.
        -13    1    3    3    0    0  0.42095104612E+02  0.42532242876E+01  0.12072153135E+02  0.43998007119E+02  0.00000000000E+00 0.  1.
         14    1    3    3    0    0 -0.27501148394E+02  0.20258553250E+01  0.49123125189E+02  0.56333814722E+02  0.00000000000E+00 0. -1.
          5    1    4    4  501    0  0.41466472403E+02  0.10230496431E+02 -0.22296521966E+02  0.48408225361E+02  0.47000000000E+01 0.  1.
         -5    1    4    4    0  501  0.61546040112E+02 -0.18397736009E+03 -0.64688391053E+02  0.20455381203E+03  0.47000000000E+01 0.  1.
          1    1    1    2  502    0 -0.34268907291E+02  0.85047212953E+02 -0.31869583537E+03  0.33162391639E+03  0.00000000000E+00 0. -1.
          1    1    1    2  503    0 -0.36603592201E+02 -0.10041932928E+02  0.29001830295E+03  0.29249150317E+03  0.00000000000E+00 0. -1.
<mgrwt>
<rscale>  0 0.59003513E+02</rscale>
<asrwt>0</asrwt>
<pdfrwt beam="1">  1        2 0.20329624E+00 0.37956072E+02</pdfrwt>
<pdfrwt beam="2">  1        2 0.76581483E-01 0.91722204E+02</pdfrwt>
<totfact> 0.19467921E+02</totfact>
</mgrwt>
</event>
<event>
13    1  0.1589573E-008  0.6540570E+02  0.7546771E-02  0.1391229E+00
          2   -1    0    0  503    0  0.00000000000E+00  0.00000000000E+00  0.18455944310E+03  0.18455944310E+03  0.00000000000E+00 0. -1.
          2   -1    0    0  502    0 -0.00000000000E+00 -0.00000000000E+00 -0.21207986480E+04  0.21207986480E+04  0.00000000000E+00 0. -1.
         24    2    1    2    0    0 -0.28265758209E+03  0.63895505423E+02 -0.12327584800E+04  0.12689072237E+04  0.80337586817E+02 0.  0.
         25    2    1    2    0    0  0.79619904804E+02 -0.69407415294E+02  0.38821442271E+02  0.16819171012E+03  0.12499851373E+03 0.  0.
         24    2    1    2    0    0  0.17326828980E+03  0.34165438881E+02 -0.41861853333E+03  0.46149210696E+03  0.80896915078E+02 0.  0.
        -11    1    5    5    0    0  0.10306130718E+03  0.50673269032E+01 -0.14810597441E+03  0.18050676025E+03  0.00000000000E+00 0.  1.
         12    1    5    5    0    0  0.70206982620E+02  0.29098111978E+02 -0.27051255892E+03  0.28098534670E+03  0.00000000000E+00 0. -1.
        -11    1    3    3    0    0 -0.16597386256E+03  0.38543740970E+02 -0.55009762906E+03  0.57588223146E+03  0.00000000000E+00 0.  1.
         12    1    3    3    0    0 -0.11668371953E+03  0.25351764453E+02 -0.68266085099E+03  0.69302499222E+03  0.00000000000E+00 0. -1.
          5    1    4    4  501    0  0.23851525445E+02 -0.96283360224E+02  0.10200629740E+02  0.99827469011E+02  0.47000000000E+01 0. -1.
         -5    1    4    4    0  501  0.55768379358E+02  0.26875944930E+02  0.28620812531E+02  0.68364241107E+02  0.47000000000E+01 0. -1.
          1    1    1    2  502    0 -0.15866609094E+02 -0.64481077647E+02 -0.34005829600E+03  0.34648117313E+03  0.00000000000E+00 0. -1.
          1    1    1    2  503    0  0.45635996575E+02  0.35827548636E+02  0.16374662231E+02  0.60285877184E+02  0.00000000000E+00 0. -1.
<mgrwt>
<rscale>  0 0.61601976E+02</rscale>
<asrwt>0</asrwt>
<pdfrwt beam="1">  1        2 0.27141095E-01 0.58019457E+02</pdfrwt>
<pdfrwt beam="2">  1        2 0.31188215E+00 0.65405704E+02</pdfrwt>
<totfact> 0.24534224E+02</totfact>
</mgrwt>
</event>
<event>
13    1  0.1589573E-008  0.1045558E+03  0.7546771E-02  0.1317349E+00
          2   -1    0    0  502    0  0.00000000000E+00  0.00000000000E+00  0.80986884881E+03  0.80986884881E+03  0.00000000000E+00 0. -1.
          2   -1    0    0  503    0 -0.00000000000E+00 -0.00000000000E+00 -0.30225564428E+04  0.30225564428E+04  0.00000000000E+00 0. -1.
         24    2    1    2    0    0  0.28886307816E+02  0.13145652457E+01 -0.20592380735E+04  0.20609989242E+04  0.80118506563E+02 0.  0.
         25    2    1    2    0    0 -0.84561424598E+02 -0.66012593592E+02  0.77732728296E+02  0.18213944809E+03  0.12499641778E+03 0.  0.
         24    2    1    2    0    0 -0.17839777336E+02 -0.94557180570E+02 -0.94812342087E+02  0.15727507341E+03  0.80540365362E+02 0.  0.
        -11    1    5    5    0    0 -0.42185776153E+02 -0.85466055782E+02 -0.55935005744E+02  0.11051158884E+03  0.00000000000E+00 0.  1.
         12    1    5    5    0    0  0.24345998817E+02 -0.90911247880E+01 -0.38877336343E+02  0.46763484573E+02  0.00000000000E+00 0. -1.
        -13    1    3    3    0    0 -0.24691665677E+02 -0.13184626638E+02 -0.51082221965E+03  0.51158855814E+03  0.00000000000E+00 0.  1.
         14    1    3    3    0    0  0.53577973494E+02  0.14499191884E+02 -0.15484158539E+04  0.15494103660E+04  0.00000000000E+00 0. -1.
          5    1    4    4  501    0 -0.27325260626E+02 -0.25905799169E+02 -0.33547165329E+02  0.50648618940E+02  0.47000000000E+01 0. -1.
         -5    1    4    4    0  501 -0.57236163973E+02 -0.40106794423E+02  0.11127989363E+03  0.13149082915E+03  0.47000000000E+01 0. -1.
          1    1    1    2  502    0  0.66956462672E+01  0.67591172295E+02  0.64191781922E+03  0.64550126637E+03  0.00000000000E+00 0. -1.
          1    1    1    2  503    0  0.66819247851E+02  0.91664036622E+02 -0.77828772591E+03  0.78651057958E+03  0.00000000000E+00 0. -1.
<mgrwt>
<rscale>  0 0.84271229E+02</rscale>
<asrwt>0</asrwt>
<pdfrwt beam="1">  1        2 0.11909836E+00 0.67922001E+02</pdfrwt>
<pdfrwt beam="2">  1        2 0.44449359E+00 0.10455581E+03</pdfrwt>
<totfact> 0.16924338E+01</totfact>
</mgrwt>
</event>
<event>
13    1  0.1589573E-008  0.6470167E+02  0.7546771E-02  0.1394303E+00
          2   -1    0    0  503    0  0.00000000000E+00  0.00000000000E+00  0.20616228827E+04  0.20616228827E+04  0.00000000000E+00 0. -1.
          2   -1    0    0  502    0 -0.00000000000E+00 -0.00000000000E+00 -0.33927194790E+03  0.33927194790E+03  0.00000000000E+00 0. -1.
         24    2    1    2    0    0  0.19052466909E+03  0.13380671020E+03  0.35247704588E+03  0.43051122584E+03  0.83041932060E+02 0.  0.
         25    2    1    2    0    0 -0.21534698104E+03 -0.12489130424E+03 -0.44945986746E+02  0.28216398048E+03  0.12499684011E+03 0.  0.
         24    2    1    2    0    0  0.29314538758E+02  0.38360675786E+01  0.28721984295E+03  0.30343002860E+03  0.93276398297E+02 0.  0.
        -11    1    3    3    0    0  0.15489162173E+03  0.65589079606E+02  0.26625029780E+03  0.31493263236E+03  0.00000000000E+00 0.  1.
         12    1    3    3    0    0  0.35633047366E+02  0.68217630594E+02  0.86226748074E+02  0.11557859348E+03  0.00000000000E+00 0. -1.
        -13    1    5    5    0    0 -0.26492604398E+02  0.23596094300E+02  0.72755400277E+02  0.80944314337E+02  0.00000000000E+00 0.  1.
         14    1    5    5    0    0  0.55807143156E+02 -0.19760026721E+02  0.21446444267E+03  0.22248571427E+03  0.00000000000E+00 0. -1.
          5    1    4    4  501    0 -0.39685029777E+02  0.20135695312E+02  0.13877193527E+02  0.46850979865E+02  0.47000000000E+01 0. -1.
         -5    1    4    4    0  501 -0.17566195127E+03 -0.14502699955E+03 -0.58823180273E+02  0.23531300062E+03  0.47000000000E+01 0. -1.
          1    1    1    2  502    0 -0.60491963778E+02 -0.24534202225E+02 -0.11961204879E+03  0.13626535501E+03  0.00000000000E+00 0. -1.
          1    1    1    2  503    0  0.55999736969E+02  0.11782728687E+02  0.12472120815E+04  0.12485242407E+04  0.00000000000E+00 0. -1.
<mgrwt>
<rscale>  0 0.60849086E+02</rscale>
<asrwt>0</asrwt>
<pdfrwt beam="1">  1        2 0.30317983E+00 0.57225897E+02</pdfrwt>
<pdfrwt beam="2">  1        2 0.49892934E-01 0.64701674E+02</pdfrwt>
<totfact> 0.14124019E+02</totfact>
</mgrwt>
</event>
<event>
13    1  0.1589573E-008  0.1451830E+03  0.7546771E-02  0.1290176E+00
          2   -1    0    0  503    0  0.00000000000E+00  0.00000000000E+00  0.14005078707E+04  0.14005078707E+04  0.00000000000E+00 0. -1.
          2   -1    0    0  502    0 -0.00000000000E+00 -0.00000000000E+00 -0.72676174504E+03  0.72676174504E+03  0.00000000000E+00 0. -1.
         24    2    1    2    0    0 -0.86004461758E+02 -0.16412469830E+02 -0.20545455352E+03  0.23654174992E+03  0.77937726975E+02 0.  0.
         25    2    1    2    0    0 -0.80558368315E+02  0.99034896588E+02  0.65284924033E+03  0.67685595079E+03  0.12499714425E+03 0.  0.
         24    2    1    2    0    0  0.50274843499E+01  0.39502404767E+02 -0.56267576280E+02  0.10650974555E+03  0.81194643761E+02 0.  0.
        -11    1    3    3    0    0  0.10354955465E+02 -0.14941256792E+02 -0.17063659343E+02  0.24932603703E+02  0.00000000000E+00 0.  1.
         12    1    3    3    0    0 -0.96359417223E+02 -0.14712130381E+01 -0.18839089417E+03  0.21160914622E+03  0.00000000000E+00 0. -1.
        -13    1    5    5    0    0  0.20980885587E+02  0.60166893969E+02 -0.45361304688E+02  0.78217009997E+02  0.00000000000E+00 0.  1.
         14    1    5    5    0    0 -0.15953401237E+02 -0.20664489202E+02 -0.10906271592E+02  0.28292735553E+02  0.00000000000E+00 0. -1.
          5    1    4    4  501    0  0.30985911415E+02  0.69267138762E+01  0.85189900156E+02  0.91035790544E+02  0.47000000000E+01 0. -1.
         -5    1    4    4    0  501 -0.11154427973E+03  0.92108182712E+02  0.56765934018E+03  0.58582016025E+03  0.47000000000E+01 0. -1.
          1    1    1    2  502    0  0.17551918017E+03 -0.18329419115E+03 -0.37168329631E+03  0.45005801390E+03  0.00000000000E+00 0. -1.
          1    1    1    2  503    0 -0.13983834451E+02  0.61169359622E+02  0.65430231140E+03  0.65730415554E+03  0.00000000000E+00 0. -1.
<mgrwt>
<rscale>  0 0.95445591E+02</rscale>
<asrwt>0</asrwt>
<pdfrwt beam="1">  1        2 0.20595704E+00 0.62747416E+02</pdfrwt>
<pdfrwt beam="2">  1        2 0.10687673E+00 0.14518304E+03</pdfrwt>
<totfact> 0.12481344E+02</totfact>
</mgrwt>
</event>
<event>
13    1  0.1589573E-008  0.1369297E+03  0.7546771E-02  0.1302384E+00
          2   -1    0    0  503    0  0.00000000000E+00  0.00000000000E+00  0.27440373068E+04  0.27440373068E+04  0.00000000000E+00 0. -1.
          2   -1    0    0  502    0 -0.00000000000E+00 -0.00000000000E+00 -0.89769808782E+03  0.89769808782E+03  0.00000000000E+00 0. -1.
         24    2    1    2    0    0 -0.43738172936E+02 -0.62703230508E+02 -0.28111533967E+03  0.30191104690E+03  0.79244704270E+02 0.  0.
         25    2    1    2    0    0  0.17034156747E+03  0.56424018666E+02  0.83236464533E+03  0.86061309392E+03  0.12499630056E+03 0.  0.
         24    2    1    2    0    0  0.43538705785E+02  0.15811035362E+02  0.75256953019E+02  0.11869557333E+03  0.79242806682E+02 0.  0.
        -11    1    5    5    0    0  0.38847817400E+01  0.28571898456E+02 -0.40462285447E+01  0.29117295135E+02  0.00000000000E+00 0.  1.
         12    1    5    5    0    0  0.39653924045E+02 -0.12760863094E+02  0.79303181563E+02  0.89578278199E+02  0.00000000000E+00 0. -1.
        -13    1    3    3    0    0 -0.37144112335E+02 -0.21914358271E+02 -0.23919136399E+03  0.24304821083E+03  0.00000000000E+00 0.  1.
         14    1    3    3    0    0 -0.65940606007E+01 -0.40788872237E+02 -0.41923975678E+02  0.58862836070E+02  0.00000000000E+00 0. -1.
          5    1    4    4  501    0  0.79545006292E+02 -0.25206725606E+01  0.58699306706E+03  0.59238223521E+03  0.47000000000E+01 0. -1.
         -5    1    4    4    0  501  0.90796561175E+02  0.58944691227E+02  0.24537157827E+03  0.26823085872E+03  0.47000000000E+01 0. -1.
          1    1    1    2  502    0 -0.12634167663E+03  0.30604557822E+02 -0.56243264712E+03  0.57726020195E+03  0.00000000000E+00 0. -1.
          1    1    1    2  503    0 -0.43800423690E+02 -0.40136381342E+02  0.17822656075E+04  0.17832554785E+04  0.00000000000E+00 0. -1.
<mgrwt>
<rscale>  0 0.90193288E+02</rscale>
<asrwt>0</asrwt>
<pdfrwt beam="1">  1        2 0.40353490E+00 0.59408806E+02</pdfrwt>
<pdfrwt beam="2">  1        2 0.13201443E+00 0.13692969E+03</pdfrwt>
<totfact> 0.22053990E+01</totfact>
</mgrwt>
</event>
<event>
13    1  0.1589573E-008  0.1427715E+03  0.7546771E-02  0.1273261E+00
          2   -1    0    0  503    0  0.00000000000E+00  0.00000000000E+00  0.16920982332E+04  0.16920982332E+04  0.00000000000E+00 0. -1.
          2   -1    0    0  502    0 -0.00000000000E+00 -0.00000000000E+00 -0.17028267320E+04  0.17028267320E+04  0.00000000000E+00 0. -1.
         24    2    1    2    0    0 -0.30360782193E+03 -0.87291028990E+02 -0.42423034971E+03  0.53485189484E+03  0.79358216481E+02 0.  0.
         25    2    1    2    0    0  0.29739611587E+03  0.12156784108E+03  0.99899515682E+02  0.35892597439E+03  0.12499900855E+03 0.  0.
         24    2    1    2    0    0  0.15943072265E+03  0.10779561401E+03  0.66798080916E+03  0.69956469882E+03  0.78449708111E+02 0.  0.
        -11    1    5    5    0    0  0.13598233458E+03  0.11993081816E+03  0.59045535952E+03  0.61766668038E+03  0.00000000000E+00 0.  1.
         12    1    5    5    0    0  0.23448388076E+02 -0.12135204147E+02  0.77525449639E+02  0.81898018442E+02  0.00000000000E+00 0. -1.
        -13    1    3    3    0    0 -0.18071455241E+03 -0.46082876164E+02 -0.31154255444E+03  0.36309798148E+03  0.00000000000E+00 0.  1.
         14    1    3    3    0    0 -0.12289326952E+03 -0.41208152826E+02 -0.11268779527E+03  0.17175391336E+03  0.00000000000E+00 0. -1.
          5    1    4    4  501    0  0.17878023077E+03  0.90965334456E+02  0.12132767278E+03  0.23447719968E+03  0.47000000000E+01 0. -1.
         -5    1    4    4    0  501  0.11861588510E+03  0.30602506622E+02 -0.21428157103E+02  0.12444877471E+03  0.47000000000E+01 0. -1.
          1    1    1    2  502    0 -0.69880389580E+02 -0.27006451067E+02 -0.10696836762E+04  0.10723039608E+04  0.00000000000E+00 0. -1.
          1    1    1    2  503    0 -0.83338627011E+02 -0.11506597504E+03  0.71530520229E+03  0.72927843639E+03  0.00000000000E+00 0. -1.
<mgrwt>
<rscale>  0 0.10342182E+03</rscale>
<asrwt>0</asrwt>
<pdfrwt beam="1">  1        2 0.24883798E+00 0.14277153E+03</pdfrwt>
<pdfrwt beam="2">  1        2 0.25041569E+00 0.74917403E+02</pdfrwt>
<totfact> 0.25475172E+01</totfact>
</mgrwt>
</event>
<event>
13    1  0.1589573E-008  0.9221932E+02  0.7546771E-02  0.1397610E+00
          2   -1    0    0  502    0  0.00000000000E+00  0.00000000000E+00  0.20984784398E+04  0.20984784398E+04  0.00000000000E+00 0. -1.
          2   -1    0    0  503    0 -0.00000000000E+00 -0.00000000000E+00 -0.31181919368E+04  0.31181919368E+04  0.00000000000E+00 0. -1.
         24    2    1    2    0    0 -0.28544942601E+03 -0.26131100460E+02 -0.63624077430E+03  0.70458102087E+03  0.97303046530E+02 0.  0.
         25    2    1    2    0    0  0.21307318742E+03  0.13933133289E+03 -0.97022557710E+03  0.10108297690E+04  0.12500299201E+03 0.  0.
         24    2    1    2    0    0  0.20255650494E+03 -0.12813167308E+03  0.84890485241E+02  0.26805723989E+03  0.84861216314E+02 0.  0.
        -13    1    5    5    0    0  0.17731643969E+03 -0.69838223025E+02  0.59484260908E+02  0.19964186554E+03  0.00000000000E+00 0.  1.
         14    1    5    5    0    0  0.25240065248E+02 -0.58293450054E+02  0.25406224333E+02  0.68415374352E+02  0.00000000000E+00 0. -1.
        -13    1    3    3    0    0 -0.63882578812E+02 -0.45228738235E+02 -0.20365725383E+03  0.21818088751E+03  0.00000000000E+00 0.  1.
         14    1    3    3    0    0 -0.22156684720E+03  0.19097637776E+02 -0.43258352047E+03  0.48640013336E+03  0.00000000000E+00 0. -1.
          5    1    4    4  501    0  0.45805860543E+02  0.23599504409E+02 -0.65299696632E+02  0.83314187559E+02  0.47000000000E+01 0.  1.
         -5    1    4    4    0  501  0.16726732688E+03  0.11573182848E+03 -0.90492588046E+03  0.92751558149E+03  0.47000000000E+01 0.  1.
          1    1    1    2  502    0 -0.38679083082E+02  0.57648546206E+01  0.18657791848E+04  0.18661889699E+04  0.00000000000E+00 0. -1.
          1    1    1    2  503    0 -0.91501183266E+02  0.91665860273E+01 -0.13639168156E+04  0.13670133769E+04  0.00000000000E+00 0. -1.
<mgrwt>
<rscale>  0 0.60052968E+02</rscale>
<asrwt>0</asrwt>
<pdfrwt beam="1">  1        2 0.30859977E+00 0.39106330E+02</pdfrwt>
<pdfrwt beam="2">  1        2 0.45855764E+00 0.92219317E+02</pdfrwt>
<totfact> 0.36092829E+00</totfact>
</mgrwt>
</event>
<event>
13    1  0.1589573E-008  0.1709141E+03  0.7546771E-02  0.1368789E+00
         -3   -1    0    0    0  501 -0.00000000000E+00  0.00000000000E+00  0.30461460222E+03  0.30461460222E+03  0.00000000000E+00 0.  1.
          2   -1    0    0  503    0  0.00000000000E+00 -0.00000000000E+00 -0.18730630511E+04  0.18730630511E+04  0.00000000000E+00 0. -1.
         24    2    1    2    0    0 -0.92959588989E+02  0.28165457964E+01  0.11499935060E+02  0.12606382220E+03  0.84323310218E+02 0.  0.
         25    2    1    2    0    0  0.14590019730E+03 -0.64107382698E+02 -0.58308148219E+03  0.61725638613E+03  0.12499922907E+03 0.  0.
         24    2    1    2    0    0  0.92050421235E+02  0.46489359049E+01 -0.11181265361E+03  0.16568154050E+03  0.80333123307E+02 0.  0.
        -11    1    3    3    0    0 -0.15816840094E+01 -0.28700354986E+02  0.19503080509E+00  0.28744567098E+02  0.00000000000E+00 0.  1.
         12    1    3    3    0    0 -0.91377904980E+02  0.31516900783E+02  0.11304904255E+02  0.97319255102E+02  0.00000000000E+00 0. -1.
        -11    1    5    5    0    0  0.10039242446E+03  0.38396957236E+00 -0.68909774351E+02  0.12176757911E+03  0.00000000000E+00 0.  1.
         12    1    5    5    0    0 -0.83420032288E+01  0.42649663325E+01 -0.42902879261E+02  0.43913961386E+02  0.00000000000E+00 0. -1.
          5    1    4    4  502    0  0.43784644157E+02 -0.36168195636E+02 -0.41263963550E+03  0.41655586927E+03  0.47000000000E+01 0.  1.
         -5    1    4    4    0  502  0.10211555314E+03 -0.27939187062E+02 -0.17044184669E+03  0.20070051686E+03  0.47000000000E+01 0.  1.
          1    1    1    2  503    0  0.22674963472E+02 -0.14025540218E+02 -0.10335054502E+04  0.10338493049E+04  0.00000000000E+00 0. -1.
         -4    1    1    2    0  501 -0.16766599302E+03  0.70667441215E+02  0.14845120206E+03  0.23482659954E+03  0.00000000000E+00 0.  1.
<mgrwt>
<rscale>  0 0.67505085E+02</rscale>
<asrwt>0</asrwt>
<pdfrwt beam="2">  1        2 0.27545044E+00 0.26662141E+02</pdfrwt>
<pdfrwt beam="1">  1       -3 0.44796267E-01 0.17091413E+03</pdfrwt>
<totfact> 0.36949586E+01</totfact>
</mgrwt>
</event>
<event>
13    1  0.1589573E-008  0.1679279E+03  0.7546771E-02  0.1302223E+00
          2   -1    0    0  503    0  0.00000000000E+00  0.00000000000E+00  0.11289370378E+04  0.11289370378E+04  0.00000000000E+00 0. -1.
          2   -1    0    0  502    0 -0.00000000000E+00 -0.00000000000E+00 -0.24706257303E+04  0.24706257303E+04  0.00000000000E+00 0. -1.
         24    2    1    2    0    0  0.13424845965E+02 -0.59328411571E+02 -0.15332565250E+04  0.15368649774E+04  0.85897032893E+02 0.  0.
         25    2    1    2    0    0  0.21519815737E+03  0.19527851478E+03  0.42608255050E+03  0.53068479794E+03  0.12504427078E+03 0.  0.
         24    2    1    2    0    0 -0.10854658849E+03 -0.71479147810E+02 -0.16583145368E+03  0.22591274564E+03  0.81516054679E+02 0.  0.
        -13    1    3    3    0    0  0.21009556624E+02 -0.63868950921E+02 -0.15158685731E+04  0.15173589474E+04  0.00000000000E+00 0.  1.
         14    1    3    3    0    0 -0.75847106587E+01  0.45405393499E+01 -0.17387951956E+02  0.19506030006E+02  0.00000000000E+00 0. -1.
        -13    1    5    5    0    0 -0.59526810953E+01 -0.47513230564E+02 -0.56897932507E+02  0.74366095866E+02  0.00000000000E+00 0.  1.
         14    1    5    5    0    0 -0.10259390739E+03 -0.23965917246E+02 -0.10893352117E+03  0.15154664978E+03  0.00000000000E+00 0. -1.
          5    1    4    4  501    0  0.19009265496E+03  0.16442442229E+03  0.42095749077E+03  0.49030389265E+03  0.47000000000E+01 0.  1.
         -5    1    4    4    0  501  0.25105502404E+02  0.30854092490E+02  0.51250597274E+01  0.40380905284E+02  0.47000000000E+01 0.  1.
          1    1    1    2  502    0  0.43697129438E+02 -0.21076235741E+02 -0.67490598291E+03  0.67664742119E+03  0.00000000000E+00 0. -1.
          1    1    1    2  503    0 -0.16377354428E+03 -0.43394719661E+02  0.60622271865E+03  0.62945282596E+03  0.00000000000E+00 0. -1.
<mgrwt>
<rscale>  0 0.90260307E+02</rscale>
<asrwt>0</asrwt>
<pdfrwt beam="1">  1        2 0.16602016E+00 0.16792794E+03</pdfrwt>
<pdfrwt beam="2">  1        2 0.36332731E+00 0.48514398E+02</pdfrwt>
<totfact> 0.22427398E+01</totfact>
</mgrwt>
</event>
<event>
13    1  0.1589573E-008  0.1454036E+03  0.7546771E-02  0.1253109E+00
          2   -1    0    0  502    0  0.00000000000E+00  0.00000000000E+00  0.31225750059E+04  0.31225750059E+04  0.00000000000E+00 0. -1.
          2   -1    0    0  503    0 -0.00000000000E+00 -0.00000000000E+00 -0.20310285128E+04  0.20310285128E+04  0.00000000000E+00 0. -1.
         24    2    1    2    0    0  0.12151789906E+03  0.15538971248E+02 -0.47935149961E+03  0.50110526711E+03  0.79502007041E+02 0.  0.
         25    2    1    2    0    0 -0.16270012564E+03 -0.63018113928E+02  0.10245175656E+04  0.10467561809E+04  0.12497858427E+03 0.  0.
         24    2    1    2    0    0 -0.51256226766E+02 -0.28349714629E+02 -0.10852263580E+03  0.15103272767E+03  0.87194123907E+02 0.  0.
        -11    1    3    3    0    0  0.10792426623E+03 -0.16789036478E+02 -0.32658399811E+03  0.34436409048E+03  0.00000000000E+00 0.  1.
         12    1    3    3    0    0  0.13593632829E+02  0.32328007726E+02 -0.15276750150E+03  0.15674117663E+03  0.00000000000E+00 0. -1.
        -13    1    5    5    0    0  0.17769145243E+02 -0.12395636032E+02 -0.63494018796E+02  0.67088633450E+02  0.00000000000E+00 0.  1.
         14    1    5    5    0    0 -0.69025372009E+02 -0.15954078597E+02 -0.45028617008E+02  0.83944094220E+02  0.00000000000E+00 0. -1.
          5    1    4    4  501    0 -0.50207594785E+02 -0.78556428350E+02  0.32794995513E+03  0.34097679991E+03  0.47000000000E+01 0. -1.
         -5    1    4    4    0  501 -0.11249253086E+03  0.15538314422E+02  0.69656761044E+03  0.70577938098E+03  0.47000000000E+01 0. -1.
          1    1    1    2  502    0  0.32321161485E+02  0.14224256969E+03  0.20507798636E+04  0.20559610052E+04  0.00000000000E+00 0. -1.
          1    1    1    2  503    0  0.60117291866E+02 -0.66413712380E+02 -0.13958768006E+04  0.13987483378E+04  0.00000000000E+00 0. -1.
<mgrwt>
<rscale>  0 0.11412928E+03</rscale>
<asrwt>0</asrwt>
<pdfrwt beam="1">  1        2 0.45920221E+00 0.14540359E+03</pdfrwt>
<pdfrwt beam="2">  1        2 0.29868066E+00 0.89581639E+02</pdfrwt>
<totfact> 0.32694692E+00</totfact>
</mgrwt>
</event>
<event>
13    1  0.1589573E-008  0.2018099E+03  0.7546771E-02  0.1280144E+00
          2   -1    0    0  503    0  0.00000000000E+00  0.00000000000E+00  0.21130718214E+04  0.21130718214E+04  0.00000000000E+00 0. -1.
         -3   -1    0    0    0  501 -0.00000000000E+00 -0.00000000000E+00 -0.54573447180E+03  0.54573447180E+03  0.00000000000E+00 0.  1.
         24    2    1    2    0    0 -0.38150022462E+02 -0.12630070686E+03 -0.17451308127E+03  0.23320099273E+03  0.80750199458E+02 0.  0.
         25    2    1    2    0    0 -0.13659394047E+03  0.13911994155E+03  0.78073043510E+03  0.81435598877E+03  0.12499360562E+03 0.  0.
         24    2    1    2    0    0  0.14673423525E+02  0.32586295807E+02 -0.87862680830E+02  0.12442827609E+03  0.80531789842E+02 0.  0.
        -11    1    5    5    0    0  0.27302885640E+02  0.30175912160E+02 -0.54956824672E+01  0.41063801148E+02  0.00000000000E+00 0.  1.
         12    1    5    5    0    0 -0.12629462115E+02  0.24103836467E+01 -0.82366998363E+02  0.83364474940E+02  0.00000000000E+00 0. -1.
        -13    1    3    3    0    0 -0.43198298116E+02 -0.81178800863E+02 -0.16170915070E+03  0.18602671876E+03  0.00000000000E+00 0.  1.
         14    1    3    3    0    0  0.50482756539E+01 -0.45121905992E+02 -0.12803930563E+02  0.47174273977E+02  0.00000000000E+00 0. -1.
          5    1    4    4  502    0 -0.75114924671E+02  0.14942996594E+03  0.61042137455E+03  0.63293594552E+03  0.47000000000E+01 0. -1.
         -5    1    4    4    0  502 -0.61479015800E+02 -0.10310024386E+02  0.17030906056E+03  0.18142004325E+03  0.47000000000E+01 0. -1.
          1    1    1    2  503    0  0.20884260771E+03 -0.54558020746E+02  0.12557581767E+04  0.12741744036E+04  0.00000000000E+00 0. -1.
         -4    1    1    2    0  501 -0.48772068302E+02  0.91524902435E+01 -0.20677550004E+03  0.21264663209E+03  0.00000000000E+00 0.  1.
<mgrwt>
<rscale>  0 0.10007245E+03</rscale>
<asrwt>0</asrwt>
<pdfrwt beam="1">  1        2 0.31074585E+00 0.20180990E+03</pdfrwt>
<pdfrwt beam="2">  1       -3 0.80255070E-01 0.49623409E+02</pdfrwt>
<totfact> 0.65856345E+00</totfact>
</mgrwt>
</event>
<event>
13    1  0.1836043E-008  0.7846929E+02  0.7546771E-02  0.1435569E+00
          2   -1    0    0  502    0  0.00000000000E+00  0.00000000000E+00  0.13566015308E+03  0.13566015308E+03  0.00000000000E+00 0. -1.
          2   -1    0    0  503    0 -0.00000000000E+00 -0.00000000000E+00 -0.36501610756E+04  0.36501610756E+04  0.00000000000E+00 0. -1.
         24    2    1    2    0    0 -0.51744380198E+02  0.16897982555E+01 -0.10549861530E+04  0.10592681402E+04  0.79830279547E+02 0.  0.
         25    2    1    2    0    0  0.68708335545E+02  0.71540108101E+02 -0.64017824526E+02  0.17193512782E+03  0.12499833551E+03 0.  0.
         24    2    1    2    0    0 -0.12162296408E+02 -0.23825607961E+02 -0.20695274717E+03  0.22352290350E+03  0.80109099229E+02 0.  0.
        -11    1    3    3    0    0  0.15786346440E+02  0.14640995611E+02 -0.13400390840E+03  0.13572256611E+03  0.00000000000E+00 0.  1.
         12    1    3    3    0    0 -0.67530726639E+02 -0.12951197356E+02 -0.92098224463E+03  0.92354557412E+03  0.00000000000E+00 0. -1.
        -13    1    5    5    0    0 -0.44514676004E+02 -0.16535765501E+02 -0.15293048441E+03  0.16013344742E+03  0.00000000000E+00 0.  1.
         14    1    5    5    0    0  0.32352379596E+02 -0.72898424606E+01 -0.54022262765E+02  0.63389456086E+02  0.00000000000E+00 0. -1.
          5    1    4    4  501    0  0.95755983251E+02  0.18294949127E+02 -0.52869206835E+02  0.11100070506E+03  0.47000000000E+01 0.  1.
         -5    1    4    4    0  501 -0.27047647706E+02  0.53245158974E+02 -0.11148617691E+02  0.60934422759E+02  0.47000000000E+01 0.  1.
          1    1    1    2  502    0 -0.19836778505E+02  0.27947344219E+02  0.66427305033E+02  0.74747165059E+02  0.00000000000E+00 0. -1.
          1    1    1    2  503    0  0.15035119567E+02 -0.77351642614E+02 -0.22549715028E+04  0.22563478920E+04  0.00000000000E+00 0. -1.
<mgrwt>
<rscale>  0 0.51858257E+02</rscale>
<asrwt>0</asrwt>
<pdfrwt beam="1">  1        2 0.19950021E-01 0.34271735E+02</pdfrwt>
<pdfrwt beam="2">  1        2 0.53678844E+00 0.78469291E+02</pdfrwt>
<totfact> 0.51374366E+01</totfact>
</mgrwt>
</event>
<event>
13    1  0.1589573E-008  0.7238556E+02  0.7546771E-02  0.1412649E+00
          2   -1    0    0  503    0  0.00000000000E+00  0.00000000000E+00  0.16684741315E+04  0.16684741315E+04  0.00000000000E+00 0. -1.
          2   -1    0    0  502    0 -0.00000000000E+00 -0.00000000000E+00 -0.37243010698E+04  0.37243010698E+04  0.00000000000E+00 0. -1.
         24    2    1    2    0    0  0.32435866070E+03 -0.31159768614E+03 -0.30945488190E+01  0.45724203487E+03  0.82213401812E+02 0.  0.
         25    2    1    2    0    0 -0.17580804189E+03  0.43446694809E+03 -0.48627785241E+02  0.48750244139E+03  0.12499588910E+03 0.  0.
         24    2    1    2    0    0 -0.23632201617E+03 -0.89032471242E+02  0.86288907903E+03  0.90550941712E+03  0.10767945723E+03 0.  0.
        -13    1    5    5    0    0 -0.16140463027E+03 -0.16537034678E+02  0.41364196004E+03  0.44432488035E+03  0.00000000000E+00 0.  1.
         14    1    5    5    0    0 -0.74917385905E+02 -0.72495436564E+02  0.44924711899E+03  0.46118453677E+03  0.00000000000E+00 0. -1.
        -13    1    3    3    0    0  0.18747720887E+03 -0.13850930037E+03  0.26497952569E+02  0.23459469650E+03  0.00000000000E+00 0.  1.
         14    1    3    3    0    0  0.13688145183E+03 -0.17308838578E+03 -0.29592501388E+02  0.22264733837E+03  0.00000000000E+00 0. -1.
          5    1    4    4  501    0 -0.72305120798E+02  0.98501238519E+02 -0.58999723773E+02  0.13577032772E+03  0.47000000000E+01 0.  1.
         -5    1    4    4    0  501 -0.10350292109E+03  0.33596570957E+03  0.10371938532E+02  0.35173211367E+03  0.47000000000E+01 0.  1.
          1    1    1    2  502    0  0.39498621514E+02  0.19987106776E+02 -0.32007336586E+04  0.32010397652E+04  0.00000000000E+00 0. -1.
          1    1    1    2  503    0  0.48272775850E+02 -0.53823897479E+02  0.33373997531E+03  0.34148154262E+03  0.00000000000E+00 0. -1.
<mgrwt>
<rscale>  0 0.56606884E+02</rscale>
<asrwt>0</asrwt>
<pdfrwt beam="1">  1        2 0.24536384E+00 0.72385563E+02</pdfrwt>
<pdfrwt beam="2">  1        2 0.54769133E+00 0.44267658E+02</pdfrwt>
<totfact> 0.27846043E+00</totfact>
</mgrwt>
</event>
<event>
13    1  0.1589573E-008  0.1348430E+03  0.7546771E-02  0.1313768E+00
          2   -1    0    0  502    0  0.00000000000E+00  0.00000000000E+00  0.91031911581E+03  0.91031911581E+03  0.00000000000E+00 0. -1.
          2   -1    0    0  503    0 -0.00000000000E+00 -0.00000000000E+00 -0.17075693425E+04  0.17075693425E+04  0.00000000000E+00 0. -1.
         24    2    1    2    0    0 -0.59506662541E+02 -0.10653122576E+03 -0.29746126355E+03  0.33171557059E+03  0.81621513776E+02 0.  0.
         25    2    1    2    0    0 -0.57950264106E+01  0.20204107931E+03 -0.47708526535E+03  0.53300077843E+03  0.12500119731E+03 0.  0.
         24    2    1    2    0    0 -0.21184404128E+02 -0.74514352519E+02  0.70921585464E+02  0.13194644210E+03  0.79867544026E+02 0.  0.
        -11    1    3    3    0    0 -0.73173059976E+02 -0.11053672297E+03 -0.26921004147E+03  0.30007784034E+03  0.00000000000E+00 0.  1.
         12    1    3    3    0    0  0.13666397435E+02  0.40054972119E+01 -0.28251222074E+02  0.31637730251E+02  0.00000000000E+00 0. -1.
        -11    1    5    5    0    0 -0.15457533925E+02 -0.25393289516E+02  0.76601286445E+02  0.82167582370E+02  0.00000000000E+00 0.  1.
         12    1    5    5    0    0 -0.57268702029E+01 -0.49121063003E+02 -0.56797009814E+01  0.49778859730E+02  0.00000000000E+00 0. -1.
          5    1    4    4  501    0  0.29043636537E+02  0.12211818691E+03 -0.15616250324E+03  0.20041257899E+03  0.47000000000E+01 0. -1.
         -5    1    4    4    0  501 -0.34838662947E+02  0.79922892394E+02 -0.32092276212E+03  0.33258819944E+03  0.47000000000E+01 0. -1.
          1    1    1    2  502    0  0.13242588355E+03 -0.50113405043E+02  0.75636158311E+03  0.76950036543E+03  0.00000000000E+00 0. -1.
          1    1    1    2  503    0 -0.45939790473E+02  0.29117904014E+02 -0.84998686640E+03  0.85172530181E+03  0.00000000000E+00 0. -1.
<mgrwt>
<rscale>  0 0.85639732E+02</rscale>
<asrwt>0</asrwt>
<pdfrwt beam="1">  1        2 0.13387046E+00 0.13484296E+03</pdfrwt>
<pdfrwt beam="2">  1        2 0.25111314E+00 0.54390410E+02</pdfrwt>
<totfact> 0.68375998E+01</totfact>
</mgrwt>
</event>
<event>
13    1  0.1589573E-008  0.8547756E+02  0.7546771E-02  0.1445146E+00
          2   -1    0    0  502    0  0.00000000000E+00  0.00000000000E+00  0.70958545566E+03  0.70958545566E+03  0.00000000000E+00 0. -1.
          2   -1    0    0  503    0 -0.00000000000E+00 -0.00000000000E+00 -0.16165898849E+04  0.16165898849E+04  0.00000000000E+00 0. -1.
         24    2    1    2    0    0 -0.41069181311E+01  0.44521423551E+02  0.14162514338E+03  0.16863959334E+03  0.79891221508E+02 0.  0.
         25    2    1    2    0    0  0.49230788539E+02 -0.51746068248E+02 -0.16909100065E+03  0.22207842423E+03  0.12500293551E+03 0.  0.
         24    2    1    2    0    0  0.44552057691E+02  0.76456272875E+02  0.50171999223E+02  0.12911920955E+03  0.79524167792E+02 0.  0.
        -11    1    3    3    0    0  0.76803082353E+01  0.47397656452E+02  0.30565197958E+02  0.56918857138E+02  0.00000000000E+00 0.  1.
         12    1    3    3    0    0 -0.11787226366E+02 -0.28762329008E+01  0.11105994542E+03  0.11172073621E+03  0.00000000000E+00 0. -1.
        -13    1    5    5    0    0  0.26978883179E+01  0.17473292666E+02  0.53873517663E+02  0.56700533184E+02  0.00000000000E+00 0.  1.
         14    1    5    5    0    0  0.41854169373E+02  0.58982980209E+02 -0.37015184401E+01  0.72418676369E+02  0.00000000000E+00 0. -1.
          5    1    4    4  501    0 -0.37041008148E+02  0.53953431202E+01 -0.65465954490E+02  0.75558104855E+02  0.47000000000E+01 0. -1.
         -5    1    4    4    0  501  0.86271796687E+02 -0.57141411368E+02 -0.10362504616E+03  0.14652031937E+03  0.47000000000E+01 0. -1.
          1    1    1    2  502    0 -0.71148895310E+02 -0.46545859351E+02  0.43403203442E+03  0.44228100708E+03  0.00000000000E+00 0. -1.
          1    1    1    2  503    0 -0.18527032788E+02 -0.22685768826E+02 -0.13637426056E+04  0.13640571063E+04  0.00000000000E+00 0. -1.
<mgrwt>
<rscale>  0 0.50036231E+02</rscale>
<asrwt>0</asrwt>
<pdfrwt beam="1">  1        2 0.10435080E+00 0.85477557E+02</pdfrwt>
<pdfrwt beam="2">  1        2 0.23773380E+00 0.29289846E+02</pdfrwt>
<totfact> 0.10988830E+02</totfact>
</mgrwt>
</event>
<event>
13    1  0.1589573E-008  0.7034168E+02  0.7546771E-02  0.1504251E+00
          2   -1    0    0  503    0  0.00000000000E+00  0.00000000000E+00  0.25119079349E+04  0.25119079349E+04  0.00000000000E+00 0. -1.
          2   -1    0    0  502    0 -0.00000000000E+00 -0.00000000000E+00 -0.14763487507E+04  0.14763487507E+04  0.00000000000E+00 0. -1.
         24    2    1    2    0    0  0.18293911800E+03  0.19417050839E+03 -0.23919819302E+03  0.36719944921E+03  0.80316578195E+02 0.  0.
         25    2    1    2    0    0  0.28564618970E+03  0.19199188178E+03  0.43067569618E+03  0.56529409310E+03  0.12498491129E+03 0.  0.
         24    2    1    2    0    0 -0.45855905727E+03 -0.44255202842E+03  0.12421598523E+04  0.14005070632E+04  0.11104156247E+03 0.  0.
        -11    1    3    3    0    0  0.13290256251E+03  0.11380016941E+03 -0.19719275064E+03  0.26362577754E+03  0.00000000000E+00 0.  1.
         12    1    3    3    0    0  0.50036555483E+02  0.80370338980E+02 -0.42005442376E+02  0.10357367166E+03  0.00000000000E+00 0. -1.
        -13    1    5    5    0    0 -0.43184133483E+02 -0.94545418067E+02  0.17189107754E+03  0.20087371157E+03  0.00000000000E+00 0.  1.
         14    1    5    5    0    0 -0.41537492379E+03 -0.34800661035E+03  0.10702687748E+04  0.11996333516E+04  0.00000000000E+00 0. -1.
          5    1    4    4  501    0  0.65350316996E+01 -0.15479546988E+02  0.30125482759E+02  0.34813183217E+02  0.47000000000E+01 0.  1.
         -5    1    4    4    0  501  0.27911115800E+03  0.20747142877E+03  0.40055021342E+03  0.53048090988E+03  0.47000000000E+01 0.  1.
          1    1    1    2  502    0 -0.32627297810E+02  0.62328390468E+02 -0.10252440667E+04  0.10276549835E+04  0.00000000000E+00 0. -1.
          1    1    1    2  503    0  0.22601047387E+02 -0.59387522216E+01  0.62716589540E+03  0.62760109662E+03  0.00000000000E+00 0. -1.
<mgrwt>
<rscale>  0 0.40543354E+02</rscale>
<asrwt>0</asrwt>
<pdfrwt beam="1">  1        2 0.36939823E+00 0.23368272E+02</pdfrwt>
<pdfrwt beam="2">  1        2 0.21711011E+00 0.70341681E+02</pdfrwt>
<totfact> 0.16723609E+01</totfact>
</mgrwt>
</event>
<event>
13    1  0.1589573E-008  0.1330000E+03  0.7546771E-02  0.1253528E+00
          2   -1    0    0  503    0  0.00000000000E+00  0.00000000000E+00  0.25752481256E+04  0.25752481256E+04  0.00000000000E+00 0. -1.
          2   -1    0    0  502    0 -0.00000000000E+00 -0.00000000000E+00 -0.12230987619E+04  0.12230987619E+04  0.00000000000E+00 0. -1.
         24    2    1    2    0    0 -0.13044318988E+02 -0.14475395429E+02 -0.62440952351E+03  0.62973817012E+03  0.79392811552E+02 0.  0.
         25    2    1    2    0    0  0.17150575692E+03  0.22285342569E+03  0.44193559802E+03  0.53852577401E+03  0.12500024991E+03 0.  0.
         24    2    1    2    0    0 -0.37339281830E+02  0.39962080732E+02  0.60193371242E+03  0.60935865935E+03  0.77476394601E+02 0.  0.
        -13    1    3    3    0    0  0.27051649352E+02 -0.93377312326E+01 -0.44096039242E+03  0.44188805442E+03  0.00000000000E+00 0.  1.
         14    1    3    3    0    0 -0.40095968340E+02 -0.51376641968E+01 -0.18344913110E+03  0.18785011570E+03  0.00000000000E+00 0. -1.
        -13    1    5    5    0    0  0.86561468245E+01 -0.10522393276E+02  0.25669127842E+02  0.29061207172E+02  0.00000000000E+00 0.  1.
         14    1    5    5    0    0 -0.45995428655E+02  0.50484474008E+02  0.57626458457E+03  0.58029745218E+03  0.00000000000E+00 0. -1.
          5    1    4    4  501    0  0.39020005953E+02  0.14954585460E+03  0.19556211297E+03  0.24930534195E+03  0.47000000000E+01 0. -1.
         -5    1    4    4    0  501  0.13248575097E+03  0.73307571086E+02  0.24637348504E+03  0.28922043206E+03  0.47000000000E+01 0. -1.
          1    1    1    2  502    0 -0.74490454273E+02 -0.65011539428E+02 -0.53339766498E+03  0.54248354541E+03  0.00000000000E+00 0. -1.
          1    1    1    2  503    0 -0.46631701834E+02 -0.18332857157E+03  0.14660872418E+04  0.14782407386E+04  0.00000000000E+00 0. -1.
<mgrwt>
<rscale>  0 0.11389179E+03</rscale>
<asrwt>0</asrwt>
<pdfrwt beam="1">  1        2 0.37871296E+00 0.13300000E+03</pdfrwt>
<pdfrwt beam="2">  1        2 0.17986746E+00 0.97528878E+02</pdfrwt>
<totfact> 0.15957183E+01</totfact>
</mgrwt>
</event>
<event>
13    1  0.1589573E-008  0.8720272E+02  0.7546771E-02  0.1376637E+00
          2   -1    0    0  502    0  0.00000000000E+00  0.00000000000E+00  0.88333850630E+03  0.88333850630E+03  0.00000000000E+00 0. -1.
          2   -1    0    0  503    0 -0.00000000000E+00 -0.00000000000E+00 -0.24818732283E+04  0.24818732283E+04  0.00000000000E+00 0. -1.
         24    2    1    2    0    0 -0.29218081547E+02  0.16892857464E+02 -0.92876346846E+03  0.93242530844E+03  0.75341293795E+02 0.  0.
         25    2    1    2    0    0  0.50018462162E+02 -0.10611388780E+03  0.25117490196E+03  0.30408608077E+03  0.12497003403E+03 0.  0.
         24    2    1    2    0    0 -0.10982297680E+03  0.24690884035E+02 -0.47007930250E+03  0.48997444490E+03  0.80185285608E+02 0.  0.
        -13    1    3    3    0    0 -0.14905455251E+02  0.45926853442E+02 -0.45426074871E+03  0.45681974156E+03  0.00000000000E+00 0.  1.
         14    1    3    3    0    0 -0.14312626296E+02 -0.29033995978E+02 -0.47450271975E+03  0.47560556688E+03  0.00000000000E+00 0. -1.
        -13    1    5    5    0    0 -0.59491897399E+02  0.24451578882E+02 -0.39086898789E+03  0.39612590330E+03  0.00000000000E+00 0.  1.
         14    1    5    5    0    0 -0.50331079405E+02  0.23930515343E+00 -0.79210314607E+02  0.93848541604E+02  0.00000000000E+00 0. -1.
          5    1    4    4  501    0  0.18263996723E+02 -0.73319497762E+02  0.24661071718E+03  0.25796949075E+03  0.47000000000E+01 0.  1.
         -5    1    4    4    0  501  0.31754465439E+02 -0.32794390033E+02  0.45641847790E+01  0.46116590027E+02  0.47000000000E+01 0.  1.
          1    1    1    2  502    0 -0.17568852555E+02  0.45723481256E+02  0.59010879761E+03  0.59213823921E+03  0.00000000000E+00 0. -1.
          1    1    1    2  503    0  0.10659144875E+03  0.18806665041E+02 -0.10409756506E+04  0.10465876613E+04  0.00000000000E+00 0. -1.
<mgrwt>
<rscale>  0 0.65356113E+02</rscale>
<asrwt>0</asrwt>
<pdfrwt beam="1">  1        2 0.12990272E+00 0.48982663E+02</pdfrwt>
<pdfrwt beam="2">  1        2 0.36498135E+00 0.87202721E+02</pdfrwt>
<totfact> 0.30012261E+01</totfact>
</mgrwt>
</event>
<event>
13    1  0.1589573E-008  0.1666780E+03  0.7546771E-02  0.1392612E+00
          2   -1    0    0  502    0  0.00000000000E+00  0.00000000000E+00  0.13197693689E+04  0.13197693689E+04  0.00000000000E+00 0. -1.
          2   -1    0    0  503    0 -0.00000000000E+00 -0.00000000000E+00 -0.12359702158E+04  0.12359702158E+04  0.00000000000E+00 0. -1.
         24    2    1    2    0    0  0.56865118953E+02 -0.10042486201E+03 -0.15902149614E+03  0.21218119135E+03  0.80088869786E+02 0.  0.
         25    2    1    2    0    0 -0.26391394262E+02 -0.15340123081E+03  0.58803412618E+03  0.62099686830E+03  0.12499813430E+03 0.  0.
         24    2    1    2    0    0  0.21086765177E+03  0.40006032646E+02  0.26935626260E+03  0.35283553224E+03  0.76645074228E+02 0.  0.
        -11    1    5    5    0    0  0.14158996579E+03 -0.75152580018E+01  0.19164524662E+03  0.23839483650E+03  0.00000000000E+00 0.  1.
         12    1    5    5    0    0  0.69277685973E+02  0.47521290648E+02  0.77711015973E+02  0.11444069574E+03  0.00000000000E+00 0. -1.
        -13    1    3    3    0    0 -0.62502507109E+01  0.86942438530E+00 -0.50431728872E+02  0.50825001818E+02  0.00000000000E+00 0.  1.
         14    1    3    3    0    0  0.63115369664E+02 -0.10129428640E+03 -0.10858976727E+03  0.16135618953E+03  0.00000000000E+00 0. -1.
          5    1    4    4  501    0  0.96214932346E+00 -0.24846401104E+02  0.33381843989E+03  0.33477620912E+03  0.47000000000E+01 0. -1.
         -5    1    4    4    0  501 -0.27353543585E+02 -0.12855482971E+03  0.25421568629E+03  0.28622065918E+03  0.47000000000E+01 0. -1.
          1    1    1    2  502    0 -0.12759552542E+02  0.18552233587E+02  0.35443906733E+03  0.35515354990E+03  0.00000000000E+00 0. -1.
          1    1    1    2  503    0 -0.22858182392E+03  0.19526782659E+03 -0.96900880685E+03  0.10145724430E+04  0.00000000000E+00 0. -1.
<mgrwt>
<rscale>  0 0.61261736E+02</rscale>
<asrwt>0</asrwt>
<pdfrwt beam="1">  1        2 0.19408373E+00 0.22516473E+02</pdfrwt>
<pdfrwt beam="2">  1        2 0.18176033E+00 0.16667799E+03</pdfrwt>
<totfact> 0.72328514E+01</totfact>
</mgrwt>
</event>
<event>
13    1  0.1589573E-008  0.5402916E+02  0.7546771E-02  0.1438346E+00
          2   -1    0    0  503    0  0.00000000000E+00  0.00000000000E+00  0.32647679336E+04  0.32647679336E+04  0.00000000000E+00 0. -1.
         -3   -1    0    0    0  501 -0.00000000000E+00 -0.00000000000E+00 -0.20289231152E+03  0.20289231152E+03  0.00000000000E+00 0.  1.
         24    2    1    2    0    0  0.56009635467E+02 -0.28525669626E+02  0.43584310377E+01  0.10235527319E+03  0.80664818447E+02 0.  0.
         25    2    1    2    0    0 -0.98409743492E+01 -0.41744793510E+02  0.49049228026E+03  0.50798311310E+03  0.12499877457E+03 0.  0.
         24    2    1    2    0    0  0.15091402013E+02 -0.12062728000E+02  0.17675568887E+04  0.17695026532E+04  0.80678530907E+02 0.  0.
        -11    1    5    5    0    0  0.35426606317E+02 -0.36609845919E+02  0.10367197227E+04  0.10379706685E+04  0.00000000000E+00 0.  1.
         12    1    5    5    0    0 -0.20335204304E+02  0.24547117920E+02  0.73083716595E+03  0.73153198472E+03  0.00000000000E+00 0. -1.
        -13    1    3    3    0    0  0.21673826906E+02 -0.42127846175E+02  0.31175967953E+02  0.56713765295E+02  0.00000000000E+00 0.  1.
         14    1    3    3    0    0  0.34335808560E+02  0.13602176548E+02 -0.26817536915E+02  0.45641507891E+02  0.00000000000E+00 0. -1.
          5    1    4    4  502    0  0.17957743866E+02 -0.51656038341E+02  0.46633882950E+03  0.46955811223E+03  0.47000000000E+01 0.  1.
         -5    1    4    4    0  502 -0.27798718215E+02  0.99112448317E+01  0.24153450756E+02  0.38425000871E+02  0.47000000000E+01 0.  1.
          1    1    1    2  503    0 -0.27829457614E+02  0.40023503349E+02  0.93794644532E+03  0.93921237951E+03  0.00000000000E+00 0. -1.
         -4    1    1    2    0  501 -0.33430605516E+02  0.42309687786E+02 -0.13847842320E+03  0.14860682608E+03  0.00000000000E+00 0.  1.
<mgrwt>
<rscale>  0 0.51320650E+02</rscale>
<asrwt>0</asrwt>
<pdfrwt beam="1">  1        2 0.48011290E+00 0.48747918E+02</pdfrwt>
<pdfrwt beam="2">  1       -3 0.29837107E-01 0.54029161E+02</pdfrwt>
<totfact> 0.14311064E+01</totfact>
</mgrwt>
</event>
<event>
13    1  0.1589573E-008  0.8261972E+02  0.7546771E-02  0.1336330E+00
         -1   -1    0    0    0  501 -0.00000000000E+00  0.00000000000E+00  0.60226464467E+03  0.60226464467E+03  0.00000000000E+00 0.  1.
          2   -1    0    0  503    0  0.00000000000E+00 -0.00000000000E+00 -0.16099907069E+04  0.16099907069E+04  0.00000000000E+00 0. -1.
         24    2    1    2    0    0 -0.30799196274E+02 -0.72051231337E+02  0.41332635280E+01  0.11472058788E+03  0.83688463893E+02 0.  0.
         25    2    1    2    0    0 -0.97855585457E+02  0.10153368821E+03  0.70996856393E+02  0.20137166530E+03  0.12500075408E+03 0.  0.
         24    2    1    2    0    0  0.44895121131E+02 -0.69856751364E+02 -0.16527107540E+03  0.20219682083E+03  0.81691421679E+02 0.  0.
        -13    1    3    3    0    0 -0.52845396091E+02 -0.75633203337E+02  0.20562157046E+01  0.92288923268E+02  0.00000000000E+00 0.  1.
         14    1    3    3    0    0  0.22046199817E+02  0.35819720000E+01  0.20770478235E+01  0.22431664616E+02  0.00000000000E+00 0. -1.
        -13    1    5    5    0    0  0.18485477690E+01 -0.70882727668E+02 -0.81652718021E+02  0.10814316701E+03  0.00000000000E+00 0.  1.
         14    1    5    5    0    0  0.43046573362E+02  0.10259763044E+01 -0.83618357383E+02  0.94053653820E+02  0.00000000000E+00 0. -1.
          5    1    4    4  502    0  0.22788644624E+02 -0.86297673230E+01  0.64090355086E+01  0.25631249365E+02  0.47000000000E+01 0. -1.
         -5    1    4    4    0  502 -0.12064423008E+03  0.11016345553E+03  0.64587820885E+02  0.17574041593E+03  0.47000000000E+01 0. -1.
          1    1    1    2  503    0  0.61082630188E+02 -0.39382761263E+02 -0.13003214700E+04  0.13023509569E+04  0.00000000000E+00 0. -1.
         -2    1    1    2    0  501  0.22677030412E+02  0.79757055758E+02  0.38273636323E+03  0.39161532068E+03  0.00000000000E+00 0.  1.
<mgrwt>
<rscale>  0 0.77489577E+02</rscale>
<asrwt>0</asrwt>
<pdfrwt beam="2">  1        2 0.23676334E+00 0.72677986E+02</pdfrwt>
<pdfrwt beam="1">  1       -1 0.88568331E-01 0.82619717E+02</pdfrwt>
<totfact> 0.22999586E+01</totfact>
</mgrwt>
</event>
<event>
13    1  0.1589573E-008  0.3477225E+03  0.7546771E-02  0.1148865E+00
          2   -1    0    0  503    0  0.00000000000E+00  0.00000000000E+00  0.24521384512E+04  0.24521384512E+04  0.00000000000E+00 0. -1.
          2   -1    0    0  502    0 -0.00000000000E+00 -0.00000000000E+00 -0.55200307617E+03  0.55200307617E+03  0.00000000000E+00 0. -1.
         24    2    1    2    0    0 -0.11966486829E+02  0.19778245209E+02 -0.21208254633E+03  0.22864452688E+03  0.82249239639E+02 0.  0.
         25    2    1    2    0    0  0.39376935064E+03  0.16112463424E+03  0.58802275888E+03  0.73648520424E+03  0.12499696732E+03 0.  0.
         24    2    1    2    0    0 -0.50230634751E+02 -0.29292421971E+03  0.47891741521E+03  0.56947848975E+03  0.81339686116E+02 0.  0.
        -11    1    3    3    0    0  0.75156608412E+01  0.40364915572E+02 -0.18479094349E+03  0.18929739661E+03  0.00000000000E+00 0.  1.
         12    1    3    3    0    0 -0.19482147670E+02 -0.20586670363E+02 -0.27291602836E+02  0.39347130262E+02  0.00000000000E+00 0. -1.
        -11    1    5    5    0    0 -0.24979897684E+02 -0.26540481251E+03  0.44649229445E+03  0.52001834467E+03  0.00000000000E+00 0.  1.
         12    1    5    5    0    0 -0.25250737067E+02 -0.27519407200E+02  0.32425120765E+02  0.49460145084E+02  0.00000000000E+00 0. -1.
          5    1    4    4  501    0  0.23734449851E+03  0.15971593381E+03  0.35837606177E+03  0.45858159813E+03  0.47000000000E+01 0. -1.
         -5    1    4    4    0  501  0.15642485213E+03  0.14087004365E+01  0.22964669710E+03  0.27790360611E+03  0.47000000000E+01 0. -1.
          1    1    1    2  502    0 -0.87654125913E+02 -0.13802114566E+03 -0.15144989688E+03  0.22286801858E+03  0.00000000000E+00 0. -1.
          1    1    1    2  503    0 -0.24391810315E+03  0.25004248592E+03  0.11967276442E+04  0.12466652879E+04  0.00000000000E+00 0. -1.
<mgrwt>
<rscale>  0 0.20103993E+03</rscale>
<asrwt>0</asrwt>
<pdfrwt beam="1">  1        2 0.36060859E+00 0.34772255E+03</pdfrwt>
<pdfrwt beam="2">  1        2 0.81176924E-01 0.11623363E+03</pdfrwt>
<totfact> 0.44019231E+01</totfact>
</mgrwt>
</event>
<event>
13    1  0.1589573E-008  0.5840125E+02  0.7546771E-02  0.1433170E+00
          2   -1    0    0  503    0  0.00000000000E+00  0.00000000000E+00  0.19428986894E+04  0.19428986894E+04  0.00000000000E+00 0. -1.
          2   -1    0    0  502    0 -0.00000000000E+00 -0.00000000000E+00 -0.10659466892E+04  0.10659466892E+04  0.00000000000E+00 0. -1.
         24    2    1    2    0    0  0.12106867814E+03 -0.33055049086E+02  0.20619042363E+03  0.25314359036E+03  0.76268771095E+02 0.  0.
         25    2    1    2    0    0 -0.84019170774E+02 -0.10339008550E+03  0.41663825127E+02  0.18737608365E+03  0.12500076625E+03 0.  0.
         24    2    1    2    0    0 -0.86881465343E+02  0.16177701293E+03  0.70983606379E+03  0.73782201385E+03  0.82425091587E+02 0.  0.
        -11    1    5    5    0    0  0.12217479716E+02  0.15836003098E+01  0.59129706104E+02  0.60399476360E+02  0.00000000000E+00 0.  1.
         12    1    5    5    0    0 -0.99098945059E+02  0.16019341262E+03  0.65070635769E+03  0.67742253749E+03  0.00000000000E+00 0. -1.
        -13    1    3    3    0    0  0.39715403031E+02 -0.33353090643E+02  0.32128035862E+02  0.61007807547E+02  0.00000000000E+00 0.  1.
         14    1    3    3    0    0  0.81353275111E+02  0.29804155669E+00  0.17406238777E+03  0.19213578281E+03  0.00000000000E+00 0. -1.
          5    1    4    4  501    0 -0.32314607686E+01 -0.55999396369E+02 -0.34969834492E+02  0.66267292512E+02  0.47000000000E+01 0.  1.
         -5    1    4    4    0  501 -0.80787710005E+02 -0.47390689133E+02  0.76633659620E+02  0.12110879114E+03  0.47000000000E+01 0.  1.
          1    1    1    2  502    0 -0.47416196586E+01 -0.46647595854E+02 -0.95406373520E+03  0.95521520715E+03  0.00000000000E+00 0. -1.
          1    1    1    2  503    0  0.54573577633E+02  0.21315717513E+02  0.87332542290E+03  0.87528848358E+03  0.00000000000E+00 0. -1.
<mgrwt>
<rscale>  0 0.52328919E+02</rscale>
<asrwt>0</asrwt>
<pdfrwt beam="1">  1        2 0.28572040E+00 0.58401250E+02</pdfrwt>
<pdfrwt beam="2">  1        2 0.15675687E+00 0.46887964E+02</pdfrwt>
<totfact> 0.45106371E+01</totfact>
</mgrwt>
</event>
<event>
13    1  0.1589573E-008  0.9537669E+02  0.7546771E-02  0.1344061E+00
          2   -1    0    0  502    0  0.00000000000E+00  0.00000000000E+00  0.17266986771E+03  0.17266986771E+03  0.00000000000E+00 0. -1.
          2   -1    0    0  503    0 -0.00000000000E+00 -0.00000000000E+00 -0.39074337268E+04  0.39074337268E+04  0.00000000000E+00 0. -1.
         24    2    1    2    0    0  0.87089023060E+02  0.13394569799E+03 -0.30128356019E+02  0.18053419468E+03  0.78478848524E+02 0.  0.
         25    2    1    2    0    0 -0.91962724835E+02 -0.16279068760E+03 -0.42924291924E+03  0.48459564800E+03  0.12500203044E+03 0.  0.
         24    2    1    2    0    0  0.30818455246E+02 -0.40706208204E+02 -0.12932449348E+02  0.95979334613E+02  0.80237222388E+02 0.  0.
        -11    1    3    3    0    0  0.82715626980E+00  0.35617333657E+01  0.16889284267E+02  0.17280568715E+02  0.00000000000E+00 0.  1.
         12    1    3    3    0    0  0.86261866790E+02  0.13038396462E+03 -0.47017640286E+02  0.16325362597E+03  0.00000000000E+00 0. -1.
        -13    1    5    5    0    0  0.47507633562E+02  0.20437699931E+01 -0.15503820153E+02  0.50015204506E+02  0.00000000000E+00 0.  1.
         14    1    5    5    0    0 -0.16689178316E+02 -0.42749978197E+02  0.25713708050E+01  0.45964130107E+02  0.00000000000E+00 0. -1.
          5    1    4    4  501    0 -0.48128021779E+02 -0.14377134112E+03 -0.40137398048E+03  0.42908002425E+03  0.47000000000E+01 0. -1.
         -5    1    4    4    0  501 -0.43834703056E+02 -0.19019346472E+02 -0.27868938764E+02  0.55515623747E+02  0.47000000000E+01 0. -1.
          1    1    1    2  502    0 -0.83235354483E+02  0.55962171394E+02 -0.61835722752E+02  0.11782845782E+03  0.00000000000E+00 0. -1.
          1    1    1    2  503    0  0.57290601012E+02  0.13589026418E+02 -0.32006244117E+04  0.32011659594E+04  0.00000000000E+00 0. -1.
<mgrwt>
<rscale>  0 0.74938615E+02</rscale>
<asrwt>0</asrwt>
<pdfrwt beam="1">  1        2 0.25392626E-01 0.95376693E+02</pdfrwt>
<pdfrwt beam="2">  1        2 0.57462264E+00 0.58880172E+02</pdfrwt>
<totfact> 0.30235929E+01</totfact>
</mgrwt>
</event>
<event>
13    1  0.1589573E-008  0.1114774E+03  0.7546771E-02  0.1272638E+00
          2   -1    0    0  502    0  0.00000000000E+00  0.00000000000E+00  0.18917990534E+04  0.18917990534E+04  0.00000000000E+00 0. -1.
          2   -1    0    0  503    0 -0.00000000000E+00 -0.00000000000E+00 -0.14936117139E+04  0.14936117139E+04  0.00000000000E+00 0. -1.
         24    2    1    2    0    0  0.18312507274E+02  0.14690794333E+02 -0.97441029318E+03  0.97800341787E+03  0.80399617855E+02 0.  0.
         25    2    1    2    0    0  0.10612099212E+03  0.87609092028E+02 -0.18204553601E+03  0.26019581669E+03  0.12499707142E+03 0.  0.
         24    2    1    2    0    0 -0.12591353973E+03 -0.21338365320E+03  0.19298351768E+03  0.32384925615E+03  0.79049982106E+02 0.  0.
        -11    1    3    3    0    0 -0.18273924917E+02  0.36496538270E+02 -0.43229734511E+03  0.43421990768E+03  0.00000000000E+00 0.  1.
         12    1    3    3    0    0  0.36586432190E+02 -0.21805743937E+02 -0.54211294807E+03  0.54378351019E+03  0.00000000000E+00 0. -1.
        -13    1    5    5    0    0 -0.13927900554E+02  0.14372017504E+01  0.26276995198E+02  0.29774694614E+02  0.00000000000E+00 0.  1.
         14    1    5    5    0    0 -0.11198563918E+03 -0.21482085495E+03  0.16670652248E+03  0.29407456154E+03  0.00000000000E+00 0. -1.
          5    1    4    4  501    0  0.27588596399E+02  0.92188498004E+02 -0.14253142323E+03  0.17203821210E+03  0.47000000000E+01 0.  1.
         -5    1    4    4    0  501  0.78532395721E+02 -0.45794059760E+01 -0.39514112777E+02  0.88157604580E+02  0.47000000000E+01 0.  1.
          1    1    1    2  502    0 -0.90859389040E+02  0.64631235025E+02  0.15788747701E+04  0.15828070523E+04  0.00000000000E+00 0. -1.
          1    1    1    2  503    0  0.92339429380E+02  0.46452531812E+02 -0.21721511912E+03  0.24055522423E+03  0.00000000000E+00 0. -1.
<mgrwt>
<rscale>  0 0.10373203E+03</rscale>
<asrwt>0</asrwt>
<pdfrwt beam="1">  1        2 0.27820575E+00 0.11147737E+03</pdfrwt>
<pdfrwt beam="2">  1        2 0.21964878E+00 0.96524838E+02</pdfrwt>
<totfact> 0.25749268E+01</totfact>
</mgrwt>
</event>
<event>
13    1  0.1589573E-008  0.6258564E+02  0.7546771E-02  0.1436949E+00
         -1   -1    0    0    0  501 -0.00000000000E+00  0.00000000000E+00  0.17633099855E+04  0.17633099855E+04  0.00000000000E+00 0.  1.
          2   -1    0    0  503    0  0.00000000000E+00 -0.00000000000E+00 -0.29076169214E+04  0.29076169214E+04  0.00000000000E+00 0. -1.
         24    2    1    2    0    0 -0.36174310120E+03  0.22565128455E+03  0.33265513004E+03  0.54922745787E+03  0.95993705285E+02 0.  0.
         25    2    1    2    0    0  0.26895919084E+03 -0.11726566981E+03 -0.32235516918E+01  0.31894314332E+03  0.12499621485E+03 0.  0.
         24    2    1    2    0    0  0.11790250658E+03 -0.14807069602E+02 -0.17464399763E+04  0.17523145351E+04  0.80208407706E+02 0.  0.
        -11    1    3    3    0    0 -0.55755494365E+02  0.57537522795E+02  0.10641496647E+03  0.13320430462E+03  0.00000000000E+00 0.  1.
         12    1    3    3    0    0 -0.30598760683E+03  0.16811376176E+03  0.22624016357E+03  0.41602315325E+03  0.00000000000E+00 0. -1.
        -13    1    5    5    0    0 -0.92756182535E+01 -0.55452609445E+01 -0.53589596314E+02  0.54668380679E+02  0.00000000000E+00 0.  1.
         14    1    5    5    0    0  0.12717812483E+03 -0.92618086576E+01 -0.16928503800E+04  0.16976461544E+04  0.00000000000E+00 0. -1.
          5    1    4    4  502    0  0.16993738892E+03 -0.28193544811E+02 -0.47082260912E+02  0.17864048089E+03  0.47000000000E+01 0.  1.
         -5    1    4    4    0  502  0.99021801927E+02 -0.89072125003E+02  0.43858709220E+02  0.14030266243E+03  0.47000000000E+01 0.  1.
          1    1    1    2  503    0  0.38185310145E+01 -0.62415371511E+02 -0.88738028347E+03  0.88958081548E+03  0.00000000000E+00 0. -1.
         -2    1    1    2    0  501 -0.28937127241E+02 -0.31163173627E+02  0.11600817456E+04  0.11608609551E+04  0.00000000000E+00 0.  1.
<mgrwt>
<rscale>  0 0.51590178E+02</rscale>
<asrwt>0</asrwt>
<pdfrwt beam="2">  1        2 0.42759072E+00 0.62585641E+02</pdfrwt>
<pdfrwt beam="1">  1       -1 0.25931030E+00 0.42526471E+02</pdfrwt>
<totfact> 0.34202875E-01</totfact>
</mgrwt>
</event>
<event>
13    1  0.1589573E-008  0.1796080E+03  0.7546771E-02  0.1175343E+00
          2   -1    0    0  502    0  0.00000000000E+00  0.00000000000E+00  0.74763990832E+03  0.74763990832E+03  0.00000000000E+00 0. -1.
          2   -1    0    0  503    0 -0.00000000000E+00 -0.00000000000E+00 -0.25398569072E+04  0.25398569072E+04  0.00000000000E+00 0. -1.
         24    2    1    2    0    0  0.26119169219E+03 -0.95048368924E+02 -0.28185631811E+03  0.40374446714E+03  0.79443805147E+02 0.  0.
         25    2    1    2    0    0 -0.30449426862E+03  0.18013191255E+03 -0.26978090993E+03  0.46213587170E+03  0.12499423591E+03 0.  0.
         24    2    1    2    0    0  0.66857527405E+02 -0.29178504546E+02  0.17655241373E+03  0.20771927957E+03  0.81579594334E+02 0.  0.
        -13    1    5    5    0    0  0.32955504557E+02 -0.46147037440E+02  0.49971071235E+02  0.75582552917E+02  0.00000000000E+00 0.  1.
         14    1    5    5    0    0  0.33902022848E+02  0.16968532894E+02  0.12658134250E+03  0.13213672665E+03  0.00000000000E+00 0. -1.
        -13    1    3    3    0    0  0.25179697044E+03 -0.10180793821E+03 -0.28284012402E+03  0.39212894098E+03  0.00000000000E+00 0.  1.
         14    1    3    3    0    0  0.93947217588E+01  0.67595692823E+01  0.98380590138E+00  0.11615526155E+02  0.00000000000E+00 0. -1.
          5    1    4    4  501    0 -0.29727750611E+02  0.90916545339E+00  0.91881806198E+01  0.31481397703E+02  0.47000000000E+01 0.  1.
         -5    1    4    4    0  501 -0.27476651801E+03  0.17922274709E+03 -0.27896909055E+03  0.43065447400E+03  0.47000000000E+01 0.  1.
          1    1    1    2  502    0  0.14589522227E+03 -0.11721687721E+03  0.37162327111E+03  0.41608781262E+03  0.00000000000E+00 0. -1.
          1    1    1    2  503    0 -0.16945017325E+03  0.61311838133E+02 -0.17887554557E+04  0.17978093845E+04  0.00000000000E+00 0. -1.
<mgrwt>
<rscale>  0 0.17242417E+03</rscale>
<asrwt>0</asrwt>
<pdfrwt beam="1">  1        2 0.10994705E+00 0.16552763E+03</pdfrwt>
<pdfrwt beam="2">  1        2 0.37350837E+00 0.17960805E+03</pdfrwt>
<totfact> 0.29989982E+01</totfact>
</mgrwt>
</event>
<event>
13    1  0.1589573E-008  0.1221276E+03  0.7546771E-02  0.1307031E+00
          2   -1    0    0  502    0  0.00000000000E+00  0.00000000000E+00  0.26589635467E+04  0.26589635467E+04  0.00000000000E+00 0. -1.
          2   -1    0    0  503    0 -0.00000000000E+00 -0.00000000000E+00 -0.41327428048E+04  0.41327428048E+04  0.00000000000E+00 0. -1.
         24    2    1    2    0    0 -0.26281748622E+01  0.29934795442E+03 -0.10455726154E+03  0.32696864603E+03  0.79750670399E+02 0.  0.
         25    2    1    2    0    0 -0.30508222779E+03  0.21348149207E+03 -0.67985925307E+03  0.78516442271E+03  0.12500021410E+03 0.  0.
         24    2    1    2    0    0  0.34099012064E+03 -0.56187001336E+03 -0.32950318764E+02  0.66314934429E+03  0.81909431963E+02 0.  0.
        -11    1    3    3    0    0 -0.36253884279E+02  0.14997356696E+03 -0.72764179399E+02  0.17059027145E+03  0.00000000000E+00 0.  1.
         12    1    3    3    0    0  0.33625709417E+02  0.14937438746E+03 -0.31793082137E+02  0.15637837458E+03  0.00000000000E+00 0. -1.
        -13    1    5    5    0    0  0.19525374457E+03 -0.38606203551E+03 -0.14717194021E+01  0.43263158228E+03  0.00000000000E+00 0.  1.
         14    1    5    5    0    0  0.14573637606E+03 -0.17580797785E+03 -0.31478599362E+02  0.23051776201E+03  0.00000000000E+00 0. -1.
          5    1    4    4  501    0 -0.95157164684E+02  0.33888441643E+01 -0.15016159510E+03  0.17786782986E+03  0.47000000000E+01 0. -1.
         -5    1    4    4    0  501 -0.20992506311E+03  0.21009264790E+03 -0.52969765797E+03  0.60729659284E+03  0.47000000000E+01 0. -1.
          1    1    1    2  502    0  0.22951721428E+02 -0.59567650080E+02  0.21782195681E+04  0.21791547841E+04  0.00000000000E+00 0. -1.
          1    1    1    2  503    0 -0.56231439410E+02  0.10860821695E+03 -0.28346319928E+04  0.28372691544E+04  0.00000000000E+00 0. -1.
<mgrwt>
<rscale>  0 0.88296002E+02</rscale>
<asrwt>0</asrwt>
<pdfrwt beam="1">  1        2 0.39102405E+00 0.63836404E+02</pdfrwt>
<pdfrwt beam="2">  1        2 0.60775629E+00 0.12212756E+03</pdfrwt>
<totfact> 0.41470212E-01</totfact>
</mgrwt>
</event>
<event>
13    1  0.1589573E-008  0.1315306E+03  0.7546771E-02  0.1333426E+00
          2   -1    0    0  503    0  0.00000000000E+00  0.00000000000E+00  0.14303803141E+04  0.14303803141E+04  0.00000000000E+00 0. -1.
          2   -1    0    0  502    0 -0.00000000000E+00 -0.00000000000E+00 -0.91550115826E+03  0.91550115826E+03  0.00000000000E+00 0. -1.
         24    2    1    2    0    0 -0.11914860126E+03 -0.92072194090E+01 -0.29706661641E+02  0.14757668456E+03  0.81334064258E+02 0.  0.
         25    2    1    2    0    0 -0.49975119935E+02 -0.95039800421E+02  0.68307367398E+03  0.70266957209E+03  0.12499922872E+03 0.  0.
         24    2    1    2    0    0  0.10762911234E+03  0.18730480449E+03  0.22623891036E+02  0.23140304918E+03  0.79802350297E+02 0.  0.
        -11    1    5    5    0    0  0.80187395012E+01  0.14301987313E+02 -0.21416765047E+02  0.26972668563E+02  0.00000000000E+00 0.  1.
         12    1    5    5    0    0  0.99610372843E+02  0.17300281718E+03  0.44040656083E+02  0.20443038061E+03  0.00000000000E+00 0. -1.
        -11    1    3    3    0    0 -0.10172344091E+03  0.22426475474E+02 -0.37352405801E+02  0.11066077649E+03  0.00000000000E+00 0.  1.
         12    1    3    3    0    0 -0.17425160341E+02 -0.31633694883E+02  0.76457441599E+01  0.36915908070E+02  0.00000000000E+00 0. -1.
          5    1    4    4  501    0 -0.19040119007E+02 -0.11035638549E+03  0.62481804684E+03  0.63479188685E+03  0.47000000000E+01 0.  1.
         -5    1    4    4    0  501 -0.30935000928E+02  0.15316585067E+02  0.58255627138E+02  0.67877685241E+02  0.47000000000E+01 0.  1.
          1    1    1    2  502    0  0.98353077692E+02 -0.11193650341E+03 -0.70386420102E+03  0.71946363506E+03  0.00000000000E+00 0. -1.
          1    1    1    2  503    0 -0.36858468844E+02  0.28878718748E+02  0.54275245351E+03  0.54476853150E+03  0.00000000000E+00 0. -1.
<mgrwt>
<rscale>  0 0.78478298E+02</rscale>
<asrwt>0</asrwt>
<pdfrwt beam="1">  1        2 0.21035005E+00 0.46824429E+02</pdfrwt>
<pdfrwt beam="2">  1        2 0.13463252E+00 0.13153056E+03</pdfrwt>
<totfact> 0.93169295E+01</totfact>
</mgrwt>
</event>
<event>
13    1  0.1589573E-008  0.6506235E+02  0.7546771E-02  0.1489952E+00
          2   -1    0    0  503    0  0.00000000000E+00  0.00000000000E+00  0.92528129854E+03  0.92528129854E+03  0.00000000000E+00 0. -1.
          2   -1    0    0  502    0 -0.00000000000E+00 -0.00000000000E+00 -0.14800158089E+04  0.14800158089E+04  0.00000000000E+00 0. -1.
         24    2    1    2    0    0  0.25702228421E+02  0.13042737012E+03 -0.14344157579E+03  0.21260678852E+03  0.83392190520E+02 0.  0.
         25    2    1    2    0    0  0.11227660335E+02 -0.11848899670E+03  0.22744263537E+03  0.28551897941E+03  0.12500093010E+03 0.  0.
         24    2    1    2    0    0  0.13889514827E+02  0.23985556819E+02 -0.75315725617E+02  0.11407176726E+03  0.81065923808E+02 0.  0.
        -11    1    5    5    0    0 -0.84207759186E+00  0.52613982143E+02 -0.38734312373E+02  0.65339782419E+02  0.00000000000E+00 0.  1.
         12    1    5    5    0    0  0.14731592419E+02 -0.28628425324E+02 -0.36581413244E+02  0.48731984842E+02  0.00000000000E+00 0. -1.
        -13    1    3    3    0    0  0.33324955757E+02  0.11240091634E+03 -0.15139467417E+03  0.19148071975E+03  0.00000000000E+00 0.  1.
         14    1    3    3    0    0 -0.76227273353E+01  0.18026453779E+02  0.79530983801E+01  0.21126068771E+02  0.00000000000E+00 0. -1.
          5    1    4    4  501    0 -0.43772210668E+02 -0.86761280507E+02  0.83829053805E+02  0.12842478921E+03  0.47000000000E+01 0.  1.
         -5    1    4    4    0  501  0.54999871004E+02 -0.31727716190E+02  0.14361358156E+03  0.15709419020E+03  0.47000000000E+01 0.  1.
          1    1    1    2  502    0 -0.64082107575E+02 -0.11396505208E+02 -0.11770439996E+04  0.11788422175E+04  0.00000000000E+00 0. -1.
          1    1    1    2  503    0  0.13262703991E+02 -0.24527425030E+02  0.61362415527E+03  0.61425735472E+03  0.00000000000E+00 0. -1.
<mgrwt>
<rscale>  0 0.42593086E+02</rscale>
<asrwt>0</asrwt>
<pdfrwt beam="1">  1        2 0.13607078E+00 0.27883578E+02</pdfrwt>
<pdfrwt beam="2">  1        2 0.21764938E+00 0.65062347E+02</pdfrwt>
<totfact> 0.90721362E+01</totfact>
</mgrwt>
</event>
<event>
13    1  0.1589573E-008  0.3950548E+02  0.7546771E-02  0.1556357E+00
          2   -1    0    0  503    0  0.00000000000E+00  0.00000000000E+00  0.71742715451E+03  0.71742715451E+03  0.00000000000E+00 0. -1.
          2   -1    0    0  502    0 -0.00000000000E+00 -0.00000000000E+00 -0.13479724924E+04  0.13479724924E+04  0.00000000000E+00 0. -1.
         24    2    1    2    0    0 -0.69490962266E+02 -0.10207788088E+03 -0.83234226475E+03  0.84518918047E+03  0.79386506980E+02 0.  0.
         25    2    1    2    0    0  0.39340936139E+02  0.61284642436E+02  0.34760711782E+03  0.37650941480E+03  0.12500045767E+03 0.  0.
         24    2    1    2    0    0  0.48625163119E+02  0.43089986532E+02 -0.34575825254E+02  0.10915014880E+03  0.80604676430E+02 0.  0.
        -11    1    3    3    0    0 -0.18633761498E+02  0.10829198994E+02 -0.17105924691E+03  0.17241158479E+03  0.00000000000E+00 0.  1.
         12    1    3    3    0    0 -0.50857200768E+02 -0.11290707988E+03 -0.66128301784E+03  0.67277759568E+03  0.00000000000E+00 0. -1.
        -13    1    5    5    0    0 -0.22542652501E+02  0.14013602631E+02 -0.11061326656E+02  0.28755959172E+02  0.00000000000E+00 0.  1.
         14    1    5    5    0    0  0.71167815621E+02  0.29076383901E+02 -0.23514498598E+02  0.80394189624E+02  0.00000000000E+00 0. -1.
          5    1    4    4  501    0 -0.18292286733E+02 -0.13103483886E+02  0.84218887708E+01  0.24481161213E+02  0.47000000000E+01 0. -1.
         -5    1    4    4    0  501  0.57633222872E+02  0.74388126323E+02  0.33918522905E+03  0.35202825358E+03  0.47000000000E+01 0. -1.
          1    1    1    2  502    0 -0.31208020523E+02  0.24320774608E+02 -0.42126520307E+03  0.42311914627E+03  0.00000000000E+00 0. -1.
          1    1    1    2  503    0  0.12732883530E+02 -0.26617522694E+02  0.31003083741E+03  0.31143175654E+03  0.00000000000E+00 0. -1.
<mgrwt>
<rscale>  0 0.34141741E+02</rscale>
<asrwt>0</asrwt>
<pdfrwt beam="1">  1        2 0.10550399E+00 0.29506251E+02</pdfrwt>
<pdfrwt beam="2">  1        2 0.19823125E+00 0.39505477E+02</pdfrwt>
<totfact> 0.14572227E+02</totfact>
</mgrwt>
</event>
<event>
13    1  0.1589573E-008  0.2779386E+03  0.7546771E-02  0.1190831E+00
          2   -1    0    0  502    0  0.00000000000E+00  0.00000000000E+00  0.25143298946E+04  0.25143298946E+04  0.00000000000E+00 0. -1.
          2   -1    0    0  503    0 -0.00000000000E+00 -0.00000000000E+00 -0.70828712099E+03  0.70828712099E+03  0.00000000000E+00 0. -1.
         24    2    1    2    0    0  0.15501012719E+03 -0.38775931332E+03  0.47705028460E+03  0.63912714013E+03  0.80753344258E+02 0.  0.
         25    2    1    2    0    0 -0.54146500481E+01  0.47107499288E+03  0.29825110074E+03  0.57141881190E+03  0.12499908859E+03 0.  0.
         24    2    1    2    0    0 -0.10656493185E+02 -0.57088873245E+01  0.19558719847E+02  0.60953912915E+02  0.56450719535E+02 0.  0.
        -13    1    5    5    0    0 -0.20218927550E+02 -0.93559994831E+01 -0.13701481102E+02  0.26154738423E+02  0.00000000000E+00 0.  1.
         14    1    5    5    0    0  0.95624343644E+01  0.36471121586E+01  0.33260200950E+02  0.34799174492E+02  0.00000000000E+00 0. -1.
        -13    1    3    3    0    0  0.68874944399E+02 -0.17820430692E+03  0.27933950073E+03  0.33842442235E+03  0.00000000000E+00 0.  1.
         14    1    3    3    0    0  0.86135182788E+02 -0.20955500640E+03  0.19771078387E+03  0.30070271778E+03  0.00000000000E+00 0. -1.
          5    1    4    4  501    0 -0.45129609148E+02  0.29840825328E+03  0.13574367376E+03  0.33095710026E+03  0.47000000000E+01 0. -1.
         -5    1    4    4    0  501  0.39714959100E+02  0.17266673960E+03  0.16250742698E+03  0.24046171164E+03  0.47000000000E+01 0. -1.
          1    1    1    2  502    0 -0.28163297754E+03 -0.45944063005E+02  0.14555864771E+04  0.14832936268E+04  0.00000000000E+00 0. -1.
          1    1    1    2  503    0  0.14269399358E+03 -0.31662729225E+02 -0.44440380872E+03  0.46782352381E+03  0.00000000000E+00 0. -1.
<mgrwt>
<rscale>  0 0.15812435E+03</rscale>
<asrwt>0</asrwt>
<pdfrwt beam="1">  1        2 0.36975439E+00 0.27793860E+03</pdfrwt>
<pdfrwt beam="2">  1        2 0.10415987E+00 0.89959838E+02</pdfrwt>
<totfact> 0.31847392E+01</totfact>
</mgrwt>
</event>
<event>
13    1  0.1589573E-008  0.1117441E+03  0.7546771E-02  0.1288273E+00
          2   -1    0    0  502    0  0.00000000000E+00  0.00000000000E+00  0.24335858549E+04  0.24335858549E+04  0.00000000000E+00 0. -1.
          2   -1    0    0  503    0 -0.00000000000E+00 -0.00000000000E+00 -0.11157526373E+04  0.11157526373E+04  0.00000000000E+00 0. -1.
         24    2    1    2    0    0 -0.30759567458E+02  0.98285337643E+01 -0.53948570074E+02  0.10175944001E+03  0.80011151417E+02 0.  0.
         25    2    1    2    0    0 -0.13668144120E+03  0.79042037225E+02  0.13148746459E+04  0.13302064576E+04  0.12499770085E+03 0.  0.
         24    2    1    2    0    0 -0.20303487615E+02  0.61319935243E+02  0.14028498187E+02  0.99831352893E+02  0.74813997297E+02 0.  0.
        -11    1    5    5    0    0  0.63548574381E+01  0.18609679400E+02 -0.28021959637E+02  0.34233530381E+02  0.00000000000E+00 0.  1.
         12    1    5    5    0    0 -0.26658345053E+02  0.42710255843E+02  0.42050457824E+02  0.65597822512E+02  0.00000000000E+00 0. -1.
        -13    1    3    3    0    0 -0.19672344203E+01 -0.31210829782E+02 -0.49559192177E+01  0.31663023264E+02  0.00000000000E+00 0.  1.
         14    1    3    3    0    0 -0.28792333038E+02  0.41039363546E+02 -0.48992650856E+02  0.70096416741E+02  0.00000000000E+00 0. -1.
          5    1    4    4  501    0 -0.16062145531E+03  0.66548381642E+02  0.11260472742E+04  0.11394000582E+04  0.47000000000E+01 0. -1.
         -5    1    4    4    0  501  0.23940014107E+02  0.12493655583E+02  0.18882737175E+03  0.19080639933E+03  0.47000000000E+01 0. -1.
          1    1    1    2  502    0  0.81146585960E+02 -0.17402494685E+02  0.10211720191E+04  0.10245388757E+04  0.00000000000E+00 0. -1.
          1    1    1    2  503    0  0.10659791031E+03 -0.13278801155E+03 -0.97829337551E+03  0.99300236609E+03  0.00000000000E+00 0. -1.
<mgrwt>
<rscale>  0 0.96300721E+02</rscale>
<asrwt>0</asrwt>
<pdfrwt beam="1">  1        2 0.35788027E+00 0.82991658E+02</pdfrwt>
<pdfrwt beam="2">  1        2 0.16408127E+00 0.11174411E+03</pdfrwt>
<totfact> 0.22606171E+01</totfact>
</mgrwt>
</event>
<event>
13    1  0.1589573E-008  0.1456476E+03  0.7546771E-02  0.1337446E+00
          2   -1    0    0  503    0  0.00000000000E+00  0.00000000000E+00  0.98891367742E+03  0.98891367742E+03  0.00000000000E+00 0. -1.
          2   -1    0    0  502    0 -0.00000000000E+00 -0.00000000000E+00 -0.17878447172E+04  0.17878447172E+04  0.00000000000E+00 0. -1.
         24    2    1    2    0    0 -0.10676605134E+03 -0.94609205445E+02 -0.22463871874E+03  0.27704989518E+03  0.77098631555E+02 0.  0.
         25    2    1    2    0    0  0.10120496391E+03 -0.10529111808E+03  0.58272236615E+03  0.61361136595E+03  0.12499955262E+03 0.  0.
         24    2    1    2    0    0 -0.42503591801E+02  0.35976170112E+02 -0.41028961684E+02  0.10486414386E+03  0.78817972821E+02 0.  0.
        -13    1    5    5    0    0  0.13450192693E+02 -0.58908702003E+01  0.10487793844E+02  0.18044496527E+02  0.00000000000E+00 0.  1.
         14    1    5    5    0    0 -0.55953784494E+02  0.41867040312E+02 -0.51516755528E+02  0.86819647337E+02  0.00000000000E+00 0. -1.
        -13    1    3    3    0    0 -0.38536713167E+02 -0.80793827245E+02 -0.15228440391E+03  0.17664444644E+03  0.00000000000E+00 0.  1.
         14    1    3    3    0    0 -0.68229338177E+02 -0.13815378201E+02 -0.72354314830E+02  0.10040544874E+03  0.00000000000E+00 0. -1.
          5    1    4    4  501    0  0.40791599724E+02 -0.77003976464E+02  0.49843918049E+03  0.50602102095E+03  0.47000000000E+01 0. -1.
         -5    1    4    4    0  501  0.60413364187E+02 -0.28287141619E+02  0.84283185658E+02  0.10759034500E+03  0.47000000000E+01 0. -1.
          1    1    1    2  502    0  0.13769161759E+02  0.18607800350E+03 -0.14413198110E+04  0.14533469685E+04  0.00000000000E+00 0. -1.
          1    1    1    2  503    0  0.34295517476E+02 -0.22153850080E+02  0.32533408556E+03  0.32788602108E+03  0.00000000000E+00 0. -1.
<mgrwt>
<rscale>  0 0.77114130E+02</rscale>
<asrwt>0</asrwt>
<pdfrwt beam="1">  1        2 0.14542848E+00 0.40828612E+02</pdfrwt>
<pdfrwt beam="2">  1        2 0.26291834E+00 0.14564759E+03</pdfrwt>
<totfact> 0.54303830E+01</totfact>
</mgrwt>
</event>
<event>
13    1  0.1589573E-008  0.2708091E+03  0.7546771E-02  0.1208505E+00
          2   -1    0    0  503    0  0.00000000000E+00  0.00000000000E+00  0.17066647673E+04  0.17066647673E+04  0.00000000000E+00 0. -1.
          2   -1    0    0  502    0 -0.00000000000E+00 -0.00000000000E+00 -0.18491324893E+04  0.18491324893E+04  0.00000000000E+00 0. -1.
         24    2    1    2    0    0 -0.31804652493E+02  0.63244301956E+02 -0.63879402352E+03  0.64779169284E+03  0.81024040719E+02 0.  0.
         25    2    1    2    0    0  0.31073414890E+03  0.99826421547E+01  0.17280794168E+03  0.37702200036E+03  0.12501055798E+03 0.  0.
         24    2    1    2    0    0 -0.17692886285E+03 -0.33412097854E+03  0.20869947644E+03  0.43924717757E+03  0.80261826084E+02 0.  0.
        -11    1    5    5    0    0 -0.12620003649E+03 -0.26419280677E+03  0.12304432886E+03  0.31759123921E+03  0.00000000000E+00 0.  1.
         12    1    5    5    0    0 -0.50728826352E+02 -0.69928171769E+02  0.85655147578E+02  0.12165593835E+03  0.00000000000E+00 0. -1.
        -11    1    3    3    0    0 -0.48016248561E+02  0.70038729830E+02 -0.58666367894E+03  0.59277757717E+03  0.00000000000E+00 0.  1.
         12    1    3    3    0    0  0.16211596068E+02 -0.67944278744E+01 -0.52130344581E+02  0.55014115674E+02  0.00000000000E+00 0. -1.
          5    1    4    4  501    0  0.10012995396E+03 -0.18716302362E+02  0.12092354237E+03  0.15817996319E+03  0.47000000000E+01 0.  1.
         -5    1    4    4    0  501  0.21060419493E+03  0.28698944517E+02  0.51884399315E+02  0.21884203717E+03  0.47000000000E+01 0.  1.
          1    1    1    2  502    0 -0.76101807565E+02 -0.37694921226E+01 -0.97092002349E+03  0.97390522444E+03  0.00000000000E+00 0. -1.
          1    1    1    2  503    0 -0.25898825994E+02  0.26466352655E+03  0.10857389069E+04  0.11178311614E+04  0.00000000000E+00 0. -1.
<mgrwt>
<rscale>  0 0.14364654E+03</rscale>
<asrwt>0</asrwt>
<pdfrwt beam="1">  1        2 0.25098011E+00 0.27080912E+03</pdfrwt>
<pdfrwt beam="2">  1        2 0.27193125E+00 0.76195106E+02</pdfrwt>
<totfact> 0.20209442E+01</totfact>
</mgrwt>
</event>
<event>
13    1  0.1589573E-008  0.1305445E+03  0.7546771E-02  0.1378544E+00
          2   -1    0    0  503    0  0.00000000000E+00  0.00000000000E+00  0.81055068269E+03  0.81055068269E+03  0.00000000000E+00 0. -1.
          2   -1    0    0  502    0 -0.00000000000E+00 -0.00000000000E+00 -0.48109081244E+03  0.48109081244E+03  0.00000000000E+00 0. -1.
         24    2    1    2    0    0  0.12585332503E+03  0.68698076503E+02  0.11763989834E+03  0.20224593838E+03  0.80658469960E+02 0.  0.
         25    2    1    2    0    0  0.26770728092E+02  0.60298035926E+02  0.42372108330E+03  0.44667346146E+03  0.12500039889E+03 0.  0.
         24    2    1    2    0    0 -0.39654822244E+02 -0.29627933293E+02 -0.55239319835E+01  0.95991115734E+02  0.82057669459E+02 0.  0.
        -11    1    3    3    0    0  0.33931385429E+02  0.62834129825E+02  0.62469271195E+02  0.94878220007E+02  0.00000000000E+00 0.  1.
         12    1    3    3    0    0  0.91921939601E+02  0.58639466789E+01  0.55170627140E+02  0.10736771838E+03  0.00000000000E+00 0. -1.
        -11    1    5    5    0    0 -0.12645837906E+02  0.28730743731E+02  0.58340130366E+00  0.31396069957E+02  0.00000000000E+00 0.  1.
         12    1    5    5    0    0 -0.27008984338E+02 -0.58358677025E+02 -0.61073332872E+01  0.64595045777E+02  0.00000000000E+00 0. -1.
          5    1    4    4  501    0  0.11051910802E+01 -0.20673644457E+02  0.27121259901E+03  0.27204224835E+03  0.47000000000E+01 0. -1.
         -5    1    4    4    0  501  0.25665537011E+02  0.80971680383E+02  0.15250848428E+03  0.17463121311E+03  0.47000000000E+01 0. -1.
          1    1    1    2  502    0 -0.92239261726E+02 -0.12402513149E+03 -0.35893987076E+03  0.39080448496E+03  0.00000000000E+00 0. -1.
          1    1    1    2  503    0 -0.20729969152E+02  0.24656952355E+02  0.15256269136E+03  0.15592649459E+03  0.00000000000E+00 0. -1.
<mgrwt>
<rscale>  0 0.64848050E+02</rscale>
<asrwt>0</asrwt>
<pdfrwt beam="1">  1        2 0.11919863E+00 0.32213303E+02</pdfrwt>
<pdfrwt beam="2">  1        2 0.70748649E-01 0.13054450E+03</pdfrwt>
<totfact> 0.42767032E+02</totfact>
</mgrwt>
</event>
<event>
13    1  0.1589573E-008  0.9245973E+02  0.7546771E-02  0.1404885E+00
          2   -1    0    0  503    0  0.00000000000E+00  0.00000000000E+00  0.75785537172E+03  0.75785537172E+03  0.00000000000E+00 0. -1.
         -1   -1    0    0    0  501 -0.00000000000E+00 -0.00000000000E+00 -0.34148440036E+03  0.34148440036E+03  0.00000000000E+00 0.  1.
         24    2    1    2    0    0 -0.21909762170E+02 -0.91920807617E+02  0.24815724842E+02  0.12600453667E+03  0.79572925745E+02 0.  0.
         25    2    1    2    0    0  0.49377693228E+02  0.94710709338E+02 -0.61918565001E+02  0.17568843310E+03  0.12499696709E+03 0.  0.
         24    2    1    2    0    0  0.36293439363E+02 -0.11313178480E+02  0.80343244448E+02  0.11932434898E+03  0.79611943719E+02 0.  0.
        -11    1    5    5    0    0  0.29301102396E+02  0.31131948906E+02  0.54026401668E+02  0.68895608870E+02  0.00000000000E+00 0.  1.
         12    1    5    5    0    0  0.69923369669E+01 -0.42445127386E+02  0.26316842780E+02  0.50428740109E+02  0.00000000000E+00 0. -1.
        -13    1    3    3    0    0 -0.33868494813E+02 -0.93604675042E+02  0.39410415626E+02  0.10706115538E+03  0.00000000000E+00 0.  1.
         14    1    3    3    0    0  0.11958732642E+02  0.16838674249E+01 -0.14594690784E+02  0.18943381298E+02  0.00000000000E+00 0. -1.
          5    1    4    4  502    0  0.13634214436E+02  0.41733295874E+02  0.37148317396E+02  0.57703095871E+02  0.47000000000E+01 0. -1.
         -5    1    4    4    0  502  0.35743478792E+02  0.52977413464E+02 -0.99066882397E+02  0.11798533723E+03  0.47000000000E+01 0. -1.
          1    1    1    2  503    0  0.35116620004E+02 -0.11086978634E+02  0.50833988536E+03  0.50967198976E+03  0.00000000000E+00 0. -1.
         -2    1    1    2    0  501 -0.98877990424E+02  0.19610255393E+02 -0.13520931829E+03  0.16865046356E+03  0.00000000000E+00 0.  1.
<mgrwt>
<rscale>  0 0.58351106E+02</rscale>
<asrwt>0</asrwt>
<pdfrwt beam="1">  1        2 0.11144932E+00 0.36825237E+02</pdfrwt>
<pdfrwt beam="2">  1       -1 0.50218294E-01 0.92459734E+02</pdfrwt>
<totfact> 0.20276283E+02</totfact>
</mgrwt>
</event>
<event>
13    1  0.1589573E-008  0.1548958E+03  0.7546771E-02  0.1231891E+00
          2   -1    0    0  503    0  0.00000000000E+00  0.00000000000E+00  0.42908690947E+04  0.42908690947E+04  0.00000000000E+00 0. -1.
         -3   -1    0    0    0  501 -0.00000000000E+00 -0.00000000000E+00 -0.34011240347E+03  0.34011240347E+03  0.00000000000E+00 0.  1.
         24    2    1    2    0    0 -0.22485395000E+02 -0.97896244612E+01  0.37238219506E+02  0.95148907572E+02  0.84054743380E+02 0.  0.
         25    2    1    2    0    0 -0.26495244893E+03 -0.69536239863E+02  0.10173894714E+04  0.10610089867E+04  0.12499457751E+03 0.  0.
         24    2    1    2    0    0 -0.16625667487E+02  0.74088730466E+02  0.16514246466E+03  0.19934383298E+03  0.81855832490E+02 0.  0.
        -11    1    5    5    0    0 -0.52596391749E+01  0.90463300664E+02  0.12351480055E+03  0.15319000792E+03  0.00000000000E+00 0.  1.
         12    1    5    5    0    0 -0.11366028313E+02 -0.16374570197E+02  0.41627664112E+02  0.46153825065E+02  0.00000000000E+00 0. -1.
        -13    1    3    3    0    0 -0.18443450277E+02  0.26129635902E+02 -0.11919864867E+02  0.34132124296E+02  0.00000000000E+00 0.  1.
         14    1    3    3    0    0 -0.40419447238E+01 -0.35919260363E+02  0.49158084373E+02  0.61016783276E+02  0.00000000000E+00 0. -1.
          5    1    4    4  502    0 -0.44492800467E+02 -0.47946051061E+02  0.12083887456E+03  0.13748656920E+03  0.47000000000E+01 0. -1.
         -5    1    4    4    0  502 -0.22045964846E+03 -0.21590188802E+02  0.89655059684E+03  0.92352241746E+03  0.47000000000E+01 0. -1.
          1    1    1    2  503    0  0.16806673039E+03  0.41490802949E+02  0.29823631764E+04  0.29873831406E+04  0.00000000000E+00 0. -1.
         -4    1    1    2    0  501  0.13599678103E+03 -0.36253669092E+02 -0.25137664070E+03  0.28809663042E+03  0.00000000000E+00 0.  1.
<mgrwt>
<rscale>  0 0.12705549E+03</rscale>
<asrwt>0</asrwt>
<pdfrwt beam="1">  1        2 0.63101013E+00 0.15489577E+03</pdfrwt>
<pdfrwt beam="2">  1       -3 0.50016532E-01 0.10421911E+03</pdfrwt>
<totfact> 0.10066291E+00</totfact>
</mgrwt>
</event>
<event>
13    1  0.1589573E-008  0.1156330E+03  0.7546771E-02  0.1420823E+00
          2   -1    0    0  502    0  0.00000000000E+00  0.00000000000E+00  0.22763351721E+04  0.22763351721E+04  0.00000000000E+00 0. -1.
          2   -1    0    0  503    0 -0.00000000000E+00 -0.00000000000E+00 -0.19693939618E+04  0.19693939618E+04  0.00000000000E+00 0. -1.
         24    2    1    2    0    0 -0.59415625024E+02 -0.74766095544E+02 -0.54602520048E+03  0.55947472635E+03  0.75817308901E+02 0.  0.
         25    2    1    2    0    0 -0.80217739476E+02  0.65703998192E+03  0.53007994587E+03  0.85717247299E+03  0.12499390332E+03 0.  0.
         24    2    1    2    0    0  0.21929824588E+02 -0.56470638150E+03  0.12457609495E+04  0.13703288492E+04  0.80663482328E+02 0.  0.
        -11    1    5    5    0    0 -0.17169276220E+02 -0.37830658050E+03  0.77766911230E+03  0.86497393089E+03  0.00000000000E+00 0.  1.
         12    1    5    5    0    0  0.39099100808E+02 -0.18639980100E+03  0.46809183715E+03  0.50535491836E+03  0.00000000000E+00 0. -1.
        -13    1    3    3    0    0  0.83338132485E+01  0.85378243934E+01 -0.99883291479E+02  0.10059333380E+03  0.00000000000E+00 0.  1.
         14    1    3    3    0    0 -0.67749438273E+02 -0.83303919937E+02 -0.44614190900E+03  0.45888139255E+03  0.00000000000E+00 0. -1.
          5    1    4    4  501    0  0.99005082939E+01  0.30369002603E+03  0.18918834273E+03  0.35796643837E+03  0.47000000000E+01 0.  1.
         -5    1    4    4    0  501 -0.90118247770E+02  0.35334995589E+03  0.34089160314E+03  0.49920603462E+03  0.47000000000E+01 0.  1.
          1    1    1    2  502    0 -0.20737632965E+02 -0.15708022450E+02  0.26327158345E+03  0.26455380935E+03  0.00000000000E+00 0. -1.
          1    1    1    2  503    0  0.13844117288E+03 -0.18594824265E+01 -0.11861460680E+04  0.11941992759E+04  0.00000000000E+00 0. -1.
<mgrwt>
<rscale>  0 0.54847226E+02</rscale>
<asrwt>0</asrwt>
<pdfrwt beam="1">  1        2 0.33475517E+00 0.26015215E+02</pdfrwt>
<pdfrwt beam="2">  1        2 0.28961676E+00 0.11563303E+03</pdfrwt>
<totfact> 0.11652122E+01</totfact>
</mgrwt>
</event>
<event>
13    1  0.1589573E-008  0.2275457E+03  0.7546771E-02  0.1169010E+00
          2   -1    0    0  502    0  0.00000000000E+00  0.00000000000E+00  0.27115650391E+04  0.27115650391E+04  0.00000000000E+00 0. -1.
          2   -1    0    0  503    0 -0.00000000000E+00 -0.00000000000E+00 -0.17282227576E+04  0.17282227576E+04  0.00000000000E+00 0. -1.
         24    2    1    2    0    0 -0.12538077622E+03 -0.72403803343E+02 -0.44565776420E+03  0.47544888345E+03  0.80486944295E+02 0.  0.
         25    2    1    2    0    0  0.14486890010E+03 -0.23005331498E+02  0.35133988373E+03  0.40072552919E+03  0.12499996942E+03 0.  0.
         24    2    1    2    0    0 -0.20324901240E+02  0.20113655331E+03  0.13398122474E+03  0.25597904185E+03  0.81885814397E+02 0.  0.
        -11    1    3    3    0    0 -0.26585636942E+02  0.17430046821E+02 -0.98105360363E+02  0.10312741806E+03  0.00000000000E+00 0.  1.
         12    1    3    3    0    0 -0.98795139277E+02 -0.89833850164E+02 -0.34755240384E+03  0.37232146539E+03  0.00000000000E+00 0. -1.
        -11    1    5    5    0    0 -0.40661691058E+02  0.16014971701E+03  0.12964011129E+03  0.21001872162E+03  0.00000000000E+00 0.  1.
         12    1    5    5    0    0  0.20336789818E+02  0.40986836295E+02  0.43411134531E+01  0.45960320230E+02  0.00000000000E+00 0. -1.
          5    1    4    4  501    0  0.85072146519E+02  0.40914957276E+02  0.11624503355E+03  0.14982089864E+03  0.47000000000E+01 0. -1.
         -5    1    4    4    0  501  0.59796753585E+02 -0.63920288774E+02  0.23509485018E+03  0.25090463056E+03  0.47000000000E+01 0. -1.
          1    1    1    2  502    0  0.10749446505E+03  0.90365160346E+02  0.21127656926E+04  0.21174276361E+04  0.00000000000E+00 0. -1.
          1    1    1    2  503    0 -0.10665768769E+03 -0.19609257881E+03 -0.11690867553E+04  0.11902067061E+04  0.00000000000E+00 0. -1.
<mgrwt>
<rscale>  0 0.17875826E+03</rscale>
<asrwt>0</asrwt>
<pdfrwt beam="1">  1        2 0.39875957E+00 0.14043120E+03</pdfrwt>
<pdfrwt beam="2">  1        2 0.25415040E+00 0.22754571E+03</pdfrwt>
<totfact> 0.70191631E+00</totfact>
</mgrwt>
</event>
<event>
13    1  0.1589573E-008  0.2194260E+03  0.7546771E-02  0.1328332E+00
          2   -1    0    0  503    0  0.00000000000E+00  0.00000000000E+00  0.25775798939E+04  0.25775798939E+04  0.00000000000E+00 0. -1.
          2   -1    0    0  502    0 -0.00000000000E+00 -0.00000000000E+00 -0.78290865564E+03  0.78290865564E+03  0.00000000000E+00 0. -1.
         24    2    1    2    0    0  0.10394243172E+03  0.36228692213E+03  0.54885809356E+02  0.39023476311E+03  0.84940421524E+02 0.  0.
         25    2    1    2    0    0  0.14054035914E+03 -0.61040388501E+03  0.20808867770E+03  0.67176702225E+03  0.12500215602E+03 0.  0.
         24    2    1    2    0    0 -0.56985111558E+02 -0.67121897534E+02  0.42728218462E+03  0.44360756589E+03  0.80404944817E+02 0.  0.
        -11    1    5    5    0    0 -0.54596152866E+01 -0.63136147157E+02  0.29183188573E+03  0.29863327009E+03  0.00000000000E+00 0.  1.
         12    1    5    5    0    0 -0.51525496271E+02 -0.39857503764E+01  0.13545029889E+03  0.14497429580E+03  0.00000000000E+00 0. -1.
        -11    1    3    3    0    0 -0.14042135018E+02  0.28201568127E+02  0.10237364359E+02  0.33125724591E+02  0.00000000000E+00 0.  1.
         12    1    3    3    0    0  0.11798456674E+03  0.33408535401E+03  0.44648444997E+02  0.35710903852E+03  0.00000000000E+00 0. -1.
          5    1    4    4  501    0  0.11697921711E+03 -0.60067145158E+03  0.19258031020E+03  0.64156028233E+03  0.47000000000E+01 0.  1.
         -5    1    4    4    0  501  0.23561142033E+02 -0.97324334327E+01  0.15508367501E+02  0.30206739927E+02  0.47000000000E+01 0.  1.
          1    1    1    2  502    0  0.14314985446E+02 -0.25625141910E+02 -0.34809104840E+03  0.34932641566E+03  0.00000000000E+00 0. -1.
          1    1    1    2  503    0 -0.20181266475E+03  0.34086400232E+03  0.14525056149E+04  0.15055527826E+04  0.00000000000E+00 0. -1.
<mgrwt>
<rscale>  0 0.80253919E+02</rscale>
<asrwt>0</asrwt>
<pdfrwt beam="1">  1        2 0.37905586E+00 0.21942598E+03</pdfrwt>
<pdfrwt beam="2">  1        2 0.11513363E+00 0.29352457E+02</pdfrwt>
<totfact> 0.28051344E+01</totfact>
</mgrwt>
</event>
<event>
13    1  0.1589573E-008  0.6035642E+02  0.7546771E-02  0.1503257E+00
          2   -1    0    0  503    0  0.00000000000E+00  0.00000000000E+00  0.16291770839E+04  0.16291770839E+04  0.00000000000E+00 0. -1.
         -1   -1    0    0    0  501 -0.00000000000E+00 -0.00000000000E+00 -0.39321564972E+03  0.39321564972E+03  0.00000000000E+00 0.  1.
         24    2    1    2    0    0  0.50867365685E+02  0.41813710866E+02 -0.13811099736E+03  0.17369413031E+03  0.82213916121E+02 0.  0.
         25    2    1    2    0    0 -0.13262654710E+03 -0.57667917104E+02  0.45659002903E+03  0.49498299662E+03  0.12497328783E+03 0.  0.
         24    2    1    2    0    0  0.23542772744E+01 -0.17435035772E+02  0.15439583852E+03  0.17449219915E+03  0.79372095340E+02 0.  0.
        -11    1    3    3    0    0  0.60733011450E+02  0.97400439963E+01 -0.49536440030E+02  0.78976110488E+02  0.00000000000E+00 0.  1.
         12    1    3    3    0    0 -0.98656457656E+01  0.32073666870E+02 -0.88574557326E+02  0.94718019819E+02  0.00000000000E+00 0. -1.
        -13    1    5    5    0    0  0.64282846120E+01 -0.42599401917E+02  0.13704121023E+03  0.14365348999E+03  0.00000000000E+00 0.  1.
         14    1    5    5    0    0 -0.40740073376E+01  0.25164366145E+02  0.17354628288E+02  0.30838709154E+02  0.00000000000E+00 0. -1.
          5    1    4    4  502    0 -0.13082076578E+03 -0.11612709040E+02  0.40429110743E+03  0.42511447555E+03  0.47000000000E+01 0. -1.
         -5    1    4    4    0  502 -0.18057813102E+01 -0.46055208064E+02  0.52298921598E+02  0.69868521068E+02  0.47000000000E+01 0. -1.
          1    1    1    2  503    0  0.52171492140E+02  0.30096082346E+02  0.96931281456E+03  0.97118225438E+03  0.00000000000E+00 0. -1.
         -2    1    1    2    0  501  0.27233411996E+02  0.31931596641E+01 -0.20622625055E+03  0.20804115317E+03  0.00000000000E+00 0.  1.
<mgrwt>
<rscale>  0 0.40681340E+02</rscale>
<asrwt>0</asrwt>
<pdfrwt beam="1">  1        2 0.23958486E+00 0.60356417E+02</pdfrwt>
<pdfrwt beam="2">  1       -1 0.57825831E-01 0.27419974E+02</pdfrwt>
<totfact> 0.53352339E+01</totfact>
</mgrwt>
</event>
<event>
13    1  0.1589573E-008  0.7161594E+02  0.7546771E-02  0.1456091E+00
          2   -1    0    0  502    0  0.00000000000E+00  0.00000000000E+00  0.36479504833E+04  0.36479504833E+04  0.00000000000E+00 0. -1.
          2   -1    0    0  503    0 -0.00000000000E+00 -0.00000000000E+00 -0.21424187102E+04  0.21424187102E+04  0.00000000000E+00 0. -1.
         24    2    1    2    0    0 -0.59689796667E+03  0.44697098734E+03  0.63435094873E+03  0.98234857868E+03  0.80853928463E+02 0.  0.
         25    2    1    2    0    0 -0.23389691359E+02 -0.53550452129E+03  0.11090385001E+04  0.12381046730E+04  0.12499846637E+03 0.  0.
         24    2    1    2    0    0  0.64989872437E+03  0.57064336888E+02  0.16171981066E+02  0.65513321224E+03  0.57561291910E+02 0.  0.
        -11    1    5    5    0    0  0.52203704983E+03  0.43551299109E+02  0.35788465931E+02  0.52507162497E+03  0.00000000000E+00 0.  1.
         12    1    5    5    0    0  0.12786167454E+03  0.13513037779E+02 -0.19616484865E+02  0.13006158728E+03  0.00000000000E+00 0. -1.
        -13    1    3    3    0    0 -0.28549944631E+03  0.23362309659E+03  0.36225777256E+03  0.51703034619E+03  0.00000000000E+00 0.  1.
         14    1    3    3    0    0 -0.31139852036E+03  0.21334789075E+03  0.27209317617E+03  0.46531823249E+03  0.00000000000E+00 0. -1.
          5    1    4    4  501    0 -0.50469394565E+01  0.25025329536E+01  0.28404189234E+01  0.78671626856E+01  0.47000000000E+01 0. -1.
         -5    1    4    4    0  501 -0.18342751902E+02 -0.53800705424E+03  0.11061980812E+04  0.12302375103E+04  0.47000000000E+01 0. -1.
          1    1    1    2  502    0  0.31797861044E+02 -0.53993438927E+01  0.13293713297E+04  0.13297625311E+04  0.00000000000E+00 0. -1.
          1    1    1    2  503    0 -0.61408927392E+02  0.36868540956E+02 -0.15834009864E+04  0.15850201985E+04  0.00000000000E+00 0. -1.
<mgrwt>
<rscale>  0 0.48060690E+02</rscale>
<asrwt>0</asrwt>
<pdfrwt beam="1">  1        2 0.53646330E+00 0.32253014E+02</pdfrwt>
<pdfrwt beam="2">  1        2 0.31506158E+00 0.71615941E+02</pdfrwt>
<totfact> 0.19747129E+00</totfact>
</mgrwt>
</event>
<event>
13    1  0.1589573E-008  0.1204400E+03  0.7546771E-02  0.1252156E+00
          2   -1    0    0  502    0  0.00000000000E+00  0.00000000000E+00  0.15310513341E+04  0.15310513341E+04  0.00000000000E+00 0. -1.
          2   -1    0    0  503    0 -0.00000000000E+00 -0.00000000000E+00 -0.15303785181E+04  0.15303785181E+04  0.00000000000E+00 0. -1.
         24    2    1    2    0    0 -0.22956017604E+03  0.31900818247E+03 -0.20160559589E+03  0.44902501337E+03  0.80712771154E+02 0.  0.
         25    2    1    2    0    0  0.23057377350E+02 -0.23947969051E+01  0.76783776536E+03  0.77829082209E+03  0.12499756855E+03 0.  0.
         24    2    1    2    0    0  0.17310031679E+03 -0.25376929646E+03  0.15641267928E+03  0.35397637237E+03  0.80447314789E+02 0.  0.
        -11    1    5    5    0    0 -0.88440470243E+01 -0.11748629908E+02  0.58769681416E+01  0.15836231465E+02  0.00000000000E+00 0.  1.
         12    1    5    5    0    0  0.18194436381E+03 -0.24202066655E+03  0.15053571114E+03  0.33814014090E+03  0.00000000000E+00 0. -1.
        -13    1    3    3    0    0 -0.27739937861E+02  0.10048882410E+02 -0.29876699478E+02  0.41989300565E+02  0.00000000000E+00 0.  1.
         14    1    3    3    0    0 -0.20182023818E+03  0.30895930006E+03 -0.17172889641E+03  0.40703571280E+03  0.00000000000E+00 0. -1.
          5    1    4    4  501    0 -0.49352332456E+00  0.30611296011E+02  0.68732070483E+03  0.68801826741E+03  0.47000000000E+01 0.  1.
         -5    1    4    4    0  501  0.23550900675E+02 -0.33006092916E+02  0.80517060526E+02  0.90272554677E+02  0.47000000000E+01 0.  1.
          1    1    1    2  502    0 -0.87261500762E+02 -0.65616158779E+02  0.36782037598E+03  0.38368200218E+03  0.00000000000E+00 0. -1.
          1    1    1    2  503    0  0.12066398266E+03  0.27720696705E+01 -0.10897924087E+04  0.10964556422E+04  0.00000000000E+00 0. -1.
<mgrwt>
<rscale>  0 0.11467136E+03</rscale>
<asrwt>0</asrwt>
<pdfrwt beam="1">  1        2 0.22515461E+00 0.10917898E+03</pdfrwt>
<pdfrwt beam="2">  1        2 0.22505566E+00 0.12044004E+03</pdfrwt>
<totfact> 0.36461143E+01</totfact>
</mgrwt>
</event>
<event>
13    1  0.1589573E-008  0.9340944E+02  0.7546771E-02  0.1370899E+00
          2   -1    0    0  503    0  0.00000000000E+00  0.00000000000E+00  0.69531334010E+03  0.69531334010E+03  0.00000000000E+00 0. -1.
          2   -1    0    0  502    0 -0.00000000000E+00 -0.00000000000E+00 -0.42070073085E+04  0.42070073085E+04  0.00000000000E+00 0. -1.
         24    2    1    2    0    0  0.70451658746E+02  0.23965634287E+02 -0.33756654620E+03  0.35489826156E+03  0.80397855044E+02 0.  0.
         25    2    1    2    0    0 -0.13657773247E+03 -0.31076872214E+02 -0.99099283216E+03  0.10086236745E+04  0.12504269001E+03 0.  0.
         24    2    1    2    0    0  0.14582219851E+02  0.77488514831E+01 -0.43803063445E+03  0.44610458307E+03  0.82859981236E+02 0.  0.
        -11    1    5    5    0    0 -0.86142896759E+01  0.38584871291E+02 -0.13634025700E+03  0.14195655659E+03  0.00000000000E+00 0.  1.
         12    1    5    5    0    0  0.23196509527E+02 -0.30836019808E+02 -0.30169037744E+03  0.30414802648E+03  0.00000000000E+00 0. -1.
        -13    1    3    3    0    0  0.56572024708E+02  0.52034037626E+02 -0.21258097427E+03  0.22605000702E+03  0.00000000000E+00 0.  1.
         14    1    3    3    0    0  0.13879634039E+02 -0.28068403339E+02 -0.12498557193E+03  0.12884825454E+03  0.00000000000E+00 0. -1.
          5    1    4    4  501    0 -0.86592199200E+01  0.21397623592E+02 -0.43643722552E+03  0.43707251367E+03  0.47000000000E+01 0.  1.
         -5    1    4    4    0  501 -0.12791851255E+03 -0.52474495806E+02 -0.55455560664E+03  0.57155116080E+03  0.47000000000E+01 0.  1.
          1    1    1    2  502    0 -0.37070491997E+02 -0.30397258183E+02 -0.24154179167E+04  0.24158936084E+04  0.00000000000E+00 0. -1.
          1    1    1    2  503    0  0.88614345865E+02  0.29759644627E+02  0.67031396118E+03  0.67680052105E+03  0.00000000000E+00 0. -1.
<mgrwt>
<rscale>  0 0.66918014E+02</rscale>
<asrwt>0</asrwt>
<pdfrwt beam="1">  1        2 0.10225196E+00 0.93409444E+02</pdfrwt>
<pdfrwt beam="2">  1        2 0.61867753E+00 0.47939698E+02</pdfrwt>
<totfact> 0.45072506E+00</totfact>
</mgrwt>
</event>
<event>
13    1  0.1589573E-008  0.1101475E+03  0.7546771E-02  0.1266392E+00
          2   -1    0    0  502    0  0.00000000000E+00  0.00000000000E+00  0.30667871882E+04  0.30667871882E+04  0.00000000000E+00 0. -1.
          2   -1    0    0  503    0 -0.00000000000E+00 -0.00000000000E+00 -0.75702445660E+03  0.75702445660E+03  0.00000000000E+00 0. -1.
         24    2    1    2    0    0 -0.16781521630E+03 -0.13704903763E+02  0.65432576255E+01  0.18186687248E+03  0.68432257566E+02 0.  0.
         25    2    1    2    0    0  0.20886120831E+03  0.22684985665E+03  0.23424174010E+04  0.23659306995E+04  0.12499973008E+03 0.  0.
         24    2    1    2    0    0 -0.17692529417E+02  0.19447371981E+02 -0.30243963676E+03  0.31455662549E+03  0.82370570479E+02 0.  0.
        -11    1    3    3    0    0 -0.54782320352E+02  0.25972068686E+02  0.12587545873E+02  0.61920087905E+02  0.00000000000E+00 0.  1.
         12    1    3    3    0    0 -0.11303289595E+03 -0.39676972449E+02 -0.60442882479E+01  0.11994678458E+03  0.00000000000E+00 0. -1.
        -11    1    5    5    0    0  0.29916443660E+02  0.24017010359E+02 -0.14712743013E+03  0.15204700288E+03  0.00000000000E+00 0.  1.
         12    1    5    5    0    0 -0.47608973078E+02 -0.45696383781E+01 -0.15531220664E+03  0.16250962262E+03  0.00000000000E+00 0. -1.
          5    1    4    4  501    0  0.18626664431E+03  0.16048694484E+03  0.14457804750E+04  0.14665451217E+04  0.47000000000E+01 0. -1.
         -5    1    4    4    0  501  0.22594563993E+02  0.66362911808E+02  0.89663692605E+03  0.89938557779E+03  0.47000000000E+01 0. -1.
          1    1    1    2  502    0  0.21478725713E+02 -0.10829306539E+03  0.59457992736E+03  0.60474293191E+03  0.00000000000E+00 0. -1.
          1    1    1    2  503    0 -0.44832188300E+02 -0.12429925948E+03 -0.33133821765E+03  0.35671451539E+03  0.00000000000E+00 0. -1.
<mgrwt>
<rscale>  0 0.10691499E+03</rscale>
<asrwt>0</asrwt>
<pdfrwt beam="1">  1        2 0.45099811E+00 0.11014755E+03</pdfrwt>
<pdfrwt beam="2">  1        2 0.11132713E+00 0.10377731E+03</pdfrwt>
<totfact> 0.16970919E+01</totfact>
</mgrwt>
</event>
<event>
13    1  0.1589573E-008  0.1325308E+03  0.7546771E-02  0.1310632E+00
          2   -1    0    0  502    0  0.00000000000E+00  0.00000000000E+00  0.31275043342E+04  0.31275043342E+04  0.00000000000E+00 0. -1.
          2   -1    0    0  503    0 -0.00000000000E+00 -0.00000000000E+00 -0.35159975628E+04  0.35159975628E+04  0.00000000000E+00 0. -1.
         24    2    1    2    0    0 -0.53166245396E+02 -0.28117707296E+02 -0.20770174566E+03  0.22988049089E+03  0.78024161838E+02 0.  0.
         25    2    1    2    0    0  0.52309941303E+02 -0.17730021529E+02  0.62155954740E+03  0.63640374233E+03  0.12499107437E+03 0.  0.
         24    2    1    2    0    0 -0.25015926673E+00  0.13309947788E+03  0.18547580399E+03  0.24242505012E+03  0.81566521741E+02 0.  0.
        -11    1    3    3    0    0  0.10547514135E+02  0.15568658211E+02 -0.23240221284E+02  0.29895502308E+02  0.00000000000E+00 0.  1.
         12    1    3    3    0    0 -0.63713759531E+02 -0.43686365507E+02 -0.18446152437E+03  0.19998498858E+03  0.00000000000E+00 0. -1.
        -13    1    5    5    0    0  0.17563419450E+02  0.13629447725E+03  0.15659825069E+03  0.20834507518E+03  0.00000000000E+00 0.  1.
         14    1    5    5    0    0 -0.17813578717E+02 -0.31949993678E+01  0.28877553300E+02  0.34079974945E+02  0.00000000000E+00 0. -1.
          5    1    4    4  501    0  0.21686562141E+01  0.51064591106E+02  0.22403159730E+03  0.22983590260E+03  0.47000000000E+01 0.  1.
         -5    1    4    4    0  501  0.50141285089E+02 -0.68794612636E+02  0.39752795010E+03  0.40656783974E+03  0.47000000000E+01 0.  1.
          1    1    1    2  502    0  0.28345973580E+02  0.49372930219E+02  0.22716383138E+04  0.22723516033E+04  0.00000000000E+00 0. -1.
          1    1    1    2  503    0 -0.27239510220E+02 -0.13662467927E+03 -0.32594651482E+04  0.32624410103E+04  0.00000000000E+00 0. -1.
<mgrwt>
<rscale>  0 0.86862884E+02</rscale>
<asrwt>0</asrwt>
<pdfrwt beam="1">  1        2 0.45992711E+00 0.56931366E+02</pdfrwt>
<pdfrwt beam="2">  1        2 0.51705846E+00 0.13253082E+03</pdfrwt>
<totfact> 0.59799948E-01</totfact>
</mgrwt>
</event>
<event>
13    1  0.1589573E-008  0.9718638E+02  0.7546771E-02  0.1288960E+00
          2   -1    0    0  503    0  0.00000000000E+00  0.00000000000E+00  0.23604132817E+04  0.23604132817E+04  0.00000000000E+00 0. -1.
          2   -1    0    0  502    0 -0.00000000000E+00 -0.00000000000E+00 -0.15670723917E+03  0.15670723917E+03  0.00000000000E+00 0. -1.
         24    2    1    2    0    0  0.13688821311E+02 -0.60985864523E+02 -0.61653114420E+02  0.11865390042E+03  0.79818431877E+02 0.  0.
         25    2    1    2    0    0  0.25247520722E+02  0.83330930633E+02  0.10218680958E+04  0.10331613820E+04  0.12500621883E+03 0.  0.
         24    2    1    2    0    0 -0.41851897453E+02  0.17865394512E+02  0.88247663209E+02  0.12803551925E+03  0.80837432450E+02 0.  0.
        -11    1    5    5    0    0 -0.31560292329E+02  0.48982030209E+02  0.44220456821E+02  0.73148753487E+02  0.00000000000E+00 0.  1.
         12    1    5    5    0    0 -0.10291605124E+02 -0.31116635696E+02  0.44027206388E+02  0.54886765759E+02  0.00000000000E+00 0. -1.
        -11    1    3    3    0    0  0.23733337028E+02 -0.71298907994E+02 -0.69413907048E+02  0.10229905209E+03  0.00000000000E+00 0.  1.
         12    1    3    3    0    0 -0.10044515717E+02  0.10313043471E+02  0.77607926286E+01  0.16354848328E+02  0.00000000000E+00 0. -1.
          5    1    4    4  501    0 -0.43305240190E+02  0.14719428459E+02  0.18282904371E+03  0.18852202689E+03  0.47000000000E+01 0. -1.
         -5    1    4    4    0  501  0.68552760912E+02  0.68611502174E+02  0.83903905212E+03  0.84463935513E+03  0.47000000000E+01 0. -1.
          1    1    1    2  502    0 -0.92808862154E+02 -0.29554791584E+02  0.21889329043E+02  0.99830422847E+02  0.00000000000E+00 0. -1.
          1    1    1    2  503    0  0.95724417574E+02 -0.10655669038E+02  0.11333540688E+04  0.11374392963E+04  0.00000000000E+00 0. -1.
<mgrwt>
<rscale>  0 0.95990887E+02</rscale>
<asrwt>0</asrwt>
<pdfrwt beam="1">  1        2 0.34711958E+00 0.94810104E+02</pdfrwt>
<pdfrwt beam="2">  1        2 0.23045184E-01 0.97186376E+02</pdfrwt>
<totfact> 0.21836526E+02</totfact>
</mgrwt>
</event>
<event>
13    1  0.1589573E-008  0.4981279E+02  0.7546771E-02  0.1563430E+00
          2   -1    0    0  503    0  0.00000000000E+00  0.00000000000E+00  0.12504558076E+04  0.12504558076E+04  0.00000000000E+00 0. -1.
          2   -1    0    0  502    0 -0.00000000000E+00 -0.00000000000E+00 -0.15383989044E+04  0.15383989044E+04  0.00000000000E+00 0. -1.
         24    2    1    2    0    0 -0.63105118214E+02  0.99247810279E+02 -0.40446009680E+03  0.42857553653E+03  0.79098905281E+02 0.  0.
         25    2    1    2    0    0  0.25124069924E+03 -0.17297160006E+02  0.75009596528E+03  0.80105548981E+03  0.12499943969E+03 0.  0.
         24    2    1    2    0    0 -0.19935671085E+03 -0.10954568930E+03 -0.55526139289E+03  0.60542782700E+03  0.80525046195E+02 0.  0.
        -11    1    3    3    0    0 -0.23174787198E+02  0.77798328068E+00 -0.23262502442E+02  0.32845396017E+02  0.00000000000E+00 0.  1.
         12    1    3    3    0    0 -0.39930331016E+02  0.98469826998E+02 -0.38119759436E+03  0.39573014051E+03  0.00000000000E+00 0. -1.
        -11    1    5    5    0    0 -0.10377472703E+03 -0.29451496315E+02 -0.33944631892E+03  0.35617465945E+03  0.00000000000E+00 0.  1.
         12    1    5    5    0    0 -0.95581983817E+02 -0.80094192986E+02 -0.21581507397E+03  0.24925316755E+03  0.00000000000E+00 0. -1.
          5    1    4    4  501    0  0.14804121170E+03 -0.36838950729E+02  0.59075605168E+03  0.61015417006E+03  0.47000000000E+01 0. -1.
         -5    1    4    4    0  501  0.10319948754E+03  0.19541790723E+02  0.15933991360E+03  0.19090131975E+03  0.47000000000E+01 0. -1.
          1    1    1    2  502    0  0.63633667414E+01  0.49436055290E+02 -0.51456578335E+03  0.51697423669E+03  0.00000000000E+00 0. -1.
          1    1    1    2  503    0  0.48577630825E+01 -0.21841016262E+02  0.43624821092E+03  0.43682162193E+03  0.00000000000E+00 0. -1.
<mgrwt>
<rscale>  0 0.33384830E+02</rscale>
<asrwt>0</asrwt>
<pdfrwt beam="1">  1        2 0.18389056E+00 0.22374715E+02</pdfrwt>
<pdfrwt beam="2">  1        2 0.22623513E+00 0.49812785E+02</pdfrwt>
<totfact> 0.59933748E+01</totfact>
</mgrwt>
</event>
<event>
13    1  0.2262748E-008  0.3461213E+02  0.7546771E-02  0.1610732E+00
          2   -1    0    0  503    0  0.00000000000E+00  0.00000000000E+00  0.34163109334E+04  0.34163109334E+04  0.00000000000E+00 0. -1.
          2   -1    0    0  502    0 -0.00000000000E+00 -0.00000000000E+00 -0.35040194771E+04  0.35040194771E+04  0.00000000000E+00 0. -1.
         24    2    1    2    0    0  0.87142002271E+03 -0.15457990207E+04  0.42749959541E+03  0.18265328316E+04  0.67814543646E+02 0.  0.
         25    2    1    2    0    0 -0.11522884148E+04  0.42013954180E+03 -0.98527696970E+03  0.15781894204E+04  0.12500125688E+03 0.  0.
         24    2    1    2    0    0  0.24592357593E+03  0.11500427166E+04  0.37625792699E+03  0.12367691682E+04  0.70365422637E+02 0.  0.
        -11    1    3    3    0    0  0.41714451358E+03 -0.76564986634E+03  0.24240510014E+03  0.90498038410E+03  0.00000000000E+00 0.  1.
         12    1    3    3    0    0  0.45427550914E+03 -0.78014915440E+03  0.18509449527E+03  0.92155244750E+03  0.00000000000E+00 0. -1.
        -13    1    5    5    0    0  0.78274555561E+02  0.23021708987E+03  0.75919728928E+02  0.25473637305E+03  0.00000000000E+00 0.  1.
         14    1    5    5    0    0  0.16764902036E+03  0.91982562672E+03  0.30033819806E+03  0.98203279518E+03  0.00000000000E+00 0. -1.
          5    1    4    4  501    0 -0.36921750625E+03  0.19631723248E+03 -0.34816820347E+03  0.54415550222E+03  0.47000000000E+01 0.  1.
         -5    1    4    4    0  501 -0.78307090859E+03  0.22382230933E+03 -0.63710876623E+03  0.10340339182E+04  0.47000000000E+01 0.  1.
          1    1    1    2  502    0  0.34610957397E+02 -0.27734616345E+00 -0.10921173668E+04  0.10926657028E+04  0.00000000000E+00 0. -1.
          1    1    1    2  503    0  0.33385880402E+00 -0.24105891480E+02  0.11859282704E+04  0.11861732875E+04  0.00000000000E+00 0. -1.
<mgrwt>
<rscale>  0 0.28886612E+02</rscale>
<asrwt>0</asrwt>
<pdfrwt beam="1">  1        2 0.50239867E+00 0.24108203E+02</pdfrwt>
<pdfrwt beam="2">  1        2 0.51529698E+00 0.34612134E+02</pdfrwt>
<totfact> 0.64914162E-01</totfact>
</mgrwt>
</event>
<event>
13    1  0.1589573E-008  0.3239824E+02  0.7546771E-02  0.1592459E+00
          2   -1    0    0  503    0  0.00000000000E+00  0.00000000000E+00  0.22310403631E+04  0.22310403631E+04  0.00000000000E+00 0. -1.
          2   -1    0    0  502    0 -0.00000000000E+00 -0.00000000000E+00 -0.62091057029E+03  0.62091057029E+03  0.00000000000E+00 0. -1.
         24    2    1    2    0    0  0.49301320997E+02 -0.45156497660E+02  0.25095289095E+02  0.10865786026E+03  0.81896443935E+02 0.  0.
         25    2    1    2    0    0 -0.36781439043E+02  0.15229461173E+03  0.11262368936E+04  0.11439318960E+04  0.12499647692E+03 0.  0.
         24    2    1    2    0    0  0.16033912197E+02 -0.67073547536E+02  0.38761878053E+02  0.11276059604E+03  0.80352484149E+02 0.  0.
        -11    1    3    3    0    0  0.20526315814E+02  0.18450676065E+02  0.27285324556E+02  0.38810385520E+02  0.00000000000E+00 0.  1.
         12    1    3    3    0    0  0.28775005183E+02 -0.63607173725E+02 -0.21900354604E+01  0.69847474742E+02  0.00000000000E+00 0. -1.
        -11    1    5    5    0    0  0.40892883913E+02 -0.10750478766E+02  0.50862648157E+01  0.42587214492E+02  0.00000000000E+00 0.  1.
         12    1    5    5    0    0 -0.24858971716E+02 -0.56323068771E+02  0.33675613237E+02  0.70173381545E+02  0.00000000000E+00 0. -1.
          5    1    4    4  501    0  0.26484769639E+02  0.11612530639E+03  0.84510778023E+03  0.85347277638E+03  0.47000000000E+01 0. -1.
         -5    1    4    4    0  501 -0.63266208682E+02  0.36169305340E+02  0.28112911332E+03  0.29045911962E+03  0.47000000000E+01 0. -1.
          1    1    1    2  502    0 -0.30331346157E+02 -0.11377405240E+02 -0.53257350105E+03  0.53355784123E+03  0.00000000000E+00 0. -1.
          1    1    1    2  503    0  0.17775520059E+01 -0.28687161293E+02  0.95260923313E+03  0.95304273984E+03  0.00000000000E+00 0. -1.
<mgrwt>
<rscale>  0 0.30515504E+02</rscale>
<asrwt>0</asrwt>
<pdfrwt beam="1">  1        2 0.32809417E+00 0.28742180E+02</pdfrwt>
<pdfrwt beam="2">  1        2 0.91310378E-01 0.32398239E+02</pdfrwt>
<totfact> 0.68964029E+01</totfact>
</mgrwt>
</event>
<event>
13    1  0.1589573E-008  0.1605546E+03  0.7546771E-02  0.1206266E+00
          2   -1    0    0  503    0  0.00000000000E+00  0.00000000000E+00  0.15900882488E+04  0.15900882488E+04  0.00000000000E+00 0. -1.
          2   -1    0    0  502    0 -0.00000000000E+00 -0.00000000000E+00 -0.29422283965E+04  0.29422283965E+04  0.00000000000E+00 0. -1.
         24    2    1    2    0    0  0.98123766422E+02 -0.96284307168E+02 -0.13965222905E+04  0.14055434504E+04  0.79868276737E+02 0.  0.
         25    2    1    2    0    0 -0.28327909573E+03 -0.23641264359E+03  0.16654863117E+03  0.42367623849E+03  0.12500049755E+03 0.  0.
         24    2    1    2    0    0  0.48484232187E+02  0.13984651729E+03 -0.41155781371E+03  0.44473330021E+03  0.80623229404E+02 0.  0.
        -11    1    3    3    0    0 -0.93702349994E+01  0.55571098826E+01 -0.90275302679E+02  0.90930264753E+02  0.00000000000E+00 0.  1.
         12    1    3    3    0    0  0.10749400142E+03 -0.10184141705E+03 -0.13062469878E+04  0.13146131856E+04  0.00000000000E+00 0. -1.
        -11    1    5    5    0    0  0.67921899963E+02  0.12887913746E+03 -0.36809371214E+03  0.39587396666E+03  0.00000000000E+00 0.  1.
         12    1    5    5    0    0 -0.19437667777E+02  0.10967379833E+02 -0.43464101572E+02  0.48859333545E+02  0.00000000000E+00 0. -1.
          5    1    4    4  501    0 -0.28220762353E+03 -0.23415122833E+03  0.13360952695E+03  0.39030953895E+03  0.47000000000E+01 0. -1.
         -5    1    4    4    0  501 -0.10714721999E+01 -0.22614152675E+01  0.32939104210E+02  0.33366699535E+02  0.47000000000E+01 0. -1.
          1    1    1    2  502    0  0.12752683701E+03  0.32659926842E+02 -0.97499265415E+03  0.98383964172E+03  0.00000000000E+00 0. -1.
          1    1    1    2  503    0  0.91442601146E+01  0.16019050663E+03  0.12643839795E+04  0.12745240145E+04  0.00000000000E+00 0. -1.
<mgrwt>
<rscale>  0 0.14538164E+03</rscale>
<asrwt>0</asrwt>
<pdfrwt beam="1">  1        2 0.23383651E+00 0.16055461E+03</pdfrwt>
<pdfrwt beam="2">  1        2 0.43268065E+00 0.13164257E+03</pdfrwt>
<totfact> 0.64623295E+00</totfact>
</mgrwt>
</event>
<event>
13    1  0.1589573E-008  0.4022402E+03  0.7546771E-02  0.1219557E+00
          2   -1    0    0  503    0  0.00000000000E+00  0.00000000000E+00  0.29850807481E+04  0.29850807481E+04  0.00000000000E+00 0. -1.
          2   -1    0    0  502    0 -0.00000000000E+00 -0.00000000000E+00 -0.29757992736E+04  0.29757992736E+04  0.00000000000E+00 0. -1.
         24    2    1    2    0    0 -0.31442351960E+02  0.50874599283E+03 -0.90790101913E+03  0.10443631920E+04  0.81234903663E+02 0.  0.
         25    2    1    2    0    0  0.53601754863E+02 -0.19459962026E+03  0.13297207722E+04  0.13507488021E+04  0.12499133577E+03 0.  0.
         24    2    1    2    0    0 -0.44323186143E+01  0.34034684618E+02  0.14584548255E+03  0.16937436510E+03  0.78985856762E+02 0.  0.
        -11    1    5    5    0    0  0.29280239100E+02  0.13463392460E+02  0.11451371723E+03  0.11896212327E+03  0.00000000000E+00 0.  1.
         12    1    5    5    0    0 -0.33712557715E+02  0.20571292158E+02  0.31331765315E+02  0.50412241831E+02  0.00000000000E+00 0. -1.
        -13    1    3    3    0    0 -0.30861327218E+02  0.42480647861E+03 -0.81189792172E+03  0.91683760889E+03  0.00000000000E+00 0.  1.
         14    1    3    3    0    0 -0.58102474198E+00  0.83939514220E+02 -0.96003097404E+02  0.12752558311E+03  0.00000000000E+00 0. -1.
          5    1    4    4  501    0 -0.28719684920E+02 -0.16149825395E+02  0.99441167248E+02  0.10486311509E+03  0.47000000000E+01 0.  1.
         -5    1    4    4    0  501  0.82321439783E+02 -0.17844979486E+03  0.12302796049E+04  0.12458856870E+04  0.47000000000E+01 0.  1.
          1    1    1    2  502    0 -0.56652496768E+02 -0.37198191857E+03 -0.19591140383E+04  0.19949205167E+04  0.00000000000E+00 0. -1.
          1    1    1    2  503    0  0.38925412478E+02  0.23800861385E+02  0.14007302772E+04  0.14014731458E+04  0.00000000000E+00 0. -1.
<mgrwt>
<rscale>  0 0.13547079E+03</rscale>
<asrwt>0</asrwt>
<pdfrwt beam="1">  1        2 0.43898246E+00 0.45625308E+02</pdfrwt>
<pdfrwt beam="2">  1        2 0.43761754E+00 0.40224023E+03</pdfrwt>
<totfact> 0.12763719E+00</totfact>
</mgrwt>
</event>
<event>
13    1  0.1589573E-008  0.1977003E+03  0.7546771E-02  0.1233226E+00
          2   -1    0    0  503    0  0.00000000000E+00  0.00000000000E+00  0.18324037705E+04  0.18324037705E+04  0.00000000000E+00 0. -1.
          2   -1    0    0  502    0 -0.00000000000E+00 -0.00000000000E+00 -0.30344018107E+04  0.30344018107E+04  0.00000000000E+00 0. -1.
         24    2    1    2    0    0  0.18612901748E+03 -0.42090099300E+03 -0.48735938470E+03  0.67501338539E+03  0.79512536957E+02 0.  0.
         25    2    1    2    0    0  0.18739946908E+03 -0.15400215328E+03  0.68589065473E+03  0.73817664876E+03  0.12499420107E+03 0.  0.
         24    2    1    2    0    0 -0.38318221807E+03  0.43079852137E+03  0.45588735906E+03  0.74273407863E+03  0.10679255194E+03 0.  0.
        -11    1    5    5    0    0 -0.32914957166E+03  0.37456663280E+03  0.34179262975E+03  0.60453437014E+03  0.00000000000E+00 0.  1.
         12    1    5    5    0    0 -0.54032646414E+02  0.56231888570E+02  0.11409472932E+03  0.13819970850E+03  0.00000000000E+00 0. -1.
        -13    1    3    3    0    0  0.32813184067E+02 -0.16872070631E+03 -0.18289898369E+03  0.25098888426E+03  0.00000000000E+00 0.  1.
         14    1    3    3    0    0  0.15331583342E+03 -0.25218028669E+03 -0.30446040101E+03  0.42402450113E+03  0.00000000000E+00 0. -1.
          5    1    4    4  501    0  0.78986970131E+01 -0.23333915416E+02  0.22693735951E+03  0.22831889138E+03  0.47000000000E+01 0.  1.
         -5    1    4    4    0  501  0.17950077206E+03 -0.13066823787E+03  0.45895329522E+03  0.50985775738E+03  0.47000000000E+01 0.  1.
          1    1    1    2  502    0  0.81615903421E+02  0.18027673509E+03 -0.22755202949E+04  0.22841089005E+04  0.00000000000E+00 0. -1.
          1    1    1    2  503    0 -0.71962171908E+02 -0.36172110172E+02  0.41910362562E+03  0.42677256794E+03  0.00000000000E+00 0. -1.
<mgrwt>
<rscale>  0 0.12618688E+03</rscale>
<asrwt>0</asrwt>
<pdfrwt beam="1">  1        2 0.26947114E+00 0.80541764E+02</pdfrwt>
<pdfrwt beam="2">  1        2 0.44623556E+00 0.19770026E+03</pdfrwt>
<totfact> 0.43946439E+00</totfact>
</mgrwt>
</event>
<event>
13    1  0.1589573E-008  0.3553405E+02  0.7546771E-02  0.1574096E+00
          2   -1    0    0  503    0  0.00000000000E+00  0.00000000000E+00  0.18617699172E+04  0.18617699172E+04  0.00000000000E+00 0. -1.
          2   -1    0    0  502    0 -0.00000000000E+00 -0.00000000000E+00 -0.48469142409E+03  0.48469142409E+03  0.00000000000E+00 0. -1.
         24    2    1    2    0    0 -0.11978879010E+03  0.81953075268E+02  0.49499986708E+02  0.17151619064E+03  0.76823786596E+02 0.  0.
         25    2    1    2    0    0  0.15799642172E+03 -0.26838153308E+02  0.13189618988E+03  0.24230445728E+03  0.12502675459E+03 0.  0.
         24    2    1    2    0    0  0.19018056972E+02 -0.77511800783E+02  0.35100409647E+03  0.36460666600E+03  0.58003270570E+02 0.  0.
        -11    1    3    3    0    0 -0.25447423361E+02 -0.53833208295E+01 -0.12416400198E+02  0.28822187508E+02  0.00000000000E+00 0.  1.
         12    1    3    3    0    0 -0.94341366741E+02  0.87336396098E+02  0.61916386906E+02  0.14269400313E+03  0.00000000000E+00 0. -1.
        -11    1    5    5    0    0  0.19105772777E+02 -0.46896253446E+02  0.10358129102E+03  0.11529689064E+03  0.00000000000E+00 0.  1.
         12    1    5    5    0    0 -0.87715804436E-01 -0.30615547337E+02  0.24742280545E+03  0.24930977536E+03  0.00000000000E+00 0. -1.
          5    1    4    4  501    0  0.71388491208E+02  0.35035443981E+02  0.98047256255E+01  0.80262205654E+02  0.47000000000E+01 0.  1.
         -5    1    4    4    0  501  0.86607930517E+02 -0.61873597289E+02  0.12209146425E+03  0.16204225163E+03  0.47000000000E+01 0.  1.
          1    1    1    2  502    0 -0.29334244067E+02  0.46006044463E+00 -0.36082146088E+03  0.36201220444E+03  0.00000000000E+00 0. -1.
          1    1    1    2  503    0 -0.27891444528E+02  0.21936818379E+02  0.12054996810E+04  0.12060218230E+04  0.00000000000E+00 0. -1.
<mgrwt>
<rscale>  0 0.32287655E+02</rscale>
<asrwt>0</asrwt>
<pdfrwt beam="1">  1        2 0.27378969E+00 0.35534051E+02</pdfrwt>
<pdfrwt beam="2">  1        2 0.71278151E-01 0.29337851E+02</pdfrwt>
<totfact> 0.12793016E+02</totfact>
</mgrwt>
</event>
<event>
13    1  0.1589573E-008  0.1857103E+03  0.7546771E-02  0.1169672E+00
          2   -1    0    0  503    0  0.00000000000E+00  0.00000000000E+00  0.28434657206E+04  0.28434657206E+04  0.00000000000E+00 0. -1.
          2   -1    0    0  502    0 -0.00000000000E+00 -0.00000000000E+00 -0.19504514935E+04  0.19504514935E+04  0.00000000000E+00 0. -1.
         24    2    1    2    0    0  0.39428782982E+02  0.32101961879E+03 -0.33230205442E+03  0.47088517438E+03  0.81853329227E+02 0.  0.
         25    2    1    2    0    0 -0.14214136739E+03 -0.10266487821E+03  0.12607129373E+04  0.12789706688E+04  0.12499846413E+03 0.  0.
         24    2    1    2    0    0  0.92976472947E+02 -0.46356615095E+02 -0.47476023795E+02  0.14232434195E+03  0.84903976299E+02 0.  0.
        -11    1    3    3    0    0 -0.18648084375E+02  0.32845653638E+02 -0.23251561757E+02  0.44353389250E+02  0.00000000000E+00 0.  1.
         12    1    3    3    0    0  0.58076867356E+02  0.28817396515E+03 -0.30905049266E+03  0.42653178513E+03  0.00000000000E+00 0. -1.
        -11    1    5    5    0    0  0.10884672068E+03 -0.40466722725E+02 -0.47317046392E+02  0.12539564239E+03  0.00000000000E+00 0.  1.
         12    1    5    5    0    0 -0.15870247729E+02 -0.58898923704E+01 -0.15897740347E+00  0.16928699564E+02  0.00000000000E+00 0. -1.
          5    1    4    4  501    0 -0.22243091609E+01 -0.59877920114E+01  0.47423250154E+03  0.47429880532E+03  0.47000000000E+01 0. -1.
         -5    1    4    4    0  501 -0.13991705823E+03 -0.96677086195E+02  0.78648043571E+03  0.80467186352E+03  0.47000000000E+01 0. -1.
          1    1    1    2  502    0 -0.16067059952E+03 -0.16603285445E+03 -0.14305389556E+04  0.14490768281E+04  0.00000000000E+00 0. -1.
          1    1    1    2  503    0  0.17040671098E+03 -0.59652710338E+01  0.14426183236E+04  0.14526602009E+04  0.00000000000E+00 0. -1.
<mgrwt>
<rscale>  0 0.17808194E+03</rscale>
<asrwt>0</asrwt>
<pdfrwt beam="1">  1        2 0.41815673E+00 0.17076695E+03</pdfrwt>
<pdfrwt beam="2">  1        2 0.28683110E+00 0.18571028E+03</pdfrwt>
<totfact> 0.46011937E+00</totfact>
</mgrwt>
</event>
<event>
13    1  0.1589573E-008  0.2938844E+03  0.7546771E-02  0.1259428E+00
          2   -1    0    0  503    0  0.00000000000E+00  0.00000000000E+00  0.20245796884E+04  0.20245796884E+04  0.00000000000E+00 0. -1.
          2   -1    0    0  502    0 -0.00000000000E+00 -0.00000000000E+00 -0.45033352252E+04  0.45033352252E+04  0.00000000000E+00 0. -1.
         24    2    1    2    0    0 -0.11664116131E+03 -0.12230186489E+03 -0.13128452861E+04  0.13260245576E+04  0.78838287988E+02 0.  0.
         25    2    1    2    0    0 -0.22336796110E+03  0.15654121767E+03 -0.17253205092E+04  0.17512160292E+04  0.12501329043E+03 0.  0.
         24    2    1    2    0    0  0.74637345885E+02  0.25538315035E+03  0.31098514801E+03  0.41688220646E+03  0.79295175765E+02 0.  0.
        -11    1    5    5    0    0 -0.10257716252E+02  0.14054695557E+02  0.43026845277E+02  0.46411901754E+02  0.00000000000E+00 0.  1.
         12    1    5    5    0    0  0.84895062137E+02  0.24132845479E+03  0.26795830273E+03  0.37047030471E+03  0.00000000000E+00 0. -1.
        -11    1    3    3    0    0 -0.28548967988E+02  0.70243185346E+01 -0.24982884250E+03  0.25155284766E+03  0.00000000000E+00 0.  1.
         12    1    3    3    0    0 -0.88092193317E+02 -0.12932618343E+03 -0.10630164436E+04  0.10744717100E+04  0.00000000000E+00 0. -1.
          5    1    4    4  501    0 -0.20571800011E+03  0.10012033286E+03 -0.15322246888E+04  0.15492186946E+04  0.47000000000E+01 0. -1.
         -5    1    4    4    0  501 -0.17649960997E+02  0.56420884810E+02 -0.19309582031E+03  0.20199733461E+03  0.47000000000E+01 0. -1.
          1    1    1    2  502    0  0.28869431451E+02  0.30003544447E+02 -0.13682787303E+04  0.13689121011E+04  0.00000000000E+00 0. -1.
          1    1    1    2  503    0  0.23650234507E+03 -0.31962604757E+03  0.16167038407E+04  0.16648800192E+04  0.00000000000E+00 0. -1.
<mgrwt>
<rscale>  0 0.11061883E+03</rscale>
<asrwt>0</asrwt>
<pdfrwt beam="1">  1        2 0.29773231E+00 0.29388441E+03</pdfrwt>
<pdfrwt beam="2">  1        2 0.66225517E+00 0.41637204E+02</pdfrwt>
<totfact> 0.49459200E-01</totfact>
</mgrwt>
</event>
<event>
13    1  0.1589573E-008  0.1302233E+03  0.7546771E-02  0.1325062E+00
          2   -1    0    0  502    0  0.00000000000E+00  0.00000000000E+00  0.20554219614E+04  0.20554219614E+04  0.00000000000E+00 0. -1.
          2   -1    0    0  503    0 -0.00000000000E+00 -0.00000000000E+00 -0.15708726289E+04  0.15708726289E+04  0.00000000000E+00 0. -1.
         24    2    1    2    0    0 -0.22079283407E+03  0.87482287917E+03  0.46297722627E+03  0.10172453070E+04  0.79847085179E+02 0.  0.
         25    2    1    2    0    0  0.30841305430E+03 -0.35142432326E+03  0.27543414076E+03  0.55687241101E+03  0.12500099681E+03 0.  0.
         24    2    1    2    0    0 -0.14720091941E+03 -0.62041771681E+03  0.10518619539E+03  0.65009498309E+03  0.70520190934E+02 0.  0.
        -11    1    5    5    0    0 -0.68069438807E+02 -0.36634328818E+03  0.91218954638E+02  0.38361667193E+03  0.00000000000E+00 0.  1.
         12    1    5    5    0    0 -0.79131480607E+02 -0.25407442863E+03  0.13967240755E+02  0.26647831117E+03  0.00000000000E+00 0. -1.
        -11    1    3    3    0    0 -0.11925663675E+03  0.45428943864E+03  0.28544257079E+03  0.54961668523E+03  0.00000000000E+00 0.  1.
         12    1    3    3    0    0 -0.10153619733E+03  0.42053344053E+03  0.17753465548E+03  0.46762862174E+03  0.00000000000E+00 0. -1.
          5    1    4    4  501    0  0.17901723596E+03 -0.11251661832E+03  0.13601862561E+03  0.25145639122E+03  0.47000000000E+01 0. -1.
         -5    1    4    4    0  501  0.12939581833E+03 -0.23890770493E+03  0.13941551516E+03  0.30541601979E+03  0.47000000000E+01 0. -1.
          1    1    1    2  502    0 -0.46327278302E+02  0.21109341869E+02  0.51543547583E+03  0.51794357876E+03  0.00000000000E+00 0. -1.
          1    1    1    2  503    0  0.10590797749E+03  0.75909819029E+02 -0.87448370575E+03  0.88413831042E+03  0.00000000000E+00 0. -1.
<mgrwt>
<rscale>  0 0.81422704E+02</rscale>
<asrwt>0</asrwt>
<pdfrwt beam="1">  1        2 0.30226793E+00 0.50909931E+02</pdfrwt>
<pdfrwt beam="2">  1        2 0.23101068E+00 0.13022325E+03</pdfrwt>
<totfact> 0.20926962E+01</totfact>
</mgrwt>
</event>
<event>
13    1  0.1589573E-008  0.8246846E+02  0.7546771E-02  0.1368949E+00
          2   -1    0    0  502    0  0.00000000000E+00  0.00000000000E+00  0.18136638306E+04  0.18136638306E+04  0.00000000000E+00 0. -1.
          2   -1    0    0  503    0 -0.00000000000E+00 -0.00000000000E+00 -0.61908453411E+03  0.61908453411E+03  0.00000000000E+00 0. -1.
         24    2    1    2    0    0  0.79338722759E+02 -0.91756524507E+02 -0.34132959997E+03  0.36861534397E+03  0.68245756484E+02 0.  0.
         25    2    1    2    0    0  0.84985906622E+02  0.12384091962E+03  0.33154550985E+03  0.38484703563E+03  0.12500255211E+03 0.  0.
         24    2    1    2    0    0 -0.48817693675E+02 -0.42154273670E+02 -0.51704354136E+01  0.10378557096E+03  0.81145309987E+02 0.  0.
        -11    1    3    3    0    0  0.27992002048E+01  0.86224893177E+01 -0.76660492360E+01  0.11872285151E+02  0.00000000000E+00 0.  1.
         12    1    3    3    0    0  0.76539522554E+02 -0.10037901382E+03 -0.33366355074E+03  0.35674305882E+03  0.00000000000E+00 0. -1.
        -13    1    5    5    0    0 -0.32854613170E+02  0.20425354337E+02  0.23961734894E+01  0.38760319319E+02  0.00000000000E+00 0.  1.
         14    1    5    5    0    0 -0.15963080506E+02 -0.62579628007E+02 -0.75666089030E+01  0.65025251642E+02  0.00000000000E+00 0. -1.
          5    1    4    4  501    0  0.78391964392E+02  0.54497896250E+02  0.82717009567E+02  0.12641010422E+03  0.47000000000E+01 0. -1.
         -5    1    4    4    0  501  0.65939422297E+01  0.69343023368E+02  0.24882850028E+03  0.25843693141E+03  0.47000000000E+01 0. -1.
          1    1    1    2  502    0 -0.70718482355E+02  0.42306411011E+02  0.13871057766E+04  0.13895515002E+04  0.00000000000E+00 0. -1.
          1    1    1    2  503    0 -0.44788453351E+02 -0.32236532453E+02 -0.17757195455E+03  0.18594891400E+03  0.00000000000E+00 0. -1.
<mgrwt>
<rscale>  0 0.67460239E+02</rscale>
<asrwt>0</asrwt>
<pdfrwt beam="1">  1        2 0.26671527E+00 0.82468457E+02</pdfrwt>
<pdfrwt beam="2">  1        2 0.91041844E-01 0.55183327E+02</pdfrwt>
<totfact> 0.94810487E+01</totfact>
</mgrwt>
</event>
<event>
13    1  0.1589573E-008  0.7664102E+02  0.7546771E-02  0.1409883E+00
          2   -1    0    0  502    0  0.00000000000E+00  0.00000000000E+00  0.85752718812E+03  0.85752718812E+03  0.00000000000E+00 0. -1.
          2   -1    0    0  503    0 -0.00000000000E+00 -0.00000000000E+00 -0.25854636859E+04  0.25854636859E+04  0.00000000000E+00 0. -1.
         24    2    1    2    0    0 -0.70537714563E+02  0.75596334908E+02 -0.92716971514E+03  0.93634947087E+03  0.80101659793E+02 0.  0.
         25    2    1    2    0    0  0.21542525652E+03 -0.11742116806E+03 -0.52176452920E+03  0.58997095624E+03  0.12502693080E+03 0.  0.
         24    2    1    2    0    0 -0.38123954234E+02 -0.90269023280E+01 -0.10764366897E+03  0.14032894263E+03  0.81056349641E+02 0.  0.
        -11    1    5    5    0    0 -0.56125602180E+02 -0.99054202536E+00 -0.10673246671E+03  0.12059387979E+03  0.00000000000E+00 0.  1.
         12    1    5    5    0    0  0.18001647946E+02 -0.80363603027E+01 -0.91120226753E+00  0.19735062839E+02  0.00000000000E+00 0. -1.
        -13    1    3    3    0    0 -0.31900626805E+02  0.72980309841E+02 -0.78398074765E+03  0.78801623607E+03  0.00000000000E+00 0.  1.
         14    1    3    3    0    0 -0.38637087758E+02  0.26160250670E+01 -0.14318896749E+03  0.14833323480E+03  0.00000000000E+00 0. -1.
          5    1    4    4  501    0  0.37472484483E+02 -0.39997757994E+02 -0.25009090905E+03  0.25606944473E+03  0.47000000000E+01 0. -1.
         -5    1    4    4    0  501  0.17795277204E+03 -0.77423410064E+02 -0.27167362015E+03  0.33390151151E+03  0.47000000000E+01 0. -1.
          1    1    1    2  502    0 -0.72077751920E+02  0.25913497950E+02  0.80019334617E+03  0.80385079645E+03  0.00000000000E+00 0. -1.
          1    1    1    2  503    0 -0.34685835804E+02  0.24938237528E+02 -0.97155193063E+03  0.97249070783E+03  0.00000000000E+00 0. -1.
<mgrwt>
<rscale>  0 0.57219983E+02</rscale>
<asrwt>0</asrwt>
<pdfrwt beam="1">  1        2 0.12610694E+00 0.76641022E+02</pdfrwt>
<pdfrwt beam="2">  1        2 0.38021525E+00 0.42720287E+02</pdfrwt>
<totfact> 0.30051048E+01</totfact>
</mgrwt>
</event>
<event>
13    1  0.1589573E-008  0.2057861E+03  0.7546771E-02  0.1309815E+00
          2   -1    0    0  502    0  0.00000000000E+00  0.00000000000E+00  0.26047593451E+04  0.26047593451E+04  0.00000000000E+00 0. -1.
          2   -1    0    0  503    0 -0.00000000000E+00 -0.00000000000E+00 -0.12542481802E+04  0.12542481802E+04  0.00000000000E+00 0. -1.
         24    2    1    2    0    0 -0.26925989354E+02  0.13257758306E+03  0.52792404199E+02  0.16661049524E+03  0.81671260244E+02 0.  0.
         25    2    1    2    0    0 -0.31270568225E+01  0.31588886363E+00  0.14697257059E+04  0.14750354617E+04  0.12500433683E+03 0.  0.
         24    2    1    2    0    0  0.48711235655E+02  0.52775451271E+02  0.21649078394E+03  0.24293938088E+03  0.83625657038E+02 0.  0.
        -13    1    3    3    0    0  0.21771177837E+00 -0.10149298681E+02 -0.35911641519E+01  0.10768106709E+02  0.00000000000E+00 0.  1.
         14    1    3    3    0    0 -0.27143701132E+02  0.14272688174E+03  0.56383568351E+02  0.15584238853E+03  0.00000000000E+00 0. -1.
        -13    1    5    5    0    0  0.21278135922E+02 -0.15378125958E+02  0.19525009427E+02  0.32718065643E+02  0.00000000000E+00 0.  1.
         14    1    5    5    0    0  0.27433099732E+02  0.68153577228E+02  0.19696577451E+03  0.21022131524E+03  0.00000000000E+00 0. -1.
          5    1    4    4  501    0  0.23827550126E+02  0.57053255737E+02  0.74913913142E+03  0.75170097403E+03  0.47000000000E+01 0.  1.
         -5    1    4    4    0  501 -0.26954606948E+02 -0.56737366874E+02  0.72058657452E+03  0.72333448764E+03  0.47000000000E+01 0.  1.
          1    1    1    2  502    0  0.29886293208E+02  0.21707113248E+02  0.78292467430E+03  0.78379553132E+03  0.00000000000E+00 0. -1.
          1    1    1    2  503    0 -0.48544482687E+02 -0.20737603644E+03 -0.11714224035E+04  0.11906266563E+04  0.00000000000E+00 0. -1.
<mgrwt>
<rscale>  0 0.87185165E+02</rscale>
<asrwt>0</asrwt>
<pdfrwt beam="1">  1        2 0.38305284E+00 0.36937641E+02</pdfrwt>
<pdfrwt beam="2">  1        2 0.18444826E+00 0.20578610E+03</pdfrwt>
<totfact> 0.16994714E+01</totfact>
</mgrwt>
</event>
<event>
13    1  0.1589573E-008  0.1437878E+03  0.7546771E-02  0.1248035E+00
          2   -1    0    0  502    0  0.00000000000E+00  0.00000000000E+00  0.35101284162E+04  0.35101284162E+04  0.00000000000E+00 0. -1.
          2   -1    0    0  503    0 -0.00000000000E+00 -0.00000000000E+00 -0.31408971673E+04  0.31408971673E+04  0.00000000000E+00 0. -1.
         24    2    1    2    0    0  0.52534782241E+02  0.37913763021E+02 -0.66925294122E+03  0.67750116383E+03  0.83132249348E+02 0.  0.
         25    2    1    2    0    0 -0.13452425704E+03 -0.14000041467E+03 -0.18641017901E+03  0.29676615401E+03  0.12499801393E+03 0.  0.
         24    2    1    2    0    0  0.42400965684E+02  0.55071720037E+02  0.10629588610E+04  0.10684479391E+04  0.82877754428E+02 0.  0.
        -11    1    3    3    0    0  0.93475421891E+01  0.48912667343E+02 -0.19880072616E+03  0.20494280737E+03  0.00000000000E+00 0.  1.
         12    1    3    3    0    0  0.43187240052E+02 -0.10998904322E+02 -0.47045221506E+03  0.47255835645E+03  0.00000000000E+00 0. -1.
        -13    1    5    5    0    0  0.45619987359E+02  0.25785939417E+02  0.27558534526E+03  0.28052340444E+03  0.00000000000E+00 0.  1.
         14    1    5    5    0    0 -0.32190216751E+01  0.29285780621E+02  0.78737351576E+03  0.78792453469E+03  0.00000000000E+00 0. -1.
          5    1    4    4  501    0 -0.56253322719E+01 -0.74791707754E+02 -0.11016760256E+03  0.13335829396E+03  0.47000000000E+01 0.  1.
         -5    1    4    4    0  501 -0.12889892477E+03 -0.65208706912E+02 -0.76242576447E+02  0.16340786006E+03  0.47000000000E+01 0.  1.
          1    1    1    2  502    0  0.22203341499E+00  0.13379647397E+03  0.23822237330E+04  0.23859780929E+04  0.00000000000E+00 0. -1.
          1    1    1    2  503    0  0.39366475704E+02 -0.86781542360E+02 -0.22202882248E+04  0.22223322337E+04  0.00000000000E+00 0. -1.
<mgrwt>
<rscale>  0 0.11705540E+03</rscale>
<asrwt>0</asrwt>
<pdfrwt beam="1">  1        2 0.51619536E+00 0.14378776E+03</pdfrwt>
<pdfrwt beam="2">  1        2 0.46189664E+00 0.95292998E+02</pdfrwt>
<totfact> 0.53627247E-01</totfact>
</mgrwt>
</event>
<event>
13    1  0.1589573E-008  0.5648731E+02  0.7546771E-02  0.1509414E+00
          2   -1    0    0  502    0  0.00000000000E+00  0.00000000000E+00  0.43549277766E+04  0.43549277766E+04  0.00000000000E+00 0. -1.
          2   -1    0    0  503    0 -0.00000000000E+00 -0.00000000000E+00 -0.41582246733E+03  0.41582246733E+03  0.00000000000E+00 0. -1.
         24    2    1    2    0    0  0.11729116723E+03  0.24676851459E+02  0.16102176812E+02  0.14685016241E+03  0.83303812586E+02 0.  0.
         25    2    1    2    0    0 -0.12014916957E+03 -0.79640207698E+02  0.17107234965E+04  0.17213299504E+04  0.12499412373E+03 0.  0.
         24    2    1    2    0    0  0.63426310766E+02  0.84562298989E+02  0.23849842580E+03  0.27291305383E+03  0.80164559069E+02 0.  0.
        -13    1    3    3    0    0  0.13460823726E+02 -0.87757408570E+01 -0.25466356494E+02  0.30112168904E+02  0.00000000000E+00 0.  1.
         14    1    3    3    0    0  0.10383034351E+03  0.33452592316E+02  0.41568533306E+02  0.11673799350E+03  0.00000000000E+00 0. -1.
        -13    1    5    5    0    0  0.18991223727E+02  0.45608117567E+02  0.19044434588E+03  0.19674810252E+03  0.00000000000E+00 0.  1.
         14    1    5    5    0    0  0.44435087039E+02  0.38954181422E+02  0.48054079920E+02  0.76164951306E+02  0.00000000000E+00 0. -1.
          5    1    4    4  501    0 -0.10258936519E+03 -0.19936463525E+02  0.14267083193E+04  0.14305386254E+04  0.47000000000E+01 0.  1.
         -5    1    4    4    0  501 -0.17559804385E+02 -0.59703744173E+02  0.28401517718E+03  0.29079132495E+03  0.47000000000E+01 0.  1.
          1    1    1    2  502    0 -0.56438496446E+02 -0.18095718717E+01  0.23007703732E+04  0.23014632060E+04  0.00000000000E+00 0. -1.
          1    1    1    2  503    0 -0.41298119811E+01 -0.27789370878E+02 -0.32698916300E+03  0.32819387136E+03  0.00000000000E+00 0. -1.
<mgrwt>
<rscale>  0 0.39836995E+02</rscale>
<asrwt>0</asrwt>
<pdfrwt beam="1">  1        2 0.64043053E+00 0.56487306E+02</pdfrwt>
<pdfrwt beam="2">  1        2 0.61150365E-01 0.28094563E+02</pdfrwt>
<totfact> 0.59540125E+00</totfact>
</mgrwt>
</event>
<event>
13    1  0.1589573E-008  0.1357486E+03  0.7546771E-02  0.1314372E+00
          2   -1    0    0  503    0  0.00000000000E+00  0.00000000000E+00  0.23958995156E+04  0.23958995156E+04  0.00000000000E+00 0. -1.
          2   -1    0    0  502    0 -0.00000000000E+00 -0.00000000000E+00 -0.11969096555E+04  0.11969096555E+04  0.00000000000E+00 0. -1.
         24    2    1    2    0    0 -0.83092444291E+02  0.25557606704E+03 -0.51967221581E+03  0.59058908655E+03  0.80701777682E+02 0.  0.
         25    2    1    2    0    0 -0.41339452645E+02 -0.35182714331E+03  0.36261529449E+03  0.52211589351E+03  0.12499546130E+03 0.  0.
         24    2    1    2    0    0  0.48346066184E+02 -0.28008887749E+02  0.39538321942E+03  0.40740378847E+03  0.80796761981E+02 0.  0.
        -11    1    5    5    0    0  0.80853417586E+01  0.18252983024E+02  0.25074586300E+02  0.32051193718E+02  0.00000000000E+00 0.  1.
         12    1    5    5    0    0  0.40260724425E+02 -0.46261870773E+02  0.37030863312E+03  0.37535259475E+03  0.00000000000E+00 0. -1.
        -13    1    3    3    0    0 -0.36850319547E+02  0.22929444531E+02 -0.80036379539E+02  0.91046842487E+02  0.00000000000E+00 0.  1.
         14    1    3    3    0    0 -0.46242124744E+02  0.23264662251E+03 -0.43963583627E+03  0.49954224406E+03  0.00000000000E+00 0. -1.
          5    1    4    4  501    0 -0.33709992301E+02 -0.29495908223E+03  0.35690538663E+03  0.46426368453E+03  0.47000000000E+01 0. -1.
         -5    1    4    4    0  501 -0.76294603447E+01 -0.56868061080E+02  0.57099078638E+01  0.57852208981E+02  0.47000000000E+01 0. -1.
          1    1    1    2  502    0 -0.52437687136E+02  0.11732810160E+02 -0.54989474070E+03  0.55251388735E+03  0.00000000000E+00 0. -1.
          1    1    1    2  503    0  0.12852351789E+03  0.11252715386E+03  0.15105583028E+04  0.15201865152E+04  0.00000000000E+00 0. -1.
<mgrwt>
<rscale>  0 0.85406956E+02</rscale>
<asrwt>0</asrwt>
<pdfrwt beam="1">  1        2 0.35233816E+00 0.13574857E+03</pdfrwt>
<pdfrwt beam="2">  1        2 0.17601613E+00 0.53734252E+02</pdfrwt>
<totfact> 0.20979971E+01</totfact>
</mgrwt>
</event>
<event>
13    1  0.1589573E-008  0.7337319E+02  0.7546771E-02  0.1484599E+00
          2   -1    0    0  502    0  0.00000000000E+00  0.00000000000E+00  0.16256804033E+04  0.16256804033E+04  0.00000000000E+00 0. -1.
          2   -1    0    0  503    0 -0.00000000000E+00 -0.00000000000E+00 -0.12198009881E+04  0.12198009881E+04  0.00000000000E+00 0. -1.
         24    2    1    2    0    0 -0.11243977036E+03 -0.41386736494E+02 -0.47760480149E+03  0.49878721755E+03  0.79541046464E+02 0.  0.
         25    2    1    2    0    0  0.11420149793E+03  0.85128785777E+02  0.18175874018E+03  0.26258461711E+03  0.12500219684E+03 0.  0.
         24    2    1    2    0    0  0.46848374360E+02 -0.92863922372E+02  0.98794625496E+02  0.16390320105E+03  0.79280533735E+02 0.  0.
        -11    1    3    3    0    0 -0.79382901919E+01 -0.37933911431E+02 -0.11145096203E+03  0.11799709753E+03  0.00000000000E+00 0.  1.
         12    1    3    3    0    0 -0.10450148016E+03 -0.34528250633E+01 -0.36615383946E+03  0.38079012002E+03  0.00000000000E+00 0. -1.
        -11    1    5    5    0    0  0.12869716471E+02  0.63698798882E+01 -0.60647793130E+01  0.15588024889E+02  0.00000000000E+00 0.  1.
         12    1    5    5    0    0  0.33978657888E+02 -0.99233802260E+02  0.10485940481E+03  0.14831517616E+03  0.00000000000E+00 0. -1.
          5    1    4    4  501    0  0.21882419430E+02  0.93907811781E+02  0.88006012388E+02  0.13063179402E+03  0.47000000000E+01 0.  1.
         -5    1    4    4    0  501  0.92319078502E+02 -0.87790260049E+01  0.93752727789E+02  0.13195282309E+03  0.47000000000E+01 0.  1.
          1    1    1    2  502    0  0.18019536348E+02  0.18280107393E+02  0.12593912561E+04  0.12596528101E+04  0.00000000000E+00 0. -1.
          1    1    1    2  503    0 -0.66629638284E+02  0.30841765697E+02 -0.65646040503E+03  0.66055354559E+03  0.00000000000E+00 0. -1.
<mgrwt>
<rscale>  0 0.43397826E+02</rscale>
<asrwt>0</asrwt>
<pdfrwt beam="1">  1        2 0.23907065E+00 0.25668386E+02</pdfrwt>
<pdfrwt beam="2">  1        2 0.17938250E+00 0.73373188E+02</pdfrwt>
<totfact> 0.55488944E+01</totfact>
</mgrwt>
</event>
<event>
13    1  0.1589573E-008  0.9142695E+02  0.7546771E-02  0.1314617E+00
          2   -1    0    0  502    0  0.00000000000E+00  0.00000000000E+00  0.15590905510E+04  0.15590905510E+04  0.00000000000E+00 0. -1.
          2   -1    0    0  503    0 -0.00000000000E+00 -0.00000000000E+00 -0.21013359815E+04  0.21013359815E+04  0.00000000000E+00 0. -1.
         24    2    1    2    0    0 -0.46524865587E+03  0.32306437620E+03 -0.97036244480E+03  0.11265663187E+04  0.81984713461E+02 0.  0.
         25    2    1    2    0    0  0.27745452748E+03 -0.42729209725E+03  0.78063508896E+03  0.94051861953E+03  0.12499832145E+03 0.  0.
         24    2    1    2    0    0  0.10139184510E+03  0.53085897077E+02 -0.48251972081E+03  0.50229028705E+03  0.79823760714E+02 0.  0.
        -11    1    5    5    0    0  0.80086660437E+02  0.56361663277E+02 -0.24579040325E+03  0.26458161802E+03  0.00000000000E+00 0.  1.
         12    1    5    5    0    0  0.21305184667E+02 -0.32757662004E+01 -0.23672931756E+03  0.23770866903E+03  0.00000000000E+00 0. -1.
        -13    1    3    3    0    0 -0.37078498477E+01  0.43927129649E+01  0.29792465010E-01  0.57484750391E+01  0.00000000000E+00 0.  1.
         14    1    3    3    0    0 -0.46154080602E+03  0.31867166324E+03 -0.97039223726E+03  0.11208178437E+04  0.00000000000E+00 0. -1.
          5    1    4    4  501    0  0.23172536021E+03 -0.34249086685E+03  0.53199269375E+03  0.67382115776E+03  0.47000000000E+01 0.  1.
         -5    1    4    4    0  501  0.45729167273E+02 -0.84801230397E+02  0.24864239521E+03  0.26669746177E+03  0.47000000000E+01 0.  1.
          1    1    1    2  502    0  0.69497143779E+02 -0.38826495757E+02  0.60352897006E+03  0.60875657489E+03  0.00000000000E+00 0. -1.
          1    1    1    2  503    0  0.16905139502E+02  0.89968319730E+02 -0.47352732388E+03  0.48229473225E+03  0.00000000000E+00 0. -1.
<mgrwt>
<rscale>  0 0.85312769E+02</rscale>
<asrwt>0</asrwt>
<pdfrwt beam="1">  1        2 0.22927802E+00 0.79607473E+02</pdfrwt>
<pdfrwt beam="2">  1        2 0.30902000E+00 0.91426951E+02</pdfrwt>
<totfact> 0.19645269E+01</totfact>
</mgrwt>
</event>
<event>
13    1  0.1589573E-008  0.4672179E+02  0.7546771E-02  0.1487401E+00
          2   -1    0    0  503    0  0.00000000000E+00  0.00000000000E+00  0.47011570203E+04  0.47011570203E+04  0.00000000000E+00 0. -1.
         -1   -1    0    0    0  501 -0.00000000000E+00 -0.00000000000E+00 -0.13145375889E+04  0.13145375889E+04  0.00000000000E+00 0.  1.
         24    2    1    2    0    0 -0.56893537769E+03  0.18087652393E+03 -0.16898648479E+03  0.62681993959E+03  0.89123642926E+02 0.  0.
         25    2    1    2    0    0  0.30745449529E+02 -0.21329714232E+03  0.41251972718E+03  0.48191071274E+03  0.12499782458E+03 0.  0.
         24    2    1    2    0    0  0.50614035457E+03  0.50561271871E+02  0.12113887425E+04  0.13175815302E+04  0.99115601847E+02 0.  0.
        -11    1    3    3    0    0 -0.30455713606E+03  0.89393829012E+02 -0.44110986910E+02  0.32045605777E+03  0.00000000000E+00 0.  1.
         12    1    3    3    0    0 -0.26437824162E+03  0.91482694916E+02 -0.12487549788E+03  0.30636388182E+03  0.00000000000E+00 0. -1.
        -11    1    5    5    0    0  0.30509979831E+03  0.75323924755E+02  0.78324914871E+03  0.84394242074E+03  0.00000000000E+00 0.  1.
         12    1    5    5    0    0  0.20104055626E+03 -0.24762652884E+02  0.42813959381E+03  0.47363910948E+03  0.00000000000E+00 0. -1.
          5    1    4    4  502    0 -0.48354926041E+01 -0.19021731413E+03  0.38928272959E+03  0.43332336902E+03  0.47000000000E+01 0. -1.
         -5    1    4    4    0  502  0.35580942133E+02 -0.23079828185E+02  0.23236997594E+02  0.48587343715E+02  0.47000000000E+01 0. -1.
          1    1    1    2  503    0  0.27522997830E+02  0.28370064295E+02  0.27597396278E+04  0.27600226791E+04  0.00000000000E+00 0. -1.
         -2    1    1    2    0  501  0.45265757606E+01 -0.46510717778E+02 -0.82804218130E+03  0.82935974750E+03  0.00000000000E+00 0.  1.
<mgrwt>
<rscale>  0 0.42974035E+02</rscale>
<asrwt>0</asrwt>
<pdfrwt beam="1">  1        2 0.69134662E+00 0.39526902E+02</pdfrwt>
<pdfrwt beam="2">  1       -1 0.19331435E+00 0.46721793E+02</pdfrwt>
<totfact> 0.69388399E-02</totfact>
</mgrwt>
</event>
<event>
13    1  0.1589573E-008  0.1262843E+03  0.7546771E-02  0.1249655E+00
          2   -1    0    0  503    0  0.00000000000E+00  0.00000000000E+00  0.28702410342E+04  0.28702410342E+04  0.00000000000E+00 0. -1.
          2   -1    0    0  502    0 -0.00000000000E+00 -0.00000000000E+00 -0.20876493780E+04  0.20876493780E+04  0.00000000000E+00 0. -1.
         24    2    1    2    0    0  0.65545721306E+02  0.12321711537E+00 -0.12463359691E+04  0.12510097277E+04  0.85882093720E+02 0.  0.
         25    2    1    2    0    0 -0.12514572177E+03 -0.69010418143E+01  0.40702409573E+03  0.44385147602E+03  0.12500576871E+03 0.  0.
         24    2    1    2    0    0  0.20481688048E+01 -0.20317738713E+03  0.37274247610E+03  0.43212941762E+03  0.80707090458E+02 0.  0.
        -11    1    5    5    0    0  0.20655123509E+02 -0.11343682637E+03  0.13619435115E+03  0.17844732833E+03  0.00000000000E+00 0.  1.
         12    1    5    5    0    0 -0.18606954704E+02 -0.89740560757E+02  0.23654812495E+03  0.25368208929E+03  0.00000000000E+00 0. -1.
        -13    1    3    3    0    0  0.39071920100E+01  0.25278961056E+02 -0.72353161190E+03  0.72398362235E+03  0.00000000000E+00 0.  1.
         14    1    3    3    0    0  0.61638529296E+02 -0.25155743940E+02 -0.52280435724E+03  0.52702610533E+03  0.00000000000E+00 0. -1.
          5    1    4    4  501    0  0.97805462351E+01 -0.20139180034E+02  0.16350088246E+03  0.16509353174E+03  0.47000000000E+01 0. -1.
         -5    1    4    4    0  501 -0.13492626801E+03  0.13238138219E+02  0.24352321327E+03  0.27875794428E+03  0.47000000000E+01 0. -1.
          1    1    1    2  502    0 -0.13745353829E+02  0.10586781118E+03 -0.78530368540E+03  0.79252684907E+03  0.00000000000E+00 0. -1.
          1    1    1    2  503    0  0.71297185491E+02  0.10408740065E+03  0.20344647389E+04  0.20383729417E+04  0.00000000000E+00 0. -1.
<mgrwt>
<rscale>  0 0.11611052E+03</rscale>
<asrwt>0</asrwt>
<pdfrwt beam="1">  1        2 0.42209427E+00 0.12628425E+03</pdfrwt>
<pdfrwt beam="2">  1        2 0.30700726E+00 0.10675640E+03</pdfrwt>
<totfact> 0.42094149E+00</totfact>
</mgrwt>
</event>
<event>
13    1  0.1589573E-008  0.1194084E+03  0.7546771E-02  0.1369728E+00
          2   -1    0    0  503    0  0.00000000000E+00  0.00000000000E+00  0.27209013007E+04  0.27209013007E+04  0.00000000000E+00 0. -1.
          2   -1    0    0  502    0 -0.00000000000E+00 -0.00000000000E+00 -0.11566475286E+04  0.11566475286E+04  0.00000000000E+00 0. -1.
         24    2    1    2    0    0 -0.51663003175E+02  0.26704667956E+02 -0.14966290645E+03  0.17964733836E+03  0.80572795805E+02 0.  0.
         25    2    1    2    0    0  0.10935430922E+03  0.14508860332E+03  0.57460027078E+03  0.61546383696E+03  0.12498478176E+03 0.  0.
         24    2    1    2    0    0 -0.41174407962E+02 -0.39709258505E+02 -0.10486815095E+02  0.98641742759E+02  0.79674732768E+02 0.  0.
        -11    1    5    5    0    0 -0.42299753902E+01 -0.55676760380E+02  0.37188438101E+01  0.55960916161E+02  0.00000000000E+00 0.  1.
         12    1    5    5    0    0 -0.36944432572E+02  0.15967501875E+02 -0.14205658905E+02  0.42680826598E+02  0.00000000000E+00 0. -1.
        -11    1    3    3    0    0  0.15107162890E+02  0.28485313313E+02 -0.42025232708E+02  0.52969421644E+02  0.00000000000E+00 0.  1.
         12    1    3    3    0    0 -0.66770166065E+02 -0.17806453569E+01 -0.10763767374E+03  0.12667791671E+03  0.00000000000E+00 0. -1.
          5    1    4    4  501    0  0.85707337616E+02  0.54616605613E+02  0.15402650038E+03  0.18459407940E+03  0.47000000000E+01 0. -1.
         -5    1    4    4    0  501  0.23646971603E+02  0.90471997702E+02  0.42057377040E+03  0.43086975756E+03  0.47000000000E+01 0. -1.
          1    1    1    2  502    0  0.84600888163E+01 -0.16054517411E+03 -0.90977450640E+03  0.92387010913E+03  0.00000000000E+00 0. -1.
          1    1    1    2  503    0 -0.24976986899E+02  0.28461161345E+02  0.20595777292E+04  0.20599258021E+04  0.00000000000E+00 0. -1.
<mgrwt>
<rscale>  0 0.67242866E+02</rscale>
<asrwt>0</asrwt>
<pdfrwt beam="1">  1        2 0.40013254E+00 0.37866708E+02</pdfrwt>
<pdfrwt beam="2">  1        2 0.17009523E+00 0.11940840E+03</pdfrwt>
<totfact> 0.17337707E+01</totfact>
</mgrwt>
</event>
<event>
13    1  0.1589573E-008  0.1399380E+03  0.7546771E-02  0.1254482E+00
          2   -1    0    0  502    0  0.00000000000E+00  0.00000000000E+00  0.14591056905E+04  0.14591056905E+04  0.00000000000E+00 0. -1.
          2   -1    0    0  503    0 -0.00000000000E+00 -0.00000000000E+00 -0.74071687888E+03  0.74071687888E+03  0.00000000000E+00 0. -1.
         24    2    1    2    0    0 -0.29648460324E+02 -0.40046702976E+02 -0.23923497353E+03  0.25774517289E+03  0.81953840471E+02 0.  0.
         25    2    1    2    0    0  0.13692858659E+03 -0.15917828854E+03 -0.10858475562E+03  0.26740217927E+03  0.12500444376E+03 0.  0.
         24    2    1    2    0    0  0.34063686787E+02  0.46894304212E+02  0.60096970945E+02  0.11409971942E+03  0.77766892246E+02 0.  0.
        -13    1    3    3    0    0 -0.31358466082E+02 -0.15730669505E+01 -0.20113816947E+03  0.20357404342E+03  0.00000000000E+00 0.  1.
         14    1    3    3    0    0  0.17100057574E+01 -0.38473636025E+02 -0.38096804059E+02  0.54171129472E+02  0.00000000000E+00 0. -1.
        -13    1    5    5    0    0  0.14158313017E+02  0.55829930257E+02  0.86836373938E+01  0.58248128711E+02  0.00000000000E+00 0.  1.
         14    1    5    5    0    0  0.19905373769E+02 -0.89356260445E+01  0.51413333551E+02  0.55851590707E+02  0.00000000000E+00 0. -1.
          5    1    4    4  501    0  0.37105602017E+02 -0.13563521067E+03 -0.50794663952E+02  0.14958584144E+03  0.47000000000E+01 0. -1.
         -5    1    4    4    0  501  0.99822984574E+02 -0.23543077870E+02 -0.57790091672E+02  0.11781633783E+03  0.47000000000E+01 0. -1.
          1    1    1    2  502    0 -0.13112520586E+03  0.46331329966E+02  0.12691768604E+04  0.12767733999E+04  0.00000000000E+00 0. -1.
          1    1    1    2  503    0 -0.10218607195E+02  0.10599935733E+03 -0.26306529055E+03  0.28380209791E+03  0.00000000000E+00 0. -1.
<mgrwt>
<rscale>  0 0.11335408E+03</rscale>
<asrwt>0</asrwt>
<pdfrwt beam="1">  1        2 0.21457437E+00 0.13993801E+03</pdfrwt>
<pdfrwt beam="2">  1        2 0.10892895E+00 0.91820282E+02</pdfrwt>
<totfact> 0.10904969E+02</totfact>
</mgrwt>
</event>
<event>
13    1  0.1589573E-008  0.1055508E+03  0.7546771E-02  0.1364460E+00
          2   -1    0    0  503    0  0.00000000000E+00  0.00000000000E+00  0.23070791604E+04  0.23070791604E+04  0.00000000000E+00 0. -1.
          2   -1    0    0  502    0 -0.00000000000E+00 -0.00000000000E+00 -0.18013809441E+04  0.18013809441E+04  0.00000000000E+00 0. -1.
         24    2    1    2    0    0  0.19710861435E+03  0.36962783923E+02  0.40404137900E+02  0.21937689519E+03  0.79219155130E+02 0.  0.
         25    2    1    2    0    0 -0.85137929322E+02  0.69412958058E+02  0.26130493871E+03  0.30979373631E+03  0.12500104923E+03 0.  0.
         24    2    1    2    0    0 -0.20629142335E+02  0.60845103579E+01 -0.14643717985E+03  0.16756209061E+03  0.78553318116E+02 0.  0.
        -11    1    5    5    0    0 -0.34665108798E+02 -0.27323762996E+02 -0.93691574550E+02  0.10356818495E+03  0.00000000000E+00 0.  1.
         12    1    5    5    0    0  0.14035966463E+02  0.33408273354E+02 -0.52745605297E+02  0.63993905657E+02  0.00000000000E+00 0. -1.
        -13    1    3    3    0    0  0.20371594246E+03  0.29918547238E+02  0.37468756646E+02  0.20928261372E+03  0.00000000000E+00 0.  1.
         14    1    3    3    0    0 -0.66073281143E+01  0.70442366857E+01  0.29353812531E+01  0.10094281470E+02  0.00000000000E+00 0. -1.
          5    1    4    4  501    0 -0.79891847461E+02 -0.94521434554E+01  0.17504193571E+03  0.19270137406E+03  0.47000000000E+01 0.  1.
         -5    1    4    4    0  501 -0.52460818611E+01  0.78865101513E+02  0.86263003001E+02  0.11709236225E+03  0.47000000000E+01 0.  1.
          1    1    1    2  502    0 -0.48047066777E+02 -0.12380394877E+03 -0.15275029406E+04  0.15332648734E+04  0.00000000000E+00 0. -1.
          1    1    1    2  503    0 -0.43294475912E+02  0.11343696428E+02  0.18779292602E+04  0.18784625089E+04  0.00000000000E+00 0. -1.
<mgrwt>
<rscale>  0 0.68731526E+02</rscale>
<asrwt>0</asrwt>
<pdfrwt beam="1">  1        2 0.33927635E+00 0.44755906E+02</pdfrwt>
<pdfrwt beam="2">  1        2 0.26490896E+00 0.10555082E+03</pdfrwt>
<totfact> 0.12737356E+01</totfact>
</mgrwt>
</event>
<event>
13    1  0.1589573E-008  0.7397729E+02  0.7546771E-02  0.1352195E+00
          2   -1    0    0  502    0  0.00000000000E+00  0.00000000000E+00  0.12994859035E+04  0.12994859035E+04  0.00000000000E+00 0. -1.
          2   -1    0    0  503    0 -0.00000000000E+00 -0.00000000000E+00 -0.13174229855E+04  0.13174229855E+04  0.00000000000E+00 0. -1.
         24    2    1    2    0    0  0.78316327230E+02  0.43010625614E+02 -0.29538382339E+03  0.31867838503E+03  0.79504395717E+02 0.  0.
         25    2    1    2    0    0 -0.77013978655E+02  0.18772294783E+02  0.68996134090E+02  0.16334684582E+03  0.12505268314E+03 0.  0.
         24    2    1    2    0    0 -0.33056016966E+02 -0.40537865962E+02 -0.24938903085E+03  0.26720185063E+03  0.80410953438E+02 0.  0.
        -11    1    5    5    0    0  0.22813948468E+02 -0.23518334220E+01 -0.10857069355E+03  0.11096667456E+03  0.00000000000E+00 0.  1.
         12    1    5    5    0    0 -0.55869965434E+02 -0.38186032540E+02 -0.14081833730E+03  0.15623517606E+03  0.00000000000E+00 0. -1.
        -13    1    3    3    0    0  0.29545682978E+02  0.34812639535E+02 -0.47414561939E+02  0.65825587259E+02  0.00000000000E+00 0.  1.
         14    1    3    3    0    0  0.48770644252E+02  0.81979860787E+01 -0.24796926145E+03  0.25285279777E+03  0.00000000000E+00 0. -1.
          5    1    4    4  501    0 -0.38589323727E+02  0.66433542461E+02  0.89932015082E+01  0.77495284650E+02  0.47000000000E+01 0. -1.
         -5    1    4    4    0  501 -0.38424654928E+02 -0.47661247678E+02  0.60002932582E+02  0.85851561168E+02  0.47000000000E+01 0. -1.
          1    1    1    2  502    0  0.48332078275E+02  0.51749078626E+02  0.11596907000E+04  0.11618504536E+04  0.00000000000E+00 0. -1.
          1    1    1    2  503    0 -0.16578409883E+02 -0.72994133061E+02 -0.70185106188E+03  0.70583135393E+03  0.00000000000E+00 0. -1.
<mgrwt>
<rscale>  0 0.72375964E+02</rscale>
<asrwt>0</asrwt>
<pdfrwt beam="1">  1        2 0.19110087E+00 0.70809300E+02</pdfrwt>
<pdfrwt beam="2">  1        2 0.19373867E+00 0.73977291E+02</pdfrwt>
<totfact> 0.65071644E+01</totfact>
</mgrwt>
</event>
<event>
13    1  0.1589573E-008  0.1011998E+03  0.7546771E-02  0.1287455E+00
          2   -1    0    0  502    0  0.00000000000E+00  0.00000000000E+00  0.11882675837E+04  0.11882675837E+04  0.00000000000E+00 0. -1.
          2   -1    0    0  503    0 -0.00000000000E+00 -0.00000000000E+00 -0.34992227615E+04  0.34992227615E+04  0.00000000000E+00 0. -1.
         24    2    1    2    0    0  0.20674070253E+02  0.10836084589E+03 -0.47033765037E+03  0.48981370461E+03  0.80811322017E+02 0.  0.
         25    2    1    2    0    0 -0.16444043066E+02 -0.17592753943E+02  0.15463796457E+03  0.20029270990E+03  0.12499743201E+03 0.  0.
         24    2    1    2    0    0  0.13483539369E+02 -0.65407245084E+02 -0.15154653182E+03  0.18529714193E+03  0.83118986760E+02 0.  0.
        -11    1    5    5    0    0 -0.13401015959E+02  0.15203568330E+02 -0.18567356933E+02  0.27486041224E+02  0.00000000000E+00 0.  1.
         12    1    5    5    0    0  0.26884555328E+02 -0.80610813415E+02 -0.13297917488E+03  0.15781110071E+03  0.00000000000E+00 0. -1.
        -11    1    3    3    0    0 -0.39856387753E+01 -0.12157897323E+02 -0.29972771114E+02  0.32589366241E+02  0.00000000000E+00 0.  1.
         12    1    3    3    0    0  0.24659709028E+02  0.12051874322E+03 -0.44036487925E+03  0.45722433837E+03  0.00000000000E+00 0. -1.
          5    1    4    4  501    0  0.40622807175E+02 -0.18471866007E+02  0.11792851908E+02  0.46395944356E+02  0.47000000000E+01 0.  1.
         -5    1    4    4    0  501 -0.57066850241E+02  0.87911206363E+00  0.14284511266E+03  0.15389676555E+03  0.47000000000E+01 0.  1.
          1    1    1    2  502    0  0.82631563729E+02 -0.41228429473E+02  0.98110759282E+03  0.98544399507E+03  0.00000000000E+00 0. -1.
          1    1    1    2  503    0 -0.10034513029E+03  0.15867582608E+02 -0.28248165530E+04  0.28266427937E+04  0.00000000000E+00 0. -1.
<mgrwt>
<rscale>  0 0.96671516E+02</rscale>
<asrwt>0</asrwt>
<pdfrwt beam="1">  1        2 0.17474524E+00 0.92345865E+02</pdfrwt>
<pdfrwt beam="2">  1        2 0.51459157E+00 0.10119979E+03</pdfrwt>
<totfact> 0.54925732E+00</totfact>
</mgrwt>
</event>
<event>
13    1  0.1589573E-008  0.6874568E+02  0.7546771E-02  0.1372747E+00
          2   -1    0    0  503    0  0.00000000000E+00  0.00000000000E+00  0.22048734787E+04  0.22048734787E+04  0.00000000000E+00 0. -1.
          2   -1    0    0  502    0 -0.00000000000E+00 -0.00000000000E+00 -0.18127509965E+04  0.18127509965E+04  0.00000000000E+00 0. -1.
         24    2    1    2    0    0  0.27372544814E+02 -0.30083906529E+02 -0.33355883959E+03  0.34525417664E+03  0.79275780526E+02 0.  0.
         25    2    1    2    0    0 -0.15471678703E+03  0.77312680337E+02  0.82113637150E+02  0.22865372569E+03  0.12500136854E+03 0.  0.
         24    2    1    2    0    0  0.21597698848E+02 -0.91879742030E+01  0.30637292665E+03  0.31746584158E+03  0.79807962750E+02 0.  0.
        -13    1    5    5    0    0  0.46218594622E+02 -0.23441495049E+01  0.10860558284E+03  0.11805433558E+03  0.00000000000E+00 0.  1.
         14    1    5    5    0    0 -0.24620895774E+02 -0.68438246981E+01  0.19776734381E+03  0.19941150600E+03  0.00000000000E+00 0. -1.
        -13    1    3    3    0    0 -0.14632218376E+01 -0.10761574277E+02 -0.10197120711E+01  0.10908359720E+02  0.00000000000E+00 0.  1.
         14    1    3    3    0    0  0.28835766651E+02 -0.19322332252E+02 -0.33253912752E+03  0.33434581692E+03  0.00000000000E+00 0. -1.
          5    1    4    4  501    0 -0.12322745204E+03  0.94034851265E+02  0.19302727741E+02  0.15627617697E+03  0.47000000000E+01 0. -1.
         -5    1    4    4    0  501 -0.31489334985E+02 -0.16722170928E+02  0.62810909409E+02  0.72377548722E+02  0.47000000000E+01 0. -1.
          1    1    1    2  502    0  0.62326142967E+02  0.15198779537E+02 -0.13931081605E+04  0.13945844893E+04  0.00000000000E+00 0. -1.
          1    1    1    2  503    0  0.43420400398E+02 -0.53239579142E+02  0.17303029185E+04  0.17316662420E+04  0.00000000000E+00 0. -1.
<mgrwt>
<rscale>  0 0.66409423E+02</rscale>
<asrwt>0</asrwt>
<pdfrwt beam="1">  1        2 0.32424610E+00 0.68745682E+02</pdfrwt>
<pdfrwt beam="2">  1        2 0.26658103E+00 0.64152560E+02</pdfrwt>
<totfact> 0.13971749E+01</totfact>
</mgrwt>
</event>
<event>
13    1  0.1589573E-008  0.1158165E+03  0.7546771E-02  0.1391541E+00
          2   -1    0    0  503    0  0.00000000000E+00  0.00000000000E+00  0.31414626476E+03  0.31414626476E+03  0.00000000000E+00 0. -1.
          2   -1    0    0  502    0 -0.00000000000E+00 -0.00000000000E+00 -0.17352173827E+04  0.17352173827E+04  0.00000000000E+00 0. -1.
         24    2    1    2    0    0  0.10658417669E+02  0.10773545532E+03 -0.11480609054E+03  0.17738289779E+03  0.81016811855E+02 0.  0.
         25    2    1    2    0    0 -0.53750927922E+02 -0.15731221650E+03 -0.36276110651E+03  0.41815948158E+03  0.12500174368E+03 0.  0.
         24    2    1    2    0    0  0.53426328122E+02 -0.12025274940E+03  0.62737625909E+02  0.16707215592E+03  0.81621071441E+02 0.  0.
        -13    1    3    3    0    0  0.25966510122E+02  0.50357605945E+00 -0.14453723561E+02  0.29722438687E+02  0.00000000000E+00 0.  1.
         14    1    3    3    0    0 -0.15308092452E+02  0.10723187926E+03 -0.10035236698E+03  0.14766045910E+03  0.00000000000E+00 0. -1.
        -13    1    5    5    0    0  0.20944610255E+02  0.16851539626E-01  0.32849266898E+02  0.38958327973E+02  0.00000000000E+00 0.  1.
         14    1    5    5    0    0  0.32481717866E+02 -0.12026960094E+03  0.29888359010E+02  0.12811382795E+03  0.00000000000E+00 0. -1.
          5    1    4    4  501    0  0.38799871451E+02 -0.63238876954E+02 -0.10656237915E+03  0.12993158289E+03  0.47000000000E+01 0.  1.
         -5    1    4    4    0  501 -0.92550799373E+02 -0.94073339550E+02 -0.25619872737E+03  0.28822789869E+03  0.47000000000E+01 0.  1.
          1    1    1    2  502    0 -0.24460637696E+02  0.21677621667E+02 -0.11067066281E+04  0.11071891450E+04  0.00000000000E+00 0. -1.
          1    1    1    2  503    0  0.14126819827E+02  0.14815188892E+03  0.10046508135E+03  0.17955996714E+03  0.00000000000E+00 0. -1.
<mgrwt>
<rscale>  0 0.61525155E+02</rscale>
<asrwt>0</asrwt>
<pdfrwt beam="1">  1        2 0.46197980E-01 0.11581654E+03</pdfrwt>
<pdfrwt beam="2">  1        2 0.25517903E+00 0.32683973E+02</pdfrwt>
<totfact> 0.23082538E+02</totfact>
</mgrwt>
</event>
<event>
13    1  0.1589573E-008  0.9069200E+02  0.7546771E-02  0.1439105E+00
          2   -1    0    0  502    0  0.00000000000E+00  0.00000000000E+00  0.35892676318E+04  0.35892676318E+04  0.00000000000E+00 0. -1.
          2   -1    0    0  503    0 -0.00000000000E+00 -0.00000000000E+00 -0.20091688110E+04  0.20091688110E+04  0.00000000000E+00 0. -1.
         24    2    1    2    0    0 -0.63590151143E+02  0.36698230621E+02 -0.29552731006E+03  0.31517009761E+03  0.81273193494E+02 0.  0.
         25    2    1    2    0    0 -0.48635505301E+02 -0.81609134678E+02  0.48008789649E+03  0.50510906170E+03  0.12500125045E+03 0.  0.
         24    2    1    2    0    0  0.40680423568E+02  0.51880778733E+02  0.99791669461E+02  0.14502679715E+03  0.82023670578E+02 0.  0.
        -11    1    5    5    0    0  0.57010215923E+02  0.28647754047E+02  0.97520906880E+02  0.11653834481E+03  0.00000000000E+00 0.  1.
         12    1    5    5    0    0 -0.16329792355E+02  0.23233024686E+02  0.22707625812E+01  0.28488452347E+02  0.00000000000E+00 0. -1.
        -11    1    3    3    0    0  0.11785596226E+02 -0.11856895216E+02 -0.24207045404E+02  0.29418825431E+02  0.00000000000E+00 0.  1.
         12    1    3    3    0    0 -0.75375747369E+02  0.48555125838E+02 -0.27132026466E+03  0.28575127217E+03  0.00000000000E+00 0. -1.
          5    1    4    4  501    0 -0.95949476544E+01  0.31065056263E+01  0.31681702947E+03  0.31701235553E+03  0.47000000000E+01 0.  1.
         -5    1    4    4    0  501 -0.39040557646E+02 -0.84715640304E+02  0.16327086702E+03  0.18809670617E+03  0.47000000000E+01 0.  1.
          1    1    1    2  502    0  0.89356702100E+02  0.15759176626E+02  0.29636192062E+04  0.29650078872E+04  0.00000000000E+00 0. -1.
          1    1    1    2  503    0 -0.17811469225E+02 -0.22729051302E+02 -0.16678726412E+04  0.16681225991E+04  0.00000000000E+00 0. -1.
<mgrwt>
<rscale>  0 0.51174964E+02</rscale>
<asrwt>0</asrwt>
<pdfrwt beam="1">  1        2 0.52783348E+00 0.90692001E+02</pdfrwt>
<pdfrwt beam="2">  1        2 0.29546600E+00 0.28876603E+02</pdfrwt>
<totfact> 0.22248771E+00</totfact>
</mgrwt>
</event>
<event>
13    1  0.1589573E-008  0.1844733E+03  0.7546771E-02  0.1272515E+00
          2   -1    0    0  502    0  0.00000000000E+00  0.00000000000E+00  0.12475708754E+04  0.12475708754E+04  0.00000000000E+00 0. -1.
          2   -1    0    0  503    0 -0.00000000000E+00 -0.00000000000E+00 -0.40501802269E+04  0.40501802269E+04  0.00000000000E+00 0. -1.
         24    2    1    2    0    0 -0.21045246931E+02  0.39615606579E+02 -0.34678286766E+03  0.35851651526E+03  0.79141870732E+02 0.  0.
         25    2    1    2    0    0  0.60127177621E+02  0.15361786664E+03 -0.65888342866E+03  0.69062786454E+03  0.12500299306E+03 0.  0.
         24    2    1    2    0    0  0.54813028162E+01  0.17842254767E+02 -0.83809881428E+02  0.12092621773E+03  0.85150826034E+02 0.  0.
        -11    1    3    3    0    0 -0.46731441184E+02  0.18163083804E+02 -0.27206556079E+03  0.27664669630E+03  0.00000000000E+00 0.  1.
         12    1    3    3    0    0  0.25686194253E+02  0.21452522775E+02 -0.74717306879E+02  0.81869818956E+02  0.00000000000E+00 0. -1.
        -13    1    5    5    0    0 -0.38868540690E+02 -0.11977181849E+01 -0.36066368295E+02  0.53037542423E+02  0.00000000000E+00 0.  1.
         14    1    5    5    0    0  0.44349843506E+02  0.19039972951E+02 -0.47743513133E+02  0.67888675310E+02  0.00000000000E+00 0. -1.
          5    1    4    4  501    0 -0.35635441755E+02  0.57484508310E+02 -0.16408914024E+03  0.17754348580E+03  0.47000000000E+01 0.  1.
         -5    1    4    4    0  501  0.95762619376E+02  0.96133358334E+02 -0.49479428842E+03  0.51308437874E+03  0.47000000000E+01 0.  1.
          1    1    1    2  502    0  0.75251670880E+01 -0.18466924949E+03  0.11999056297E+04  0.12140563743E+04  0.00000000000E+00 0. -1.
          1    1    1    2  503    0 -0.52088400594E+02 -0.26406478504E+02 -0.29130388034E+04  0.29136241304E+04  0.00000000000E+00 0. -1.
<mgrwt>
<rscale>  0 0.10379378E+03</rscale>
<asrwt>0</asrwt>
<pdfrwt beam="1">  1        2 0.18346631E+00 0.18447326E+03</pdfrwt>
<pdfrwt beam="2">  1        2 0.59561473E+00 0.58399517E+02</pdfrwt>
<totfact> 0.24777038E+00</totfact>
</mgrwt>
</event>
<event>
13    1  0.1589573E-008  0.1327573E+03  0.7546771E-02  0.1234078E+00
          2   -1    0    0  503    0  0.00000000000E+00  0.00000000000E+00  0.26125974050E+04  0.26125974050E+04  0.00000000000E+00 0. -1.
          2   -1    0    0  502    0 -0.00000000000E+00 -0.00000000000E+00 -0.15688056629E+04  0.15688056629E+04  0.00000000000E+00 0. -1.
         24    2    1    2    0    0 -0.54109630142E+03  0.25964549075E+03 -0.48216832785E+03  0.77443393581E+03  0.84027592343E+02 0.  0.
         25    2    1    2    0    0  0.32031548689E+03 -0.20373475714E+03  0.88453157202E+03  0.97063507314E+03  0.12500592350E+03 0.  0.
         24    2    1    2    0    0  0.33953997787E+03  0.62607967741E+02 -0.20747425907E+03  0.40771447038E+03  0.63074297336E+02 0.  0.
        -13    1    3    3    0    0 -0.41934755367E+03  0.16834870580E+03 -0.38701089394E+03  0.59495469537E+03  0.00000000000E+00 0.  1.
         14    1    3    3    0    0 -0.12174874776E+03  0.91296784948E+02 -0.95157433905E+02  0.17947924044E+03  0.00000000000E+00 0. -1.
        -13    1    5    5    0    0  0.76705934645E+02  0.24763159615E+02 -0.21184416612E+02  0.83341430219E+02  0.00000000000E+00 0.  1.
         14    1    5    5    0    0  0.26283404322E+03  0.37844808126E+02 -0.18628984246E+03  0.32437304016E+03  0.00000000000E+00 0. -1.
          5    1    4    4  501    0  0.65320278491E+02 -0.93869269117E+02  0.17950891470E+03  0.21289367986E+03  0.47000000000E+01 0. -1.
         -5    1    4    4    0  501  0.25499520840E+03 -0.10986548802E+03  0.70502265732E+03  0.75774139329E+03  0.47000000000E+01 0. -1.
          1    1    1    2  502    0  0.14039572166E+02 -0.11806559243E+03 -0.58075820093E+03  0.59280408369E+03  0.00000000000E+00 0. -1.
          1    1    1    2  503    0 -0.13279873550E+03 -0.45310892443E+00  0.14296609579E+04  0.14358155049E+04  0.00000000000E+00 0. -1.
<mgrwt>
<rscale>  0 0.12563637E+03</rscale>
<asrwt>0</asrwt>
<pdfrwt beam="1">  1        2 0.38420550E+00 0.13275729E+03</pdfrwt>
<pdfrwt beam="2">  1        2 0.23070672E+00 0.11889741E+03</pdfrwt>
<totfact> 0.10059103E+01</totfact>
</mgrwt>
</event>
<event>
13    1  0.1589573E-008  0.1168385E+03  0.7546771E-02  0.1267168E+00
          2   -1    0    0  502    0  0.00000000000E+00  0.00000000000E+00  0.32121470402E+04  0.32121470402E+04  0.00000000000E+00 0. -1.
          2   -1    0    0  503    0 -0.00000000000E+00 -0.00000000000E+00 -0.10696976291E+04  0.10696976291E+04  0.00000000000E+00 0. -1.
         24    2    1    2    0    0 -0.17761181822E+02  0.48259441464E+02 -0.19057892723E+03  0.21389855901E+03  0.82388304842E+02 0.  0.
         25    2    1    2    0    0  0.14968883344E+03 -0.27795709700E+02  0.39542519622E+03  0.44177461880E+03  0.12499751870E+03 0.  0.
         24    2    1    2    0    0  0.55617632973E+02  0.69093933406E+02  0.10839153045E+04  0.10905503472E+04  0.80996170902E+02 0.  0.
        -11    1    5    5    0    0 -0.96301376331E+01 -0.26573034641E+01  0.36341370384E+03  0.36355098810E+03  0.00000000000E+00 0.  1.
         12    1    5    5    0    0  0.65247770606E+02  0.71751236870E+02  0.72050160067E+03  0.72699935910E+03  0.00000000000E+00 0. -1.
        -13    1    3    3    0    0  0.90638367092E+01 -0.18624120143E+02 -0.74009557374E+02  0.76853272993E+02  0.00000000000E+00 0.  1.
         14    1    3    3    0    0 -0.26825018531E+02  0.66883561607E+02 -0.11656936985E+03  0.13704528602E+03  0.00000000000E+00 0. -1.
          5    1    4    4  501    0  0.12467997988E+02  0.37416775837E+02  0.12971791397E+03  0.13566242403E+03  0.47000000000E+01 0. -1.
         -5    1    4    4    0  501  0.13722083545E+03 -0.65212485537E+02  0.26570728225E+03  0.30611219478E+03  0.47000000000E+01 0. -1.
          1    1    1    2  502    0 -0.92374664631E+02 -0.70301813751E+02  0.16898538100E+04  0.16938362739E+04  0.00000000000E+00 0. -1.
          1    1    1    2  503    0 -0.95170619960E+02 -0.19255851420E+02 -0.83616597236E+03  0.84178487041E+03  0.00000000000E+00 0. -1.
<mgrwt>
<rscale>  0 0.10651251E+03</rscale>
<asrwt>0</asrwt>
<pdfrwt beam="1">  1        2 0.47237456E+00 0.11683852E+03</pdfrwt>
<pdfrwt beam="2">  1        2 0.15730848E+00 0.97099097E+02</pdfrwt>
<totfact> 0.90495466E+00</totfact>
</mgrwt>
</event>
<event>
13    1  0.1589573E-008  0.1654145E+03  0.7546771E-02  0.1286125E+00
          2   -1    0    0  503    0  0.00000000000E+00  0.00000000000E+00  0.25791219040E+04  0.25791219040E+04  0.00000000000E+00 0. -1.
          2   -1    0    0  502    0 -0.00000000000E+00 -0.00000000000E+00 -0.12180362458E+04  0.12180362458E+04  0.00000000000E+00 0. -1.
         24    2    1    2    0    0 -0.15197083094E+03  0.11622111037E+02 -0.43605538249E+02  0.17805414748E+03  0.81065587943E+02 0.  0.
         25    2    1    2    0    0 -0.88465055809E+02 -0.14957308881E+03  0.12314797781E+03  0.24695631568E+03  0.12499528960E+03 0.  0.
         24    2    1    2    0    0  0.34873163286E+02  0.50646330347E+02  0.72205769176E+03  0.72899294970E+03  0.79260470484E+02 0.  0.
        -11    1    3    3    0    0 -0.40528614355E+02  0.35390439286E+02 -0.34118427098E+02  0.63711214414E+02  0.00000000000E+00 0.  1.
         12    1    3    3    0    0 -0.11144221658E+03 -0.23768328250E+02 -0.94871111510E+01  0.11434293307E+03  0.00000000000E+00 0. -1.
        -13    1    5    5    0    0  0.42672386544E+02  0.66906085646E+02  0.64445777345E+03  0.64932517172E+03  0.00000000000E+00 0.  1.
         14    1    5    5    0    0 -0.77992232587E+01 -0.16259755299E+02  0.77599918314E+02  0.79667777979E+02  0.00000000000E+00 0. -1.
          5    1    4    4  501    0  0.16275309084E+02 -0.81454644786E+02  0.77943350524E+02  0.11400438910E+03  0.47000000000E+01 0. -1.
         -5    1    4    4    0  501 -0.10474036489E+03 -0.68118444026E+02  0.45204627282E+02  0.13295192658E+03  0.47000000000E+01 0. -1.
          1    1    1    2  502    0  0.15497146687E+03  0.60595607797E+02 -0.10346741956E+04  0.10479688327E+04  0.00000000000E+00 0. -1.
          1    1    1    2  503    0  0.50591256590E+02  0.26709039630E+02  0.15941597225E+04  0.15951859042E+04  0.00000000000E+00 0. -1.
<mgrwt>
<rscale>  0 0.97278814E+02</rscale>
<asrwt>0</asrwt>
<pdfrwt beam="1">  1        2 0.37928263E+00 0.57208811E+02</pdfrwt>
<pdfrwt beam="2">  1        2 0.17912298E+00 0.16541452E+03</pdfrwt>
<totfact> 0.17365055E+01</totfact>
</mgrwt>
</event>
<event>
13    1  0.1589573E-008  0.1532715E+03  0.7546771E-02  0.1249885E+00
          2   -1    0    0  503    0  0.00000000000E+00  0.00000000000E+00  0.20413833906E+04  0.20413833906E+04  0.00000000000E+00 0. -1.
          2   -1    0    0  502    0 -0.00000000000E+00 -0.00000000000E+00 -0.13434862797E+04  0.13434862797E+04  0.00000000000E+00 0. -1.
         24    2    1    2    0    0 -0.12220708413E+03 -0.22875637952E+03 -0.60453687867E+03  0.66363510958E+03  0.87650832345E+02 0.  0.
         25    2    1    2    0    0  0.35429792920E+03  0.17497558479E+03  0.48125420163E+03  0.63511741485E+03  0.12500018464E+03 0.  0.
         24    2    1    2    0    0 -0.16754986788E+03  0.16307449663E+02  0.77309427666E+03  0.79529548976E+03  0.80506299595E+02 0.  0.
        -11    1    5    5    0    0 -0.65436743993E+02  0.23971852681E+01  0.48343393569E+03  0.48784842332E+03  0.00000000000E+00 0.  1.
         12    1    5    5    0    0 -0.10211312388E+03  0.13910264395E+02  0.28966034097E+03  0.30744706643E+03  0.00000000000E+00 0. -1.
        -13    1    3    3    0    0  0.84049036675E+01 -0.18273497367E+02 -0.94607340881E+02  0.96721828251E+02  0.00000000000E+00 0.  1.
         14    1    3    3    0    0 -0.13061198779E+03 -0.21048288216E+03 -0.50992953779E+03  0.56691328133E+03  0.00000000000E+00 0. -1.
          5    1    4    4  501    0  0.14109616527E+03  0.80306895550E+01  0.13470841450E+03  0.19529738034E+03  0.47000000000E+01 0. -1.
         -5    1    4    4    0  501  0.21320176392E+03  0.16694489524E+03  0.34654578712E+03  0.43982003451E+03  0.47000000000E+01 0. -1.
          1    1    1    2  502    0  0.87225980273E+02  0.96388056177E+01 -0.60929159169E+03  0.61557901354E+03  0.00000000000E+00 0. -1.
          1    1    1    2  503    0 -0.15176695747E+03  0.27834539449E+02  0.65737710296E+03  0.67524264265E+03  0.00000000000E+00 0. -1.
<mgrwt>
<rscale>  0 0.11597689E+03</rscale>
<asrwt>0</asrwt>
<pdfrwt beam="1">  1        2 0.30020344E+00 0.15327154E+03</pdfrwt>
<pdfrwt beam="2">  1        2 0.19757151E+00 0.87756927E+02</pdfrwt>
<totfact> 0.25252420E+01</totfact>
</mgrwt>
</event>
<event>
13    1  0.1589573E-008  0.1853373E+03  0.7546771E-02  0.1382552E+00
          2   -1    0    0  503    0  0.00000000000E+00  0.00000000000E+00  0.17637944626E+04  0.17637944626E+04  0.00000000000E+00 0. -1.
          2   -1    0    0  502    0 -0.00000000000E+00 -0.00000000000E+00 -0.12979054900E+04  0.12979054900E+04  0.00000000000E+00 0. -1.
         24    2    1    2    0    0 -0.20339098633E+03 -0.71492329589E+02 -0.23002195848E+03  0.32555532727E+03  0.81222676755E+02 0.  0.
         25    2    1    2    0    0 -0.65307075060E+02  0.66379630453E+02  0.74156229853E+03  0.75776633627E+03  0.12499563346E+03 0.  0.
         24    2    1    2    0    0  0.98890421262E+01 -0.11441602131E+03 -0.19174136632E+03  0.23719029823E+03  0.79408229603E+02 0.  0.
        -11    1    5    5    0    0 -0.10152029020E+02 -0.11586021279E+03 -0.14204049416E+03  0.18358146580E+03  0.00000000000E+00 0.  1.
         12    1    5    5    0    0  0.20041071146E+02  0.14441914815E+01 -0.49700872158E+02  0.53608832434E+02  0.00000000000E+00 0. -1.
        -13    1    3    3    0    0 -0.15576584660E+03 -0.35397220031E+02 -0.11801363874E+03  0.19860307419E+03  0.00000000000E+00 0.  1.
         14    1    3    3    0    0 -0.47625139737E+02 -0.36095109558E+02 -0.11200831975E+03  0.12695225308E+03  0.00000000000E+00 0. -1.
          5    1    4    4  501    0 -0.37964657966E+02  0.96244857507E+02  0.37819650179E+03  0.39212124632E+03  0.47000000000E+01 0. -1.
         -5    1    4    4    0  501 -0.27342417094E+02 -0.29865227055E+02  0.36336579674E+03  0.36564508995E+03  0.47000000000E+01 0. -1.
          1    1    1    2  502    0  0.26260618530E+03  0.97898726300E+02 -0.77279264064E+03  0.82204296396E+03  0.00000000000E+00 0. -1.
          1    1    1    2  503    0 -0.37971660382E+01  0.21629994146E+02  0.91888263959E+03  0.91914502689E+03  0.00000000000E+00 0. -1.
<mgrwt>
<rscale>  0 0.63797711E+02</rscale>
<asrwt>0</asrwt>
<pdfrwt beam="1">  1        2 0.25938154E+00 0.21960763E+02</pdfrwt>
<pdfrwt beam="2">  1        2 0.19086845E+00 0.18533727E+03</pdfrwt>
<totfact> 0.42006312E+01</totfact>
</mgrwt>
</event>
<event>
13    1  0.1589573E-008  0.3900203E+02  0.7546771E-02  0.1600474E+00
          2   -1    0    0  502    0  0.00000000000E+00  0.00000000000E+00  0.58863287083E+03  0.58863287083E+03  0.00000000000E+00 0. -1.
          4   -1    0    0  503    0 -0.00000000000E+00 -0.00000000000E+00 -0.24706166023E+04  0.24706166023E+04  0.00000000000E+00 0. -1.
         24    2    1    2    0    0  0.46780886375E+02 -0.47835960985E+02 -0.39747125405E+03  0.41117631649E+03  0.81276287764E+02 0.  0.
         25    2    1    2    0    0 -0.30421646283E+02  0.45949801264E+02 -0.47106348943E+03  0.49047333336E+03  0.12500567533E+03 0.  0.
         24    2    1    2    0    0 -0.12824544628E+02 -0.49998320549E+02 -0.62910787271E+01  0.95569302777E+02  0.80184867394E+02 0.  0.
        -11    1    5    5    0    0 -0.21997185622E+02 -0.69717946397E+02 -0.89791254783E+01  0.73655230089E+02  0.00000000000E+00 0.  1.
         12    1    5    5    0    0  0.91726409943E+01  0.19719625848E+02  0.26880467512E+01  0.21914072687E+02  0.00000000000E+00 0. -1.
        -11    1    3    3    0    0  0.64399203435E+02 -0.56268075927E+02 -0.31260799360E+03  0.32409429405E+03  0.00000000000E+00 0.  1.
         12    1    3    3    0    0 -0.17618317060E+02  0.84321149423E+01 -0.84863260446E+02  0.87082022439E+02  0.00000000000E+00 0. -1.
          5    1    4    4  501    0 -0.10523159047E+02  0.52731512471E+02 -0.67924841183E+02  0.86759572000E+02  0.47000000000E+01 0. -1.
         -5    1    4    4    0  501 -0.19898487236E+02 -0.67817112076E+01 -0.40313864825E+03  0.40371376136E+03  0.47000000000E+01 0. -1.
          1    1    1    2  502    0 -0.18193480330E+02  0.34491190396E+02  0.52663108846E+03  0.52807286266E+03  0.00000000000E+00 0. -1.
          3    1    1    2  503    0  0.14658784867E+02  0.17393289874E+02 -0.15337889978E+04  0.15339576579E+04  0.00000000000E+00 0. -1.
<mgrwt>
<rscale>  0 0.29785271E+02</rscale>
<asrwt>0</asrwt>
<pdfrwt beam="1">  1        2 0.86563659E-01 0.39002027E+02</pdfrwt>
<pdfrwt beam="2">  1        4 0.36332597E+00 0.22746571E+02</pdfrwt>
<totfact> 0.57079819E-01</totfact>
</mgrwt>
</event>
<event>
13    1  0.1589573E-008  0.1007418E+03  0.7546771E-02  0.1293711E+00
          2   -1    0    0  502    0  0.00000000000E+00  0.00000000000E+00  0.37172545721E+04  0.37172545721E+04  0.00000000000E+00 0. -1.
          2   -1    0    0  503    0 -0.00000000000E+00 -0.00000000000E+00 -0.15006456809E+04  0.15006456809E+04  0.00000000000E+00 0. -1.
         24    2    1    2    0    0 -0.14810293193E+03 -0.15006197433E+03  0.83574266045E+03  0.86566620331E+03  0.80368566422E+02 0.  0.
         25    2    1    2    0    0  0.69050777037E+02  0.15135584269E+03  0.15385554729E+03  0.25879346128E+03  0.12500370091E+03 0.  0.
         24    2    1    2    0    0  0.14119707028E+03 -0.32438039614E+02  0.74881871261E+03  0.76689059037E+03  0.80017961539E+02 0.  0.
        -11    1    3    3    0    0 -0.14270491065E+02 -0.64647852013E+02  0.27728475676E+03  0.28507863479E+03  0.00000000000E+00 0.  1.
         12    1    3    3    0    0 -0.13383244086E+03 -0.85414122322E+02  0.55845790370E+03  0.58058756852E+03  0.00000000000E+00 0. -1.
        -13    1    5    5    0    0  0.96188168400E+02  0.13108418854E+02  0.53317697645E+03  0.54194250858E+03  0.00000000000E+00 0.  1.
         14    1    5    5    0    0  0.45008901875E+02 -0.45546458468E+02  0.21564173616E+03  0.22494808179E+03  0.00000000000E+00 0. -1.
          5    1    4    4  501    0  0.12704443651E+02 -0.21932279156E+02  0.20645458483E+02  0.33026545587E+02  0.47000000000E+01 0. -1.
         -5    1    4    4    0  501  0.56346333386E+02  0.17328812184E+03  0.13321008881E+03  0.22576691569E+03  0.47000000000E+01 0. -1.
          1    1    1    2  502    0 -0.87190675579E+02 -0.52686128672E+02  0.18996611775E+04  0.19023907673E+04  0.00000000000E+00 0. -1.
          1    1    1    2  503    0  0.25045760196E+02  0.83830299933E+02 -0.14214692066E+04  0.14241592308E+04  0.00000000000E+00 0. -1.
<mgrwt>
<rscale>  0 0.93883332E+02</rscale>
<asrwt>0</asrwt>
<pdfrwt beam="1">  1        2 0.54665508E+00 0.10074182E+03</pdfrwt>
<pdfrwt beam="2">  1        2 0.22068319E+00 0.87491767E+02</pdfrwt>
<totfact> 0.28260802E+00</totfact>
</mgrwt>
</event>
<event>
13    1  0.1589573E-008  0.6348734E+02  0.7546771E-02  0.1461453E+00
         -3   -1    0    0    0  501 -0.00000000000E+00  0.00000000000E+00  0.11885897278E+04  0.11885897278E+04  0.00000000000E+00 0.  1.
          2   -1    0    0  503    0  0.00000000000E+00 -0.00000000000E+00 -0.37985111168E+04  0.37985111168E+04  0.00000000000E+00 0. -1.
         24    2    1    2    0    0  0.40667690844E+01  0.83615757522E+01 -0.79660104825E+02  0.11396679877E+03  0.80970638885E+02 0.  0.
         25    2    1    2    0    0  0.68900843594E+02  0.14467853793E+03 -0.21428424365E+03  0.29533315821E+03  0.12499892668E+03 0.  0.
         24    2    1    2    0    0  0.18215216979E+02 -0.11710283125E+03 -0.40959381809E+03  0.43399318614E+03  0.80858658027E+02 0.  0.
        -11    1    3    3    0    0 -0.22864401450E+02  0.34349381944E+02 -0.26812800481E+02  0.49209624701E+02  0.00000000000E+00 0.  1.
         12    1    3    3    0    0  0.26931170534E+02 -0.25987806192E+02 -0.52847304344E+02  0.64757174069E+02  0.00000000000E+00 0. -1.
        -13    1    5    5    0    0  0.18003388783E+02 -0.12673509597E+03 -0.40149338289E+03  0.42140579382E+03  0.00000000000E+00 0.  1.
         14    1    5    5    0    0  0.21182819577E+00  0.96322647248E+01 -0.81004352010E+01  0.12587392318E+02  0.00000000000E+00 0. -1.
          5    1    4    4  502    0 -0.34879525376E+02  0.18532577722E+02 -0.39639221402E+02  0.56155103070E+02  0.47000000000E+01 0. -1.
         -5    1    4    4    0  502  0.10378036897E+03  0.12614596021E+03 -0.17464502225E+03  0.23917805514E+03  0.47000000000E+01 0. -1.
          1    1    1    2  503    0 -0.57453395671E+02 -0.26628686293E+02 -0.30244903568E+04  0.30251532023E+04  0.00000000000E+00 0. -1.
         -4    1    1    2    0  501 -0.33729433985E+02 -0.93085961447E+01  0.11181071343E+04  0.11186544991E+04  0.00000000000E+00 0.  1.
<mgrwt>
<rscale>  0 0.47132201E+02</rscale>
<asrwt>0</asrwt>
<pdfrwt beam="2">  1        2 0.55860457E+00 0.63487342E+02</pdfrwt>
<pdfrwt beam="1">  1       -3 0.17479261E+00 0.34990351E+02</pdfrwt>
<totfact> 0.16079181E-01</totfact>
</mgrwt>
</event>
<event>
13    1  0.1589573E-008  0.1056595E+03  0.7546771E-02  0.1398738E+00
          2   -1    0    0  502    0  0.00000000000E+00  0.00000000000E+00  0.58484954483E+03  0.58484954483E+03  0.00000000000E+00 0. -1.
          2   -1    0    0  503    0 -0.00000000000E+00 -0.00000000000E+00 -0.10581801644E+04  0.10581801644E+04  0.00000000000E+00 0. -1.
         24    2    1    2    0    0 -0.20608938529E+03  0.19935084782E+02 -0.71731576509E+03  0.75145035449E+03  0.85237820686E+02 0.  0.
         25    2    1    2    0    0  0.31945922774E+03 -0.13955397213E+03  0.31735665113E+03  0.48771874109E+03  0.12499926827E+03 0.  0.
         24    2    1    2    0    0 -0.25153785160E+02  0.49138935433E+02  0.21505375248E+01  0.95148251911E+02  0.77467523174E+02 0.  0.
        -11    1    3    3    0    0 -0.26624388245E+02  0.30902002034E+01 -0.27218132254E+02  0.38199922907E+02  0.00000000000E+00 0.  1.
         12    1    3    3    0    0 -0.17946499704E+03  0.16844884578E+02 -0.69009763284E+03  0.71325043158E+03  0.00000000000E+00 0. -1.
        -13    1    5    5    0    0  0.14538216844E+01  0.46486466792E+02  0.30937019280E+02  0.55858789409E+02  0.00000000000E+00 0.  1.
         14    1    5    5    0    0 -0.26607606845E+02  0.26524686402E+01 -0.28786481755E+02  0.39289462502E+02  0.00000000000E+00 0. -1.
          5    1    4    4  501    0 -0.10948423511E+02 -0.42277472018E+01  0.61523253228E+01  0.14059976197E+02  0.47000000000E+01 0. -1.
         -5    1    4    4    0  501  0.33040765125E+03 -0.13532622493E+03  0.31120432580E+03  0.47365876489E+03  0.47000000000E+01 0. -1.
          1    1    1    2  502    0 -0.59001582141E+02  0.87533186125E+02  0.90643587461E+02  0.13913843939E+03  0.00000000000E+00 0. -1.
          1    1    1    2  503    0 -0.29214475154E+02 -0.17053234211E+02 -0.16616563062E+03  0.16957392239E+03  0.00000000000E+00 0. -1.
<mgrwt>
<rscale>  0 0.59784568E+02</rscale>
<asrwt>0</asrwt>
<pdfrwt beam="1">  1        2 0.86007286E-01 0.10565950E+03</pdfrwt>
<pdfrwt beam="2">  1        2 0.15561473E+00 0.33827479E+02</pdfrwt>
<totfact> 0.25041373E+02</totfact>
</mgrwt>
</event>
<event>
13    1  0.1589573E-008  0.5756259E+02  0.7546771E-02  0.1525265E+00
          2   -1    0    0  503    0  0.00000000000E+00  0.00000000000E+00  0.85102385366E+03  0.85102385366E+03  0.00000000000E+00 0. -1.
          2   -1    0    0  502    0 -0.00000000000E+00 -0.00000000000E+00 -0.91159475130E+03  0.91159475130E+03  0.00000000000E+00 0. -1.
         24    2    1    2    0    0  0.39828931641E+01 -0.16691376369E+02 -0.53578136081E+03  0.54227216136E+03  0.81871636770E+02 0.  0.
         25    2    1    2    0    0  0.40924543019E+02  0.14223149776E+02  0.15220348492E+03  0.20166300042E+03  0.12499979481E+03 0.  0.
         24    2    1    2    0    0 -0.72305185846E+02 -0.17714589141E+02 -0.16183605185E+02  0.11131724728E+03  0.81165102702E+02 0.  0.
        -11    1    5    5    0    0 -0.13008916659E+02 -0.43107458917E+02 -0.12390140241E+02  0.46701183091E+02  0.00000000000E+00 0.  1.
         12    1    5    5    0    0 -0.59296269187E+02  0.25392869777E+02 -0.37934649440E+01  0.64616064189E+02  0.00000000000E+00 0. -1.
        -11    1    3    3    0    0  0.30533322790E+02 -0.38582859741E+02 -0.32308152386E+03  0.32680665832E+03  0.00000000000E+00 0.  1.
         12    1    3    3    0    0 -0.26550429626E+02  0.21891483373E+02 -0.21269983696E+03  0.21546550304E+03  0.00000000000E+00 0. -1.
          5    1    4    4  501    0  0.52595236019E+02 -0.40906027720E+02  0.45245025195E+02  0.80676912810E+02  0.47000000000E+01 0.  1.
         -5    1    4    4    0  501 -0.11670693000E+02  0.55129177496E+02  0.10695845973E+03  0.12098608761E+03  0.47000000000E+01 0.  1.
          1    1    1    2  502    0 -0.12434065891E+02 -0.21443594653E+02 -0.28221198885E+03  0.28329850052E+03  0.00000000000E+00 0. -1.
          1    1    1    2  503    0  0.39831815554E+02  0.41626410386E+02  0.62140257228E+03  0.62406769538E+03  0.00000000000E+00 0. -1.
<mgrwt>
<rscale>  0 0.37773649E+02</rscale>
<asrwt>0</asrwt>
<pdfrwt beam="1">  1        2 0.12515057E+00 0.57562594E+02</pdfrwt>
<pdfrwt beam="2">  1        2 0.13405805E+00 0.24787774E+02</pdfrwt>
<totfact> 0.20200574E+02</totfact>
</mgrwt>
</event>
<event>
13    1  0.1589573E-008  0.1379959E+03  0.7546771E-02  0.1230708E+00
          2   -1    0    0  503    0  0.00000000000E+00  0.00000000000E+00  0.68799995906E+03  0.68799995906E+03  0.00000000000E+00 0. -1.
          2   -1    0    0  502    0 -0.00000000000E+00 -0.00000000000E+00 -0.16718341228E+04  0.16718341228E+04  0.00000000000E+00 0. -1.
         24    2    1    2    0    0  0.10439351264E+03  0.28395793862E+02 -0.39155587033E+03  0.41414829873E+03  0.80613194729E+02 0.  0.
         25    2    1    2    0    0 -0.37129717118E+03 -0.14490594209E+03 -0.26509879395E+02  0.41855467048E+03  0.12500366834E+03 0.  0.
         24    2    1    2    0    0  0.33465723401E+03 -0.65466047567E+01 -0.30811428932E+03  0.46191397515E+03  0.79948626326E+02 0.  0.
        -13    1    5    5    0    0  0.59135297311E+02 -0.15897773953E+01 -0.18114443481E+02  0.61867954894E+02  0.00000000000E+00 0.  1.
         14    1    5    5    0    0  0.27552193670E+03 -0.49568273614E+01 -0.28999984584E+03  0.40004602026E+03  0.00000000000E+00 0. -1.
        -13    1    3    3    0    0  0.11735051480E+03  0.18966030062E+02 -0.34727232716E+03  0.36705438674E+03  0.00000000000E+00 0.  1.
         14    1    3    3    0    0 -0.12957002163E+02  0.94297638004E+01 -0.44283543176E+02  0.47093911990E+02  0.00000000000E+00 0. -1.
          5    1    4    4  501    0  0.19198213243E+00  0.21850869585E+01  0.15907980708E+02  0.16732164007E+02  0.47000000000E+01 0.  1.
         -5    1    4    4    0  501 -0.37148915331E+03 -0.14709102905E+03 -0.42417860104E+02  0.40182250648E+03  0.47000000000E+01 0.  1.
          1    1    1    2  502    0  0.68288702582E+02  0.96743704982E+02 -0.64398856908E+03  0.65478543696E+03  0.00000000000E+00 0. -1.
          1    1    1    2  503    0 -0.13604227804E+03  0.26313048002E+02  0.38633444437E+03  0.41043170055E+03  0.00000000000E+00 0. -1.
<mgrwt>
<rscale>  0 0.12783240E+03</rscale>
<asrwt>0</asrwt>
<pdfrwt beam="1">  1        2 0.10117647E+00 0.13799590E+03</pdfrwt>
<pdfrwt beam="2">  1        2 0.24585795E+00 0.11841745E+03</pdfrwt>
<totfact> 0.93310641E+01</totfact>
</mgrwt>
</event>
<event>
13    1  0.1589573E-008  0.1274215E+03  0.7546771E-02  0.1311698E+00
          2   -1    0    0  502    0  0.00000000000E+00  0.00000000000E+00  0.14000146762E+04  0.14000146762E+04  0.00000000000E+00 0. -1.
          2   -1    0    0  503    0 -0.00000000000E+00 -0.00000000000E+00 -0.10924972106E+04  0.10924972106E+04  0.00000000000E+00 0. -1.
         24    2    1    2    0    0  0.25359142692E+02  0.33280944774E+02 -0.10189202387E+03  0.13747281183E+03  0.82256197708E+02 0.  0.
         25    2    1    2    0    0 -0.14529460611E+03 -0.58845582428E+02  0.30156905274E+03  0.36213370643E+03  0.12499441038E+03 0.  0.
         24    2    1    2    0    0 -0.11647449394E+02 -0.10027298622E+03  0.25593514861E+03  0.28676171158E+03  0.80864974457E+02 0.  0.
        -11    1    3    3    0    0  0.54659336563E+02  0.15471238908E+02 -0.73893290342E+02  0.93205260927E+02  0.00000000000E+00 0.  1.
         12    1    3    3    0    0 -0.29300193871E+02  0.17809705866E+02 -0.27998733530E+02  0.44267550906E+02  0.00000000000E+00 0. -1.
        -11    1    5    5    0    0  0.15666867690E+02 -0.33109065348E+01  0.56763157488E+01  0.16989214395E+02  0.00000000000E+00 0.  1.
         12    1    5    5    0    0 -0.27314317083E+02 -0.96962079687E+02  0.25025883286E+03  0.26977249719E+03  0.00000000000E+00 0. -1.
          5    1    4    4  501    0 -0.14677760712E+03 -0.76558294964E+02  0.20357772042E+03  0.26243249938E+03  0.47000000000E+01 0. -1.
         -5    1    4    4    0  501  0.14830010103E+01  0.17712712536E+02  0.97991332319E+02  0.99701207049E+02  0.47000000000E+01 0. -1.
          1    1    1    2  502    0  0.93251045120E+02  0.81454333759E+02  0.77316643684E+03  0.78301781906E+03  0.00000000000E+00 0. -1.
          1    1    1    2  503    0  0.38331867695E+02  0.44383290117E+02 -0.92126114874E+03  0.92312583796E+03  0.00000000000E+00 0. -1.
<mgrwt>
<rscale>  0 0.86444209E+02</rscale>
<asrwt>0</asrwt>
<pdfrwt beam="1">  1        2 0.20588451E+00 0.12742145E+03</pdfrwt>
<pdfrwt beam="2">  1        2 0.16066135E+00 0.58644766E+02</pdfrwt>
<totfact> 0.73761715E+01</totfact>
</mgrwt>
</event>
<event>
13    1  0.1589573E-008  0.9410599E+02  0.7546771E-02  0.1332477E+00
          2   -1    0    0  503    0  0.00000000000E+00  0.00000000000E+00  0.23049789019E+04  0.23049789019E+04  0.00000000000E+00 0. -1.
         -1   -1    0    0    0  501 -0.00000000000E+00 -0.00000000000E+00 -0.61584238475E+03  0.61584238475E+03  0.00000000000E+00 0.  1.
         24    2    1    2    0    0  0.27842053621E+01  0.90972476030E+02  0.28264869133E+02  0.12488797030E+03  0.80711579733E+02 0.  0.
         25    2    1    2    0    0  0.49178842669E+02 -0.13620907809E+03  0.98336799532E+02  0.21509587135E+03  0.12499854483E+03 0.  0.
         24    2    1    2    0    0 -0.63789571168E+02  0.77460122788E+02  0.14323883489E+04  0.14381851880E+04  0.81062154389E+02 0.  0.
        -11    1    3    3    0    0  0.16800800040E+02  0.80597240310E+02  0.50535277153E+02  0.96602258072E+02  0.00000000000E+00 0.  1.
         12    1    3    3    0    0 -0.14016594678E+02  0.10375235720E+02 -0.22270408020E+02  0.28285712224E+02  0.00000000000E+00 0. -1.
        -13    1    5    5    0    0  0.19523554321E+02  0.10897048875E+02  0.24773531807E+03  0.24874224142E+03  0.00000000000E+00 0.  1.
         14    1    5    5    0    0 -0.83313125489E+02  0.66563073914E+02  0.11846530308E+04  0.11894429466E+04  0.00000000000E+00 0. -1.
          5    1    4    4  502    0  0.57562191397E+02 -0.36356974003E+02  0.92045913103E+02  0.11458523271E+03  0.47000000000E+01 0. -1.
         -5    1    4    4    0  502 -0.83833487287E+01 -0.99852104091E+02  0.62908864292E+01  0.10051063864E+03  0.47000000000E+01 0. -1.
          1    1    1    2  503    0 -0.58474112926E+02  0.30589585293E+02  0.63027275052E+03  0.63371814291E+03  0.00000000000E+00 0. -1.
         -2    1    1    2    0  501  0.70300636063E+02 -0.62813106017E+02 -0.50012625089E+03  0.50893411415E+03  0.00000000000E+00 0.  1.
<mgrwt>
<rscale>  0 0.78805095E+02</rscale>
<asrwt>0</asrwt>
<pdfrwt beam="1">  1        2 0.33896748E+00 0.65992004E+02</pdfrwt>
<pdfrwt beam="2">  1       -1 0.90565058E-01 0.94105992E+02</pdfrwt>
<totfact> 0.10320222E+01</totfact>
</mgrwt>
</event>
<event>
13    1  0.1589573E-008  0.2239185E+03  0.7546771E-02  0.1182623E+00
          2   -1    0    0  502    0  0.00000000000E+00  0.00000000000E+00  0.14168442510E+04  0.14168442510E+04  0.00000000000E+00 0. -1.
          2   -1    0    0  503    0 -0.00000000000E+00 -0.00000000000E+00 -0.18327988443E+04  0.18327988443E+04  0.00000000000E+00 0. -1.
         24    2    1    2    0    0  0.20180010322E+03 -0.31525133596E+03 -0.50465377846E+03  0.63343328676E+03  0.80346787020E+02 0.  0.
         25    2    1    2    0    0 -0.21230186040E+03 -0.24549755300E+02  0.75496312141E+02  0.25884253763E+03  0.12499998289E+03 0.  0.
         24    2    1    2    0    0 -0.95262630695E+02  0.84070350009E+02  0.77699072399E+02  0.16872703808E+03  0.79302427262E+02 0.  0.
        -11    1    5    5    0    0 -0.10110502890E+03  0.45972949431E+02  0.61082823469E+02  0.12675507987E+03  0.00000000000E+00 0.  1.
         12    1    5    5    0    0  0.58423982095E+01  0.38097400578E+02  0.16616248930E+02  0.41971958212E+02  0.00000000000E+00 0. -1.
        -11    1    3    3    0    0  0.45372504712E+02 -0.89519596681E+02 -0.83043790460E+02  0.13026393786E+03  0.00000000000E+00 0.  1.
         12    1    3    3    0    0  0.15642759851E+03 -0.22573173928E+03 -0.42160998800E+03  0.50316934890E+03  0.00000000000E+00 0. -1.
          5    1    4    4  501    0 -0.17320835753E+03 -0.50731223089E+02  0.13747571238E+02  0.18106871025E+03  0.47000000000E+01 0. -1.
         -5    1    4    4    0  501 -0.39093502871E+02  0.26181467789E+02  0.61748740902E+02  0.77773827380E+02  0.47000000000E+01 0. -1.
          1    1    1    2  502    0  0.11647809895E+03  0.37361125391E+02  0.10478731890E+04  0.10549887305E+04  0.00000000000E+00 0. -1.
          1    1    1    2  503    0 -0.10713711073E+02  0.21836961586E+03 -0.11123693884E+04  0.11336515024E+04  0.00000000000E+00 0. -1.
<mgrwt>
<rscale>  0 0.16550062E+03</rscale>
<asrwt>0</asrwt>
<pdfrwt beam="1">  1        2 0.20835945E+00 0.12232335E+03</pdfrwt>
<pdfrwt beam="2">  1        2 0.26952924E+00 0.22391845E+03</pdfrwt>
<totfact> 0.27714918E+01</totfact>
</mgrwt>
</event>
<event>
13    1  0.1589573E-008  0.9800726E+02  0.7546771E-02  0.1364998E+00
          2   -1    0    0  503    0  0.00000000000E+00  0.00000000000E+00  0.89657844497E+03  0.89657844497E+03  0.00000000000E+00 0. -1.
          2   -1    0    0  502    0 -0.00000000000E+00 -0.00000000000E+00 -0.14648907283E+04  0.14648907283E+04  0.00000000000E+00 0. -1.
         24    2    1    2    0    0  0.22754142145E+03  0.23964102302E+03 -0.66401837321E+02  0.34609701064E+03  0.78555829727E+02 0.  0.
         25    2    1    2    0    0  0.27389517934E+03  0.49653044513E+03 -0.19583547363E+03  0.61281087298E+03  0.12499832437E+03 0.  0.
         24    2    1    2    0    0 -0.59799752285E+03 -0.84458233282E+03 -0.39351652157E+03  0.11101128342E+04  0.81085742721E+02 0.  0.
        -11    1    3    3    0    0  0.87135504067E+01 -0.27128479293E+01 -0.11986412093E+02  0.15065177710E+02  0.00000000000E+00 0.  1.
         12    1    3    3    0    0  0.21882787105E+03  0.24235387095E+03 -0.54415425228E+02  0.33103183293E+03  0.00000000000E+00 0. -1.
        -13    1    5    5    0    0 -0.34797600426E+03 -0.55845505066E+03 -0.24394525327E+03  0.70176109165E+03  0.00000000000E+00 0.  1.
         14    1    5    5    0    0 -0.25002151859E+03 -0.28612728216E+03 -0.14957126830E+03  0.40835174256E+03  0.00000000000E+00 0. -1.
          5    1    4    4  501    0  0.21932208132E+03  0.39144486596E+03 -0.20624026208E+03  0.49385057876E+03  0.47000000000E+01 0.  1.
         -5    1    4    4    0  501  0.54573098019E+02  0.10508557917E+03  0.10404788442E+02  0.11896029421E+03  0.47000000000E+01 0.  1.
          1    1    1    2  502    0  0.35372272183E+02  0.32424658449E+02 -0.83108302080E+02  0.95966379475E+02  0.00000000000E+00 0. -1.
          1    1    1    2  503    0  0.61188649873E+02  0.75986206216E+02  0.17054985127E+03  0.19648207597E+03  0.00000000000E+00 0. -1.
<mgrwt>
<rscale>  0 0.68577506E+02</rscale>
<asrwt>0</asrwt>
<pdfrwt beam="1">  1        2 0.13184977E+00 0.98007264E+02</pdfrwt>
<pdfrwt beam="2">  1        2 0.21542511E+00 0.47984957E+02</pdfrwt>
<totfact> 0.93055206E+01</totfact>
</mgrwt>
</event>
<event>
13    1  0.1589573E-008  0.9696999E+02  0.7546771E-02  0.1305769E+00
          2   -1    0    0  502    0  0.00000000000E+00  0.00000000000E+00  0.90546229511E+03  0.90546229511E+03  0.00000000000E+00 0. -1.
          2   -1    0    0  503    0 -0.00000000000E+00 -0.00000000000E+00 -0.74319977581E+03  0.74319977581E+03  0.00000000000E+00 0. -1.
         24    2    1    2    0    0 -0.39312346858E+02 -0.34023820267E+01 -0.32815060608E+03  0.34046459403E+03  0.81708522778E+02 0.  0.
         25    2    1    2    0    0  0.16168275569E+03  0.19808930106E+03  0.36599117781E+02  0.28695329766E+03  0.12498805916E+03 0.  0.
         24    2    1    2    0    0 -0.63583966371E+02 -0.35659456639E+02 -0.10054030192E+03  0.14776073870E+03  0.80064761053E+02 0.  0.
        -11    1    3    3    0    0 -0.58777849463E+02 -0.11051087910E+02 -0.29688213361E+03  0.30284643533E+03  0.00000000000E+00 0.  1.
         12    1    3    3    0    0  0.19465502605E+02  0.76487058836E+01 -0.31268472468E+02  0.37618158698E+02  0.00000000000E+00 0. -1.
        -11    1    5    5    0    0  0.66153276299E+01  0.10815204291E+02 -0.45362423866E+02  0.47100750551E+02  0.00000000000E+00 0.  1.
         12    1    5    5    0    0 -0.70199294001E+02 -0.46474660931E+02 -0.55177878059E+02  0.10065998815E+03  0.00000000000E+00 0. -1.
          5    1    4    4  501    0 -0.14380403433E+01  0.52023934906E+02  0.43264470876E+02  0.67841449006E+02  0.47000000000E+01 0.  1.
         -5    1    4    4    0  501  0.16312079603E+03  0.14606536615E+03 -0.66653530942E+01  0.21911184865E+03  0.47000000000E+01 0.  1.
          1    1    1    2  502    0 -0.25913831256E+02 -0.77090296214E+02  0.69916676216E+03  0.70388109914E+03  0.00000000000E+00 0. -1.
          1    1    1    2  503    0 -0.32872611206E+02 -0.81937166177E+02 -0.14481245264E+03  0.16960234140E+03  0.00000000000E+00 0. -1.
<mgrwt>
<rscale>  0 0.88805925E+02</rscale>
<asrwt>0</asrwt>
<pdfrwt beam="1">  1        2 0.13315622E+00 0.81329210E+02</pdfrwt>
<pdfrwt beam="2">  1        2 0.10929408E+00 0.96969986E+02</pdfrwt>
<totfact> 0.22313134E+02</totfact>
</mgrwt>
</event>
<event>
13    1  0.1589573E-008  0.1401838E+03  0.7546771E-02  0.1286867E+00
          2   -1    0    0  503    0  0.00000000000E+00  0.00000000000E+00  0.21855181026E+04  0.21855181026E+04  0.00000000000E+00 0. -1.
          2   -1    0    0  502    0 -0.00000000000E+00 -0.00000000000E+00 -0.25984487015E+04  0.25984487015E+04  0.00000000000E+00 0. -1.
         24    2    1    2    0    0  0.54598104859E+02  0.61944658428E+02 -0.34563886079E+03  0.36445418088E+03  0.80885932699E+02 0.  0.
         25    2    1    2    0    0  0.32404144855E+03 -0.22641746521E+02  0.12078434428E+04  0.12569907101E+04  0.12499741544E+03 0.  0.
         24    2    1    2    0    0 -0.34360576655E+03  0.12727935434E+03 -0.15416884035E+03  0.40545213279E+03  0.79739850785E+02 0.  0.
        -11    1    5    5    0    0 -0.33889889302E+03  0.13074626822E+03 -0.16024466785E+03  0.39702065427E+03  0.00000000000E+00 0.  1.
         12    1    5    5    0    0 -0.47068735275E+01 -0.34669138846E+01  0.60758274943E+01  0.84314785197E+01  0.00000000000E+00 0. -1.
        -13    1    3    3    0    0  0.36743926099E+01  0.63232048947E+02 -0.16395306474E+03  0.17576234128E+03  0.00000000000E+00 0.  1.
         14    1    3    3    0    0  0.50923712249E+02 -0.12873905196E+01 -0.18168579606E+03  0.18869183960E+03  0.00000000000E+00 0. -1.
          5    1    4    4  501    0  0.29601917647E+03 -0.50506234266E+02  0.95730145314E+03  0.10033077268E+04  0.47000000000E+01 0. -1.
         -5    1    4    4    0  501  0.28022272081E+02  0.27864487745E+02  0.25054198969E+03  0.25368298328E+03  0.47000000000E+01 0. -1.
          1    1    1    2  502    0  0.13392400710E+02 -0.21293502080E+03 -0.19317616171E+04  0.19435080717E+04  0.00000000000E+00 0. -1.
          1    1    1    2  503    0 -0.48426187573E+02  0.46352754563E+02  0.81079527643E+03  0.81356170865E+03  0.00000000000E+00 0. -1.
<mgrwt>
<rscale>  0 0.96939172E+02</rscale>
<asrwt>0</asrwt>
<pdfrwt beam="1">  1        2 0.32139972E+00 0.67034868E+02</pdfrwt>
<pdfrwt beam="2">  1        2 0.38212481E+00 0.14018381E+03</pdfrwt>
<totfact> 0.54297465E+00</totfact>
</mgrwt>
</event>
<event>
13    1  0.1589573E-008  0.9265192E+02  0.7546771E-02  0.1351369E+00
          2   -1    0    0  502    0  0.00000000000E+00  0.00000000000E+00  0.10266562989E+04  0.10266562989E+04  0.00000000000E+00 0. -1.
          2   -1    0    0  503    0 -0.00000000000E+00 -0.00000000000E+00 -0.16303290014E+04  0.16303290014E+04  0.00000000000E+00 0. -1.
         24    2    1    2    0    0  0.29859990594E+02  0.16485844020E+02 -0.33804829322E+03  0.34872381661E+03  0.78538204872E+02 0.  0.
         25    2    1    2    0    0  0.59210469647E+02 -0.13435577138E+02  0.13503861229E+03  0.19377074903E+03  0.12500112768E+03 0.  0.
         24    2    1    2    0    0 -0.43842049990E+01  0.13063271893E+02 -0.77923369556E+02  0.11107866197E+03  0.77952211618E+02 0.  0.
        -13    1    5    5    0    0 -0.22995077873E+02  0.27188501155E+02 -0.80055105547E+02  0.87617396250E+02  0.00000000000E+00 0.  1.
         14    1    5    5    0    0  0.18610872874E+02 -0.14125229262E+02  0.21317359918E+01  0.23461265720E+02  0.00000000000E+00 0. -1.
        -13    1    3    3    0    0  0.47546378354E+02  0.28421222456E+02 -0.30026809499E+03  0.30533482089E+03  0.00000000000E+00 0.  1.
         14    1    3    3    0    0 -0.17686387759E+02 -0.11935378435E+02 -0.37780198237E+02  0.43388995715E+02  0.00000000000E+00 0. -1.
          5    1    4    4  501    0 -0.29250383227E+02  0.11841530652E+02  0.80793652265E+02  0.86864900930E+02  0.47000000000E+01 0.  1.
         -5    1    4    4    0  501  0.88460852874E+02 -0.25277107790E+02  0.54244960029E+02  0.10690584810E+03  0.47000000000E+01 0.  1.
          1    1    1    2  502    0  0.31748710044E+02  0.47262232913E+02  0.83558690226E+03  0.83752442978E+03  0.00000000000E+00 0. -1.
          1    1    1    2  503    0 -0.11643496529E+03 -0.63375771688E+02 -0.11583265542E+04  0.11658876429E+04  0.00000000000E+00 0. -1.
<mgrwt>
<rscale>  0 0.72630727E+02</rscale>
<asrwt>0</asrwt>
<pdfrwt beam="1">  1        2 0.15097887E+00 0.56935922E+02</pdfrwt>
<pdfrwt beam="2">  1        2 0.23975427E+00 0.92651919E+02</pdfrwt>
<totfact> 0.63193462E+01</totfact>
</mgrwt>
</event>
<event>
13    1  0.1589573E-008  0.6300298E+02  0.7546771E-02  0.1515361E+00
          2   -1    0    0  502    0  0.00000000000E+00  0.00000000000E+00  0.57298239096E+03  0.57298239096E+03  0.00000000000E+00 0. -1.
          2   -1    0    0  503    0 -0.00000000000E+00 -0.00000000000E+00 -0.34523580814E+04  0.34523580814E+04  0.00000000000E+00 0. -1.
         24    2    1    2    0    0 -0.50984801021E+02  0.31134764572E+02 -0.40745146483E+03  0.41785653973E+03  0.70841852740E+02 0.  0.
         25    2    1    2    0    0 -0.64081189292E+02 -0.21523696602E+02  0.48529847411E+03  0.50567891415E+03  0.12500754740E+03 0.  0.
         24    2    1    2    0    0  0.61513891121E+02 -0.46256334891E+02 -0.26623260146E+03  0.28827685956E+03  0.79373436079E+02 0.  0.
        -11    1    5    5    0    0  0.79741640861E+01  0.11141706451E+02 -0.13253330109E+03  0.13323963680E+03  0.00000000000E+00 0.  1.
         12    1    5    5    0    0  0.53539727035E+02 -0.57398041342E+02 -0.13369930037E+03  0.15503722276E+03  0.00000000000E+00 0. -1.
        -11    1    3    3    0    0  0.96480545345E+01 -0.87254594771E+01 -0.14427143187E+03  0.14485670386E+03  0.00000000000E+00 0.  1.
         12    1    3    3    0    0 -0.60632855556E+02  0.39860224049E+02 -0.26318003297E+03  0.27299983587E+03  0.00000000000E+00 0. -1.
          5    1    4    4  501    0 -0.60742632489E+02 -0.17829398784E+02  0.49201165665E+03  0.49608982568E+03  0.47000000000E+01 0. -1.
         -5    1    4    4    0  501 -0.33385568030E+01 -0.36942978176E+01 -0.67131825405E+01  0.95890884715E+01  0.47000000000E+01 0. -1.
          1    1    1    2  502    0  0.18439275466E+02 -0.15668284594E+02  0.58504919479E+02  0.63311354630E+02  0.00000000000E+00 0. -1.
          1    1    1    2  503    0  0.35112823726E+02  0.52313551515E+02 -0.27494950178E+04  0.27502168043E+04  0.00000000000E+00 0. -1.
<mgrwt>
<rscale>  0 0.39044750E+02</rscale>
<asrwt>0</asrwt>
<pdfrwt beam="1">  1        2 0.84262118E-01 0.24197149E+02</pdfrwt>
<pdfrwt beam="2">  1        2 0.50769971E+00 0.63002981E+02</pdfrwt>
<totfact> 0.16044400E+01</totfact>
</mgrwt>
</event>
<event>
13    1  0.1589573E-008  0.8657245E+02  0.7546771E-02  0.1409138E+00
          2   -1    0    0  503    0  0.00000000000E+00  0.00000000000E+00  0.19634123074E+04  0.19634123074E+04  0.00000000000E+00 0. -1.
         -1   -1    0    0    0  501 -0.00000000000E+00 -0.00000000000E+00 -0.52190739519E+03  0.52190739519E+03  0.00000000000E+00 0.  1.
         24    2    1    2    0    0 -0.34364340466E+01  0.13821716407E+03 -0.13045019593E+02  0.16073334610E+03  0.80927390232E+02 0.  0.
         25    2    1    2    0    0 -0.13900132179E+03 -0.67631126385E+02  0.11914180092E+04  0.12078903530E+04  0.12500758230E+03 0.  0.
         24    2    1    2    0    0  0.83890997444E+02 -0.30889711536E+02  0.53337054422E+02  0.13161231645E+03  0.80530036234E+02 0.  0.
        -11    1    5    5    0    0  0.55914360063E+02 -0.58445558542E+02  0.32625393676E+02  0.87216485179E+02  0.00000000000E+00 0.  1.
         12    1    5    5    0    0  0.27976637382E+02  0.27555847005E+02  0.20711660746E+02  0.44395831271E+02  0.00000000000E+00 0. -1.
        -13    1    3    3    0    0  0.18932551682E+02  0.16929784992E+02  0.20813960996E+02  0.32837175661E+02  0.00000000000E+00 0.  1.
         14    1    3    3    0    0 -0.22368985729E+02  0.12128737908E+03 -0.33858980589E+02  0.12789617044E+03  0.00000000000E+00 0. -1.
          5    1    4    4  502    0 -0.29036707723E+02 -0.98189308303E+01  0.71004500331E+03  0.71072184329E+03  0.47000000000E+01 0. -1.
         -5    1    4    4    0  502 -0.10996461407E+03 -0.57812195555E+02  0.48137300585E+03  0.49716850973E+03  0.47000000000E+01 0. -1.
          1    1    1    2  503    0 -0.27122075457E+02 -0.26673036114E+02  0.59197860469E+03  0.59319956696E+03  0.00000000000E+00 0. -1.
         -2    1    1    2    0  501  0.85668833851E+02 -0.13023290039E+02 -0.38218373645E+03  0.39188412009E+03  0.00000000000E+00 0.  1.
<mgrwt>
<rscale>  0 0.57386711E+02</rscale>
<asrwt>0</asrwt>
<pdfrwt beam="1">  1        2 0.28873710E+00 0.38040213E+02</pdfrwt>
<pdfrwt beam="2">  1       -1 0.76751088E-01 0.86572452E+02</pdfrwt>
<totfact> 0.22428491E+01</totfact>
</mgrwt>
</event>
<event>
13    1  0.1589573E-008  0.1253202E+03  0.7546771E-02  0.1414677E+00
          2   -1    0    0  502    0  0.00000000000E+00  0.00000000000E+00  0.16601526676E+04  0.16601526676E+04  0.00000000000E+00 0. -1.
          2   -1    0    0  503    0 -0.00000000000E+00 -0.00000000000E+00 -0.32173213057E+04  0.32173213057E+04  0.00000000000E+00 0. -1.
         24    2    1    2    0    0 -0.11770078347E+02 -0.41919740913E+02 -0.96230566711E+03  0.96689731346E+03  0.83441107383E+02 0.  0.
         25    2    1    2    0    0 -0.34758623081E+02  0.10139428995E+02  0.65429939502E+03  0.66711632719E+03  0.12500210308E+03 0.  0.
         24    2    1    2    0    0 -0.10767276033E+03  0.21959085896E+02  0.24847755963E+03  0.28348835943E+03  0.80925444205E+02 0.  0.
        -11    1    5    5    0    0 -0.80765061714E+02  0.48679965571E+02  0.20592677181E+03  0.22649187532E+03  0.00000000000E+00 0.  1.
         12    1    5    5    0    0 -0.26907698621E+02 -0.26720879676E+02  0.42550787827E+02  0.56996484106E+02  0.00000000000E+00 0. -1.
        -13    1    3    3    0    0  0.21515023853E+02 -0.37569758095E+02 -0.79927345717E+03  0.80044515260E+03  0.00000000000E+00 0.  1.
         14    1    3    3    0    0 -0.33285102200E+02 -0.43499828177E+01 -0.16303220994E+03  0.16645216086E+03  0.00000000000E+00 0. -1.
          5    1    4    4  501    0  0.41674792863E+02  0.35984897044E+01  0.37767826851E+03  0.38001671279E+03  0.47000000000E+01 0.  1.
         -5    1    4    4    0  501 -0.76433415943E+02  0.65409392908E+01  0.27662112651E+03  0.28709961440E+03  0.47000000000E+01 0.  1.
          1    1    1    2  502    0 -0.23829839696E+02 -0.81032842392E+01  0.72735678024E+03  0.72779214769E+03  0.00000000000E+00 0. -1.
          1    1    1    2  503    0  0.17803130146E+03  0.17924510261E+02 -0.22249967059E+04  0.22321798255E+04  0.00000000000E+00 0. -1.
<mgrwt>
<rscale>  0 0.56163133E+02</rscale>
<asrwt>0</asrwt>
<pdfrwt beam="1">  1        2 0.24414010E+00 0.25169912E+02</pdfrwt>
<pdfrwt beam="2">  1        2 0.47313548E+00 0.12532016E+03</pdfrwt>
<totfact> 0.50277688E+00</totfact>
</mgrwt>
</event>
<event>
13    1  0.1589573E-008  0.4990043E+02  0.7546771E-02  0.1455831E+00
          2   -1    0    0  502    0  0.00000000000E+00  0.00000000000E+00  0.63250755269E+03  0.63250755269E+03  0.00000000000E+00 0. -1.
          4   -1    0    0  503    0 -0.00000000000E+00 -0.00000000000E+00 -0.11268926061E+04  0.11268926061E+04  0.00000000000E+00 0. -1.
         24    2    1    2    0    0  0.88276453844E+02  0.21839442839E+02 -0.42250659096E+03  0.44036924205E+03  0.84519562066E+02 0.  0.
         25    2    1    2    0    0  0.42180149082E+01 -0.20427325027E+02  0.43002194846E+03  0.44830849940E+03  0.12500626874E+03 0.  0.
         24    2    1    2    0    0 -0.68377556345E+02  0.23971022328E+02 -0.22424919326E+03  0.24880193920E+03  0.79778469195E+02 0.  0.
        -11    1    3    3    0    0  0.73070082823E+01 -0.40193858636E+01  0.10162920519E+01  0.84012309987E+01  0.00000000000E+00 0.  1.
         12    1    3    3    0    0  0.80969445562E+02  0.25858828703E+02 -0.42352288301E+03  0.43196801105E+03  0.00000000000E+00 0. -1.
        -11    1    5    5    0    0 -0.26627673164E+02 -0.23163703213E+02 -0.36486895138E+02  0.50763014503E+02  0.00000000000E+00 0.  1.
         12    1    5    5    0    0 -0.41749883181E+02  0.47134725541E+02 -0.18776229813E+03  0.19803892470E+03  0.00000000000E+00 0. -1.
          5    1    4    4  501    0  0.46794132327E+02 -0.96541830915E+01  0.65989808858E+02  0.81606610911E+02  0.47000000000E+01 0.  1.
         -5    1    4    4    0  501 -0.42576117418E+02 -0.10773141936E+02  0.36403213960E+03  0.36670188849E+03  0.47000000000E+01 0.  1.
          1    1    1    2  502    0  0.16820692544E+02 -0.47175825623E+02  0.16726043071E+03  0.17459824140E+03  0.00000000000E+00 0. -1.
          3    1    1    2  503    0 -0.40937604951E+02  0.21792685483E+02 -0.44491164834E+03  0.44732223673E+03  0.00000000000E+00 0. -1.
<mgrwt>
<rscale>  0 0.48106371E+02</rscale>
<asrwt>0</asrwt>
<pdfrwt beam="1">  1        2 0.93015818E-01 0.49900433E+02</pdfrwt>
<pdfrwt beam="2">  1        4 0.16571950E+00 0.46376811E+02</pdfrwt>
<totfact> 0.65978978E+00</totfact>
</mgrwt>
</event>
<event>
13    1  0.1589573E-008  0.9413828E+02  0.7546771E-02  0.1410856E+00
          4   -1    0    0  503    0 -0.00000000000E+00  0.00000000000E+00  0.55442430636E+03  0.55442430636E+03  0.00000000000E+00 0. -1.
          2   -1    0    0  502    0  0.00000000000E+00 -0.00000000000E+00 -0.21621517665E+04  0.21621517665E+04  0.00000000000E+00 0. -1.
         24    2    1    2    0    0  0.65125863645E+02 -0.67970437845E+02 -0.95799721182E+02  0.15635920119E+03  0.80057820875E+02 0.  0.
         25    2    1    2    0    0  0.31732832320E+02  0.47257286381E+02 -0.98027973396E+03  0.98985347850E+03  0.12498531245E+03 0.  0.
         24    2    1    2    0    0 -0.15313696039E+03 -0.85821721340E+02 -0.38326793789E+03  0.43463471662E+03  0.10581459343E+03 0.  0.
        -11    1    3    3    0    0  0.65883618187E+02 -0.70436037909E+02 -0.10747356303E+03  0.14440378572E+03  0.00000000000E+00 0.  1.
         12    1    3    3    0    0 -0.75775454116E+00  0.24656000640E+01  0.11673841846E+02  0.11955415470E+02  0.00000000000E+00 0. -1.
        -13    1    5    5    0    0 -0.14008758756E+03 -0.49361863003E+02 -0.36004955335E+03  0.38948274233E+03  0.00000000000E+00 0.  1.
         14    1    5    5    0    0 -0.13049372833E+02 -0.36459858337E+02 -0.23218384543E+02  0.45151974288E+02  0.00000000000E+00 0. -1.
          5    1    4    4  501    0  0.83980240348E+01  0.26784148149E+02 -0.40229063874E+02  0.49278646287E+02  0.47000000000E+01 0.  1.
         -5    1    4    4    0  501  0.23334808285E+02  0.20473138232E+02 -0.94005067008E+03  0.94057483221E+03  0.47000000000E+01 0.  1.
          1    1    1    2  502    0  0.58443001127E+02  0.72085884103E+02 -0.63809044081E+03  0.64480335740E+03  0.00000000000E+00 0. -1.
          3    1    1    2  503    0 -0.21647367010E+01  0.34448988700E+02  0.48971037368E+03  0.49092531917E+03  0.00000000000E+00 0. -1.
<mgrwt>
<rscale>  0 0.57003200E+02</rscale>
<asrwt>0</asrwt>
<pdfrwt beam="2">  1        2 0.31796349E+00 0.94138275E+02</pdfrwt>
<pdfrwt beam="1">  1        4 0.81532987E-01 0.34516937E+02</pdfrwt>
<totfact> 0.49373825E+00</totfact>
</mgrwt>
</event>
<event>
13    1  0.1589573E-008  0.2953862E+02  0.7546771E-02  0.1607819E+00
          2   -1    0    0  503    0  0.00000000000E+00  0.00000000000E+00  0.22600402159E+04  0.22600402159E+04  0.00000000000E+00 0. -1.
          2   -1    0    0  502    0 -0.00000000000E+00 -0.00000000000E+00 -0.76238940138E+03  0.76238940138E+03  0.00000000000E+00 0. -1.
         24    2    1    2    0    0 -0.12492116398E+03 -0.20804938113E+03 -0.37712051196E+03  0.45154230597E+03  0.52732640170E+02 0.  0.
         25    2    1    2    0    0 -0.89740075665E+01  0.35332021567E+03  0.43025665902E+02  0.37734720588E+03  0.12499599294E+03 0.  0.
         24    2    1    2    0    0  0.87255338260E+02 -0.11948239308E+03  0.72402207587E+03  0.74339962255E+03  0.80904240610E+02 0.  0.
        -13    1    5    5    0    0  0.43616969358E+02 -0.11347410629E+03  0.46338094021E+03  0.47906232221E+03  0.00000000000E+00 0.  1.
         14    1    5    5    0    0  0.43638368902E+02 -0.60082867854E+01  0.26064113566E+03  0.26433730034E+03  0.00000000000E+00 0. -1.
        -13    1    3    3    0    0 -0.20764940624E+01 -0.26079037795E+02 -0.63786015715E+02  0.68942612662E+02  0.00000000000E+00 0.  1.
         14    1    3    3    0    0 -0.12284466992E+03 -0.18197034334E+03 -0.31333449625E+03  0.38259969331E+03  0.00000000000E+00 0. -1.
          5    1    4    4  501    0 -0.77676696109E+00  0.31618485166E+03 -0.45570240873E+01  0.31625356955E+03  0.47000000000E+01 0.  1.
         -5    1    4    4    0  501 -0.81972406055E+01  0.37135364011E+02  0.47582689990E+02  0.61093636333E+02  0.47000000000E+01 0.  1.
          1    1    1    2  502    0  0.17238828059E+02 -0.22998929309E+02 -0.16983027154E+03  0.17224531655E+03  0.00000000000E+00 0. -1.
          1    1    1    2  503    0  0.29401005226E+02 -0.27895121466E+01  0.12775538563E+04  0.12778951664E+04  0.00000000000E+00 0. -1.
<mgrwt>
<rscale>  0 0.29137812E+02</rscale>
<asrwt>0</asrwt>
<pdfrwt beam="1">  1        2 0.33235885E+00 0.29538621E+02</pdfrwt>
<pdfrwt beam="2">  1        2 0.11211609E+00 0.28742441E+02</pdfrwt>
<totfact> 0.53497280E+01</totfact>
</mgrwt>
</event>
<event>
13    1  0.1589573E-008  0.6789010E+02  0.7546771E-02  0.1484215E+00
         -1   -1    0    0    0  501 -0.00000000000E+00  0.00000000000E+00  0.37249441987E+03  0.37249441987E+03  0.00000000000E+00 0.  1.
          2   -1    0    0  503    0  0.00000000000E+00 -0.00000000000E+00 -0.11846844625E+04  0.11846844625E+04  0.00000000000E+00 0. -1.
         24    2    1    2    0    0 -0.11368602257E+03 -0.19298382808E+03  0.20995192977E+03  0.31650725664E+03  0.77004941806E+02 0.  0.
         25    2    1    2    0    0  0.27186177067E+03  0.53238912026E+02 -0.37295704452E+03  0.48110801177E+03  0.12499903129E+03 0.  0.
         24    2    1    2    0    0 -0.20641636413E+03  0.85812838851E+02 -0.31317403055E+03  0.39312191680E+03  0.80593482174E+02 0.  0.
        -11    1    5    5    0    0 -0.17419276920E+03  0.38330394819E+02 -0.21441591750E+03  0.27890235870E+03  0.00000000000E+00 0.  1.
         12    1    5    5    0    0 -0.32223594930E+02  0.47482444032E+02 -0.98758113047E+02  0.11421955811E+03  0.00000000000E+00 0. -1.
        -13    1    3    3    0    0 -0.91925393902E+02 -0.19299093333E+03  0.19937713230E+03  0.29231322118E+03  0.00000000000E+00 0.  1.
         14    1    3    3    0    0 -0.21760628666E+02  0.71052443860E-02  0.10574797468E+02  0.24194035461E+02  0.00000000000E+00 0. -1.
          5    1    4    4  502    0  0.10921524692E+03  0.11045451987E+02 -0.58340977164E+02  0.12440149431E+03  0.47000000000E+01 0. -1.
         -5    1    4    4    0  502  0.16264652375E+03  0.42193460040E+02 -0.31461606736E+03  0.35670651746E+03  0.47000000000E+01 0. -1.
          1    1    1    2  503    0  0.22355026765E+02  0.64114452170E+02 -0.33135267369E+03  0.33823808857E+03  0.00000000000E+00 0. -1.
         -2    1    1    2    0  501  0.25885589260E+02 -0.10182374963E+02 -0.46582236627E+01  0.28203608615E+02  0.00000000000E+00 0.  1.
<mgrwt>
<rscale>  0 0.43456286E+02</rscale>
<asrwt>0</asrwt>
<pdfrwt beam="2">  1        2 0.17421830E+00 0.67890095E+02</pdfrwt>
<pdfrwt beam="1">  1       -1 0.54778591E-01 0.27816263E+02</pdfrwt>
<totfact> 0.96589221E+01</totfact>
</mgrwt>
</event>
<event>
13    1  0.1589573E-008  0.8947962E+02  0.7546771E-02  0.1414515E+00
          2   -1    0    0  502    0  0.00000000000E+00  0.00000000000E+00  0.18598583069E+04  0.18598583069E+04  0.00000000000E+00 0. -1.
          2   -1    0    0  503    0 -0.00000000000E+00 -0.00000000000E+00 -0.13034178653E+04  0.13034178653E+04  0.00000000000E+00 0. -1.
         24    2    1    2    0    0  0.59097590092E+02 -0.40516161950E+02 -0.81353729785E+03  0.82062901346E+03  0.80342754527E+02 0.  0.
         25    2    1    2    0    0  0.12559135863E+03 -0.41427642267E+02  0.80350269670E+03  0.82385148760E+03  0.12500100440E+03 0.  0.
         24    2    1    2    0    0 -0.11044810697E+03  0.48652307781E+02 -0.73142375673E+02  0.16040016353E+03  0.76240238442E+02 0.  0.
        -13    1    3    3    0    0  0.50838374661E+02 -0.40962888139E+02 -0.29986263146E+03  0.30688775845E+03  0.00000000000E+00 0.  1.
         14    1    3    3    0    0  0.82592154306E+01  0.44672618900E+00 -0.51367466639E+03  0.51374125501E+03  0.00000000000E+00 0. -1.
        -13    1    5    5    0    0 -0.17906711466E+02 -0.16889337352E+02  0.14643714413E+01  0.24658556637E+02  0.00000000000E+00 0.  1.
         14    1    5    5    0    0 -0.92541395501E+02  0.65541645133E+02 -0.74606747115E+02  0.13574160690E+03  0.00000000000E+00 0. -1.
          5    1    4    4  501    0 -0.13145870371E+02  0.20620471162E+02  0.60042585542E+02  0.65001690881E+02  0.47000000000E+01 0.  1.
         -5    1    4    4    0  501  0.13873722900E+03 -0.62048113428E+02  0.74346011116E+03  0.75884979672E+03  0.47000000000E+01 0.  1.
          1    1    1    2  502    0 -0.13551693270E+02 -0.32590671392E+02  0.99310663743E+03  0.99373366329E+03  0.00000000000E+00 0. -1.
          1    1    1    2  503    0 -0.60689148480E+02  0.65882167827E+02 -0.35348921894E+03  0.36466184430E+03  0.00000000000E+00 0. -1.
<mgrwt>
<rscale>  0 0.56198429E+02</rscale>
<asrwt>0</asrwt>
<pdfrwt beam="1">  1        2 0.27350857E+00 0.35295896E+02</pdfrwt>
<pdfrwt beam="2">  1        2 0.19167910E+00 0.89479621E+02</pdfrwt>
<totfact> 0.37590484E+01</totfact>
</mgrwt>
</event>
<event>
13    1  0.1589573E-008  0.2427289E+03  0.7546771E-02  0.1141753E+00
          2   -1    0    0  503    0  0.00000000000E+00  0.00000000000E+00  0.24583152151E+04  0.24583152151E+04  0.00000000000E+00 0. -1.
          2   -1    0    0  502    0 -0.00000000000E+00 -0.00000000000E+00 -0.24730247753E+04  0.24730247753E+04  0.00000000000E+00 0. -1.
         24    2    1    2    0    0  0.81574951952E+02  0.41492525036E+02 -0.16040559814E+01  0.12221561229E+03  0.80981358790E+02 0.  0.
         25    2    1    2    0    0 -0.16521320229E+03  0.33720821317E+03 -0.30636104215E+03  0.50049213011E+03  0.12502200974E+03 0.  0.
         24    2    1    2    0    0 -0.45668519883E+02  0.67594234690E+02 -0.16973517597E+03  0.20494615405E+03  0.80859766425E+02 0.  0.
        -11    1    5    5    0    0  0.51406841212E+01  0.46719480764E+02 -0.32549115658E+02  0.57171509043E+02  0.00000000000E+00 0.  1.
         12    1    5    5    0    0 -0.50809204004E+02  0.20874753926E+02 -0.13718606031E+03  0.14777464500E+03  0.00000000000E+00 0. -1.
        -13    1    3    3    0    0  0.97256292206E+02  0.43215500527E+02 -0.17274078775E+01  0.10643941844E+03  0.00000000000E+00 0.  1.
         14    1    3    3    0    0 -0.15681340254E+02 -0.17229754909E+01  0.12335189616E+00  0.15776193850E+02  0.00000000000E+00 0. -1.
          5    1    4    4  501    0 -0.85620136510E+02  0.12122531286E+03 -0.19400858364E+03  0.24431087733E+03  0.47000000000E+01 0.  1.
         -5    1    4    4    0  501 -0.79593065778E+02  0.21598290031E+03 -0.11235245851E+03  0.25618125279E+03  0.47000000000E+01 0.  1.
          1    1    1    2  502    0  0.79097150780E+02 -0.64456859952E+03 -0.17575797543E+04  0.18737159954E+04  0.00000000000E+00 0. -1.
          1    1    1    2  503    0  0.50209619439E+02  0.19827362662E+03  0.22205704681E+04  0.22299700986E+04  0.00000000000E+00 0. -1.
<mgrwt>
<rscale>  0 0.20976419E+03</rscale>
<asrwt>0</asrwt>
<pdfrwt beam="1">  1        2 0.36151694E+00 0.18127639E+03</pdfrwt>
<pdfrwt beam="2">  1        2 0.36368011E+00 0.24272888E+03</pdfrwt>
<totfact> 0.38414429E+00</totfact>
</mgrwt>
</event>
<event>
13    1  0.1589573E-008  0.4007432E+02  0.7546771E-02  0.1534378E+00
         -3   -1    0    0    0  501 -0.00000000000E+00  0.00000000000E+00  0.21066869642E+04  0.21066869642E+04  0.00000000000E+00 0.  1.
          2   -1    0    0  503    0  0.00000000000E+00 -0.00000000000E+00 -0.12930648786E+04  0.12930648786E+04  0.00000000000E+00 0. -1.
         24    2    1    2    0    0 -0.95614329982E+03  0.54891341901E+02  0.70271409238E+03  0.11907108443E+04  0.82232291812E+02 0.  0.
         25    2    1    2    0    0  0.17338291910E+03 -0.29520434912E+03  0.93549704071E+02  0.37627561109E+03  0.12499817599E+03 0.  0.
         24    2    1    2    0    0  0.85356536349E+03  0.26000604386E+03 -0.53463151640E+03  0.10424811218E+04  0.68985928916E+02 0.  0.
        -11    1    3    3    0    0 -0.92073803427E+02  0.23195330671E+02  0.49667826403E+02  0.10715643528E+03  0.00000000000E+00 0.  1.
         12    1    3    3    0    0 -0.86406949640E+03  0.31696011230E+02  0.65304626598E+03  0.10835544090E+04  0.00000000000E+00 0. -1.
        -13    1    5    5    0    0  0.47926808450E+03  0.16519386511E+03 -0.33689846594E+03  0.60867683235E+03  0.00000000000E+00 0.  1.
         14    1    5    5    0    0  0.37429727899E+03  0.94812178747E+02 -0.19773305046E+03  0.43380428945E+03  0.00000000000E+00 0. -1.
          5    1    4    4  502    0  0.10946922803E+03 -0.23529008954E+03  0.11812468972E+03  0.28516744282E+03  0.47000000000E+01 0. -1.
         -5    1    4    4    0  502  0.63913691066E+02 -0.59914259571E+02 -0.24574985653E+02  0.91108168270E+02  0.47000000000E+01 0. -1.
          1    1    1    2  503    0 -0.31762647816E+02 -0.10733017584E+02 -0.11617690600E+03  0.12091789343E+03  0.00000000000E+00 0. -1.
         -4    1    1    2    0  501 -0.39042334951E+02 -0.89600190584E+01  0.66816671157E+03  0.66936637226E+03  0.00000000000E+00 0.  1.
<mgrwt>
<rscale>  0 0.36654794E+02</rscale>
<asrwt>0</asrwt>
<pdfrwt beam="2">  1        2 0.19015660E+00 0.33527056E+02</pdfrwt>
<pdfrwt beam="1">  1       -3 0.30980691E+00 0.40074319E+02</pdfrwt>
<totfact> 0.61688931E-01</totfact>
</mgrwt>
</event>
<event>
13    1  0.1589573E-008  0.4059811E+02  0.7546771E-02  0.1583425E+00
         -1   -1    0    0    0  501 -0.00000000000E+00  0.00000000000E+00  0.14836680763E+04  0.14836680763E+04  0.00000000000E+00 0.  1.
          2   -1    0    0  503    0  0.00000000000E+00 -0.00000000000E+00 -0.25694812050E+04  0.25694812050E+04  0.00000000000E+00 0. -1.
         24    2    1    2    0    0  0.11862171626E+03  0.10736733571E+04  0.24066021263E+03  0.11111381102E+04  0.99322568537E+02 0.  0.
         25    2    1    2    0    0 -0.34533201500E+03 -0.16089391638E+03 -0.20792600552E+03  0.45166746930E+03  0.12501690340E+03 0.  0.
         24    2    1    2    0    0  0.24159435689E+03 -0.93486098843E+03 -0.88892237415E+03  0.13150220601E+04  0.82262569118E+02 0.  0.
        -11    1    5    5    0    0  0.77129700991E+02 -0.16962323034E+03 -0.16726974802E+03  0.25040007917E+03  0.00000000000E+00 0.  1.
         12    1    5    5    0    0  0.16446465589E+03 -0.76523775809E+03 -0.72165262613E+03  0.10646219809E+04  0.00000000000E+00 0. -1.
        -13    1    3    3    0    0  0.93766061600E+02  0.88534274735E+03  0.15906713238E+03  0.90439272841E+03  0.00000000000E+00 0.  1.
         14    1    3    3    0    0  0.24855654664E+02  0.18833060977E+03  0.81593080244E+02  0.20674538178E+03  0.00000000000E+00 0. -1.
          5    1    4    4  502    0 -0.57753797447E+02 -0.67287091548E+02 -0.81281755086E+01  0.89169563449E+02  0.47000000000E+01 0. -1.
         -5    1    4    4    0  502 -0.28757821755E+03 -0.93606824834E+02 -0.19979783002E+03  0.36249790585E+03  0.47000000000E+01 0. -1.
          1    1    1    2  503    0  0.75271630417E+00  0.40602054766E+02 -0.70157514021E+03  0.70274943671E+03  0.00000000000E+00 0. -1.
         -2    1    1    2    0  501 -0.15636774454E+02 -0.18520507074E+02  0.47195017857E+03  0.47257220501E+03  0.00000000000E+00 0.  1.
<mgrwt>
<rscale>  0 0.31369544E+02</rscale>
<asrwt>0</asrwt>
<pdfrwt beam="2">  1        2 0.37786489E+00 0.40598114E+02</pdfrwt>
<pdfrwt beam="1">  1       -1 0.21818648E+00 0.24238768E+02</pdfrwt>
<totfact> 0.10105717E+00</totfact>
</mgrwt>
</event>
<event>
13    1  0.1589573E-008  0.1831942E+03  0.7546771E-02  0.1210461E+00
          2   -1    0    0  503    0  0.00000000000E+00  0.00000000000E+00  0.20519550228E+04  0.20519550228E+04  0.00000000000E+00 0. -1.
          2   -1    0    0  502    0 -0.00000000000E+00 -0.00000000000E+00 -0.49228328025E+03  0.49228328025E+03  0.00000000000E+00 0. -1.
         24    2    1    2    0    0 -0.83945690289E+02  0.60348437771E+02 -0.31204029483E+02  0.13290007293E+03  0.77459183250E+02 0.  0.
         25    2    1    2    0    0  0.19485833039E+03  0.12603372707E+03  0.14050691471E+03  0.29869799246E+03  0.12499611330E+03 0.  0.
         24    2    1    2    0    0 -0.41211384699E+02  0.21037540421E+02  0.49510607946E+02  0.10454319212E+03  0.79605416804E+02 0.  0.
        -11    1    3    3    0    0 -0.52944210821E+02  0.39011585407E+01  0.13164346043E+02  0.54695598581E+02  0.00000000000E+00 0.  1.
         12    1    3    3    0    0 -0.31001479468E+02  0.56447279230E+02 -0.44368375525E+02  0.78204474351E+02  0.00000000000E+00 0. -1.
        -13    1    5    5    0    0  0.19204992316E+00 -0.24607267431E+02 -0.13429706177E+01  0.24644635597E+02  0.00000000000E+00 0.  1.
         14    1    5    5    0    0 -0.41403434622E+02  0.45644807853E+02  0.50853578564E+02  0.79898556527E+02  0.00000000000E+00 0. -1.
          5    1    4    4  501    0  0.13600313873E+03  0.11855803264E+03  0.44744562783E+02  0.18594898963E+03  0.47000000000E+01 0.  1.
         -5    1    4    4    0  501  0.58855191658E+02  0.74756944290E+01  0.95762351925E+02  0.11274900283E+03  0.47000000000E+01 0.  1.
          1    1    1    2  502    0  0.92244849037E+02 -0.12815365362E+03 -0.27793098823E+03  0.31965310155E+03  0.00000000000E+00 0. -1.
          1    1    1    2  503    0 -0.16194610444E+03 -0.79266051639E+02  0.16787892376E+04  0.16884439440E+04  0.00000000000E+00 0. -1.
<mgrwt>
<rscale>  0 0.14215334E+03</rscale>
<asrwt>0</asrwt>
<pdfrwt beam="1">  1        2 0.30175809E+00 0.18319421E+03</pdfrwt>
<pdfrwt beam="2">  1        2 0.72394601E-01 0.11030683E+03</pdfrwt>
<totfact> 0.85141516E+01</totfact>
</mgrwt>
</event>
<event>
13    1  0.1589573E-008  0.5828356E+02  0.7546771E-02  0.1427655E+00
          2   -1    0    0  503    0  0.00000000000E+00  0.00000000000E+00  0.12890151289E+04  0.12890151289E+04  0.00000000000E+00 0. -1.
          2   -1    0    0  502    0 -0.00000000000E+00 -0.00000000000E+00 -0.12779780266E+04  0.12779780266E+04  0.00000000000E+00 0. -1.
         24    2    1    2    0    0  0.84841492954E+02 -0.76876167781E+02 -0.18441180831E+03  0.23014882812E+03  0.76503228309E+02 0.  0.
         25    2    1    2    0    0 -0.15061775476E+03  0.17215335550E+03  0.95685724855E+03  0.99172757866E+03  0.12500124129E+03 0.  0.
         24    2    1    2    0    0  0.44989324262E+02 -0.28333299851E+02 -0.51475114798E+02  0.10957711087E+03  0.80812379031E+02 0.  0.
        -11    1    5    5    0    0  0.65503146486E+02 -0.12355679136E+02 -0.50374515670E+02  0.83551881101E+02  0.00000000000E+00 0.  1.
         12    1    5    5    0    0 -0.20513822225E+02 -0.15977620715E+02 -0.11005991281E+01  0.26025229767E+02  0.00000000000E+00 0. -1.
        -13    1    3    3    0    0  0.91044989291E+02 -0.69984494390E+02 -0.18792463703E+03  0.22023325983E+03  0.00000000000E+00 0.  1.
         14    1    3    3    0    0 -0.62034963376E+01 -0.68916733905E+01  0.35128287232E+01  0.99155682929E+01  0.00000000000E+00 0. -1.
          5    1    4    4  501    0 -0.83146025232E+02  0.17096697139E+03  0.63629448376E+03  0.66410520769E+03  0.47000000000E+01 0.  1.
         -5    1    4    4    0  501 -0.67471729524E+02  0.11863841031E+01  0.32056276478E+03  0.32762237097E+03  0.47000000000E+01 0.  1.
          1    1    1    2  502    0 -0.25930339568E+02 -0.52204810594E+02 -0.96957066798E+03  0.97132126764E+03  0.00000000000E+00 0. -1.
          1    1    1    2  503    0  0.46717277108E+02 -0.14739077269E+02  0.25963744488E+03  0.26421837023E+03  0.00000000000E+00 0. -1.
<mgrwt>
<rscale>  0 0.53433581E+02</rscale>
<asrwt>0</asrwt>
<pdfrwt beam="1">  1        2 0.18956105E+00 0.48987186E+02</pdfrwt>
<pdfrwt beam="2">  1        2 0.18793794E+00 0.58283559E+02</pdfrwt>
<totfact> 0.71881768E+01</totfact>
</mgrwt>
</event>
<event>
13    1  0.1589573E-008  0.1403103E+03  0.7546771E-02  0.1329502E+00
          2   -1    0    0  503    0  0.00000000000E+00  0.00000000000E+00  0.93335978935E+03  0.93335978935E+03  0.00000000000E+00 0. -1.
         -1   -1    0    0    0  501 -0.00000000000E+00 -0.00000000000E+00 -0.65415205520E+03  0.65415205520E+03  0.00000000000E+00 0.  1.
         24    2    1    2    0    0  0.36530492962E+01 -0.19616471647E+02 -0.12168117635E+03  0.14746197476E+03  0.80873818948E+02 0.  0.
         25    2    1    2    0    0 -0.34554453888E+02  0.21268146872E+03 -0.14721498230E+03  0.28938743205E+03  0.12508164292E+03 0.  0.
         24    2    1    2    0    0 -0.80546522313E+02 -0.46380359574E+02  0.38691635612E+02  0.12843243766E+03  0.79743139932E+02 0.  0.
        -11    1    5    5    0    0 -0.33118525175E+02 -0.63625215442E+02  0.18490980599E+02  0.74073754551E+02  0.00000000000E+00 0.  1.
         12    1    5    5    0    0 -0.47427997138E+02  0.17244855868E+02  0.20200655014E+02  0.54358683110E+02  0.00000000000E+00 0. -1.
        -13    1    3    3    0    0  0.15383649992E+02  0.29231787846E+02 -0.50194245248E+02  0.60088404570E+02  0.00000000000E+00 0.  1.
         14    1    3    3    0    0 -0.11730600696E+02 -0.48848259493E+02 -0.71486931105E+02  0.87373570186E+02  0.00000000000E+00 0. -1.
          5    1    4    4  502    0 -0.50005393498E+02  0.19461457556E+03 -0.16441372879E+03  0.25967159378E+03  0.47000000000E+01 0. -1.
         -5    1    4    4    0  502  0.15450939610E+02  0.18066893160E+02  0.17198746493E+02  0.29715838272E+02  0.47000000000E+01 0. -1.
          1    1    1    2  503    0  0.86127354961E+02 -0.10896226111E+03  0.75744339711E+03  0.77007220145E+03  0.00000000000E+00 0. -1.
         -2    1    1    2    0  501  0.25320571945E+02 -0.37722376383E+02 -0.24803113992E+03  0.25215779863E+03  0.00000000000E+00 0.  1.
<mgrwt>
<rscale>  0 0.79841358E+02</rscale>
<asrwt>0</asrwt>
<pdfrwt beam="1">  1        2 0.13725879E+00 0.14031029E+03</pdfrwt>
<pdfrwt beam="2">  1       -1 0.96198832E-01 0.45432467E+02</pdfrwt>
<totfact> 0.43094957E+01</totfact>
</mgrwt>
</event>
<event>
13    1  0.1589573E-008  0.6325199E+02  0.7546771E-02  0.1423757E+00
          2   -1    0    0  502    0  0.00000000000E+00  0.00000000000E+00  0.21522675743E+04  0.21522675743E+04  0.00000000000E+00 0. -1.
          2   -1    0    0  503    0 -0.00000000000E+00 -0.00000000000E+00 -0.13198368798E+04  0.13198368798E+04  0.00000000000E+00 0. -1.
         24    2    1    2    0    0 -0.44851169115E+03 -0.38829899376E+03 -0.20097747480E+03  0.63125637373E+03  0.78446276780E+02 0.  0.
         25    2    1    2    0    0  0.11280176416E+03 -0.38123346954E+01  0.49732259762E+03  0.52506612824E+03  0.12500360407E+03 0.  0.
         24    2    1    2    0    0  0.37908716986E+03  0.36109455410E+03  0.16512898947E+03  0.55760415652E+03  0.97767340398E+02 0.  0.
        -13    1    5    5    0    0  0.21303609727E+03  0.20364999522E+03  0.14338856482E+03  0.32774682274E+03  0.00000000000E+00 0.  1.
         14    1    5    5    0    0  0.16605107259E+03  0.15744455888E+03  0.21740424655E+02  0.22985733378E+03  0.00000000000E+00 0. -1.
        -13    1    3    3    0    0 -0.31380051341E+03 -0.22617588602E+03 -0.11435497675E+03  0.40336503857E+03  0.00000000000E+00 0.  1.
         14    1    3    3    0    0 -0.13471117775E+03 -0.16212310774E+03 -0.86622498053E+02  0.22789133516E+03  0.00000000000E+00 0. -1.
          5    1    4    4  501    0  0.66731106420E+02  0.50213797790E+02  0.36873171668E+03  0.37810003298E+03  0.47000000000E+01 0.  1.
         -5    1    4    4    0  501  0.46070657738E+02 -0.54026132486E+02  0.12859088093E+03  0.14696609526E+03  0.47000000000E+01 0.  1.
          1    1    1    2  502    0 -0.62240230576E+02 -0.11487095255E+02  0.10628453320E+04  0.10647281340E+04  0.00000000000E+00 0. -1.
          1    1    1    2  503    0  0.18862987710E+02  0.42503869614E+02 -0.69188874975E+03  0.69344966167E+03  0.00000000000E+00 0. -1.
<mgrwt>
<rscale>  0 0.54233879E+02</rscale>
<asrwt>0</asrwt>
<pdfrwt beam="1">  1        2 0.31650994E+00 0.63251990E+02</pdfrwt>
<pdfrwt beam="2">  1        2 0.19409366E+00 0.46501519E+02</pdfrwt>
<totfact> 0.26426014E+01</totfact>
</mgrwt>
</event>
<event>
13    1  0.1589573E-008  0.1741735E+03  0.7546771E-02  0.1178210E+00
          2   -1    0    0  502    0  0.00000000000E+00  0.00000000000E+00  0.20532918037E+04  0.20532918037E+04  0.00000000000E+00 0. -1.
          2   -1    0    0  503    0 -0.00000000000E+00 -0.00000000000E+00 -0.28845348612E+04  0.28845348612E+04  0.00000000000E+00 0. -1.
         24    2    1    2    0    0 -0.19641003811E+01 -0.13976960703E+02 -0.56344906060E+03  0.56938258515E+03  0.80761818055E+02 0.  0.
         25    2    1    2    0    0  0.12839876435E+03 -0.18198465617E+03  0.11086788531E+04  0.11377157552E+04  0.12499473033E+03 0.  0.
         24    2    1    2    0    0  0.13658238274E+03  0.12182359387E+03 -0.41330282134E+02  0.20399286433E+03  0.80057236884E+02 0.  0.
        -13    1    5    5    0    0  0.80190280539E+02  0.11789219084E+03 -0.22100471959E+02  0.14428264142E+03  0.00000000000E+00 0.  1.
         14    1    5    5    0    0  0.56392102201E+02  0.39314030285E+01 -0.19229810175E+02  0.59710222909E+02  0.00000000000E+00 0. -1.
        -13    1    3    3    0    0  0.33468987911E+02  0.13669871035E+02 -0.29344499484E+03  0.29566366622E+03  0.00000000000E+00 0.  1.
         14    1    3    3    0    0 -0.35433088292E+02 -0.27646831738E+02 -0.27000406576E+03  0.27371891893E+03  0.00000000000E+00 0. -1.
          5    1    4    4  501    0  0.85018714777E+01 -0.10803571647E+03  0.60689615069E+03  0.61651360534E+03  0.47000000000E+01 0. -1.
         -5    1    4    4    0  501  0.11989689288E+03 -0.73948939693E+02  0.50178270242E+03  0.52120214989E+03  0.47000000000E+01 0. -1.
          1    1    1    2  502    0  0.55472992484E+02  0.16516096364E+03  0.82405797969E+03  0.84227486647E+03  0.00000000000E+00 0. -1.
          1    1    1    2  503    0 -0.31849003920E+03 -0.91022940638E+02 -0.21592005476E+04  0.21844605937E+04  0.00000000000E+00 0. -1.
<mgrwt>
<rscale>  0 0.16965352E+03</rscale>
<asrwt>0</asrwt>
<pdfrwt beam="1">  1        2 0.30195468E+00 0.17417348E+03</pdfrwt>
<pdfrwt beam="2">  1        2 0.42419630E+00 0.16525086E+03</pdfrwt>
<totfact> 0.39342660E+00</totfact>
</mgrwt>
</event>
<event>
13    1  0.1589573E-008  0.2608483E+03  0.7546771E-02  0.1226841E+00
          2   -1    0    0  502    0  0.00000000000E+00  0.00000000000E+00  0.18548530316E+04  0.18548530316E+04  0.00000000000E+00 0. -1.
          2   -1    0    0  503    0 -0.00000000000E+00 -0.00000000000E+00 -0.25805653908E+04  0.25805653908E+04  0.00000000000E+00 0. -1.
         24    2    1    2    0    0  0.10102141183E+03  0.22510646361E+03 -0.14639184885E+04  0.14868911045E+04  0.83123823696E+02 0.  0.
         25    2    1    2    0    0 -0.40308660395E+01  0.67915067017E+01  0.10533766072E+03  0.16365735742E+03  0.12500134170E+03 0.  0.
         24    2    1    2    0    0 -0.72829172854E+02  0.27716524202E+02 -0.12056795589E+03  0.16459640051E+03  0.80517382856E+02 0.  0.
        -11    1    3    3    0    0  0.30137430444E+02  0.52287067543E+02 -0.59898615387E+03  0.60201878266E+03  0.00000000000E+00 0.  1.
         12    1    3    3    0    0  0.70883981383E+02  0.17281939607E+03 -0.86493233461E+03  0.88487232182E+03  0.00000000000E+00 0. -1.
        -13    1    5    5    0    0 -0.42091216676E+02  0.50869561307E+02 -0.45331368461E+02  0.80089423493E+02  0.00000000000E+00 0.  1.
         14    1    5    5    0    0 -0.30737956178E+02 -0.23153037105E+02 -0.75236587430E+02  0.84506977021E+02  0.00000000000E+00 0. -1.
          5    1    4    4  501    0 -0.17410966281E+01  0.21445264902E+02  0.13143872085E+03  0.13327099513E+03  0.47000000000E+01 0. -1.
         -5    1    4    4    0  501 -0.22897694115E+01 -0.14653758200E+02 -0.26101060127E+02  0.30386362288E+02  0.47000000000E+01 0. -1.
          1    1    1    2  502    0 -0.63984571697E+02  0.12547258555E+02  0.16659397245E+04  0.16672152305E+04  0.00000000000E+00 0. -1.
          1    1    1    2  503    0  0.39823198764E+02 -0.27216175307E+03 -0.91250330001E+03  0.95305832955E+03  0.00000000000E+00 0. -1.
<mgrwt>
<rscale>  0 0.13041528E+03</rscale>
<asrwt>0</asrwt>
<pdfrwt beam="1">  1        2 0.27277251E+00 0.65203214E+02</pdfrwt>
<pdfrwt beam="2">  1        2 0.37949491E+00 0.26084826E+03</pdfrwt>
<totfact> 0.73812737E+00</totfact>
</mgrwt>
</event>
<event>
13    1  0.1589573E-008  0.1425621E+03  0.7546771E-02  0.1274578E+00
         -1   -1    0    0    0  501 -0.00000000000E+00  0.00000000000E+00  0.91534080067E+03  0.91534080067E+03  0.00000000000E+00 0.  1.
          2   -1    0    0  503    0  0.00000000000E+00 -0.00000000000E+00 -0.15224960012E+04  0.15224960012E+04  0.00000000000E+00 0. -1.
         24    2    1    2    0    0 -0.35865985980E+02  0.75769778331E+02 -0.25881030510E+01  0.11640791901E+03  0.80725938035E+02 0.  0.
         25    2    1    2    0    0  0.71191768895E+02  0.74544213515E+01  0.51274400717E+02  0.15289702640E+03  0.12499840061E+03 0.  0.
         24    2    1    2    0    0 -0.33538621115E+02  0.88054608544E+01 -0.17804047900E+03  0.19777305732E+03  0.78825089875E+02 0.  0.
        -13    1    3    3    0    0 -0.41099353982E+02  0.10660423178E+01  0.35726190056E+01  0.41268110576E+02  0.00000000000E+00 0.  1.
         14    1    3    3    0    0  0.52333680015E+01  0.74703736013E+02 -0.61607220566E+01  0.75139808432E+02  0.00000000000E+00 0. -1.
        -13    1    5    5    0    0  0.32370669273E+01 -0.29940538861E+02 -0.42524087847E+02  0.52107701127E+02  0.00000000000E+00 0.  1.
         14    1    5    5    0    0 -0.36775688042E+02  0.38745999715E+02 -0.13551639115E+03  0.14566535619E+03  0.00000000000E+00 0. -1.
          5    1    4    4  502    0  0.97904478130E+02  0.20721837231E+02  0.85059242621E+01  0.10054413023E+03  0.47000000000E+01 0.  1.
         -5    1    4    4    0  502 -0.26712709235E+02 -0.13267415879E+02  0.42768476455E+02  0.52352896167E+02  0.47000000000E+01 0.  1.
          1    1    1    2  503    0  0.23725886944E+02  0.70181487720E+02 -0.12141069716E+04  0.12163651168E+04  0.00000000000E+00 0. -1.
         -2    1    1    2    0  501 -0.25513048743E+02 -0.16221114826E+03  0.73630595244E+03  0.75439368229E+03  0.00000000000E+00 0.  1.
<mgrwt>
<rscale>  0 0.10276913E+03</rscale>
<asrwt>0</asrwt>
<pdfrwt beam="2">  1        2 0.22389647E+00 0.74083459E+02</pdfrwt>
<pdfrwt beam="1">  1       -1 0.13460894E+00 0.14256211E+03</pdfrwt>
<totfact> 0.95729009E+00</totfact>
</mgrwt>
</event>
<event>
13    1  0.1589573E-008  0.8394733E+03  0.7546771E-02  0.1062383E+00
          2   -1    0    0  503    0  0.00000000000E+00  0.00000000000E+00  0.41927415523E+04  0.41927415523E+04  0.00000000000E+00 0. -1.
          2   -1    0    0  502    0 -0.00000000000E+00 -0.00000000000E+00 -0.27535506370E+04  0.27535506370E+04  0.00000000000E+00 0. -1.
         24    2    1    2    0    0 -0.25886817751E+03 -0.23053344771E+03 -0.21337485911E+04  0.21631907262E+04  0.79703600799E+02 0.  0.
         25    2    1    2    0    0  0.12910605231E+03  0.15831485054E+02 -0.59543302974E+02  0.18997784439E+03  0.12500867077E+03 0.  0.
         24    2    1    2    0    0  0.44897643694E+02  0.16729674162E+03  0.18424000202E+03  0.26610818113E+03  0.82856427334E+02 0.  0.
        -11    1    5    5    0    0 -0.10662186889E+02 -0.39284227997E+01  0.16653168861E+02  0.20160425790E+02  0.00000000000E+00 0.  1.
         12    1    5    5    0    0  0.55559830582E+02  0.17122516442E+03  0.16758683316E+03  0.24594775534E+03  0.00000000000E+00 0. -1.
        -13    1    3    3    0    0 -0.19728023958E+03 -0.15072192450E+03 -0.13121472361E+04  0.13354276321E+04  0.00000000000E+00 0.  1.
         14    1    3    3    0    0 -0.61587937926E+02 -0.79811523214E+02 -0.82160135501E+03  0.82776309406E+03  0.00000000000E+00 0. -1.
          5    1    4    4  501    0  0.64794182353E+02  0.68549771998E+02 -0.15327490000E+02  0.95678520356E+02  0.47000000000E+01 0. -1.
         -5    1    4    4    0  501  0.64311869960E+02 -0.52718286944E+02 -0.44215812974E+02  0.94299324033E+02  0.47000000000E+01 0. -1.
          1    1    1    2  502    0  0.41339067572E+02  0.18718309160E+03 -0.41702664106E+03  0.45897456099E+03  0.00000000000E+00 0. -1.
          1    1    1    2  503    0  0.43525413931E+02 -0.13977787056E+03  0.38652694484E+04  0.38680408767E+04  0.00000000000E+00 0. -1.
<mgrwt>
<rscale>  0 0.35056675E+03</rscale>
<asrwt>0</asrwt>
<pdfrwt beam="1">  1        2 0.61657964E+00 0.14639780E+03</pdfrwt>
<pdfrwt beam="2">  1        2 0.40493392E+00 0.83947332E+03</pdfrwt>
<totfact> 0.23231784E-01</totfact>
</mgrwt>
</event>
<event>
13    1  0.1589573E-008  0.7881082E+02  0.7546771E-02  0.1367567E+00
         -3   -1    0    0    0  501 -0.00000000000E+00  0.00000000000E+00  0.23170720534E+03  0.23170720534E+03  0.00000000000E+00 0.  1.
          2   -1    0    0  503    0  0.00000000000E+00 -0.00000000000E+00 -0.37041698624E+04  0.37041698624E+04  0.00000000000E+00 0. -1.
         24    2    1    2    0    0 -0.30179576335E+03  0.18206041412E+03 -0.60358382305E+03  0.70346855230E+03  0.79548070119E+02 0.  0.
         25    2    1    2    0    0  0.16095418896E+03 -0.17656356251E+03 -0.10097350933E+04  0.10451178970E+04  0.12500206920E+03 0.  0.
         24    2    1    2    0    0  0.90652612525E+02  0.52886868478E+02 -0.47356624896E+03  0.49187440514E+03  0.81612016660E+02 0.  0.
        -13    1    3    3    0    0 -0.13683500577E+03  0.41494132015E+02 -0.20803107311E+03  0.25243317764E+03  0.00000000000E+00 0.  1.
         14    1    3    3    0    0 -0.16496075759E+03  0.14056628210E+03 -0.39555274994E+03  0.45103537465E+03  0.00000000000E+00 0. -1.
        -13    1    5    5    0    0  0.81340715278E+01  0.56213409742E+01 -0.11180485030E+01  0.99505088524E+01  0.00000000000E+00 0.  1.
         14    1    5    5    0    0  0.82518540997E+02  0.47265527504E+02 -0.47244820045E+03  0.48192389628E+03  0.00000000000E+00 0. -1.
          5    1    4    4  502    0  0.14120577820E+03 -0.92960119416E+02 -0.49133999417E+03  0.51963230796E+03  0.47000000000E+01 0.  1.
         -5    1    4    4    0  502  0.19748410757E+02 -0.83603443097E+02 -0.51839509917E+03  0.52548558902E+03  0.47000000000E+01 0.  1.
          1    1    1    2  503    0 -0.28388920889E+02 -0.51047770056E+02 -0.15298523539E+04  0.15309670246E+04  0.00000000000E+00 0. -1.
         -4    1    1    2    0  501  0.78577882762E+02 -0.73359500273E+01  0.14427486218E+03  0.16444918875E+03  0.00000000000E+00 0.  1.
<mgrwt>
<rscale>  0 0.67848305E+02</rscale>
<asrwt>0</asrwt>
<pdfrwt beam="2">  1        2 0.54473082E+00 0.58410664E+02</pdfrwt>
<pdfrwt beam="1">  1       -3 0.34074592E-01 0.78810822E+02</pdfrwt>
<totfact> 0.62654088E+00</totfact>
</mgrwt>
</event>
<event>
13    1  0.1589573E-008  0.1803539E+03  0.7546771E-02  0.1204917E+00
          2   -1    0    0  502    0  0.00000000000E+00  0.00000000000E+00  0.14133029770E+04  0.14133029770E+04  0.00000000000E+00 0. -1.
          2   -1    0    0  503    0 -0.00000000000E+00 -0.00000000000E+00 -0.35271734778E+04  0.35271734778E+04  0.00000000000E+00 0. -1.
         24    2    1    2    0    0 -0.24040228690E+03  0.50350875597E+03 -0.75367371631E+03  0.94110464016E+03  0.79621267234E+02 0.  0.
         25    2    1    2    0    0 -0.37511469662E+03 -0.59094988338E+03 -0.26598118764E+03  0.75914583582E+03  0.12499443018E+03 0.  0.
         24    2    1    2    0    0  0.47077720366E+03 -0.82226365994E+02 -0.32246552952E+03  0.58381835787E+03  0.92019055100E+02 0.  0.
        -11    1    5    5    0    0  0.24406145269E+03 -0.56803350886E+01 -0.12906666511E+03  0.27614572772E+03  0.00000000000E+00 0.  1.
         12    1    5    5    0    0  0.22671575097E+03 -0.76546030906E+02 -0.19339886441E+03  0.30767263014E+03  0.00000000000E+00 0. -1.
        -13    1    3    3    0    0 -0.11124430480E+03  0.18277338102E+03 -0.34289557597E+03  0.40417666951E+03  0.00000000000E+00 0.  1.
         14    1    3    3    0    0 -0.12915798210E+03  0.32073537495E+03 -0.41077814034E+03  0.53692797065E+03  0.00000000000E+00 0. -1.
          5    1    4    4  501    0 -0.89435324241E+02 -0.10232325272E+03 -0.10155050417E+03  0.16971540934E+03  0.47000000000E+01 0. -1.
         -5    1    4    4    0  501 -0.28567937238E+03 -0.48862663067E+03 -0.16443068346E+03  0.58943042648E+03  0.47000000000E+01 0. -1.
          1    1    1    2  502    0  0.17205395217E+03  0.53944384710E+02  0.93161169831E+03  0.94890089869E+03  0.00000000000E+00 0. -1.
          1    1    1    2  503    0 -0.27314172309E+02  0.11572310870E+03 -0.17033617657E+04  0.17075067223E+04  0.00000000000E+00 0. -1.
<mgrwt>
<rscale>  0 0.14643975E+03</rscale>
<asrwt>0</asrwt>
<pdfrwt beam="1">  1        2 0.20783867E+00 0.18035388E+03</pdfrwt>
<pdfrwt beam="2">  1        2 0.51870198E+00 0.11890291E+03</pdfrwt>
<totfact> 0.37546695E+00</totfact>
</mgrwt>
</event>
<event>
13    1  0.1589573E-008  0.6940996E+02  0.7546771E-02  0.1382648E+00
          2   -1    0    0  502    0  0.00000000000E+00  0.00000000000E+00  0.16965376294E+04  0.16965376294E+04  0.00000000000E+00 0. -1.
          2   -1    0    0  503    0 -0.00000000000E+00 -0.00000000000E+00 -0.34376640714E+04  0.34376640714E+04  0.00000000000E+00 0. -1.
         24    2    1    2    0    0 -0.22137550265E+02 -0.10416162668E+03 -0.24691004797E+04  0.24727364671E+04  0.81417082894E+02 0.  0.
         25    2    1    2    0    0 -0.19218511450E+03  0.32000906975E+02  0.48573305494E+03  0.53807178577E+03  0.12500187877E+03 0.  0.
         24    2    1    2    0    0  0.12788110714E+03 -0.12101692689E+02 -0.45606113786E+02  0.15866539861E+03  0.81208143511E+02 0.  0.
        -11    1    3    3    0    0 -0.45995406695E+02 -0.94171278891E+02 -0.17203402801E+04  0.17235296593E+04  0.00000000000E+00 0.  1.
         12    1    3    3    0    0  0.23857856430E+02 -0.99903477909E+01 -0.74876019957E+03  0.74920680778E+03  0.00000000000E+00 0. -1.
        -11    1    5    5    0    0  0.68367300596E+02  0.32170173857E+02 -0.94463335451E+01  0.76146182401E+02  0.00000000000E+00 0.  1.
         12    1    5    5    0    0  0.59513806541E+02 -0.44271866546E+02 -0.36159780241E+02  0.82519216208E+02  0.00000000000E+00 0. -1.
          5    1    4    4  501    0 -0.78935354055E+02  0.61192996572E+02  0.13277490645E+03  0.16621263108E+03  0.47000000000E+01 0.  1.
         -5    1    4    4    0  501 -0.11324976045E+03 -0.29192089597E+02  0.35295814849E+03  0.37185915469E+03  0.47000000000E+01 0.  1.
          1    1    1    2  502    0  0.32539446617E+02  0.61288867259E+02  0.11241927909E+04  0.11263323541E+04  0.00000000000E+00 0. -1.
          1    1    1    2  503    0  0.53902111014E+02  0.22973545137E+02 -0.83634569433E+03  0.83839569522E+03  0.00000000000E+00 0. -1.
<mgrwt>
<rscale>  0 0.63772929E+02</rscale>
<asrwt>0</asrwt>
<pdfrwt beam="1">  1        2 0.24949083E+00 0.69409964E+02</pdfrwt>
<pdfrwt beam="2">  1        2 0.50553884E+00 0.58593697E+02</pdfrwt>
<totfact> 0.37656053E+00</totfact>
</mgrwt>
</event>
<event>
13    1  0.1589573E-008  0.1232972E+03  0.7546771E-02  0.1240435E+00
          2   -1    0    0  502    0  0.00000000000E+00  0.00000000000E+00  0.34934042380E+04  0.34934042380E+04  0.00000000000E+00 0. -1.
          2   -1    0    0  503    0 -0.00000000000E+00 -0.00000000000E+00 -0.10588373618E+04  0.10588373618E+04  0.00000000000E+00 0. -1.
         24    2    1    2    0    0  0.28182351467E+03 -0.23728775375E+03 -0.23590941260E+03  0.44499429631E+03  0.81465951782E+02 0.  0.
         25    2    1    2    0    0 -0.13755571051E+03 -0.15199869542E+02  0.22706658630E+03  0.29383290185E+03  0.12500372022E+03 0.  0.
         24    2    1    2    0    0  0.25900698090E+02  0.32341748333E+03 -0.39080281969E+03  0.51462779973E+03  0.82735806613E+02 0.  0.
        -11    1    3    3    0    0  0.66968125572E+02 -0.10642017698E+03 -0.79577308787E+02  0.14880366926E+03  0.00000000000E+00 0.  1.
         12    1    3    3    0    0  0.21485538910E+03 -0.13086757677E+03 -0.15633210381E+03  0.29619062706E+03  0.00000000000E+00 0. -1.
        -13    1    5    5    0    0  0.55726362946E+01  0.31564133715E+00 -0.27282110325E+02  0.27847216171E+02  0.00000000000E+00 0.  1.
         14    1    5    5    0    0  0.20328061796E+02  0.32310184200E+03 -0.36352070936E+03  0.48678058356E+03  0.00000000000E+00 0. -1.
          5    1    4    4  501    0 -0.15838597639E+03 -0.90732736445E+01  0.21841578435E+03  0.26999256779E+03  0.47000000000E+01 0.  1.
         -5    1    4    4    0  501  0.20830265875E+02 -0.61265958978E+01  0.86508019515E+01  0.23840334061E+02  0.47000000000E+01 0.  1.
          1    1    1    2  502    0 -0.11760914256E+03  0.36927637015E+02  0.30496774349E+04  0.30521677572E+04  0.00000000000E+00 0. -1.
          1    1    1    2  503    0 -0.52559359686E+02 -0.10785749706E+03 -0.21546491269E+03  0.24661884470E+03  0.00000000000E+00 0. -1.
<mgrwt>
<rscale>  0 0.12162842E+03</rscale>
<asrwt>0</asrwt>
<pdfrwt beam="1">  1        2 0.51373592E+00 0.12329723E+03</pdfrwt>
<pdfrwt beam="2">  1        2 0.15571138E+00 0.11998219E+03</pdfrwt>
<totfact> 0.62016940E+00</totfact>
</mgrwt>
</event>
<event>
13    1  0.1589573E-008  0.1558211E+03  0.7546771E-02  0.1230446E+00
          2   -1    0    0  503    0  0.00000000000E+00  0.00000000000E+00  0.15478011874E+04  0.15478011874E+04  0.00000000000E+00 0. -1.
          2   -1    0    0  502    0 -0.00000000000E+00 -0.00000000000E+00 -0.31923478724E+04  0.31923478724E+04  0.00000000000E+00 0. -1.
         24    2    1    2    0    0  0.17280154639E+02  0.39119831222E+03 -0.26957058505E+03  0.48216275350E+03  0.80485385729E+02 0.  0.
         25    2    1    2    0    0  0.23631984744E+03 -0.46674221301E+03  0.15369854160E+03  0.55941622179E+03  0.12501161472E+03 0.  0.
         24    2    1    2    0    0 -0.42740479860E+03 -0.10937104162E+03  0.29264532037E+03  0.53804958464E+03  0.96016589164E+02 0.  0.
        -13    1    3    3    0    0  0.45416466360E+02  0.29928961768E+03 -0.19020349588E+03  0.35751125928E+03  0.00000000000E+00 0.  1.
         14    1    3    3    0    0 -0.28136311722E+02  0.91908694540E+02 -0.79367089164E+02  0.12465149422E+03  0.00000000000E+00 0. -1.
        -13    1    5    5    0    0 -0.11844795263E+03 -0.30502662422E+01  0.11943800768E+03  0.16823988613E+03  0.00000000000E+00 0.  1.
         14    1    5    5    0    0 -0.30895684597E+03 -0.10632077537E+03  0.17320731268E+03  0.36980969851E+03  0.00000000000E+00 0. -1.
          5    1    4    4  501    0  0.21868034347E+03 -0.46889451745E+03  0.15709113670E+03  0.54072439962E+03  0.47000000000E+01 0. -1.
         -5    1    4    4    0  501  0.17639503974E+02  0.21523044379E+01 -0.33925950946E+01  0.18691822178E+02  0.47000000000E+01 0. -1.
          1    1    1    2  502    0  0.49722638327E+02  0.92656743442E+02 -0.24808653637E+04  0.24830929434E+04  0.00000000000E+00 0. -1.
          1    1    1    2  503    0  0.12408215819E+03  0.92258198966E+02  0.65954540173E+03  0.67742755642E+03  0.00000000000E+00 0. -1.
<mgrwt>
<rscale>  0 0.12800544E+03</rscale>
<asrwt>0</asrwt>
<pdfrwt beam="1">  1        2 0.22761782E+00 0.15582107E+03</pdfrwt>
<pdfrwt beam="2">  1        2 0.46946292E+00 0.10515518E+03</pdfrwt>
<totfact> 0.51509548E+00</totfact>
</mgrwt>
</event>
<event>
13    1  0.1589573E-008  0.4744678E+02  0.7546771E-02  0.1465169E+00
          2   -1    0    0  503    0  0.00000000000E+00  0.00000000000E+00  0.23248131935E+03  0.23248131935E+03  0.00000000000E+00 0. -1.
          2   -1    0    0  502    0 -0.00000000000E+00 -0.00000000000E+00 -0.22542725037E+04  0.22542725037E+04  0.00000000000E+00 0. -1.
         24    2    1    2    0    0 -0.80461031551E+02  0.10115840100E+03 -0.12296441668E+04  0.12391617755E+04  0.82402240710E+02 0.  0.
         25    2    1    2    0    0 -0.65355018984E+00 -0.76500836927E+02 -0.18141527375E+03  0.23322022806E+03  0.12500947182E+03 0.  0.
         24    2    1    2    0    0  0.12802122134E+03 -0.20906030431E+02 -0.44746257291E+03  0.47267486516E+03  0.79826554361E+02 0.  0.
        -11    1    3    3    0    0 -0.30325325028E+02  0.46663230874E+02 -0.88022265732E+03  0.88198016356E+03  0.00000000000E+00 0.  1.
         12    1    3    3    0    0 -0.50135706523E+02  0.54495170121E+02 -0.34942150949E+03  0.35718161197E+03  0.00000000000E+00 0. -1.
        -13    1    5    5    0    0  0.34670901790E+02 -0.18881370904E+01 -0.26085253291E+03  0.26315334012E+03  0.00000000000E+00 0.  1.
         14    1    5    5    0    0  0.93350319545E+02 -0.19017893341E+02 -0.18661004001E+03  0.20952152504E+03  0.00000000000E+00 0. -1.
          5    1    4    4  501    0 -0.23719474507E+02 -0.10061437724E+03 -0.16723251893E+03  0.19665876986E+03  0.47000000000E+01 0.  1.
         -5    1    4    4    0  501  0.23065924317E+02  0.24113540309E+02 -0.14182754827E+02  0.36561458194E+02  0.47000000000E+01 0.  1.
          1    1    1    2  502    0 -0.29355796931E+02  0.38312537766E+02 -0.34804851740E+03  0.35137925925E+03  0.00000000000E+00 0. -1.
          1    1    1    2  503    0 -0.17550842663E+02 -0.42064071403E+02  0.18477934648E+03  0.19031769510E+03  0.00000000000E+00 0. -1.
<mgrwt>
<rscale>  0 0.46503362E+02</rscale>
<asrwt>0</asrwt>
<pdfrwt beam="1">  1        2 0.34188429E-01 0.45578703E+02</pdfrwt>
<pdfrwt beam="2">  1        2 0.33151066E+00 0.47446779E+02</pdfrwt>
<totfact> 0.17219765E+02</totfact>
</mgrwt>
</event>
<event>
13    1  0.1589573E-008  0.7531074E+02  0.7546771E-02  0.1413829E+00
         -1   -1    0    0    0  501 -0.00000000000E+00  0.00000000000E+00  0.28774468254E+03  0.28774468254E+03  0.00000000000E+00 0.  1.
          2   -1    0    0  503    0  0.00000000000E+00 -0.00000000000E+00 -0.43061532915E+04  0.43061532915E+04  0.00000000000E+00 0. -1.
         24    2    1    2    0    0 -0.90002845186E+02 -0.60005464423E+02 -0.92036382403E+02  0.16344382139E+03  0.80882749469E+02 0.  0.
         25    2    1    2    0    0  0.28882701964E+03 -0.16354601236E+03 -0.74058558364E+03  0.82113339159E+03  0.12499877867E+03 0.  0.
         24    2    1    2    0    0 -0.16511262158E+03  0.22326428320E+03 -0.17282318753E+04  0.17522519582E+04  0.80575382234E+02 0.  0.
        -11    1    5    5    0    0 -0.24862077182E+02  0.17383450961E+01 -0.10082257107E+03  0.10385728459E+03  0.00000000000E+00 0.  1.
         12    1    5    5    0    0 -0.14025054440E+03  0.22152593810E+03 -0.16274093042E+04  0.16483946736E+04  0.00000000000E+00 0. -1.
        -13    1    3    3    0    0 -0.19819104240E+01 -0.36377854592E+02 -0.52964300385E+02  0.64284472378E+02  0.00000000000E+00 0.  1.
         14    1    3    3    0    0 -0.88020934762E+02 -0.23627609831E+02 -0.39072082018E+02  0.99159349009E+02  0.00000000000E+00 0. -1.
          5    1    4    4  502    0  0.94156711767E+02 -0.11047509378E+03 -0.39598913825E+03  0.42178160265E+03  0.47000000000E+01 0. -1.
         -5    1    4    4    0  502  0.19467030787E+03 -0.53070918581E+02 -0.34459644539E+03  0.39935178895E+03  0.47000000000E+01 0. -1.
          1    1    1    2  503    0 -0.75482944229E+02  0.59999041728E+01 -0.16542114672E+04  0.16559436137E+04  0.00000000000E+00 0. -1.
         -2    1    1    2    0  501  0.41771391361E+02 -0.57127105895E+01  0.19665669959E+03  0.20112518910E+03  0.00000000000E+00 0.  1.
<mgrwt>
<rscale>  0 0.56348182E+02</rscale>
<asrwt>0</asrwt>
<pdfrwt beam="2">  1        2 0.63325780E+00 0.75310744E+02</pdfrwt>
<pdfrwt beam="1">  1       -1 0.42315397E-01 0.42160221E+02</pdfrwt>
<totfact> 0.30645007E+00</totfact>
</mgrwt>
</event>
<event>
13    1  0.1589573E-008  0.1179909E+03  0.7546771E-02  0.1366818E+00
         -3   -1    0    0    0  501 -0.00000000000E+00  0.00000000000E+00  0.32436597823E+03  0.32436597823E+03  0.00000000000E+00 0.  1.
          2   -1    0    0  503    0  0.00000000000E+00 -0.00000000000E+00 -0.35105328959E+04  0.35105328959E+04  0.00000000000E+00 0. -1.
         24    2    1    2    0    0 -0.10588344738E+03 -0.58031303701E+02 -0.12746635744E+03  0.19315579502E+03  0.80514298307E+02 0.  0.
         25    2    1    2    0    0  0.67760744319E+02  0.13683510370E+03 -0.10970638486E+04  0.11146697969E+04  0.12499721708E+03 0.  0.
         24    2    1    2    0    0  0.98354207607E+02  0.65334932464E+02 -0.26620038390E+03  0.30272447762E+03  0.82687734345E+02 0.  0.
        -11    1    5    5    0    0 -0.49133577408E+00  0.34090827325E+02 -0.32675997032E+02  0.47224429066E+02  0.00000000000E+00 0.  1.
         12    1    5    5    0    0  0.98845543381E+02  0.31244105139E+02 -0.23352438686E+03  0.25550004856E+03  0.00000000000E+00 0. -1.
        -11    1    3    3    0    0 -0.44907732942E+02  0.11070966501E+02 -0.16959034154E+02  0.49263369928E+02  0.00000000000E+00 0.  1.
         12    1    3    3    0    0 -0.60975714436E+02 -0.69102270202E+02 -0.11050732329E+03  0.14389242509E+03  0.00000000000E+00 0. -1.
          5    1    4    4  502    0  0.47153846678E+02 -0.95219440868E+01 -0.22217686929E+03  0.22737370983E+03  0.47000000000E+01 0.  1.
         -5    1    4    4    0  502  0.20606897642E+02  0.14635704778E+03 -0.87488697929E+03  0.88729608711E+03  0.47000000000E+01 0.  1.
          1    1    1    2  503    0 -0.20884607916E+02 -0.33242244892E+02 -0.19465955260E+04  0.19469913599E+04  0.00000000000E+00 0. -1.
         -4    1    1    2    0  501 -0.39346896632E+02 -0.11089648757E+03  0.25115919826E+03  0.27735744464E+03  0.00000000000E+00 0.  1.
<mgrwt>
<rscale>  0 0.68059683E+02</rscale>
<asrwt>0</asrwt>
<pdfrwt beam="2">  1        2 0.51625483E+00 0.39258295E+02</pdfrwt>
<pdfrwt beam="1">  1       -3 0.47700879E-01 0.11799087E+03</pdfrwt>
<totfact> 0.47530350E+00</totfact>
</mgrwt>
</event>
<event>
13    1  0.1589573E-008  0.1067251E+03  0.7546771E-02  0.1354839E+00
          2   -1    0    0  503    0  0.00000000000E+00  0.00000000000E+00  0.57518849824E+03  0.57518849824E+03  0.00000000000E+00 0. -1.
          2   -1    0    0  502    0 -0.00000000000E+00 -0.00000000000E+00 -0.18677435272E+04  0.18677435272E+04  0.00000000000E+00 0. -1.
         24    2    1    2    0    0  0.16236997889E+02 -0.13031377021E+03 -0.14643319095E+04  0.14723627144E+04  0.79615971169E+02 0.  0.
         25    2    1    2    0    0 -0.98473512652E+02  0.17459691983E+03 -0.22022635430E+03  0.32296384570E+03  0.12499952558E+03 0.  0.
         24    2    1    2    0    0  0.42750409649E+02  0.15531495263E+02 -0.74008635106E+00  0.88253423171E+02  0.75626014726E+02 0.  0.
        -11    1    5    5    0    0  0.31282968729E+01  0.10762015808E+02 -0.34315996204E+02  0.36099789764E+02  0.00000000000E+00 0.  1.
         12    1    5    5    0    0  0.39622112776E+02  0.47694794551E+01  0.33575909853E+02  0.52153633407E+02  0.00000000000E+00 0. -1.
        -13    1    3    3    0    0  0.10274495540E+02 -0.46651358515E+01 -0.23696430491E+02  0.26245943860E+02  0.00000000000E+00 0.  1.
         14    1    3    3    0    0  0.59625023489E+01 -0.12564863436E+03 -0.14406354790E+04  0.14461167706E+04  0.00000000000E+00 0. -1.
          5    1    4    4  501    0 -0.99539506301E+02  0.52479101140E+02 -0.12318294376E+03  0.16690804955E+03  0.47000000000E+01 0. -1.
         -5    1    4    4    0  501  0.10659936491E+01  0.12211781869E+03 -0.97043410541E+02  0.15605579615E+03  0.47000000000E+01 0. -1.
          1    1    1    2  502    0 -0.47624897987E+02 -0.59330062265E+01 -0.70297259436E+02  0.85117778139E+02  0.00000000000E+00 0. -1.
          1    1    1    2  503    0  0.87111003102E+02 -0.53881638659E+02  0.46304058062E+03  0.47423426400E+03  0.00000000000E+00 0. -1.
<mgrwt>
<rscale>  0 0.71568570E+02</rscale>
<asrwt>0</asrwt>
<pdfrwt beam="1">  1        2 0.84586544E-01 0.10672507E+03</pdfrwt>
<pdfrwt beam="2">  1        2 0.27466816E+00 0.47993036E+02</pdfrwt>
<totfact> 0.10105459E+02</totfact>
</mgrwt>
</event>
<event>
13    1  0.1589573E-008  0.1095824E+03  0.7546771E-02  0.1432180E+00
          2   -1    0    0  503    0  0.00000000000E+00  0.00000000000E+00  0.55127141654E+04  0.55127141654E+04  0.00000000000E+00 0. -1.
          2   -1    0    0  502    0 -0.00000000000E+00 -0.00000000000E+00 -0.11827923026E+04  0.11827923026E+04  0.00000000000E+00 0. -1.
         24    2    1    2    0    0  0.12345400377E+03  0.57188253466E+03 -0.19241507914E+03  0.62265585836E+03  0.91576365764E+02 0.  0.
         25    2    1    2    0    0 -0.25260300378E+03 -0.53902900995E+03  0.38815603874E+04  0.39289306991E+04  0.12499938514E+03 0.  0.
         24    2    1    2    0    0  0.89962620800E+02  0.81690010643E+02  0.45233537130E+03  0.47487718395E+03  0.78323181303E+02 0.  0.
        -11    1    3    3    0    0  0.60605230604E+02  0.40961461468E+03 -0.10153993051E+03  0.42634198014E+03  0.00000000000E+00 0.  1.
         12    1    3    3    0    0  0.62848773169E+02  0.16226791998E+03 -0.90875148634E+02  0.19631387822E+03  0.00000000000E+00 0. -1.
        -13    1    5    5    0    0  0.61461652315E+02  0.34325825654E+02  0.13000750617E+03  0.14784366295E+03  0.00000000000E+00 0.  1.
         14    1    5    5    0    0  0.28500968485E+02  0.47364184989E+02  0.32232786513E+03  0.32703352101E+03  0.00000000000E+00 0. -1.
          5    1    4    4  501    0  0.68831985707E+01 -0.12855742816E+02  0.23271855450E+03  0.23322234918E+03  0.47000000000E+01 0.  1.
         -5    1    4    4    0  501 -0.25948620235E+03 -0.52617326713E+03  0.36488418329E+04  0.36957083499E+04  0.47000000000E+01 0.  1.
          1    1    1    2  502    0  0.14726753947E+02 -0.10858015475E+03 -0.73607385675E+03  0.74418495677E+03  0.00000000000E+00 0. -1.
          1    1    1    2  503    0  0.24459625257E+02 -0.59633806043E+01  0.92451504007E+03  0.92485776987E+03  0.00000000000E+00 0. -1.
<mgrwt>
<rscale>  0 0.52524817E+02</rscale>
<asrwt>0</asrwt>
<pdfrwt beam="1">  1        2 0.81069325E+00 0.25176083E+02</pdfrwt>
<pdfrwt beam="2">  1        2 0.17394005E+00 0.10958243E+03</pdfrwt>
<totfact> 0.17622215E-01</totfact>
</mgrwt>
</event>
<event>
13    1  0.1589573E-008  0.5319953E+02  0.7546771E-02  0.1454283E+00
          2   -1    0    0  502    0  0.00000000000E+00  0.00000000000E+00  0.10601301959E+04  0.10601301959E+04  0.00000000000E+00 0. -1.
          2   -1    0    0  503    0 -0.00000000000E+00 -0.00000000000E+00 -0.35989976007E+03  0.35989976007E+03  0.00000000000E+00 0. -1.
         24    2    1    2    0    0 -0.41579948929E+02 -0.69366815878E+02  0.14676692591E+02  0.11476768829E+03  0.80097251332E+02 0.  0.
         25    2    1    2    0    0  0.32990766305E+02  0.17177599979E+03  0.79372337442E+02  0.22917332443E+03  0.12500023965E+03 0.  0.
         24    2    1    2    0    0  0.30933487975E+02 -0.10626856234E+03  0.43588869135E+03  0.45696176433E+03  0.81026013043E+02 0.  0.
        -13    1    5    5    0    0  0.18947807193E+02 -0.11462964610E+03  0.41808389537E+03  0.43392755009E+03  0.00000000000E+00 0.  1.
         14    1    5    5    0    0  0.11985680782E+02  0.83610837596E+01  0.17804795979E+02  0.23034214232E+02  0.00000000000E+00 0. -1.
        -13    1    3    3    0    0 -0.48439604560E+02 -0.28189861713E+02 -0.21004476431E+02  0.59851914117E+02  0.00000000000E+00 0.  1.
         14    1    3    3    0    0  0.68596556309E+01 -0.41176954165E+02  0.35681169022E+02  0.54915774168E+02  0.00000000000E+00 0. -1.
          5    1    4    4  501    0  0.63463867876E+01 -0.12616924827E+02 -0.14254908741E+02  0.20609605541E+02  0.47000000000E+01 0.  1.
         -5    1    4    4    0  501  0.26644379518E+02  0.18439292462E+03  0.93627246183E+02  0.20856371889E+03  0.47000000000E+01 0.  1.
          1    1    1    2  502    0  0.13714187969E+01 -0.43974835273E+02  0.39028085564E+03  0.39275286530E+03  0.00000000000E+00 0. -1.
          1    1    1    2  503    0 -0.23715724148E+02  0.47834213699E+02 -0.21998814123E+03  0.22637431359E+03  0.00000000000E+00 0. -1.
<mgrwt>
<rscale>  0 0.48379519E+02</rscale>
<asrwt>0</asrwt>
<pdfrwt beam="1">  1        2 0.15590150E+00 0.43996215E+02</pdfrwt>
<pdfrwt beam="2">  1        2 0.52926436E-01 0.53199528E+02</pdfrwt>
<totfact> 0.41362090E+02</totfact>
</mgrwt>
</event>
<event>
13    1  0.1589573E-008  0.5144925E+02  0.7546771E-02  0.1450819E+00
          2   -1    0    0  502    0  0.00000000000E+00  0.00000000000E+00  0.93448808521E+03  0.93448808521E+03  0.00000000000E+00 0. -1.
          2   -1    0    0  503    0 -0.00000000000E+00 -0.00000000000E+00 -0.28565450153E+03  0.28565450153E+03  0.00000000000E+00 0. -1.
         24    2    1    2    0    0 -0.75440271640E+02  0.61718092324E+02 -0.51223830607E+02  0.14204553233E+03  0.89736809207E+02 0.  0.
         25    2    1    2    0    0  0.11810562999E+03 -0.93527934225E+02  0.33063842138E+03  0.38424041937E+03  0.12499007910E+03 0.  0.
         24    2    1    2    0    0 -0.25478591919E+02 -0.15082005207E+01  0.25692957827E+03  0.27048867760E+03  0.80621853138E+02 0.  0.
        -13    1    3    3    0    0 -0.75962965013E+02  0.19405040355E+02 -0.38105811181E+01  0.78494892657E+02  0.00000000000E+00 0.  1.
         14    1    3    3    0    0  0.52269337265E+00  0.42313051969E+02 -0.47413249489E+02  0.63550639670E+02  0.00000000000E+00 0. -1.
        -13    1    5    5    0    0 -0.44025026340E+02 -0.84315222610E+01  0.74191649020E+02  0.86681568377E+02  0.00000000000E+00 0.  1.
         14    1    5    5    0    0  0.18546434421E+02  0.69233217403E+01  0.18273792925E+03  0.18380710922E+03  0.00000000000E+00 0. -1.
          5    1    4    4  501    0  0.49558556254E+01 -0.41069116005E+02  0.19713612869E+03  0.20148443124E+03  0.47000000000E+01 0. -1.
         -5    1    4    4    0  501  0.11314977437E+03 -0.52458818220E+02  0.13350229268E+03  0.18275598814E+03  0.47000000000E+01 0. -1.
          1    1    1    2  502    0 -0.45619851636E+02 -0.98190749084E+01  0.26151238577E+03  0.26564320621E+03  0.00000000000E+00 0. -1.
          1    1    1    2  503    0  0.28433085204E+02  0.43137117330E+02 -0.14902297113E+03  0.15772475123E+03  0.00000000000E+00 0. -1.
<mgrwt>
<rscale>  0 0.48998559E+02</rscale>
<asrwt>0</asrwt>
<pdfrwt beam="1">  1        2 0.13742472E+00 0.46664602E+02</pdfrwt>
<pdfrwt beam="2">  1        2 0.42008015E-01 0.51449251E+02</pdfrwt>
<totfact> 0.61297675E+02</totfact>
</mgrwt>
</event>
<event>
13    1  0.1589573E-008  0.7777155E+02  0.7546771E-02  0.1406576E+00
          2   -1    0    0  503    0  0.00000000000E+00  0.00000000000E+00  0.23567961243E+04  0.23567961243E+04  0.00000000000E+00 0. -1.
          2   -1    0    0  502    0 -0.00000000000E+00 -0.00000000000E+00 -0.30258865692E+03  0.30258865692E+03  0.00000000000E+00 0. -1.
         24    2    1    2    0    0  0.12871104418E+03 -0.92724030462E+02 -0.55892148631E+02  0.18790479071E+03  0.83785436529E+02 0.  0.
         25    2    1    2    0    0  0.10450373177E+03  0.65225489802E+02  0.44627002221E+03  0.47952060485E+03  0.12493071393E+03 0.  0.
         24    2    1    2    0    0 -0.23920591515E+03 -0.53634191398E+02  0.14963886656E+04  0.15185311519E+04  0.81619386958E+02 0.  0.
        -11    1    5    5    0    0 -0.11376989515E+02  0.71999674422E+01  0.25271345861E+02  0.28634181379E+02  0.00000000000E+00 0.  1.
         12    1    5    5    0    0 -0.22782892564E+03 -0.60834158841E+02  0.14711173197E+04  0.14898969705E+04  0.00000000000E+00 0. -1.
        -11    1    3    3    0    0  0.65576018964E+02 -0.91280702891E+02 -0.54078670862E+02  0.12472723690E+03  0.00000000000E+00 0.  1.
         12    1    3    3    0    0  0.63135025213E+02 -0.14433275705E+01 -0.18134777694E+01  0.63177553804E+02  0.00000000000E+00 0. -1.
          5    1    4    4  501    0  0.33664075498E+02 -0.25168949355E+02  0.23716788668E+03  0.24090961472E+03  0.47000000000E+01 0. -1.
         -5    1    4    4    0  501  0.70839656276E+02  0.90394439157E+02  0.20910213553E+03  0.23861099014E+03  0.47000000000E+01 0. -1.
          1    1    1    2  502    0  0.45319871893E+02  0.63252192752E+02 -0.14149866147E+03  0.16148251259E+03  0.00000000000E+00 0. -1.
          1    1    1    2  503    0 -0.39328732689E+02  0.17880539306E+02  0.30893958974E+03  0.31194572125E+03  0.00000000000E+00 0. -1.
<mgrwt>
<rscale>  0 0.57964917E+02</rscale>
<asrwt>0</asrwt>
<pdfrwt beam="1">  1        2 0.34658766E+00 0.43202580E+02</pdfrwt>
<pdfrwt beam="2">  1        2 0.44498333E-01 0.77771550E+02</pdfrwt>
<totfact> 0.11987813E+02</totfact>
</mgrwt>
</event>
<event>
13    1  0.1589573E-008  0.5823353E+02  0.7546771E-02  0.1433732E+00
          2   -1    0    0  503    0  0.00000000000E+00  0.00000000000E+00  0.10470676385E+04  0.10470676385E+04  0.00000000000E+00 0. -1.
         -1   -1    0    0    0  501 -0.00000000000E+00 -0.00000000000E+00 -0.75926478161E+03  0.75926478161E+03  0.00000000000E+00 0.  1.
         24    2    1    2    0    0  0.89011530469E+02  0.53989889702E+02  0.45946083810E+02  0.13643672732E+03  0.75272685595E+02 0.  0.
         25    2    1    2    0    0 -0.67913073486E+02 -0.16120074795E+03 -0.15002722997E+03  0.26216601902E+03  0.12499994043E+03 0.  0.
         24    2    1    2    0    0 -0.69844419166E+01  0.40906601027E+02  0.54282076450E+02  0.10529069892E+03  0.80109019579E+02 0.  0.
        -11    1    3    3    0    0  0.96437272631E+02  0.58001154722E+02  0.53955116257E+02  0.12480158682E+03  0.00000000000E+00 0.  1.
         12    1    3    3    0    0 -0.74257421625E+01 -0.40112650195E+01 -0.80090324464E+01  0.11635140500E+02  0.00000000000E+00 0. -1.
        -13    1    5    5    0    0 -0.25359738763E+02  0.58597101196E+02  0.31988343344E+02  0.71414219372E+02  0.00000000000E+00 0.  1.
         14    1    5    5    0    0  0.18375296846E+02 -0.17690500169E+02  0.22293733106E+02  0.33876479543E+02  0.00000000000E+00 0. -1.
          5    1    4    4  502    0 -0.22668267675E+02 -0.34051781892E+02  0.19390527032E+02  0.45513259035E+02  0.47000000000E+01 0. -1.
         -5    1    4    4    0  502 -0.45244805811E+02 -0.12714896606E+03 -0.16941775700E+03  0.21665275999E+03  0.47000000000E+01 0. -1.
          1    1    1    2  503    0  0.29803864248E+02  0.50065377622E+02  0.81784539490E+03  0.81991822905E+03  0.00000000000E+00 0. -1.
         -2    1    1    2    0  501 -0.43917879315E+02  0.16238879603E+02 -0.48024346828E+03  0.48252074584E+03  0.00000000000E+00 0.  1.
<mgrwt>
<rscale>  0 0.52218035E+02</rscale>
<asrwt>0</asrwt>
<pdfrwt beam="1">  1        2 0.15398054E+00 0.58233527E+02</pdfrwt>
<pdfrwt beam="2">  1       -1 0.11165659E+00 0.46823940E+02</pdfrwt>
<totfact> 0.27954471E+01</totfact>
</mgrwt>
</event>
<event>
13    1  0.1589573E-008  0.1200242E+03  0.7546771E-02  0.1282754E+00
          2   -1    0    0  502    0  0.00000000000E+00  0.00000000000E+00  0.27830932947E+04  0.27830932947E+04  0.00000000000E+00 0. -1.
          4   -1    0    0  503    0 -0.00000000000E+00 -0.00000000000E+00 -0.24441080903E+04  0.24441080903E+04  0.00000000000E+00 0. -1.
         24    2    1    2    0    0  0.40164587956E+02 -0.73640898855E+03 -0.85108901823E+03  0.11289602357E+04  0.79292523273E+02 0.  0.
         25    2    1    2    0    0 -0.50976995235E+03  0.43381046173E+03  0.13065786594E+03  0.69336379516E+03  0.12499981391E+03 0.  0.
         24    2    1    2    0    0  0.50386011472E+03  0.27525880040E+03  0.55805941315E+03  0.80757307393E+03  0.10536383980E+03 0.  0.
        -11    1    3    3    0    0 -0.20104497437E+02 -0.28672722865E+03 -0.35272190741E+03  0.45500487737E+03  0.00000000000E+00 0.  1.
         12    1    3    3    0    0  0.60269085393E+02 -0.44968175989E+03 -0.49836711083E+03  0.67395535831E+03  0.00000000000E+00 0. -1.
        -11    1    5    5    0    0  0.51442292242E+02  0.66687682858E+02  0.10080489923E+03  0.13135898973E+03  0.00000000000E+00 0.  1.
         12    1    5    5    0    0  0.45241782247E+03  0.20857111754E+03  0.45725451393E+03  0.67621408420E+03  0.00000000000E+00 0. -1.
          5    1    4    4  501    0 -0.75397341675E+02  0.12565292087E+03  0.80549203315E+01  0.14683455791E+03  0.47000000000E+01 0. -1.
         -5    1    4    4    0  501 -0.43437261068E+03  0.30815754085E+03  0.12260294561E+03  0.54652923724E+03  0.47000000000E+01 0. -1.
          1    1    1    2  502    0  0.81136557511E+02 -0.64846455617E+01  0.15448063197E+04  0.15469491772E+04  0.00000000000E+00 0. -1.
          3    1    1    2  503    0 -0.11539130783E+03  0.33824371981E+02 -0.10434493761E+04  0.10503551030E+04  0.00000000000E+00 0. -1.
<mgrwt>
<rscale>  0 0.98840297E+02</rscale>
<asrwt>0</asrwt>
<pdfrwt beam="1">  1        2 0.40927842E+00 0.81395280E+02</pdfrwt>
<pdfrwt beam="2">  1        4 0.35942766E+00 0.12002421E+03</pdfrwt>
<totfact> 0.34795474E-02</totfact>
</mgrwt>
</event>
<event>
13    1  0.1589573E-008  0.9352448E+02  0.7546771E-02  0.1359829E+00
          2   -1    0    0  503    0  0.00000000000E+00  0.00000000000E+00  0.32720284284E+04  0.32720284284E+04  0.00000000000E+00 0. -1.
          2   -1    0    0  502    0 -0.00000000000E+00 -0.00000000000E+00 -0.11393764032E+04  0.11393764032E+04  0.00000000000E+00 0. -1.
         24    2    1    2    0    0 -0.79855077361E+02 -0.33026761351E+01 -0.37683456922E+02  0.11953595416E+03  0.80505033139E+02 0.  0.
         25    2    1    2    0    0 -0.15479777948E+03  0.64345214234E+02  0.10713449720E+04  0.10915620467E+04  0.12499997493E+03 0.  0.
         24    2    1    2    0    0  0.87465499115E+02 -0.71742245849E+02  0.46183786513E+03  0.48234120809E+03  0.81004098505E+02 0.  0.
        -13    1    5    5    0    0 -0.14856466408E+02 -0.17668223199E+02  0.89710828520E+02  0.92633220061E+02  0.00000000000E+00 0.  1.
         14    1    5    5    0    0  0.10232196552E+03 -0.54074022650E+02  0.37212703661E+03  0.38970798803E+03  0.00000000000E+00 0. -1.
        -13    1    3    3    0    0 -0.73675496004E+02 -0.17117316858E+02  0.34401957654E+01  0.75716023368E+02  0.00000000000E+00 0.  1.
         14    1    3    3    0    0 -0.61795813579E+01  0.13814640723E+02 -0.41123652687E+02  0.43819930790E+02  0.00000000000E+00 0. -1.
          5    1    4    4  501    0 -0.30514007731E+01 -0.29647276732E+02  0.13308723551E+03  0.13646455335E+03  0.47000000000E+01 0.  1.
         -5    1    4    4    0  501 -0.15174637871E+03  0.93992490966E+02  0.93825773649E+03  0.95509749339E+03  0.47000000000E+01 0.  1.
          1    1    1    2  502    0  0.52507684392E+02  0.41042022491E+00 -0.10383908736E+04  0.10397176693E+04  0.00000000000E+00 0. -1.
          1    1    1    2  503    0  0.94679673339E+02  0.10289287526E+02  0.16755435187E+04  0.16782479533E+04  0.00000000000E+00 0. -1.
<mgrwt>
<rscale>  0 0.70077841E+02</rscale>
<asrwt>0</asrwt>
<pdfrwt beam="1">  1        2 0.48118065E+00 0.93524479E+02</pdfrwt>
<pdfrwt beam="2">  1        2 0.16755535E+00 0.52509288E+02</pdfrwt>
<totfact> 0.82488941E+00</totfact>
</mgrwt>
</event>
<event>
13    1  0.1589573E-008  0.1695175E+03  0.7546771E-02  0.1179689E+00
          2   -1    0    0  503    0  0.00000000000E+00  0.00000000000E+00  0.13809959660E+04  0.13809959660E+04  0.00000000000E+00 0. -1.
          2   -1    0    0  502    0 -0.00000000000E+00 -0.00000000000E+00 -0.20396596138E+04  0.20396596138E+04  0.00000000000E+00 0. -1.
         24    2    1    2    0    0 -0.37257826665E+02  0.82717656113E+02 -0.73320953248E+03  0.74339720043E+03  0.82539825655E+02 0.  0.
         25    2    1    2    0    0  0.35930244976E+01 -0.13281108391E+03 -0.86372418099E+03  0.88277714041E+03  0.12499729982E+03 0.  0.
         24    2    1    2    0    0  0.18866085850E+02 -0.57538951699E+02 -0.12856641240E+02  0.10236259010E+03  0.81523901223E+02 0.  0.
        -11    1    3    3    0    0 -0.40842122678E+01  0.71763688172E+02 -0.28857760402E+03  0.29739492476E+03  0.00000000000E+00 0.  1.
         12    1    3    3    0    0 -0.33173614397E+02  0.10953967940E+02 -0.44463192845E+03  0.44600227567E+03  0.00000000000E+00 0. -1.
        -11    1    5    5    0    0  0.49612483185E+02 -0.23964375382E+02 -0.13905551576E+02  0.56824766958E+02  0.00000000000E+00 0.  1.
         12    1    5    5    0    0 -0.30746397334E+02 -0.33574576317E+02  0.10489103361E+01  0.45537823145E+02  0.00000000000E+00 0. -1.
          5    1    4    4  501    0  0.60802517956E+02 -0.54113701209E+02 -0.30953510712E+03  0.32009266063E+03  0.47000000000E+01 0. -1.
         -5    1    4    4    0  501 -0.57209493459E+02 -0.78697382705E+02 -0.55418907388E+03  0.56268447979E+03  0.47000000000E+01 0. -1.
          1    1    1    2  502    0 -0.15276042135E+03 -0.18031700319E+03 -0.30882017766E+03  0.38886999126E+03  0.00000000000E+00 0. -1.
          1    1    1    2  503    0  0.16755913767E+03  0.28794938269E+03  0.12599468846E+04  0.13032486576E+04  0.00000000000E+00 0. -1.
<mgrwt>
<rscale>  0 0.16824678E+03</rscale>
<asrwt>0</asrwt>
<pdfrwt beam="1">  1        2 0.20308765E+00 0.16951748E+03</pdfrwt>
<pdfrwt beam="2">  1        2 0.29994994E+00 0.16698562E+03</pdfrwt>
<totfact> 0.22945454E+01</totfact>
</mgrwt>
</event>
<event>
13    1  0.1589573E-008  0.7060405E+02  0.7546771E-02  0.1403079E+00
          2   -1    0    0  503    0  0.00000000000E+00  0.00000000000E+00  0.25188510427E+04  0.25188510427E+04  0.00000000000E+00 0. -1.
          2   -1    0    0  502    0 -0.00000000000E+00 -0.00000000000E+00 -0.10334608868E+04  0.10334608868E+04  0.00000000000E+00 0. -1.
         24    2    1    2    0    0  0.10527617248E+02 -0.43897730591E+02  0.11389594862E+01  0.91194556793E+02  0.79229467271E+02 0.  0.
         25    2    1    2    0    0  0.40463971205E+02  0.11710822356E+03 -0.86877140606E+03  0.88641621387E+03  0.12497311405E+03 0.  0.
         24    2    1    2    0    0  0.24111321551E+02 -0.39197033866E+01  0.14587036896E+03  0.16790143783E+03  0.79473318693E+02 0.  0.
        -11    1    5    5    0    0  0.15433317747E+02 -0.35853166361E+02  0.11911228844E+03  0.12534502021E+03  0.00000000000E+00 0.  1.
         12    1    5    5    0    0  0.86780038043E+01  0.31933462975E+02  0.26758080525E+02  0.42556417624E+02  0.00000000000E+00 0. -1.
        -13    1    3    3    0    0  0.10581934739E+02 -0.59861731715E+02  0.22244082539E+02  0.64731781025E+02  0.00000000000E+00 0.  1.
         14    1    3    3    0    0 -0.54317490744E-01  0.15964001124E+02 -0.21105123053E+02  0.26462775768E+02  0.00000000000E+00 0. -1.
          5    1    4    4  501    0 -0.10464653309E+02  0.11680948392E+03 -0.70925018803E+03  0.71889629552E+03  0.47000000000E+01 0.  1.
         -5    1    4    4    0  501  0.50928624514E+02  0.29873963826E+00 -0.15952121803E+03  0.16751991835E+03  0.47000000000E+01 0.  1.
          1    1    1    2  502    0 -0.77030609466E+01 -0.48304737329E+02 -0.93257368553E+02  0.10530727224E+03  0.00000000000E+00 0. -1.
          1    1    1    2  503    0 -0.67399849058E+02 -0.20986052254E+02  0.23004096021E+04  0.23014924487E+04  0.00000000000E+00 0. -1.
<mgrwt>
<rscale>  0 0.58767359E+02</rscale>
<asrwt>0</asrwt>
<pdfrwt beam="1">  1        2 0.37041927E+00 0.70604049E+02</pdfrwt>
<pdfrwt beam="2">  1        2 0.15197954E+00 0.48915077E+02</pdfrwt>
<totfact> 0.24323225E+01</totfact>
</mgrwt>
</event>
<event>
13    1  0.1589573E-008  0.6880492E+02  0.7546771E-02  0.1436227E+00
          2   -1    0    0  503    0  0.00000000000E+00  0.00000000000E+00  0.23179016228E+04  0.23179016228E+04  0.00000000000E+00 0. -1.
          2   -1    0    0  502    0 -0.00000000000E+00 -0.00000000000E+00 -0.14009902767E+03  0.14009902767E+03  0.00000000000E+00 0. -1.
         24    2    1    2    0    0 -0.87834335133E+02 -0.11833575039E+02 -0.23444402228E+02  0.12174370926E+03  0.80106097291E+02 0.  0.
         25    2    1    2    0    0  0.88429580795E+02  0.69314145128E+02  0.10305530000E+04  0.10441692067E+04  0.12500241983E+03 0.  0.
         24    2    1    2    0    0 -0.35263054923E+02 -0.50974271247E+02  0.51634196850E+02  0.11591438705E+03  0.83235782380E+02 0.  0.
        -11    1    3    3    0    0 -0.19496301435E+02 -0.90602060212E+01 -0.45133935296E+02  0.49992651641E+02  0.00000000000E+00 0.  1.
         12    1    3    3    0    0 -0.68338033698E+02 -0.27733690179E+01  0.21689533068E+02  0.71751057624E+02  0.00000000000E+00 0. -1.
        -11    1    5    5    0    0  0.16523442657E+02 -0.30596293777E+02  0.49150479325E+02  0.60207366393E+02  0.00000000000E+00 0.  1.
         12    1    5    5    0    0 -0.51786497579E+02 -0.20377977470E+02  0.24837175245E+01  0.55707020653E+02  0.00000000000E+00 0. -1.
          5    1    4    4  501    0  0.14880099563E+02  0.63432519818E+02  0.20145548911E+03  0.21178174149E+03  0.47000000000E+01 0. -1.
         -5    1    4    4    0  501  0.73549481232E+02  0.58816253094E+01  0.82909751087E+03  0.83238746521E+03  0.47000000000E+01 0. -1.
          1    1    1    2  502    0  0.60364129548E+02 -0.35700959427E+02  0.15366444150E+02  0.71794945825E+02  0.00000000000E+00 0. -1.
          1    1    1    2  503    0 -0.25696320288E+02  0.29194660586E+02  0.11036933564E+04  0.11043784016E+04  0.00000000000E+00 0. -1.
<mgrwt>
<rscale>  0 0.51730045E+02</rscale>
<asrwt>0</asrwt>
<pdfrwt beam="1">  1        2 0.34086786E+00 0.38892532E+02</pdfrwt>
<pdfrwt beam="2">  1        2 0.20602800E-01 0.68804919E+02</pdfrwt>
<totfact> 0.28693153E+02</totfact>
</mgrwt>
</event>
<event>
13    1  0.1589573E-008  0.1461647E+03  0.7546771E-02  0.1322686E+00
          2   -1    0    0  502    0  0.00000000000E+00  0.00000000000E+00  0.94794167668E+03  0.94794167668E+03  0.00000000000E+00 0. -1.
          2   -1    0    0  503    0 -0.00000000000E+00 -0.00000000000E+00 -0.15233959605E+04  0.15233959605E+04  0.00000000000E+00 0. -1.
         24    2    1    2    0    0  0.13601060590E+03  0.14751103264E+02 -0.44528884672E+03  0.47268064586E+03  0.80177029114E+02 0.  0.
         25    2    1    2    0    0 -0.73162155762E+02 -0.14826542302E+03  0.15059552527E+03  0.25620086017E+03  0.12499812728E+03 0.  0.
         24    2    1    2    0    0  0.68838399683E+02  0.93726354419E+02 -0.22630806099E+03  0.26674116550E+03  0.80075939695E+02 0.  0.
        -11    1    3    3    0    0  0.12844695681E+03 -0.73381701179E+01 -0.31405916851E+03  0.33939008645E+03  0.00000000000E+00 0.  1.
         12    1    3    3    0    0  0.75636490849E+01  0.22089273382E+02 -0.13122967821E+03  0.13329055942E+03  0.00000000000E+00 0. -1.
        -11    1    5    5    0    0  0.43255028301E+02  0.10163568703E+03 -0.20359217133E+03  0.23162595403E+03  0.00000000000E+00 0.  1.
         12    1    5    5    0    0  0.25583371382E+02 -0.79093326109E+01 -0.22715889659E+02  0.35115211471E+02  0.00000000000E+00 0. -1.
          5    1    4    4  501    0 -0.66095427367E+02 -0.15762737583E+03  0.16459878796E+03  0.23733909524E+03  0.47000000000E+01 0.  1.
         -5    1    4    4    0  501 -0.70667283947E+01  0.93619528109E+01 -0.14003262688E+02  0.18861764938E+02  0.47000000000E+01 0.  1.
          1    1    1    2  502    0 -0.16945302729E+02 -0.43114156339E+02  0.70331474968E+03  0.70483871267E+03  0.00000000000E+00 0. -1.
          1    1    1    2  503    0 -0.11474154709E+03  0.82902121672E+02 -0.75776765111E+03  0.77087625302E+03  0.00000000000E+00 0. -1.
<mgrwt>
<rscale>  0 0.82286266E+02</rscale>
<asrwt>0</asrwt>
<pdfrwt beam="1">  1        2 0.13940319E+00 0.46324656E+02</pdfrwt>
<pdfrwt beam="2">  1        2 0.22402882E+00 0.14616470E+03</pdfrwt>
<totfact> 0.76935785E+01</totfact>
</mgrwt>
</event>
<event>
13    1  0.1589573E-008  0.9595983E+02  0.7546771E-02  0.1322858E+00
          2   -1    0    0  503    0  0.00000000000E+00  0.00000000000E+00  0.42588326563E+04  0.42588326563E+04  0.00000000000E+00 0. -1.
          2   -1    0    0  502    0 -0.00000000000E+00 -0.00000000000E+00 -0.10627684796E+03  0.10627684796E+03  0.00000000000E+00 0. -1.
         24    2    1    2    0    0  0.70668038027E+02 -0.42116141454E+02  0.69650354308E+02  0.13497317647E+03  0.81233278539E+02 0.  0.
         25    2    1    2    0    0 -0.96892557856E+02 -0.12564403524E+03  0.19396043188E+04  0.19500959185E+04  0.12503834011E+03 0.  0.
         24    2    1    2    0    0 -0.87527802107E+02  0.77231878951E+02  0.19802770210E+03  0.24379166126E+03  0.81200517450E+02 0.  0.
        -11    1    5    5    0    0 -0.30094754826E+02  0.48269620987E+02  0.30944775589E+02  0.64755152031E+02  0.00000000000E+00 0.  1.
         12    1    5    5    0    0 -0.57433047281E+02  0.28962257964E+02  0.16708292651E+03  0.17903650923E+03  0.00000000000E+00 0. -1.
        -13    1    3    3    0    0 -0.30259907870E+00 -0.42588383785E+02  0.14155583142E+02  0.44880313432E+02  0.00000000000E+00 0.  1.
         14    1    3    3    0    0  0.70970637105E+02  0.47224233167E+00  0.55494771165E+02  0.90092863039E+02  0.00000000000E+00 0. -1.
          5    1    4    4  501    0 -0.11442675205E+03 -0.53727935064E+02  0.13276763281E+04  0.13336891298E+04  0.47000000000E+01 0.  1.
         -5    1    4    4    0  501  0.17534194194E+02 -0.71916100180E+02  0.61192799072E+03  0.61640678878E+03  0.47000000000E+01 0.  1.
          1    1    1    2  502    0  0.21415108318E+02  0.67119362337E+02 -0.16340640435E+02  0.72323109686E+02  0.00000000000E+00 0. -1.
          1    1    1    2  503    0  0.92337213619E+02  0.23408935409E+02  0.19616140736E+04  0.19639256383E+04  0.00000000000E+00 0. -1.
<mgrwt>
<rscale>  0 0.82223179E+02</rscale>
<asrwt>0</asrwt>
<pdfrwt beam="1">  1        2 0.62629881E+00 0.95959827E+02</pdfrwt>
<pdfrwt beam="2">  1        2 0.15628951E-01 0.70452932E+02</pdfrwt>
<totfact> 0.26564417E+01</totfact>
</mgrwt>
</event>
<event>
13    1  0.1589573E-008  0.7604833E+02  0.7546771E-02  0.1379631E+00
          2   -1    0    0  503    0  0.00000000000E+00  0.00000000000E+00  0.21974283713E+04  0.21974283713E+04  0.00000000000E+00 0. -1.
          2   -1    0    0  502    0 -0.00000000000E+00 -0.00000000000E+00 -0.92265635748E+03  0.92265635748E+03  0.00000000000E+00 0. -1.
         24    2    1    2    0    0  0.39259745265E+01 -0.65101447541E+02 -0.19550715416E+03  0.22325959216E+03  0.85838140790E+02 0.  0.
         25    2    1    2    0    0 -0.34473749002E+01 -0.31922004315E+02  0.60200035374E+03  0.61567812133E+03  0.12499689766E+03 0.  0.
         24    2    1    2    0    0 -0.10972366117E+01 -0.24001238931E+02 -0.54165651316E+02  0.99698778746E+02  0.80178957979E+02 0.  0.
        -11    1    5    5    0    0  0.21224700964E+02 -0.26007281636E+02 -0.66226035090E+02  0.74247924906E+02  0.00000000000E+00 0.  1.
         12    1    5    5    0    0 -0.22321937576E+02  0.20060427044E+01  0.12060383774E+02  0.25450853841E+02  0.00000000000E+00 0. -1.
        -11    1    3    3    0    0  0.29716777972E+01  0.20325178435E+02 -0.56272796166E+02  0.59904685423E+02  0.00000000000E+00 0.  1.
         12    1    3    3    0    0  0.95429672927E+00 -0.85426625976E+02 -0.13923435799E+03  0.16335490673E+03  0.00000000000E+00 0. -1.
          5    1    4    4  501    0  0.48915290881E+02  0.15771320075E+02  0.35317875802E+03  0.35692963639E+03  0.47000000000E+01 0. -1.
         -5    1    4    4    0  501 -0.52362665782E+02 -0.47693324390E+02  0.24882159573E+03  0.25874848494E+03  0.47000000000E+01 0. -1.
          1    1    1    2  502    0  0.34417093579E+02  0.77878074637E+02 -0.62613578909E+03  0.63189837571E+03  0.00000000000E+00 0. -1.
          1    1    1    2  503    0 -0.33798456594E+02  0.43146616150E+02  0.15485802547E+04  0.15495498609E+04  0.00000000000E+00 0. -1.
<mgrwt>
<rscale>  0 0.64560753E+02</rscale>
<asrwt>0</asrwt>
<pdfrwt beam="1">  1        2 0.32315123E+00 0.54808450E+02</pdfrwt>
<pdfrwt beam="2">  1        2 0.13568476E+00 0.76048326E+02</pdfrwt>
<totfact> 0.40589711E+01</totfact>
</mgrwt>
</event>
<event>
13    1  0.1589573E-008  0.4665154E+02  0.7546771E-02  0.1579899E+00
          2   -1    0    0  502    0  0.00000000000E+00  0.00000000000E+00  0.14885228688E+04  0.14885228688E+04  0.00000000000E+00 0. -1.
          2   -1    0    0  503    0 -0.00000000000E+00 -0.00000000000E+00 -0.41996631501E+04  0.41996631501E+04  0.00000000000E+00 0. -1.
         24    2    1    2    0    0  0.79585694936E+02 -0.18589312949E+03 -0.11570576162E+04  0.11771138521E+04  0.76971132036E+02 0.  0.
         25    2    1    2    0    0  0.58594488382E+03  0.52464501028E+02  0.15402982508E+03  0.62083320395E+03  0.12499899750E+03 0.  0.
         24    2    1    2    0    0 -0.68914878996E+03  0.15154807070E+03 -0.21242362698E+04  0.22392301129E+04  0.62280783380E+02 0.  0.
        -11    1    5    5    0    0 -0.43310634694E+03  0.92735681551E+02 -0.14261767198E+04  0.14933723750E+04  0.00000000000E+00 0.  1.
         12    1    5    5    0    0 -0.25604244302E+03  0.58812389146E+02 -0.69805955008E+03  0.74585773791E+03  0.00000000000E+00 0. -1.
        -13    1    3    3    0    0  0.48669419734E+02 -0.58224297906E+02 -0.59989616865E+03  0.60467693395E+03  0.00000000000E+00 0.  1.
         14    1    3    3    0    0  0.30916275202E+02 -0.12766883158E+03 -0.55716144759E+03  0.57243691820E+03  0.00000000000E+00 0. -1.
          5    1    4    4  501    0  0.18553203366E+02  0.24407147514E+02  0.20709794660E+02  0.37294983574E+02  0.47000000000E+01 0. -1.
         -5    1    4    4    0  501  0.56739168045E+03  0.28057353515E+02  0.13332003042E+03  0.58353822038E+03  0.47000000000E+01 0. -1.
          1    1    1    2  502    0  0.24578750076E+02 -0.39654876730E+02  0.10328514202E+04  0.10339045799E+04  0.00000000000E+00 0. -1.
          1    1    1    2  503    0 -0.96053887150E+00  0.21535434495E+02 -0.61672764040E+03  0.61710426997E+03  0.00000000000E+00 0. -1.
<mgrwt>
<rscale>  0 0.31712143E+02</rscale>
<asrwt>0</asrwt>
<pdfrwt beam="1">  1        2 0.21890042E+00 0.46651541E+02</pdfrwt>
<pdfrwt beam="2">  1        2 0.61759752E+00 0.21556845E+02</pdfrwt>
<totfact> 0.21028491E+00</totfact>
</mgrwt>
</event>
<event>
13    1  0.1589573E-008  0.1149832E+03  0.7546771E-02  0.1355042E+00
          2   -1    0    0  503    0  0.00000000000E+00  0.00000000000E+00  0.11189505626E+04  0.11189505626E+04  0.00000000000E+00 0. -1.
         -1   -1    0    0    0  501 -0.00000000000E+00 -0.00000000000E+00 -0.59757924445E+03  0.59757924445E+03  0.00000000000E+00 0.  1.
         24    2    1    2    0    0 -0.13075664159E+02 -0.24051577572E+02 -0.79284339566E+02  0.11579734892E+03  0.79834629954E+02 0.  0.
         25    2    1    2    0    0 -0.10858609179E+03 -0.72725944064E+02 -0.16386443658E+03  0.24404758681E+03  0.12501067467E+03 0.  0.
         24    2    1    2    0    0 -0.80332178425E+02  0.12053252833E+02  0.25083176836E+03  0.27521243396E+03  0.78909872590E+02 0.  0.
        -13    1    5    5    0    0 -0.82496815540E+02  0.35163580375E+02  0.20765528331E+03  0.22619221615E+03  0.00000000000E+00 0.  1.
         14    1    5    5    0    0  0.21646371148E+01 -0.23110327542E+02  0.43176485049E+02  0.49020217810E+02  0.00000000000E+00 0. -1.
        -13    1    3    3    0    0 -0.13961959854E+02  0.27293724916E+02 -0.16939849039E+02  0.35026307659E+02  0.00000000000E+00 0.  1.
         14    1    3    3    0    0  0.88629569507E+00 -0.51345302488E+02 -0.62344490526E+02  0.80771041262E+02  0.00000000000E+00 0. -1.
          5    1    4    4  502    0  0.73321435706E+01  0.17788795564E+02 -0.61989463774E+02  0.65076763871E+02  0.47000000000E+01 0.  1.
         -5    1    4    4    0  502 -0.11591823536E+03 -0.90514739629E+02 -0.10187497280E+03  0.17897082294E+03  0.47000000000E+01 0.  1.
          1    1    1    2  503    0  0.44131141058E+02 -0.54768847015E+01  0.76776040413E+03  0.76904719753E+03  0.00000000000E+00 0. -1.
         -2    1    1    2    0  501  0.15786279331E+03  0.90201153505E+02 -0.25407207816E+03  0.31242523987E+03  0.00000000000E+00 0.  1.
<mgrwt>
<rscale>  0 0.71507119E+02</rscale>
<asrwt>0</asrwt>
<pdfrwt beam="1">  1        2 0.16455155E+00 0.44469696E+02</pdfrwt>
<pdfrwt beam="2">  1       -1 0.87879301E-01 0.11498320E+03</pdfrwt>
<totfact> 0.41963497E+01</totfact>
</mgrwt>
</event>
<event>
13    1  0.1589573E-008  0.7026328E+02  0.7546771E-02  0.1392547E+00
          2   -1    0    0  503    0  0.00000000000E+00  0.00000000000E+00  0.20174559783E+04  0.20174559783E+04  0.00000000000E+00 0. -1.
          2   -1    0    0  502    0 -0.00000000000E+00 -0.00000000000E+00 -0.45478838073E+04  0.45478838073E+04  0.00000000000E+00 0. -1.
         24    2    1    2    0    0  0.36151571360E+03  0.24164862067E+03  0.44101034740E+03  0.62431472023E+03  0.78683393035E+02 0.  0.
         25    2    1    2    0    0  0.83577160712E+02  0.64437618123E+03 -0.40962390203E+02  0.66295528366E+03  0.12500394389E+03 0.  0.
         24    2    1    2    0    0 -0.46299031846E+03 -0.88403563032E+03 -0.76746700954E+03  0.12612473782E+04  0.76552645314E+02 0.  0.
        -11    1    5    5    0    0 -0.36999478107E+02 -0.11144858352E+03 -0.70997036853E+02  0.13722364006E+03  0.00000000000E+00 0.  1.
         12    1    5    5    0    0 -0.42599084036E+03 -0.77258704680E+03 -0.69646997269E+03  0.11240237381E+04  0.00000000000E+00 0. -1.
        -13    1    3    3    0    0  0.21024453165E+03  0.14362640571E+03  0.31169092040E+03  0.40247054224E+03  0.00000000000E+00 0.  1.
         14    1    3    3    0    0  0.15127118194E+03  0.98022214967E+02  0.12931942699E+03  0.22184417800E+03  0.00000000000E+00 0. -1.
          5    1    4    4  501    0  0.11252923678E+03  0.53310102614E+03 -0.52037008003E+02  0.54734767142E+03  0.47000000000E+01 0.  1.
         -5    1    4    4    0  501 -0.28952076066E+02  0.11127515509E+03  0.11074617800E+02  0.11560761224E+03  0.47000000000E+01 0.  1.
          1    1    1    2  502    0  0.68843947245E+02  0.14148368671E+02 -0.30887452029E+04  0.30895447228E+04  0.00000000000E+00 0. -1.
          1    1    1    2  503    0 -0.50946503090E+02 -0.16137540257E+02  0.92573642631E+03  0.92727768083E+03  0.00000000000E+00 0. -1.
<mgrwt>
<rscale>  0 0.61277702E+02</rscale>
<asrwt>0</asrwt>
<pdfrwt beam="1">  1        2 0.29668471E+00 0.53441242E+02</pdfrwt>
<pdfrwt beam="2">  1        2 0.66880643E+00 0.70263277E+02</pdfrwt>
<totfact> 0.47849842E-01</totfact>
</mgrwt>
</event>
<event>
13    1  0.1589573E-008  0.3761874E+03  0.7546771E-02  0.1212026E+00
          2   -1    0    0  502    0  0.00000000000E+00  0.00000000000E+00  0.72625470056E+03  0.72625470056E+03  0.00000000000E+00 0. -1.
          2   -1    0    0  503    0 -0.00000000000E+00 -0.00000000000E+00 -0.19369291645E+04  0.19369291645E+04  0.00000000000E+00 0. -1.
         24    2    1    2    0    0 -0.40913179425E+03  0.56372388620E+02 -0.70417809508E+02  0.42680986531E+03  0.81494306369E+02 0.  0.
         25    2    1    2    0    0 -0.94109534686E+02  0.94990009607E+02  0.25645092759E+03  0.31507473560E+03  0.12500121724E+03 0.  0.
         24    2    1    2    0    0  0.16357305426E+03  0.56629299333E+02 -0.13176470572E+03  0.23190922751E+03  0.80355027889E+02 0.  0.
        -11    1    3    3    0    0 -0.56988441195E+02  0.36398237320E+02 -0.28057300878E+01  0.67678550747E+02  0.00000000000E+00 0.  1.
         12    1    3    3    0    0 -0.35214335305E+03  0.19974151299E+02 -0.67612079420E+02  0.35913131457E+03  0.00000000000E+00 0. -1.
        -11    1    5    5    0    0  0.15589363755E+03  0.72905607498E+02 -0.11283991040E+03  0.20579334103E+03  0.00000000000E+00 0.  1.
         12    1    5    5    0    0  0.76794167036E+01 -0.16276308165E+02 -0.18924795320E+02  0.26115886473E+02  0.00000000000E+00 0. -1.
          5    1    4    4  501    0 -0.10700239676E+03  0.11015675577E+03  0.18359311515E+03  0.23940038781E+03  0.47000000000E+01 0. -1.
         -5    1    4    4    0  501  0.12892862070E+02 -0.15166746158E+02  0.72857812432E+02  0.75674347792E+02  0.47000000000E+01 0. -1.
          1    1    1    2  502    0  0.11443983262E+00 -0.52828047520E+02  0.18487668339E+03  0.19227637339E+03  0.00000000000E+00 0. -1.
          1    1    1    2  503    0  0.33955383485E+03 -0.15516365004E+03 -0.14498195597E+04  0.14971136633E+04  0.00000000000E+00 0. -1.
<mgrwt>
<rscale>  0 0.14097267E+03</rscale>
<asrwt>0</asrwt>
<pdfrwt beam="1">  1        2 0.10680216E+00 0.52828171E+02</pdfrwt>
<pdfrwt beam="2">  1        2 0.28484252E+00 0.37618741E+03</pdfrwt>
<totfact> 0.60106669E+01</totfact>
</mgrwt>
</event>
<event>
13    1  0.1589573E-008  0.3770863E+03  0.7546771E-02  0.1194787E+00
          2   -1    0    0  503    0  0.00000000000E+00  0.00000000000E+00  0.73829220290E+03  0.73829220290E+03  0.00000000000E+00 0. -1.
          2   -1    0    0  502    0 -0.00000000000E+00 -0.00000000000E+00 -0.35172779731E+04  0.35172779731E+04  0.00000000000E+00 0. -1.
         24    2    1    2    0    0 -0.32986374561E+03 -0.51375576938E+03 -0.60224057146E+03  0.86136316429E+03  0.80608396922E+02 0.  0.
         25    2    1    2    0    0  0.49897173347E+03  0.35971569474E+03 -0.39176546562E+03  0.73991159904E+03  0.12498328890E+03 0.  0.
         24    2    1    2    0    0 -0.44404646222E+03  0.32549990161E+03 -0.28329958464E+03  0.62604152113E+03  0.92422318486E+02 0.  0.
        -13    1    5    5    0    0 -0.29679070515E+02  0.33921838152E+02 -0.52741414970E+02  0.69377194980E+02  0.00000000000E+00 0.  1.
         14    1    5    5    0    0 -0.41436739171E+03  0.29157806346E+03 -0.23055816967E+03  0.55666432615E+03  0.00000000000E+00 0. -1.
        -13    1    3    3    0    0 -0.28430517689E+03 -0.38998659745E+03 -0.44898569236E+03  0.65917154956E+03  0.00000000000E+00 0.  1.
         14    1    3    3    0    0 -0.45558568717E+02 -0.12376917193E+03 -0.15325487910E+03  0.20219161474E+03  0.00000000000E+00 0. -1.
          5    1    4    4  501    0  0.19136100119E+03  0.76991389692E+02 -0.16717163673E+03  0.26554689415E+03  0.47000000000E+01 0.  1.
         -5    1    4    4    0  501  0.30761073228E+03  0.28272430504E+03 -0.22459382888E+03  0.47436470489E+03  0.47000000000E+01 0.  1.
          1    1    1    2  502    0 -0.32027535504E+02  0.54813748573E+02 -0.16259331154E+04  0.16271720271E+04  0.00000000000E+00 0. -1.
          1    1    1    2  503    0  0.30696600986E+03 -0.22627357554E+03  0.12425296690E+03  0.40108186444E+03  0.00000000000E+00 0. -1.
<mgrwt>
<rscale>  0 0.15472303E+03</rscale>
<asrwt>0</asrwt>
<pdfrwt beam="1">  1        2 0.10857238E+00 0.37708626E+03</pdfrwt>
<pdfrwt beam="2">  1        2 0.51724676E+00 0.63484723E+02</pdfrwt>
<totfact> 0.10350308E+01</totfact>
</mgrwt>
</event>
<event>
13    1  0.1589573E-008  0.9134845E+02  0.7546771E-02  0.1331169E+00
          2   -1    0    0  502    0  0.00000000000E+00  0.00000000000E+00  0.29173116708E+04  0.29173116708E+04  0.00000000000E+00 0. -1.
          2   -1    0    0  503    0 -0.00000000000E+00 -0.00000000000E+00 -0.34793265177E+03  0.34793265177E+03  0.00000000000E+00 0. -1.
         24    2    1    2    0    0  0.37182677945E+01  0.12092202778E+03  0.11462906542E+03  0.18450367425E+03  0.79156938149E+02 0.  0.
         25    2    1    2    0    0 -0.64909881320E+02  0.38695047403E+01  0.19864691773E+04  0.19914606001E+04  0.12500905374E+03 0.  0.
         24    2    1    2    0    0  0.11163393333E+03 -0.80193876636E+02  0.39558252877E+03  0.42705033248E+03  0.83625692717E+02 0.  0.
        -11    1    3    3    0    0  0.48665544204E+01  0.10469776932E+01 -0.10250974453E+02  0.11395700569E+02  0.00000000000E+00 0.  1.
         12    1    3    3    0    0 -0.11482866259E+01  0.11987505008E+03  0.12488003987E+03  0.17310797368E+03  0.00000000000E+00 0. -1.
        -11    1    5    5    0    0  0.16126167742E+02 -0.61411581321E+02  0.16199651535E+03  0.17399513382E+03  0.00000000000E+00 0.  1.
         12    1    5    5    0    0  0.95507765588E+02 -0.18782295315E+02  0.23358601341E+03  0.25305519866E+03  0.00000000000E+00 0. -1.
          5    1    4    4  501    0 -0.73417639227E+02 -0.43263479615E+02  0.93383987291E+03  0.93773177223E+03  0.47000000000E+01 0. -1.
         -5    1    4    4    0  501  0.85077579070E+01  0.47132984355E+02  0.10526293044E+04  0.10537288279E+04  0.47000000000E+01 0. -1.
          1    1    1    2  502    0 -0.50311317554E+02  0.46881985025E+02  0.35700493561E+03  0.36356797610E+03  0.00000000000E+00 0. -1.
          1    1    1    2  503    0 -0.13100225069E+00 -0.91479640905E+02 -0.28430668807E+03  0.29866173967E+03  0.00000000000E+00 0. -1.
<mgrwt>
<rscale>  0 0.79258590E+02</rscale>
<asrwt>0</asrwt>
<pdfrwt beam="1">  1        2 0.42901641E+00 0.68768810E+02</pdfrwt>
<pdfrwt beam="2">  1        2 0.51166568E-01 0.91348450E+02</pdfrwt>
<totfact> 0.51333606E+01</totfact>
</mgrwt>
</event>
<event>
13    1  0.1589573E-008  0.1039832E+03  0.7546771E-02  0.1350797E+00
          2   -1    0    0  503    0  0.00000000000E+00  0.00000000000E+00  0.17309927498E+04  0.17309927498E+04  0.00000000000E+00 0. -1.
          2   -1    0    0  502    0 -0.00000000000E+00 -0.00000000000E+00 -0.27050821646E+03  0.27050821646E+03  0.00000000000E+00 0. -1.
         24    2    1    2    0    0 -0.12215978619E+02  0.97628017113E+01  0.20496436206E+02  0.84121727076E+02  0.80073832419E+02 0.  0.
         25    2    1    2    0    0  0.20694590126E+03  0.46215928145E+02  0.17583228620E+03  0.30249879020E+03  0.12500402850E+03 0.  0.
         24    2    1    2    0    0 -0.53514520446E+02 -0.12494470010E+02  0.37530551690E+03  0.38743457721E+03  0.78939248297E+02 0.  0.
        -11    1    5    5    0    0 -0.30926166780E+02 -0.46205811001E+02  0.21521735854E+03  0.22228341409E+03  0.00000000000E+00 0.  1.
         12    1    5    5    0    0 -0.22588353666E+02  0.33711340991E+02  0.16008815836E+03  0.16515116312E+03  0.00000000000E+00 0. -1.
        -13    1    3    3    0    0  0.20039065317E+02 -0.26225134840E+02  0.50694038801E+01  0.33391925549E+02  0.00000000000E+00 0.  1.
         14    1    3    3    0    0 -0.32255043936E+02  0.35987936551E+02  0.15427032326E+02  0.50729801527E+02  0.00000000000E+00 0. -1.
          5    1    4    4  501    0  0.20521294279E+03  0.65743850108E+02  0.18125677380E+03  0.28162157901E+03  0.47000000000E+01 0.  1.
         -5    1    4    4    0  501  0.17329584654E+01 -0.19527921964E+02 -0.54244876008E+01  0.20877211188E+02  0.47000000000E+01 0.  1.
          1    1    1    2  502    0 -0.92218695570E+02 -0.57562683482E+02 -0.15115771271E+03  0.18618916310E+03  0.00000000000E+00 0. -1.
          1    1    1    2  503    0 -0.48996706625E+02  0.14078423636E+02  0.10400080068E+04  0.10412567087E+04  0.00000000000E+00 0. -1.
<mgrwt>
<rscale>  0 0.72807839E+02</rscale>
<asrwt>0</asrwt>
<pdfrwt beam="1">  1        2 0.25455775E+00 0.50979204E+02</pdfrwt>
<pdfrwt beam="2">  1        2 0.39780621E-01 0.10398321E+03</pdfrwt>
<totfact> 0.25941410E+02</totfact>
</mgrwt>
</event>
<event>
13    1  0.1589573E-008  0.6859270E+02  0.7546771E-02  0.1443702E+00
         -1   -1    0    0    0  501 -0.00000000000E+00  0.00000000000E+00  0.17153419177E+04  0.17153419177E+04  0.00000000000E+00 0.  1.
          2   -1    0    0  503    0  0.00000000000E+00 -0.00000000000E+00 -0.17756809647E+04  0.17756809647E+04  0.00000000000E+00 0. -1.
         24    2    1    2    0    0  0.36394314282E+03  0.29127384350E+03  0.58954585099E+03  0.75369892274E+03  0.56592337084E+02 0.  0.
         25    2    1    2    0    0 -0.13191385251E+03 -0.44392550860E+03 -0.22193469798E+03  0.52853221715E+03  0.12498068942E+03 0.  0.
         24    2    1    2    0    0 -0.15335126155E+03  0.14718782802E+03  0.27580404933E+02  0.22935815778E+03  0.81630996983E+02 0.  0.
        -13    1    5    5    0    0 -0.91440491604E+02  0.13616532995E+03  0.28446270384E+02  0.16646786742E+03  0.00000000000E+00 0.  1.
         14    1    5    5    0    0 -0.61910769943E+02  0.11022498075E+02 -0.86586545105E+00  0.62890290361E+02  0.00000000000E+00 0. -1.
        -13    1    3    3    0    0  0.91325178960E+02  0.10492241906E+03  0.16367518323E+03  0.21479890116E+03  0.00000000000E+00 0.  1.
         14    1    3    3    0    0  0.27261796386E+03  0.18635142445E+03  0.42587066776E+03  0.53890002159E+03  0.00000000000E+00 0. -1.
          5    1    4    4  502    0 -0.60954778274E+02 -0.15353743477E+03 -0.14492110718E+03  0.21980319874E+03  0.47000000000E+01 0.  1.
         -5    1    4    4    0  502 -0.70959074234E+02 -0.29038807384E+03 -0.77013590804E+02  0.30872901841E+03  0.47000000000E+01 0.  1.
          1    1    1    2  503    0 -0.15971814038E+02  0.33256862100E+02 -0.12156581019E+04  0.12162178006E+04  0.00000000000E+00 0. -1.
         -2    1    1    2    0  501 -0.62706214726E+02 -0.27793025021E+02  0.76012749692E+03  0.76321578415E+03  0.00000000000E+00 0.  1.
<mgrwt>
<rscale>  0 0.50305198E+02</rscale>
<asrwt>0</asrwt>
<pdfrwt beam="2">  1        2 0.26112955E+00 0.36893329E+02</pdfrwt>
<pdfrwt beam="1">  1       -1 0.25225616E+00 0.68592697E+02</pdfrwt>
<totfact> 0.13283747E+00</totfact>
</mgrwt>
</event>
<event>
13    1  0.1589573E-008  0.1775812E+03  0.7546771E-02  0.1184188E+00
          2   -1    0    0  502    0  0.00000000000E+00  0.00000000000E+00  0.28318601495E+04  0.28318601495E+04  0.00000000000E+00 0. -1.
          2   -1    0    0  503    0 -0.00000000000E+00 -0.00000000000E+00 -0.27865722856E+04  0.27865722856E+04  0.00000000000E+00 0. -1.
         24    2    1    2    0    0 -0.34455184651E+03 -0.23777872186E+01 -0.52072162753E+03  0.62956175892E+03  0.80469659585E+02 0.  0.
         25    2    1    2    0    0  0.19788721820E+03  0.18504977419E+02  0.26871843741E+03  0.35684284022E+03  0.12500171477E+03 0.  0.
         24    2    1    2    0    0  0.10035089920E+03 -0.20698166411E+03 -0.23624656352E+03  0.34041905447E+03  0.84622583403E+02 0.  0.
        -13    1    3    3    0    0 -0.12538939506E+02 -0.98787701539E+01 -0.61017877927E+01  0.17089380268E+02  0.00000000000E+00 0.  1.
         14    1    3    3    0    0 -0.33201290701E+03  0.75009829353E+01 -0.51461983974E+03  0.61247237866E+03  0.00000000000E+00 0. -1.
        -13    1    5    5    0    0  0.11178003797E+03 -0.19164359309E+03 -0.23163256555E+03  0.32074240300E+03  0.00000000000E+00 0.  1.
         14    1    5    5    0    0 -0.11429138773E+02 -0.15338071020E+02 -0.46139979777E+01  0.19676651469E+02  0.00000000000E+00 0. -1.
          5    1    4    4  501    0  0.36956882859E+02  0.56765898509E+02  0.61093701654E+02  0.91338430061E+02  0.47000000000E+01 0. -1.
         -5    1    4    4    0  501  0.16093033534E+03 -0.38260921090E+02  0.20762473576E+03  0.26550441016E+03  0.47000000000E+01 0. -1.
          1    1    1    2  502    0  0.14536291361E+03  0.42927035433E+02  0.24059664138E+04  0.24107358817E+04  0.00000000000E+00 0. -1.
          1    1    1    2  503    0 -0.99049184498E+02  0.14792743848E+03 -0.18724287963E+04  0.18808728998E+04  0.00000000000E+00 0. -1.
<mgrwt>
<rscale>  0 0.16406028E+03</rscale>
<asrwt>0</asrwt>
<pdfrwt beam="1">  1        2 0.41645002E+00 0.15156882E+03</pdfrwt>
<pdfrwt beam="2">  1        2 0.40979004E+00 0.17758121E+03</pdfrwt>
<totfact> 0.18002478E+00</totfact>
</mgrwt>
</event>
<event>
13    1  0.1589573E-008  0.6841504E+02  0.7546771E-02  0.1371573E+00
          2   -1    0    0  503    0  0.00000000000E+00  0.00000000000E+00  0.13900038604E+04  0.13900038604E+04  0.00000000000E+00 0. -1.
          2   -1    0    0  502    0 -0.00000000000E+00 -0.00000000000E+00 -0.16151609868E+03  0.16151609868E+03  0.00000000000E+00 0. -1.
         24    2    1    2    0    0 -0.11009627214E+03 -0.14439252031E+03  0.42753934248E+03  0.47186293666E+03  0.83032238072E+02 0.  0.
         25    2    1    2    0    0  0.21440592578E+02  0.85868890047E+02  0.40889561179E+03  0.43663855322E+03  0.12499775810E+03 0.  0.
         24    2    1    2    0    0  0.43589746171E+02 -0.34339021642E+01  0.16798996628E+03  0.19201106822E+03  0.82071699693E+02 0.  0.
        -11    1    3    3    0    0 -0.11248217329E+03 -0.14990620511E+03  0.37747872969E+03  0.42144311717E+03  0.00000000000E+00 0.  1.
         12    1    3    3    0    0  0.23859011416E+01  0.55136848044E+01  0.50060612788E+02  0.50419819487E+02  0.00000000000E+00 0. -1.
        -11    1    5    5    0    0 -0.11017090886E+02 -0.20377569542E+02  0.10245333695E+03  0.10503955390E+03  0.00000000000E+00 0.  1.
         12    1    5    5    0    0  0.54606837057E+02  0.16943667378E+02  0.65536629335E+02  0.86971514315E+02  0.00000000000E+00 0. -1.
          5    1    4    4  501    0  0.52977323171E+02  0.36252662644E+01  0.80109287466E+02  0.96225398229E+02  0.47000000000E+01 0. -1.
         -5    1    4    4    0  501 -0.31536730593E+02  0.82243623782E+02  0.32878632432E+03  0.34041315499E+03  0.47000000000E+01 0. -1.
          1    1    1    2  502    0  0.64887790919E+02 -0.51296492830E+01 -0.10008940914E+03  0.11939274908E+03  0.00000000000E+00 0. -1.
          1    1    1    2  503    0 -0.19821857523E+02  0.67087181708E+02  0.32415225033E+03  0.33161465194E+03  0.00000000000E+00 0. -1.
<mgrwt>
<rscale>  0 0.66731934E+02</rscale>
<asrwt>0</asrwt>
<pdfrwt beam="1">  1        2 0.20441233E+00 0.68415040E+02</pdfrwt>
<pdfrwt beam="2">  1        2 0.23752368E-01 0.65090235E+02</pdfrwt>
<totfact> 0.63163072E+02</totfact>
</mgrwt>
</event>
<event>
13    1  0.1589573E-008  0.8417102E+02  0.7546771E-02  0.1357527E+00
          2   -1    0    0  503    0  0.00000000000E+00  0.00000000000E+00  0.86043986931E+03  0.86043986931E+03  0.00000000000E+00 0. -1.
          2   -1    0    0  502    0 -0.00000000000E+00 -0.00000000000E+00 -0.43833012709E+03  0.43833012709E+03  0.00000000000E+00 0. -1.
         24    2    1    2    0    0 -0.54756873984E+02  0.53173415023E+01 -0.24044861706E+02  0.99938495558E+02  0.79893417443E+02 0.  0.
         25    2    1    2    0    0  0.98863887677E+02  0.55461330832E+02 -0.12911831529E+03  0.21247802448E+03  0.12500137614E+03 0.  0.
         24    2    1    2    0    0 -0.10983003895E+03 -0.38504489974E+02  0.56030708338E+03  0.57761884438E+03  0.78449145924E+02 0.  0.
        -13    1    5    5    0    0  0.27995005756E+01 -0.23421602580E+02  0.15096419175E+03  0.15279592881E+03  0.00000000000E+00 0.  1.
         14    1    5    5    0    0 -0.11262953952E+03 -0.15082887394E+02  0.40934289163E+03  0.42482291557E+03  0.00000000000E+00 0. -1.
        -13    1    3    3    0    0 -0.22158686516E+02  0.40379775761E+02  0.66048453612E+00  0.46064844714E+02  0.00000000000E+00 0.  1.
         14    1    3    3    0    0 -0.32598187468E+02 -0.35062434259E+02 -0.24705346242E+02  0.53873650844E+02  0.00000000000E+00 0. -1.
          5    1    4    4  501    0  0.84822733892E+01  0.75362158838E+02 -0.54595332544E+02  0.93563584166E+02  0.47000000000E+01 0. -1.
         -5    1    4    4    0  501  0.90381614288E+02 -0.19900828006E+02 -0.74522982746E+02  0.11891444031E+03  0.47000000000E+01 0. -1.
          1    1    1    2  502    0  0.76519275430E+02  0.36224101551E+02 -0.18320918159E+03  0.20182415431E+03  0.00000000000E+00 0. -1.
          1    1    1    2  503    0 -0.10796250176E+02 -0.58498283911E+02  0.19817501742E+03  0.20691047766E+03  0.00000000000E+00 0. -1.
<mgrwt>
<rscale>  0 0.70760260E+02</rscale>
<asrwt>0</asrwt>
<pdfrwt beam="1">  1        2 0.12653528E+00 0.59486202E+02</pdfrwt>
<pdfrwt beam="2">  1        2 0.64460313E-01 0.84171021E+02</pdfrwt>
<totfact> 0.43184554E+02</totfact>
</mgrwt>
</event>
<event>
13    1  0.1589573E-008  0.8819883E+02  0.7546771E-02  0.1311905E+00
          4   -1    0    0  503    0  0.00000000000E+00  0.00000000000E+00  0.41337495413E+03  0.41337495413E+03  0.00000000000E+00 0. -1.
         -1   -1    0    0    0  501 -0.00000000000E+00 -0.00000000000E+00 -0.46137770600E+03  0.46137770600E+03  0.00000000000E+00 0.  1.
         24    2    1    2    0    0  0.33006269921E+02  0.69782399443E+02  0.52053111095E+02  0.12295789980E+03  0.80312649201E+02 0.  0.
         25    2    1    2    0    0 -0.50589653858E+02 -0.85920086890E+02  0.23672154268E+01  0.15990830600E+03  0.12499395270E+03 0.  0.
         24    2    1    2    0    0  0.30628368824E+02  0.16576316689E+02  0.12250457936E+03  0.15064127360E+03  0.80452160302E+02 0.  0.
        -13    1    5    5    0    0  0.14292590932E+02  0.44609968807E+02  0.38656044699E+02  0.60733987720E+02  0.00000000000E+00 0.  1.
         14    1    5    5    0    0  0.16335777892E+02 -0.28033652118E+02  0.83848534660E+02  0.89907285884E+02  0.00000000000E+00 0. -1.
        -13    1    3    3    0    0  0.37139562258E+02 -0.40428789164E+01  0.15072050992E+02  0.40284720127E+02  0.00000000000E+00 0.  1.
         14    1    3    3    0    0 -0.41332923364E+01  0.73825278359E+02  0.36981060103E+02  0.82673179670E+02  0.00000000000E+00 0. -1.
          5    1    4    4  502    0  0.21389243276E+02  0.26067923052E+01 -0.33594294513E+02  0.40186586293E+02  0.47000000000E+01 0.  1.
         -5    1    4    4    0  502 -0.71978897135E+02 -0.88526879195E+02  0.35961509940E+02  0.11972171971E+03  0.47000000000E+01 0.  1.
          3    1    1    2  503    0  0.26582968865E+02  0.80279416174E+02  0.84181202137E+02  0.11932272913E+03  0.00000000000E+00 0. -1.
         -2    1    1    2    0  501 -0.39627953752E+02 -0.80718045416E+02 -0.30910885989E+03  0.32192245159E+03  0.00000000000E+00 0.  1.
<mgrwt>
<rscale>  0 0.86363410E+02</rscale>
<asrwt>0</asrwt>
<pdfrwt beam="1">  1        4 0.60790435E-01 0.84566181E+02</pdfrwt>
<pdfrwt beam="2">  1       -1 0.67849662E-01 0.88198834E+02</pdfrwt>
<totfact> 0.22323485E+01</totfact>
</mgrwt>
</event>
<event>
13    1  0.1589573E-008  0.7037824E+02  0.7546771E-02  0.1465022E+00
          2   -1    0    0  503    0  0.00000000000E+00  0.00000000000E+00  0.28110510465E+04  0.28110510465E+04  0.00000000000E+00 0. -1.
          2   -1    0    0  502    0 -0.00000000000E+00 -0.00000000000E+00 -0.23804194299E+04  0.23804194299E+04  0.00000000000E+00 0. -1.
         24    2    1    2    0    0 -0.24933221198E+03  0.41586783454E+03  0.54987166760E+03  0.74004085856E+03  0.10094064487E+03 0.  0.
         25    2    1    2    0    0 -0.27692119836E+03 -0.85473629448E+03 -0.29175221507E+03  0.95289264544E+03  0.12500222206E+03 0.  0.
         24    2    1    2    0    0  0.50624872289E+03  0.40285639944E+03  0.80820116494E+03  0.10396215225E+04  0.95093317933E+02 0.  0.
        -11    1    5    5    0    0  0.35870982505E+03  0.32834249726E+03  0.56341312653E+03  0.74425525544E+03  0.00000000000E+00 0.  1.
         12    1    5    5    0    0  0.14753889783E+03  0.74513902177E+02  0.24478803841E+03  0.29536626710E+03  0.00000000000E+00 0. -1.
        -11    1    3    3    0    0 -0.21409189932E+03  0.34887352986E+03  0.40093900223E+03  0.57297483775E+03  0.00000000000E+00 0.  1.
         12    1    3    3    0    0 -0.35240312656E+02  0.66994304677E+02  0.14893266537E+03  0.16706602081E+03  0.00000000000E+00 0. -1.
          5    1    4    4  501    0  0.85829637466E+01 -0.54081743453E+02 -0.26377856967E+01  0.55023178343E+02  0.47000000000E+01 0.  1.
         -5    1    4    4    0  501 -0.28550416211E+03 -0.80065455103E+03 -0.28911442938E+03  0.89786946709E+03  0.47000000000E+01 0.  1.
          1    1    1    2  502    0  0.44652667587E+02  0.54415142906E+02 -0.15462418131E+04  0.15478432133E+04  0.00000000000E+00 0. -1.
          1    1    1    2  503    0 -0.24647980133E+02 -0.18403082405E+02  0.91055281224E+03  0.91107223657E+03  0.00000000000E+00 0. -1.
<mgrwt>
<rscale>  0 0.46528016E+02</rscale>
<asrwt>0</asrwt>
<pdfrwt beam="1">  1        2 0.41338986E+00 0.30760305E+02</pdfrwt>
<pdfrwt beam="2">  1        2 0.35006168E+00 0.70378244E+02</pdfrwt>
<totfact> 0.42665568E+00</totfact>
</mgrwt>
</event>
<event>
13    1  0.1589573E-008  0.1644652E+03  0.7546771E-02  0.1263411E+00
          2   -1    0    0  502    0  0.00000000000E+00  0.00000000000E+00  0.22747812814E+04  0.22747812814E+04  0.00000000000E+00 0. -1.
          2   -1    0    0  503    0 -0.00000000000E+00 -0.00000000000E+00 -0.13261686195E+03  0.13261686195E+03  0.00000000000E+00 0. -1.
         24    2    1    2    0    0  0.18174504566E+02  0.49334577902E+02  0.98111702538E+02  0.13512435241E+03  0.76605947860E+02 0.  0.
         25    2    1    2    0    0 -0.56243191251E+02 -0.19217959848E+03  0.28343897533E+03  0.36886180280E+03  0.12500032876E+03 0.  0.
         24    2    1    2    0    0 -0.11187700151E+02 -0.31808368676E+02  0.11541123562E+04  0.11576578070E+04  0.84019821106E+02 0.  0.
        -11    1    5    5    0    0  0.35813614558E+02 -0.66214112854E+01  0.39537893340E+03  0.39705284163E+03  0.00000000000E+00 0.  1.
         12    1    5    5    0    0 -0.47001314709E+02 -0.25186957391E+02  0.75873342284E+03  0.76060496537E+03  0.00000000000E+00 0. -1.
        -13    1    3    3    0    0 -0.99466567316E+01  0.61386288398E+02  0.69078735498E+02  0.92946673321E+02  0.00000000000E+00 0.  1.
         14    1    3    3    0    0  0.28121161297E+02 -0.12051710496E+02  0.29032967040E+02  0.42177679094E+02  0.00000000000E+00 0. -1.
          5    1    4    4  501    0 -0.83680745648E+02 -0.86070153984E+02  0.18983001696E+03  0.22465098250E+03  0.47000000000E+01 0. -1.
         -5    1    4    4    0  501  0.27437554397E+02 -0.10610944450E+03  0.93608958375E+02  0.14421082030E+03  0.47000000000E+01 0. -1.
          1    1    1    2  502    0  0.69231303701E+02  0.18076077163E+02  0.58156520989E+03  0.58595034887E+03  0.00000000000E+00 0. -1.
          1    1    1    2  503    0 -0.19974916864E+02  0.15657731209E+03  0.24936175467E+02  0.15980383229E+03  0.00000000000E+00 0. -1.
<mgrwt>
<rscale>  0 0.10847970E+03</rscale>
<asrwt>0</asrwt>
<pdfrwt beam="1">  1        2 0.33452663E+00 0.71552205E+02</pdfrwt>
<pdfrwt beam="2">  1        2 0.19502481E-01 0.16446518E+03</pdfrwt>
<totfact> 0.30491463E+02</totfact>
</mgrwt>
</event>
<event>
13    1  0.1589573E-008  0.5714045E+02  0.7546771E-02  0.1454283E+00
          2   -1    0    0  502    0  0.00000000000E+00  0.00000000000E+00  0.22510466196E+04  0.22510466196E+04  0.00000000000E+00 0. -1.
          2   -1    0    0  503    0 -0.00000000000E+00 -0.00000000000E+00 -0.13138224174E+04  0.13138224174E+04  0.00000000000E+00 0. -1.
         24    2    1    2    0    0 -0.45596012450E+02  0.10603881393E+03 -0.41586351749E+02  0.14769829003E+03  0.82232194506E+02 0.  0.
         25    2    1    2    0    0  0.25374706387E+03 -0.36060625997E+03  0.77139487139E+03  0.89727489133E+03  0.12501094292E+03 0.  0.
         24    2    1    2    0    0 -0.15951515829E+03  0.31775870063E+03 -0.13894548518E+03  0.39006481024E+03  0.80181237101E+02 0.  0.
        -11    1    3    3    0    0  0.17265982502E+02  0.50374378905E+02  0.16053213890E+01  0.53275409511E+02  0.00000000000E+00 0.  1.
         12    1    3    3    0    0 -0.62861994952E+02  0.55664435028E+02 -0.43191673138E+02  0.94422880515E+02  0.00000000000E+00 0. -1.
        -13    1    5    5    0    0 -0.24378611317E+02  0.56604738997E+02 -0.59057922259E+02  0.85359541636E+02  0.00000000000E+00 0.  1.
         14    1    5    5    0    0 -0.13513654698E+03  0.26115396163E+03 -0.79887562925E+02  0.30470526860E+03  0.00000000000E+00 0. -1.
          5    1    4    4  501    0  0.18063490435E+03 -0.19839327044E+03  0.35986382281E+03  0.44890190398E+03  0.47000000000E+01 0.  1.
         -5    1    4    4    0  501  0.73112159513E+02 -0.16221298954E+03  0.41153104858E+03  0.44837298735E+03  0.47000000000E+01 0.  1.
          1    1    1    2  502    0 -0.40417371165E+02 -0.66562530670E+01  0.12368417073E+04  0.12375198094E+04  0.00000000000E+00 0. -1.
          1    1    1    2  503    0 -0.82185219587E+01 -0.56535001519E+02 -0.89048053963E+03  0.89231123604E+03  0.00000000000E+00 0. -1.
<mgrwt>
<rscale>  0 0.48379501E+02</rscale>
<asrwt>0</asrwt>
<pdfrwt beam="1">  1        2 0.33103627E+00 0.40961807E+02</pdfrwt>
<pdfrwt beam="2">  1        2 0.19320918E+00 0.57140451E+02</pdfrwt>
<totfact> 0.24876594E+01</totfact>
</mgrwt>
</event>
<event>
13    1  0.1589573E-008  0.9410566E+02  0.7546771E-02  0.1452395E+00
          2   -1    0    0  502    0  0.00000000000E+00  0.00000000000E+00  0.13805749359E+04  0.13805749359E+04  0.00000000000E+00 0. -1.
          2   -1    0    0  503    0 -0.00000000000E+00 -0.00000000000E+00 -0.73647711424E+03  0.73647711424E+03  0.00000000000E+00 0. -1.
         24    2    1    2    0    0 -0.67744955532E+02  0.46550256498E+01 -0.47679690111E+03  0.48822403667E+03  0.80102289689E+02 0.  0.
         25    2    1    2    0    0  0.28393731857E+02  0.34952565416E+02  0.71145489825E+02  0.15070963887E+03  0.12499531467E+03 0.  0.
         24    2    1    2    0    0  0.68526641888E+02  0.73070004875E+02  0.31169538854E+03  0.33779910202E+03  0.83181078531E+02 0.  0.
        -11    1    5    5    0    0 -0.98150793640E+01  0.42045951688E+02  0.74830845680E+02  0.86393595257E+02  0.00000000000E+00 0.  1.
         12    1    5    5    0    0  0.78341721252E+02  0.31024053187E+02  0.23686454286E+03  0.25140550676E+03  0.00000000000E+00 0. -1.
        -13    1    3    3    0    0 -0.25455650097E+02  0.13156321851E+02 -0.39467873108E+02  0.48772860631E+02  0.00000000000E+00 0.  1.
         14    1    3    3    0    0 -0.42289305436E+02 -0.85012962011E+01 -0.43732902800E+03  0.43945117604E+03  0.00000000000E+00 0. -1.
          5    1    4    4  501    0  0.21991230308E+02  0.71101002938E+01  0.10416060540E+03  0.10679742250E+03  0.47000000000E+01 0. -1.
         -5    1    4    4    0  501  0.64025015483E+01  0.27842465122E+02 -0.33015115572E+02  0.43912216368E+02  0.47000000000E+01 0. -1.
          1    1    1    2  502    0 -0.33512326239E+02 -0.87834786454E+02  0.93603212466E+03  0.94074128437E+03  0.00000000000E+00 0. -1.
          1    1    1    2  503    0  0.43369080273E+01 -0.24842809487E+02 -0.19797828022E+03  0.19957798825E+03  0.00000000000E+00 0. -1.
<mgrwt>
<rscale>  0 0.48715561E+02</rscale>
<asrwt>0</asrwt>
<pdfrwt beam="1">  1        2 0.20302573E+00 0.94105661E+02</pdfrwt>
<pdfrwt beam="2">  1        2 0.10830546E+00 0.25218524E+02</pdfrwt>
<totfact> 0.12865763E+02</totfact>
</mgrwt>
</event>
<event>
13    1  0.1589573E-008  0.1345118E+03  0.7546771E-02  0.1268790E+00
          2   -1    0    0  503    0  0.00000000000E+00  0.00000000000E+00  0.99994431840E+03  0.99994431840E+03  0.00000000000E+00 0. -1.
          2   -1    0    0  502    0 -0.00000000000E+00 -0.00000000000E+00 -0.15428655719E+04  0.15428655719E+04  0.00000000000E+00 0. -1.
         24    2    1    2    0    0 -0.32995903073E+02 -0.55984219972E+02 -0.33822653415E+03  0.35364556355E+03  0.80280967292E+02 0.  0.
         25    2    1    2    0    0 -0.12564327034E+03  0.11707476479E+03  0.70590676701E+02  0.22383043959E+03  0.12499716043E+03 0.  0.
         24    2    1    2    0    0  0.83215745499E+02 -0.15692674252E+02 -0.49269921128E+02  0.12740390910E+03  0.81443910774E+02 0.  0.
        -11    1    3    3    0    0 -0.42969353596E+02 -0.70939094955E+02 -0.24374051071E+03  0.25746486577E+03  0.00000000000E+00 0.  1.
         12    1    3    3    0    0  0.99734505229E+01  0.14954874982E+02 -0.94486023435E+02  0.96180697780E+02  0.00000000000E+00 0. -1.
        -13    1    5    5    0    0  0.30623907490E+02 -0.47036215220E+02 -0.20450756758E+02  0.59736611087E+02  0.00000000000E+00 0.  1.
         14    1    5    5    0    0  0.52591838010E+02  0.31343540968E+02 -0.28819164369E+02  0.67667298014E+02  0.00000000000E+00 0. -1.
          5    1    4    4  501    0 -0.40675801355E+02  0.77485113065E+02 -0.23703783213E+02  0.90787790485E+02  0.47000000000E+01 0.  1.
         -5    1    4    4    0  501 -0.84967468989E+02  0.39589651726E+02  0.94294459914E+02  0.13304264910E+03  0.47000000000E+01 0.  1.
          1    1    1    2  502    0  0.71975761094E+02 -0.12835091579E+03 -0.10245636641E+04  0.10350773737E+04  0.00000000000E+00 0. -1.
          1    1    1    2  503    0  0.34476668230E+01  0.82953045220E+02  0.79854818910E+03  0.80285260443E+03  0.00000000000E+00 0. -1.
<mgrwt>
<rscale>  0 0.10567778E+03</rscale>
<asrwt>0</asrwt>
<pdfrwt beam="1">  1        2 0.14705064E+00 0.83024660E+02</pdfrwt>
<pdfrwt beam="2">  1        2 0.22689199E+00 0.13451176E+03</pdfrwt>
<totfact> 0.68778504E+01</totfact>
</mgrwt>
</event>
<event>
13    1  0.1589573E-008  0.4480151E+02  0.7546771E-02  0.1596059E+00
          2   -1    0    0  503    0  0.00000000000E+00  0.00000000000E+00  0.23027496419E+04  0.23027496419E+04  0.00000000000E+00 0. -1.
          2   -1    0    0  502    0 -0.00000000000E+00 -0.00000000000E+00 -0.22011974412E+04  0.22011974412E+04  0.00000000000E+00 0. -1.
         24    2    1    2    0    0  0.22503019645E+03  0.97521416978E+03 -0.39905750003E+03  0.10816312958E+04  0.94858344699E+02 0.  0.
         25    2    1    2    0    0 -0.48143044502E+03 -0.44431992677E+03  0.47721467489E+03  0.82009377973E+03  0.12499796358E+03 0.  0.
         24    2    1    2    0    0  0.27935160372E+03 -0.57920063005E+03 -0.20280696094E+03  0.67945146276E+03  0.83743289249E+02 0.  0.
        -11    1    3    3    0    0  0.19461874502E+02  0.25923973420E+03 -0.11758021683E+03  0.28532282022E+03  0.00000000000E+00 0.  1.
         12    1    3    3    0    0  0.20556832195E+03  0.71597443558E+03 -0.28147728320E+03  0.79630847562E+03  0.00000000000E+00 0. -1.
        -11    1    5    5    0    0  0.22658638356E+03 -0.48994856750E+03 -0.13794984358E+03  0.55715450940E+03  0.00000000000E+00 0.  1.
         12    1    5    5    0    0  0.52765220164E+02 -0.89252062550E+02 -0.64857117356E+02  0.12229695336E+03  0.00000000000E+00 0. -1.
          5    1    4    4  501    0 -0.32502060206E+03 -0.36221081941E+03  0.31147787723E+03  0.57781971883E+03  0.47000000000E+01 0. -1.
         -5    1    4    4    0  501 -0.15640984295E+03 -0.82109107357E+02  0.16573679766E+03  0.24227406090E+03  0.47000000000E+01 0. -1.
          1    1    1    2  502    0 -0.20014714622E+02  0.36029246810E+01 -0.84769530187E+03  0.84793920459E+03  0.00000000000E+00 0. -1.
          1    1    1    2  503    0 -0.29366405300E+01  0.44703462355E+02  0.10738972886E+04  0.10748313402E+04  0.00000000000E+00 0. -1.
<mgrwt>
<rscale>  0 0.30184469E+02</rscale>
<asrwt>0</asrwt>
<pdfrwt beam="1">  1        2 0.33863966E+00 0.44801509E+02</pdfrwt>
<pdfrwt beam="2">  1        2 0.32370550E+00 0.20336417E+02</pdfrwt>
<totfact> 0.10093502E+01</totfact>
</mgrwt>
</event>
<event>
13    1  0.1589573E-008  0.1221724E+03  0.7546771E-02  0.1266106E+00
          2   -1    0    0  502    0  0.00000000000E+00  0.00000000000E+00  0.16977778532E+04  0.16977778532E+04  0.00000000000E+00 0. -1.
          2   -1    0    0  503    0 -0.00000000000E+00 -0.00000000000E+00 -0.24160587405E+04  0.24160587405E+04  0.00000000000E+00 0. -1.
         24    2    1    2    0    0  0.17344601922E+03 -0.17701267646E+03 -0.86580566536E+03  0.90566808094E+03  0.95907316944E+02 0.  0.
         25    2    1    2    0    0 -0.13576161053E+03  0.54917586597E+02  0.14770174953E+03  0.24266430063E+03  0.12499199885E+03 0.  0.
         24    2    1    2    0    0 -0.95469199968E+01 -0.84993719962E+02 -0.34021447519E+02  0.12266809123E+03  0.81085914937E+02 0.  0.
        -13    1    5    5    0    0  0.19870212636E+02  0.51112384370E+01  0.33360601096E+01  0.20786519806E+02  0.00000000000E+00 0.  1.
         14    1    5    5    0    0 -0.29417132633E+02 -0.90104958399E+02 -0.37357507629E+02  0.10188157143E+03  0.00000000000E+00 0. -1.
        -13    1    3    3    0    0 -0.79244148366E+01 -0.78781652804E+01 -0.11254960722E+02  0.15859885862E+02  0.00000000000E+00 0.  1.
         14    1    3    3    0    0  0.18137043406E+03 -0.16913451118E+03 -0.85455070464E+03  0.88980819508E+03  0.00000000000E+00 0. -1.
          5    1    4    4  501    0 -0.40003223319E+02  0.68212707531E+01  0.12701928099E+03  0.13342704131E+03  0.47000000000E+01 0.  1.
         -5    1    4    4    0  501 -0.95758387209E+02  0.48096315843E+02  0.20682468542E+02  0.10923725932E+03  0.47000000000E+01 0.  1.
          1    1    1    2  502    0 -0.38965157056E+02  0.85350176616E+02  0.14341456274E+04  0.14372114029E+04  0.00000000000E+00 0. -1.
          1    1    1    2  503    0  0.10827668362E+02  0.12173863321E+03 -0.14003011513E+04  0.14056247179E+04  0.00000000000E+00 0. -1.
<mgrwt>
<rscale>  0 0.10706401E+03</rscale>
<asrwt>0</asrwt>
<pdfrwt beam="1">  1        2 0.24967322E+00 0.93823963E+02</pdfrwt>
<pdfrwt beam="2">  1        2 0.35530275E+00 0.12217244E+03</pdfrwt>
<totfact> 0.11263305E+01</totfact>
</mgrwt>
</event>
<event>
13    1  0.1589573E-008  0.1361513E+03  0.7546771E-02  0.1221779E+00
          2   -1    0    0  502    0  0.00000000000E+00  0.00000000000E+00  0.15859915133E+04  0.15859915133E+04  0.00000000000E+00 0. -1.
          2   -1    0    0  503    0 -0.00000000000E+00 -0.00000000000E+00 -0.44194848046E+03  0.44194848046E+03  0.00000000000E+00 0. -1.
         24    2    1    2    0    0 -0.28381314404E+03 -0.14269614983E+03  0.78443103440E+02  0.33763360963E+03  0.83252879641E+02 0.  0.
         25    2    1    2    0    0 -0.24575133193E+03 -0.16094492956E+03  0.20083301267E+03  0.37716792693E+03  0.12499903450E+03 0.  0.
         24    2    1    2    0    0  0.34174473921E+03  0.23775877444E+03  0.85263807935E+03  0.95224821722E+03  0.80413128548E+02 0.  0.
        -11    1    5    5    0    0  0.83681006422E+02  0.10157782328E+03  0.24182442114E+03  0.27531729999E+03  0.00000000000E+00 0.  1.
         12    1    5    5    0    0  0.25806373279E+03  0.13618095117E+03  0.61081365822E+03  0.67693091723E+03  0.00000000000E+00 0. -1.
        -13    1    3    3    0    0 -0.23746669669E+03 -0.14649392272E+03  0.82489662822E+02  0.29095608930E+03  0.00000000000E+00 0.  1.
         14    1    3    3    0    0 -0.46346447353E+02  0.37977728902E+01 -0.40465593815E+01  0.46677520328E+02  0.00000000000E+00 0. -1.
          5    1    4    4  501    0 -0.64710529496E+02  0.10219686615E+02  0.18008975320E+02  0.68105123259E+02  0.47000000000E+01 0.  1.
         -5    1    4    4    0  501 -0.18104080243E+03 -0.17116461618E+03  0.18282403735E+03  0.30906280367E+03  0.47000000000E+01 0.  1.
          1    1    1    2  502    0  0.61725428158E+02  0.11632729096E+03  0.12704722651E+03  0.18298378307E+03  0.00000000000E+00 0. -1.
          1    1    1    2  503    0  0.12609430860E+03 -0.50444986012E+02 -0.11491838909E+03  0.17790645696E+03  0.00000000000E+00 0. -1.
<mgrwt>
<rscale>  0 0.13390169E+03</rscale>
<asrwt>0</asrwt>
<pdfrwt beam="1">  1        2 0.23323404E+00 0.13168928E+03</pdfrwt>
<pdfrwt beam="2">  1        2 0.64992424E-01 0.13615127E+03</pdfrwt>
<totfact> 0.16683852E+02</totfact>
</mgrwt>
</event>
<event>
13    1  0.1589573E-008  0.2040453E+03  0.7546771E-02  0.1268367E+00
          2   -1    0    0  503    0  0.00000000000E+00  0.00000000000E+00  0.14397294010E+04  0.14397294010E+04  0.00000000000E+00 0. -1.
          2   -1    0    0  502    0 -0.00000000000E+00 -0.00000000000E+00 -0.20178035333E+04  0.20178035333E+04  0.00000000000E+00 0. -1.
         24    2    1    2    0    0 -0.43308494186E+02 -0.62824438495E+02 -0.30358864707E+03  0.32286746377E+03  0.79087273266E+02 0.  0.
         25    2    1    2    0    0 -0.14634920347E+03 -0.34623046315E+02  0.31590915268E+03  0.37153844767E+03  0.12500152265E+03 0.  0.
         24    2    1    2    0    0  0.18541045000E+03 -0.30749677986E+03  0.86000238090E+02  0.37808592079E+03  0.81373324594E+02 0.  0.
        -11    1    5    5    0    0  0.24783689696E+02 -0.47081804733E+02 -0.16004936690E+02  0.55561547947E+02  0.00000000000E+00 0.  1.
         12    1    5    5    0    0  0.16062676030E+03 -0.26041497513E+03  0.10200517478E+03  0.32252437284E+03  0.00000000000E+00 0. -1.
        -13    1    3    3    0    0  0.76613605234E+01 -0.50254008012E+02 -0.94680469411E+02  0.10746419429E+03  0.00000000000E+00 0.  1.
         14    1    3    3    0    0 -0.50969854709E+02 -0.12570430483E+02 -0.20890817766E+03  0.21540326949E+03  0.00000000000E+00 0. -1.
          5    1    4    4  501    0 -0.83555470719E+01  0.34185990537E+02  0.29239148787E+02  0.45994727281E+02  0.47000000000E+01 0.  1.
         -5    1    4    4    0  501 -0.13799365639E+03 -0.68809036852E+02  0.28667000389E+03  0.32554372039E+03  0.47000000000E+01 0.  1.
          1    1    1    2  502    0  0.44983075443E+02  0.44183350516E+03 -0.14975664958E+04  0.15620325645E+04  0.00000000000E+00 0. -1.
          1    1    1    2  503    0 -0.40735827790E+02 -0.36889240490E+02  0.82117161982E+03  0.82300853758E+03  0.00000000000E+00 0. -1.
<mgrwt>
<rscale>  0 0.10589443E+03</rscale>
<asrwt>0</asrwt>
<pdfrwt beam="1">  1        2 0.21172491E+00 0.54956562E+02</pdfrwt>
<pdfrwt beam="2">  1        2 0.29673581E+00 0.20404534E+03</pdfrwt>
<totfact> 0.23385063E+01</totfact>
</mgrwt>
</event>
<event>
13    1  0.1589573E-008  0.3434501E+02  0.7546771E-02  0.1637998E+00
          2   -1    0    0  502    0  0.00000000000E+00  0.00000000000E+00  0.79246440623E+03  0.79246440623E+03  0.00000000000E+00 0. -1.
          2   -1    0    0  503    0 -0.00000000000E+00 -0.00000000000E+00 -0.27254663897E+04  0.27254663897E+04  0.00000000000E+00 0. -1.
         24    2    1    2    0    0 -0.23299646313E+02  0.90766608509E+01 -0.13712488260E+04  0.13738168097E+04  0.80150011764E+02 0.  0.
         25    2    1    2    0    0  0.12487292900E+03  0.78512876439E+02  0.23273014751E+03  0.30256296808E+03  0.12499403158E+03 0.  0.
         24    2    1    2    0    0 -0.67238449989E+02 -0.83726750019E+02 -0.21529700808E+03  0.24739693085E+03  0.57630390269E+02 0.  0.
        -11    1    5    5    0    0 -0.22732089501E+02 -0.72154455631E+01 -0.95583407547E+02  0.98513950008E+02  0.00000000000E+00 0.  1.
         12    1    5    5    0    0 -0.44506360487E+02 -0.76511304456E+02 -0.11971360053E+03  0.14888298084E+03  0.00000000000E+00 0. -1.
        -13    1    3    3    0    0 -0.42550189567E+02  0.24626101596E+02 -0.11729578163E+04  0.11739876500E+04  0.00000000000E+00 0.  1.
         14    1    3    3    0    0  0.19250543254E+02 -0.15549440745E+02 -0.19829100970E+03  0.19982915966E+03  0.00000000000E+00 0. -1.
          5    1    4    4  501    0  0.13672704221E+03  0.99087256011E+02  0.20808679379E+03  0.26802009649E+03  0.47000000000E+01 0.  1.
         -5    1    4    4    0  501 -0.11854113214E+02 -0.20574379572E+02  0.24643353722E+02  0.34542871588E+02  0.47000000000E+01 0.  1.
          1    1    1    2  502    0 -0.85779088089E+01  0.18865081118E+02  0.50700069411E+03  0.50742405898E+03  0.00000000000E+00 0. -1.
          1    1    1    2  503    0 -0.25756923886E+02 -0.22727868388E+02 -0.10861869910E+04  0.10867300283E+04  0.00000000000E+00 0. -1.
<mgrwt>
<rscale>  0 0.26678752E+02</rscale>
<asrwt>0</asrwt>
<pdfrwt beam="1">  1        2 0.11653888E+00 0.20723702E+02</pdfrwt>
<pdfrwt beam="2">  1        2 0.40080388E+00 0.34345013E+02</pdfrwt>
<totfact> 0.30607527E+01</totfact>
</mgrwt>
</event>
<event>
13    1  0.1589573E-008  0.3560277E+03  0.7546771E-02  0.1194867E+00
          2   -1    0    0  502    0  0.00000000000E+00  0.00000000000E+00  0.42477216593E+04  0.42477216593E+04  0.00000000000E+00 0. -1.
          2   -1    0    0  503    0 -0.00000000000E+00 -0.00000000000E+00 -0.15034600881E+04  0.15034600881E+04  0.00000000000E+00 0. -1.
         24    2    1    2    0    0 -0.22065985653E+03 -0.66115956675E+02 -0.10481446040E+03  0.26601453078E+03  0.81948565975E+02 0.  0.
         25    2    1    2    0    0  0.12630524714E+02  0.83129676715E+02  0.70616139623E+03  0.72205097596E+03  0.12499448408E+03 0.  0.
         24    2    1    2    0    0 -0.14208126231E+03  0.91706271851E+02  0.50705651717E+02  0.19364348310E+03  0.79558846365E+02 0.  0.
        -11    1    3    3    0    0 -0.53602622357E+02  0.16685446585E+02 -0.10676190130E+02  0.57145658514E+02  0.00000000000E+00 0.  1.
         12    1    3    3    0    0 -0.16705723417E+03 -0.82801403261E+02 -0.94138270272E+02  0.20886887226E+03  0.00000000000E+00 0. -1.
        -13    1    5    5    0    0 -0.64060805028E+02 -0.28213904402E+01  0.13210693714E+02  0.65469606790E+02  0.00000000000E+00 0.  1.
         14    1    5    5    0    0 -0.78020457280E+02  0.94527662292E+02  0.37494958004E+02  0.12817387631E+03  0.00000000000E+00 0. -1.
          5    1    4    4  501    0  0.55927550649E+02  0.24340051444E+01  0.20439991314E+03  0.21197931455E+03  0.47000000000E+01 0.  1.
         -5    1    4    4    0  501 -0.43297025935E+02  0.80695671571E+02  0.50176148308E+03  0.51007166141E+03  0.47000000000E+01 0.  1.
          1    1    1    2  502    0 -0.56448481902E+02  0.36424677860E+02  0.32928743238E+04  0.32935595487E+04  0.00000000000E+00 0. -1.
          1    1    1    2  503    0  0.40655907602E+03 -0.14514466975E+03 -0.12006653402E+04  0.12759132088E+04  0.00000000000E+00 0. -1.
<mgrwt>
<rscale>  0 0.15465457E+03</rscale>
<asrwt>0</asrwt>
<pdfrwt beam="1">  1        2 0.62466495E+00 0.67180267E+02</pdfrwt>
<pdfrwt beam="2">  1        2 0.22109707E+00 0.35602768E+03</pdfrwt>
<totfact> 0.12305097E+00</totfact>
</mgrwt>
</event>
<event>
13    1  0.1589573E-008  0.1179176E+03  0.7546771E-02  0.1342892E+00
          2   -1    0    0  502    0  0.00000000000E+00  0.00000000000E+00  0.10819769324E+04  0.10819769324E+04  0.00000000000E+00 0. -1.
          2   -1    0    0  503    0 -0.00000000000E+00 -0.00000000000E+00 -0.18735092359E+04  0.18735092359E+04  0.00000000000E+00 0. -1.
         24    2    1    2    0    0 -0.42653245722E+00 -0.17059134127E+02 -0.24859725305E+03  0.26182659682E+03  0.80382688382E+02 0.  0.
         25    2    1    2    0    0  0.15735117932E+03  0.10264124562E+03  0.49462995668E+03  0.54367213123E+03  0.12500389311E+03 0.  0.
         24    2    1    2    0    0 -0.42349747969E+02 -0.51563626277E+02 -0.41952150442E+02  0.11602395628E+03  0.85142626207E+02 0.  0.
        -11    1    5    5    0    0 -0.37906935011E+02 -0.64512892368E+02 -0.31657727543E+01  0.74892396949E+02  0.00000000000E+00 0.  1.
         12    1    5    5    0    0 -0.44428129578E+01  0.12949266091E+02 -0.38786377688E+02  0.41131559336E+02  0.00000000000E+00 0. -1.
        -11    1    3    3    0    0  0.19450704581E+02  0.27209247862E+02 -0.11054560625E+03  0.11549460654E+03  0.00000000000E+00 0.  1.
         12    1    3    3    0    0 -0.19877237038E+02 -0.44268381989E+02 -0.13805164680E+03  0.14633199029E+03  0.00000000000E+00 0. -1.
          5    1    4    4  501    0  0.34889897430E+02 -0.18877613398E+02  0.36495017286E+02  0.54107721417E+02  0.47000000000E+01 0.  1.
         -5    1    4    4    0  501  0.12246128189E+03  0.12151885901E+03  0.45813493939E+03  0.48956440981E+03  0.47000000000E+01 0.  1.
          1    1    1    2  502    0  0.47862938172E+02 -0.48412553023E+01  0.51355258094E+03  0.51580088405E+03  0.00000000000E+00 0. -1.
          1    1    1    2  503    0 -0.16243783707E+03 -0.29177229911E+02 -0.15091654376E+04  0.15181625999E+04  0.00000000000E+00 0. -1.
<mgrwt>
<rscale>  0 0.75317210E+02</rscale>
<asrwt>0</asrwt>
<pdfrwt beam="1">  1        2 0.15911426E+00 0.48107158E+02</pdfrwt>
<pdfrwt beam="2">  1        2 0.27551606E+00 0.11791763E+03</pdfrwt>
<totfact> 0.44385074E+01</totfact>
</mgrwt>
</event>
<event>
13    1  0.1589573E-008  0.6545037E+02  0.7546771E-02  0.1498305E+00
          2   -1    0    0  503    0  0.00000000000E+00  0.00000000000E+00  0.21576147709E+04  0.21576147709E+04  0.00000000000E+00 0. -1.
         -1   -1    0    0    0  501 -0.00000000000E+00 -0.00000000000E+00 -0.15416287727E+03  0.15416287727E+03  0.00000000000E+00 0.  1.
         24    2    1    2    0    0  0.10278695682E+02 -0.62784310836E+02 -0.46322785019E+02  0.11333610157E+03  0.81558262825E+02 0.  0.
         25    2    1    2    0    0 -0.18741292008E+02  0.11244157835E+03  0.14026595717E+04  0.14128241741E+04  0.12499571315E+03 0.  0.
         24    2    1    2    0    0 -0.20121085792E+02  0.32357447172E+02  0.32446675137E+03  0.33666909435E+03  0.81335993642E+02 0.  0.
        -11    1    3    3    0    0 -0.51418079489E+01 -0.74685777842E+02 -0.14847329614E+02  0.76320683943E+02  0.00000000000E+00 0.  1.
         12    1    3    3    0    0  0.15420503631E+02  0.11901467006E+02 -0.31475455405E+02  0.37015417627E+02  0.00000000000E+00 0. -1.
        -13    1    5    5    0    0 -0.51062608169E+02  0.28096796291E+02  0.22409893428E+03  0.23155377833E+03  0.00000000000E+00 0.  1.
         14    1    5    5    0    0  0.30941522378E+02  0.42606508809E+01  0.10036781710E+03  0.10511531602E+03  0.00000000000E+00 0. -1.
          5    1    4    4  502    0 -0.37560629181E+02  0.73558520646E+02  0.36510082278E+03  0.37435592371E+03  0.47000000000E+01 0. -1.
         -5    1    4    4    0  502  0.18819337173E+02  0.38883057708E+02  0.10375587489E+04  0.10384682504E+04  0.47000000000E+01 0. -1.
          1    1    1    2  503    0 -0.45118408321E+01 -0.25768060065E+02  0.36834899990E+03  0.36927677337E+03  0.00000000000E+00 0. -1.
         -2    1    1    2    0  501  0.33095522950E+02 -0.56246654624E+02 -0.45700644265E+02  0.79671504831E+02  0.00000000000E+00 0.  1.
<mgrwt>
<rscale>  0 0.41378577E+02</rscale>
<asrwt>0</asrwt>
<pdfrwt beam="1">  1        2 0.31729627E+00 0.26160077E+02</pdfrwt>
<pdfrwt beam="2">  1       -1 0.22671013E-01 0.65450366E+02</pdfrwt>
<totfact> 0.16317738E+02</totfact>
</mgrwt>
</event>
<event>
13    1  0.1589573E-008  0.1129591E+03  0.7546771E-02  0.1401293E+00
          2   -1    0    0  503    0  0.00000000000E+00  0.00000000000E+00  0.14185622018E+04  0.14185622018E+04  0.00000000000E+00 0. -1.
          2   -1    0    0  502    0 -0.00000000000E+00 -0.00000000000E+00 -0.83873958059E+03  0.83873958059E+03  0.00000000000E+00 0. -1.
         24    2    1    2    0    0 -0.73828366704E+01 -0.36342321046E+02 -0.75859678949E+02  0.11815434964E+03  0.82646771700E+02 0.  0.
         25    2    1    2    0    0 -0.27153521609E+02  0.12323412466E+03  0.90813206058E+03  0.92533888022E+03  0.12499696228E+03 0.  0.
         24    2    1    2    0    0  0.77507916997E+02 -0.94663857851E+01  0.10929684189E+03  0.15648149800E+03  0.80271850064E+02 0.  0.
        -13    1    3    3    0    0  0.36270840715E+02 -0.28699655961E+02 -0.37628322585E+02  0.59624951145E+02  0.00000000000E+00 0.  1.
         14    1    3    3    0    0 -0.43653677386E+02 -0.76426650851E+01 -0.38231356364E+02  0.58529398496E+02  0.00000000000E+00 0. -1.
        -13    1    5    5    0    0 -0.48043417242E+01 -0.25763947351E+02  0.39152063537E+02  0.47114188539E+02  0.00000000000E+00 0.  1.
         14    1    5    5    0    0  0.82312258721E+02  0.16297561566E+02  0.70144778349E+02  0.10936730946E+03  0.00000000000E+00 0. -1.
          5    1    4    4  501    0 -0.65806004452E+02  0.25562371469E+02  0.30400294541E+03  0.31212777172E+03  0.47000000000E+01 0. -1.
         -5    1    4    4    0  501  0.38652482843E+02  0.97671753195E+02  0.60412911516E+03  0.61321110850E+03  0.47000000000E+01 0. -1.
          1    1    1    2  502    0 -0.25957960376E+02 -0.10334892348E+03 -0.70483290385E+03  0.71284236549E+03  0.00000000000E+00 0. -1.
          1    1    1    2  503    0 -0.17013598342E+02  0.25923505647E+02  0.34308630156E+03  0.34448468905E+03  0.00000000000E+00 0. -1.
<mgrwt>
<rscale>  0 0.59182979E+02</rscale>
<asrwt>0</asrwt>
<pdfrwt beam="1">  1        2 0.20861209E+00 0.31007913E+02</pdfrwt>
<pdfrwt beam="2">  1        2 0.12334406E+00 0.11295907E+03</pdfrwt>
<totfact> 0.10960600E+02</totfact>
</mgrwt>
</event>
<event>
13    1  0.1589573E-008  0.4100825E+03  0.7546771E-02  0.1122650E+00
         -1   -1    0    0    0  501 -0.00000000000E+00  0.00000000000E+00  0.51894555423E+04  0.51894555423E+04  0.00000000000E+00 0.  1.
          4   -1    0    0  503    0  0.00000000000E+00 -0.00000000000E+00 -0.52755532663E+03  0.52755532663E+03  0.00000000000E+00 0. -1.
         24    2    1    2    0    0  0.23387489349E+03 -0.44651562908E+02  0.89844578862E+03  0.93280378746E+03  0.78910347436E+02 0.  0.
         25    2    1    2    0    0  0.26113440552E+03 -0.24980861624E+03  0.51283119620E+03  0.63970060279E+03  0.12500201164E+03 0.  0.
         24    2    1    2    0    0 -0.11657606903E+02  0.32512286860E+02  0.31549031598E+02  0.89505344146E+02  0.76308037849E+02 0.  0.
        -11    1    3    3    0    0  0.70049337902E+02 -0.45715930518E+02  0.37962312320E+03  0.38872943252E+03  0.00000000000E+00 0.  1.
         12    1    3    3    0    0  0.16382555558E+03  0.10643676098E+01  0.51882266542E+03  0.54407435493E+03  0.00000000000E+00 0. -1.
        -13    1    5    5    0    0  0.16600451000E+02  0.25601762954E+02 -0.15473310916E+02  0.34211819456E+02  0.00000000000E+00 0.  1.
         14    1    5    5    0    0 -0.28258057903E+02  0.69105239060E+01  0.47022342514E+02  0.55293524690E+02  0.00000000000E+00 0. -1.
          5    1    4    4  502    0  0.13478920095E+02 -0.80975763267E+02  0.12268828258E+03  0.14769312850E+03  0.47000000000E+01 0.  1.
         -5    1    4    4    0  502  0.24765548543E+03 -0.16883285297E+03  0.39014291362E+03  0.49200747429E+03  0.47000000000E+01 0.  1.
          3    1    1    2  503    0 -0.60978789991E+02  0.18128625144E+03 -0.38260175812E+03  0.42774668100E+03  0.00000000000E+00 0. -1.
         -2    1    1    2    0  501 -0.42237290211E+03  0.80661640847E+02  0.36016759574E+04  0.36272544536E+04  0.00000000000E+00 0.  1.
<mgrwt>
<rscale>  0 0.23576033E+03</rscale>
<asrwt>0</asrwt>
<pdfrwt beam="2">  1        4 0.77581668E-01 0.13554086E+03</pdfrwt>
<pdfrwt beam="1">  1       -1 0.76315520E+00 0.41008248E+03</pdfrwt>
<totfact> 0.80037965E-04</totfact>
</mgrwt>
</event>
<event>
13    1  0.1589573E-008  0.2291185E+03  0.7546771E-02  0.1290250E+00
          2   -1    0    0  503    0  0.00000000000E+00  0.00000000000E+00  0.33980237459E+03  0.33980237459E+03  0.00000000000E+00 0. -1.
          2   -1    0    0  502    0 -0.00000000000E+00 -0.00000000000E+00 -0.22232255686E+04  0.22232255686E+04  0.00000000000E+00 0. -1.
         24    2    1    2    0    0  0.14640195051E+03 -0.68186276733E+02  0.22184106188E+01  0.18116805552E+03  0.82061218285E+02 0.  0.
         25    2    1    2    0    0 -0.20785981199E+02 -0.50591390462E+00 -0.59797419630E+03  0.61125191061E+03  0.12499378310E+03 0.  0.
         24    2    1    2    0    0 -0.35637125515E+01  0.33216980548E+03 -0.56382039056E+03  0.65926841189E+03  0.79949523977E+02 0.  0.
        -13    1    5    5    0    0 -0.54662028918E+01 -0.26308076662E+01 -0.51568288693E+01  0.79619976776E+01  0.00000000000E+00 0.  1.
         14    1    5    5    0    0  0.19024903403E+01  0.33480061314E+03 -0.55866356169E+03  0.65130641421E+03  0.00000000000E+00 0. -1.
        -13    1    3    3    0    0  0.35171010928E+01 -0.62834400787E+01  0.22971250606E+02  0.24073428791E+02  0.00000000000E+00 0.  1.
         14    1    3    3    0    0  0.14288484942E+03 -0.61902836655E+02 -0.20752839988E+02  0.15709462673E+03  0.00000000000E+00 0. -1.
          5    1    4    4  501    0 -0.49171132497E+02 -0.11503813153E+02 -0.56029100102E+03  0.56258175744E+03  0.47000000000E+01 0.  1.
         -5    1    4    4    0  501  0.28385151299E+02  0.10997899249E+02 -0.37683195289E+02  0.48670153167E+02  0.47000000000E+01 0.  1.
          1    1    1    2  502    0  0.90750919861E+01 -0.38682529276E+02 -0.82951112523E+03  0.83046216184E+03  0.00000000000E+00 0. -1.
          1    1    1    2  503    0 -0.13112734875E+03 -0.22479508556E+03  0.10566410749E+03  0.28087740332E+03  0.00000000000E+00 0. -1.
<mgrwt>
<rscale>  0 0.95412370E+02</rscale>
<asrwt>0</asrwt>
<pdfrwt beam="1">  1        2 0.49970936E-01 0.22911853E+03</pdfrwt>
<pdfrwt beam="2">  1        2 0.32694494E+00 0.39732800E+02</pdfrwt>
<totfact> 0.12435167E+02</totfact>
</mgrwt>
</event>
<event>
13    1  0.1589573E-008  0.1472894E+03  0.7546771E-02  0.1310979E+00
          2   -1    0    0  502    0  0.00000000000E+00  0.00000000000E+00  0.19464207888E+04  0.19464207888E+04  0.00000000000E+00 0. -1.
          2   -1    0    0  503    0 -0.00000000000E+00 -0.00000000000E+00 -0.23083350508E+04  0.23083350508E+04  0.00000000000E+00 0. -1.
         24    2    1    2    0    0  0.11721495625E+03 -0.20292110144E+02 -0.53219980991E+03  0.55120128932E+03  0.80219124745E+02 0.  0.
         25    2    1    2    0    0 -0.73099936135E+02  0.31047693802E+02  0.20405210229E+03  0.25212932982E+03  0.12499751419E+03 0.  0.
         24    2    1    2    0    0  0.11140849040E+03 -0.16694888743E+03 -0.13662332101E+03  0.25569253516E+03  0.80180782889E+02 0.  0.
        -13    1    5    5    0    0  0.91776745795E+02 -0.17111582441E+03 -0.11286855635E+03  0.22459498536E+03  0.00000000000E+00 0.  1.
         14    1    5    5    0    0  0.19631744602E+02  0.41669369817E+01 -0.23754764653E+02  0.31097549801E+02  0.00000000000E+00 0. -1.
        -13    1    3    3    0    0  0.12895678633E+03 -0.14345484664E+02 -0.49572051354E+03  0.51242021156E+03  0.00000000000E+00 0.  1.
         14    1    3    3    0    0 -0.11741830085E+02 -0.59466254804E+01 -0.36479296368E+02  0.38781077755E+02  0.00000000000E+00 0. -1.
          5    1    4    4  501    0 -0.24291029356E+02  0.62112691401E+02  0.39537745833E+02  0.77674731321E+02  0.47000000000E+01 0.  1.
         -5    1    4    4    0  501 -0.48808906780E+02 -0.31064997600E+02  0.16451435646E+03  0.17445459850E+03  0.47000000000E+01 0.  1.
          1    1    1    2  502    0  0.41565924452E+02  0.29664411902E+02  0.16400272667E+04  0.16408220924E+04  0.00000000000E+00 0. -1.
          1    1    1    2  503    0 -0.19708943496E+03  0.12652889187E+03 -0.15371705001E+04  0.15549105930E+04  0.00000000000E+00 0. -1.
<mgrwt>
<rscale>  0 0.86726208E+02</rscale>
<asrwt>0</asrwt>
<pdfrwt beam="1">  1        2 0.28623835E+00 0.51065677E+02</pdfrwt>
<pdfrwt beam="2">  1        2 0.33946103E+00 0.14728944E+03</pdfrwt>
<totfact> 0.10090186E+01</totfact>
</mgrwt>
</event>
<event>
13    1  0.1589573E-008  0.1607171E+03  0.7546771E-02  0.1361652E+00
          2   -1    0    0  503    0  0.00000000000E+00  0.00000000000E+00  0.11352942592E+04  0.11352942592E+04  0.00000000000E+00 0. -1.
         -1   -1    0    0    0  501 -0.00000000000E+00 -0.00000000000E+00 -0.80662301113E+03  0.80662301113E+03  0.00000000000E+00 0.  1.
         24    2    1    2    0    0 -0.78835866453E+02  0.44929792651E+02 -0.88908353363E+02  0.15114687567E+03  0.81895681333E+02 0.  0.
         25    2    1    2    0    0  0.17490859237E+03  0.18622089739E+03 -0.14834244971E+02  0.28480903848E+03  0.12499958105E+03 0.  0.
         24    2    1    2    0    0  0.51905367095E+02 -0.10170828784E+03  0.78958811830E+03  0.80186236186E+03  0.80592231946E+02 0.  0.
        -11    1    5    5    0    0  0.61142863647E+02 -0.31801332718E+02  0.41784271108E+03  0.42348825927E+03  0.00000000000E+00 0.  1.
         12    1    5    5    0    0 -0.92374965522E+01 -0.69906955121E+02  0.37174540722E+03  0.37837410259E+03  0.00000000000E+00 0. -1.
        -13    1    3    3    0    0  0.15433702637E+02  0.18866635702E+02 -0.19500681595E+02  0.31215792517E+02  0.00000000000E+00 0.  1.
         14    1    3    3    0    0 -0.94269569091E+02  0.26063156949E+02 -0.69407671768E+02  0.11993108316E+03  0.00000000000E+00 0. -1.
          5    1    4    4  502    0  0.15605530281E+03  0.20043920615E+03  0.42203968853E+01  0.25410437747E+03  0.47000000000E+01 0. -1.
         -5    1    4    4    0  502  0.18853289563E+02 -0.14218308760E+02 -0.19054641856E+02  0.30704661008E+02  0.47000000000E+01 0. -1.
          1    1    1    2  503    0 -0.13011468113E+02 -0.27133737586E+02  0.15849702731E+03  0.16132837842E+03  0.00000000000E+00 0. -1.
         -2    1    1    2    0  501 -0.13496662490E+03 -0.10230866462E+03 -0.51567129919E+03  0.54277061592E+03  0.00000000000E+00 0.  1.
<mgrwt>
<rscale>  0 0.69543687E+02</rscale>
<asrwt>0</asrwt>
<pdfrwt beam="1">  1        2 0.16695504E+00 0.30092159E+02</pdfrwt>
<pdfrwt beam="2">  1       -1 0.11862103E+00 0.16071710E+03</pdfrwt>
<totfact> 0.21361299E+01</totfact>
</mgrwt>
</event>
<event>
13    1  0.1589573E-008  0.1058226E+03  0.7546771E-02  0.1392555E+00
          2   -1    0    0  502    0  0.00000000000E+00  0.00000000000E+00  0.37631878054E+03  0.37631878054E+03  0.00000000000E+00 0. -1.
          2   -1    0    0  503    0 -0.00000000000E+00 -0.00000000000E+00 -0.14784175554E+04  0.14784175554E+04  0.00000000000E+00 0. -1.
         24    2    1    2    0    0 -0.16409569074E+02 -0.14899818469E+02 -0.58722292211E+03  0.59331820881E+03  0.81880755381E+02 0.  0.
         25    2    1    2    0    0  0.58844745577E+02 -0.10364244420E+03  0.14352001098E+03  0.22455546115E+03  0.12499080469E+03 0.  0.
         24    2    1    2    0    0 -0.85340119227E+02 -0.20374678421E+02 -0.13279621632E+03  0.17758133177E+03  0.78754243388E+02 0.  0.
        -13    1    3    3    0    0 -0.35670994405E+02 -0.38939930570E+02 -0.41698962227E+03  0.42032021498E+03  0.00000000000E+00 0.  1.
         14    1    3    3    0    0  0.19261425331E+02  0.24040112101E+02 -0.17023329984E+03  0.17299799383E+03  0.00000000000E+00 0. -1.
        -13    1    5    5    0    0  0.10745547948E+02  0.12371378684E+02 -0.18256104198E+02  0.24531676497E+02  0.00000000000E+00 0.  1.
         14    1    5    5    0    0 -0.96085667175E+02 -0.32746057105E+02 -0.11454011213E+03  0.15304965527E+03  0.00000000000E+00 0. -1.
          5    1    4    4  501    0  0.91307183944E+02 -0.50570622046E+02  0.60596534595E+02  0.12078253044E+03  0.47000000000E+01 0.  1.
         -5    1    4    4    0  501 -0.32462438367E+02 -0.53071822153E+02  0.82923476388E+02  0.10377293071E+03  0.47000000000E+01 0.  1.
          1    1    1    2  502    0 -0.34416783079E+02  0.86258837213E+01  0.15654420154E+03  0.16051482132E+03  0.00000000000E+00 0. -1.
          1    1    1    2  503    0  0.77321725802E+02  0.13029105737E+03 -0.68214384890E+03  0.69876651286E+03  0.00000000000E+00 0. -1.
<mgrwt>
<rscale>  0 0.61275764E+02</rscale>
<asrwt>0</asrwt>
<pdfrwt beam="1">  1        2 0.55340998E-01 0.35481274E+02</pdfrwt>
<pdfrwt beam="2">  1        2 0.21741434E+00 0.10582256E+03</pdfrwt>
<totfact> 0.22732245E+02</totfact>
</mgrwt>
</event>
<event>
13    1  0.1589573E-008  0.4978079E+02  0.7546771E-02  0.1459100E+00
          2   -1    0    0  502    0  0.00000000000E+00  0.00000000000E+00  0.97497950243E+03  0.97497950243E+03  0.00000000000E+00 0. -1.
          4   -1    0    0  503    0 -0.00000000000E+00 -0.00000000000E+00 -0.44204066056E+03  0.44204066056E+03  0.00000000000E+00 0. -1.
         24    2    1    2    0    0 -0.61587020436E+02  0.65609275305E+02 -0.28819431172E+03  0.31244980465E+03  0.80444894330E+02 0.  0.
         25    2    1    2    0    0  0.12588945532E+03 -0.85849244465E+02  0.57054542112E+03  0.60362493589E+03  0.12499095140E+03 0.  0.
         24    2    1    2    0    0 -0.13871596756E+02  0.88491431009E+01  0.78841533182E+02  0.12383666983E+03  0.94068086560E+02 0.  0.
        -11    1    5    5    0    0  0.40018167690E+02  0.26825927268E+01  0.24194736982E+02  0.46840531024E+02  0.00000000000E+00 0.  1.
         12    1    5    5    0    0 -0.53889764446E+02  0.61665503740E+01  0.54646796200E+02  0.76996138802E+02  0.00000000000E+00 0. -1.
        -13    1    3    3    0    0  0.15131242042E+02 -0.45721190341E+01 -0.52774553900E+02  0.55090945694E+02  0.00000000000E+00 0.  1.
         14    1    3    3    0    0 -0.76718262478E+02  0.70181394339E+02 -0.23541975782E+03  0.25735885895E+03  0.00000000000E+00 0. -1.
          5    1    4    4  501    0 -0.23662160799E+02 -0.71608151469E+01  0.45001568662E+02  0.51559735350E+02  0.47000000000E+01 0. -1.
         -5    1    4    4    0  501  0.14955161612E+03 -0.78688429319E+02  0.52554385246E+03  0.55206520054E+03  0.47000000000E+01 0. -1.
          1    1    1    2  502    0 -0.29912500428E+02 -0.34144302102E+02  0.26631795198E+03  0.27015892100E+03  0.00000000000E+00 0. -1.
          3    1    1    2  503    0 -0.20518337698E+02  0.45535128162E+02 -0.94571752687E+02  0.10694983163E+03  0.00000000000E+00 0. -1.
<mgrwt>
<rscale>  0 0.47536679E+02</rscale>
<asrwt>0</asrwt>
<pdfrwt beam="1">  1        2 0.14337934E+00 0.45393734E+02</pdfrwt>
<pdfrwt beam="2">  1        4 0.65005979E-01 0.49780789E+02</pdfrwt>
<totfact> 0.33795365E+01</totfact>
</mgrwt>
</event>
<event>
13    1  0.1589573E-008  0.1141464E+03  0.7546771E-02  0.1397065E+00
          2   -1    0    0  502    0  0.00000000000E+00  0.00000000000E+00  0.63112054489E+03  0.63112054489E+03  0.00000000000E+00 0. -1.
          2   -1    0    0  503    0 -0.00000000000E+00 -0.00000000000E+00 -0.15890917612E+04  0.15890917612E+04  0.00000000000E+00 0. -1.
         24    2    1    2    0    0  0.11189830346E+03  0.93568479359E+01 -0.10650962945E+03  0.17546068740E+03  0.82664204701E+02 0.  0.
         25    2    1    2    0    0 -0.13058883499E+03 -0.26418086059E+02  0.10904791404E+03  0.21276212677E+03  0.12499966374E+03 0.  0.
         24    2    1    2    0    0 -0.51365055640E+02 -0.70276492702E+02  0.29231421163E+02  0.11195241411E+03  0.64044614725E+02 0.  0.
        -11    1    5    5    0    0 -0.57655626270E+02 -0.67075610858E+02  0.41575097313E+02  0.97733297955E+02  0.00000000000E+00 0.  1.
         12    1    5    5    0    0  0.62905706301E+01 -0.32008818435E+01 -0.12343676150E+02  0.14219116158E+02  0.00000000000E+00 0. -1.
        -13    1    3    3    0    0  0.15060821286E+02  0.27825171962E+02 -0.56885648974E+02  0.65092592449E+02  0.00000000000E+00 0.  1.
         14    1    3    3    0    0  0.96837482173E+02 -0.18468324026E+02 -0.49623980471E+02  0.11036809495E+03  0.00000000000E+00 0. -1.
          5    1    4    4  501    0 -0.70828372391E+02  0.48086069747E+02  0.64379099914E+02  0.10721794134E+03  0.47000000000E+01 0. -1.
         -5    1    4    4    0  501 -0.59760462603E+02 -0.74504155806E+02  0.44668814121E+02  0.10554418543E+03  0.47000000000E+01 0. -1.
          1    1    1    2  502    0  0.25436621248E+02 -0.18969746637E+02  0.36200017376E+03  0.36338822049E+03  0.00000000000E+00 0. -1.
          1    1    1    2  503    0  0.44618965926E+02  0.10630747746E+03 -0.13517410958E+04  0.13566488573E+04  0.00000000000E+00 0. -1.
<mgrwt>
<rscale>  0 0.60183130E+02</rscale>
<asrwt>0</asrwt>
<pdfrwt beam="1">  1        2 0.92811846E-01 0.31731262E+02</pdfrwt>
<pdfrwt beam="2">  1        2 0.23368996E+00 0.11414640E+03</pdfrwt>
<totfact> 0.11723857E+02</totfact>
</mgrwt>
</event>
<event>
13    1  0.1589573E-008  0.6095682E+02  0.7546771E-02  0.1520048E+00
         -1   -1    0    0    0  501 -0.00000000000E+00  0.00000000000E+00  0.67941812698E+03  0.67941812698E+03  0.00000000000E+00 0.  1.
          2   -1    0    0  503    0  0.00000000000E+00 -0.00000000000E+00 -0.29200682773E+03  0.29200682773E+03  0.00000000000E+00 0. -1.
         24    2    1    2    0    0  0.32189198686E+02 -0.49545188431E+02  0.44198621684E+03  0.45312979957E+03  0.80522848757E+02 0.  0.
         25    2    1    2    0    0 -0.46798590103E+02 -0.38593281086E+02  0.61438407056E+02  0.15192056160E+03  0.12500251915E+03 0.  0.
         24    2    1    2    0    0  0.16674453738E+02  0.21980185676E+02  0.53310623653E+02  0.10212831094E+03  0.82625682039E+02 0.  0.
        -11    1    3    3    0    0  0.58144977749E+02 -0.29451648884E+02  0.33253575927E+03  0.33886320138E+03  0.00000000000E+00 0.  1.
         12    1    3    3    0    0 -0.25955779063E+02 -0.20093539547E+02  0.10945045757E+03  0.11426659818E+03  0.00000000000E+00 0. -1.
        -11    1    5    5    0    0  0.50482391287E+02  0.13114388373E+02  0.31682486742E+02  0.61026543230E+02  0.00000000000E+00 0.  1.
         12    1    5    5    0    0 -0.33807937548E+02  0.88657973028E+01  0.21628136911E+02  0.41101767715E+02  0.00000000000E+00 0. -1.
          5    1    4    4  502    0  0.16247278892E+02  0.15317377047E+02  0.64867715691E+02  0.68764137819E+02  0.47000000000E+01 0.  1.
         -5    1    4    4    0  502 -0.63045868995E+02 -0.53910658133E+02 -0.34293086358E+01  0.83156423777E+02  0.47000000000E+01 0.  1.
          1    1    1    2  503    0 -0.24068274527E+02  0.55998984798E+02 -0.20902607601E+03  0.21773164352E+03  0.00000000000E+00 0. -1.
         -2    1    1    2    0  501  0.22003212205E+02  0.10159299043E+02  0.39702127714E+02  0.46514639087E+02  0.00000000000E+00 0.  1.
<mgrwt>
<rscale>  0 0.38435797E+02</rscale>
<asrwt>0</asrwt>
<pdfrwt beam="2">  1        2 0.42942180E-01 0.60956819E+02</pdfrwt>
<pdfrwt beam="1">  1       -1 0.99914431E-01 0.24235361E+02</pdfrwt>
<totfact> 0.14973211E+02</totfact>
</mgrwt>
</event>
<event>
13    1  0.1589573E-008  0.9980871E+02  0.7546771E-02  0.1319923E+00
          2   -1    0    0  502    0  0.00000000000E+00  0.00000000000E+00  0.32863638125E+04  0.32863638125E+04  0.00000000000E+00 0. -1.
          2   -1    0    0  503    0 -0.00000000000E+00 -0.00000000000E+00 -0.12532293163E+04  0.12532293163E+04  0.00000000000E+00 0. -1.
         24    2    1    2    0    0  0.47711555548E+02  0.24236909305E+02 -0.17717945888E+03  0.20068062011E+03  0.77565007162E+02 0.  0.
         25    2    1    2    0    0 -0.74785003990E+02 -0.55695737421E+02  0.16700532510E+02  0.15684761869E+03  0.12500982247E+03 0.  0.
         24    2    1    2    0    0 -0.24029776451E+02  0.54586934892E+02  0.12406872083E+04  0.12446057589E+04  0.78623041449E+02 0.  0.
        -11    1    5    5    0    0 -0.27115206084E+02  0.57280214168E+02  0.51202336097E+03  0.51593040181E+03  0.00000000000E+00 0.  1.
         12    1    5    5    0    0  0.30854296332E+01 -0.26932792761E+01  0.72866384732E+03  0.72867535709E+03  0.00000000000E+00 0. -1.
        -11    1    3    3    0    0  0.56977489031E+02 -0.24795384999E+01 -0.15365318576E+03  0.16389595437E+03  0.00000000000E+00 0.  1.
         12    1    3    3    0    0 -0.92659334825E+01  0.26716447805E+02 -0.23526273121E+02  0.36784665740E+02  0.00000000000E+00 0. -1.
          5    1    4    4  501    0  0.12517068696E+02 -0.57741115819E+02  0.33078469508E+02  0.67874800993E+02  0.47000000000E+01 0.  1.
         -5    1    4    4    0  501 -0.87302072686E+02  0.20453783983E+01 -0.16377936998E+02  0.88972817694E+02  0.47000000000E+01 0.  1.
          1    1    1    2  502    0  0.12057196513E+03 -0.26094086710E+02  0.19420150298E+04  0.19459293091E+04  0.00000000000E+00 0. -1.
          1    1    1    2  503    0 -0.69468740234E+02  0.29659799343E+01 -0.98908881550E+03  0.99152982197E+03  0.00000000000E+00 0. -1.
<mgrwt>
<rscale>  0 0.83306073E+02</rscale>
<asrwt>0</asrwt>
<pdfrwt beam="1">  1        2 0.48328880E+00 0.99808707E+02</pdfrwt>
<pdfrwt beam="2">  1        2 0.18429843E+00 0.69532028E+02</pdfrwt>
<totfact> 0.68724119E+00</totfact>
</mgrwt>
</event>
<event>
13    1  0.1589573E-008  0.7689015E+02  0.7546771E-02  0.1461487E+00
          2   -1    0    0  502    0  0.00000000000E+00  0.00000000000E+00  0.53317390157E+03  0.53317390157E+03  0.00000000000E+00 0. -1.
          2   -1    0    0  503    0 -0.00000000000E+00 -0.00000000000E+00 -0.85628359820E+03  0.85628359820E+03  0.00000000000E+00 0. -1.
         24    2    1    2    0    0 -0.78073274016E+02 -0.73121864785E+02 -0.11360654792E+03  0.17545604969E+03  0.80225522221E+02 0.  0.
         25    2    1    2    0    0 -0.29869629699E+01  0.88274172857E+02  0.53825306214E+02  0.16224250763E+03  0.12499686456E+03 0.  0.
         24    2    1    2    0    0  0.52708093437E+02  0.60132265588E+02  0.21597749588E+02  0.11550207517E+03  0.80499901256E+02 0.  0.
        -11    1    3    3    0    0 -0.59203905981E+02 -0.97361366311E+01 -0.25264149578E+02  0.65101244948E+02  0.00000000000E+00 0.  1.
         12    1    3    3    0    0 -0.18869368035E+02 -0.63385728154E+02 -0.88342398346E+02  0.11035480474E+03  0.00000000000E+00 0. -1.
        -13    1    5    5    0    0 -0.15976043545E+02 -0.66381494131E+01 -0.30753540392E-01  0.17300287302E+02  0.00000000000E+00 0.  1.
         14    1    5    5    0    0  0.68684136982E+02  0.66770415001E+02  0.21628503128E+02  0.98201787865E+02  0.00000000000E+00 0. -1.
          5    1    4    4  501    0  0.21012345835E+02  0.91791978820E+01  0.73508844167E+02  0.77145424505E+02  0.47000000000E+01 0. -1.
         -5    1    4    4    0  501 -0.23999308805E+02  0.79094974975E+02 -0.19683537953E+02  0.85097083122E+02  0.47000000000E+01 0. -1.
          1    1    1    2  502    0  0.28838340342E+02  0.16241815823E+01  0.32259560600E+03  0.32388611092E+03  0.00000000000E+00 0. -1.
          1    1    1    2  503    0 -0.48619679332E+00 -0.76908755242E+02 -0.60752181050E+03  0.61237075637E+03  0.00000000000E+00 0. -1.
<mgrwt>
<rscale>  0 0.47126407E+02</rscale>
<asrwt>0</asrwt>
<pdfrwt beam="1">  1        2 0.78407928E-01 0.28884041E+02</pdfrwt>
<pdfrwt beam="2">  1        2 0.12592406E+00 0.76890150E+02</pdfrwt>
<totfact> 0.35369209E+02</totfact>
</mgrwt>
</event>
<event>
13    1  0.1589573E-008  0.1774903E+03  0.7546771E-02  0.1302430E+00
          2   -1    0    0  503    0  0.00000000000E+00  0.00000000000E+00  0.11121342970E+04  0.11121342970E+04  0.00000000000E+00 0. -1.
          2   -1    0    0  502    0 -0.00000000000E+00 -0.00000000000E+00 -0.36377239718E+04  0.36377239718E+04  0.00000000000E+00 0. -1.
         24    2    1    2    0    0 -0.14301659516E+02 -0.32017348621E+02 -0.61129726912E+03  0.61763748472E+03  0.81006562796E+02 0.  0.
         25    2    1    2    0    0  0.15683029051E+03  0.11118576371E+03  0.12248616945E+03  0.25997282016E+03  0.12499996576E+03 0.  0.
         24    2    1    2    0    0  0.14826465688E+02 -0.16009096399E+03  0.59019002545E+03  0.61763073544E+03  0.85407952641E+02 0.  0.
        -11    1    5    5    0    0 -0.60809941762E+01 -0.15836832725E+03  0.48079404108E+03  0.50624145969E+03  0.00000000000E+00 0.  1.
         12    1    5    5    0    0  0.20907459864E+02 -0.17226367405E+01  0.10939598437E+03  0.11138927575E+03  0.00000000000E+00 0. -1.
        -11    1    3    3    0    0 -0.12320335615E+02  0.19677757845E+02 -0.67421017704E+02  0.71306370344E+02  0.00000000000E+00 0.  1.
         12    1    3    3    0    0 -0.19813239008E+01 -0.51695106465E+02 -0.54387625142E+03  0.54633111438E+03  0.00000000000E+00 0. -1.
          5    1    4    4  501    0  0.16177604971E+03  0.53787109436E+02  0.80887220338E+02  0.18875745234E+03  0.47000000000E+01 0. -1.
         -5    1    4    4    0  501 -0.49457591927E+01  0.57398654272E+02  0.41598949110E+02  0.71215367817E+02  0.47000000000E+01 0. -1.
          1    1    1    2  502    0 -0.22050163846E+02 -0.40157827918E+02 -0.29143347956E+04  0.29146948660E+04  0.00000000000E+00 0. -1.
          1    1    1    2  503    0 -0.13530493284E+03  0.12108037682E+03  0.28736619498E+03  0.33992236249E+03  0.00000000000E+00 0. -1.
<mgrwt>
<rscale>  0 0.90174393E+02</rscale>
<asrwt>0</asrwt>
<pdfrwt beam="1">  1        2 0.16354916E+00 0.17749030E+03</pdfrwt>
<pdfrwt beam="2">  1        2 0.53495940E+00 0.45813326E+02</pdfrwt>
<totfact> 0.56295996E+00</totfact>
</mgrwt>
</event>
<event>
13    1  0.1589573E-008  0.9162935E+02  0.7546771E-02  0.1390183E+00
         -3   -1    0    0    0  501 -0.00000000000E+00  0.00000000000E+00  0.53725468660E+02  0.53725468660E+02  0.00000000000E+00 0.  1.
          2   -1    0    0  503    0  0.00000000000E+00 -0.00000000000E+00 -0.16139655632E+04  0.16139655632E+04  0.00000000000E+00 0. -1.
         24    2    1    2    0    0 -0.17709315511E+02 -0.13647967818E+02 -0.12468524810E+03  0.15049542375E+03  0.81256228029E+02 0.  0.
         25    2    1    2    0    0 -0.32474426147E+02  0.97777164749E+02 -0.36703616828E+03  0.40119425753E+03  0.12500528447E+03 0.  0.
         24    2    1    2    0    0 -0.41746393530E+02 -0.49981819810E+01 -0.78118894663E+03  0.78646912524E+03  0.80683154533E+02 0.  0.
        -11    1    3    3    0    0 -0.39736619786E+02 -0.19660537400E+02 -0.31074425896E+02  0.54140148020E+02  0.00000000000E+00 0.  1.
         12    1    3    3    0    0  0.22027304275E+02  0.60125695816E+01 -0.93610822208E+02  0.96355275730E+02  0.00000000000E+00 0. -1.
        -11    1    5    5    0    0  0.14611150184E+02  0.59555118123E+01 -0.39113036395E+02  0.42175626215E+02  0.00000000000E+00 0.  1.
         12    1    5    5    0    0 -0.56357543714E+02 -0.10953693793E+02 -0.74207591023E+03  0.74429349902E+03  0.00000000000E+00 0. -1.
          5    1    4    4  502    0 -0.45975799356E+02  0.79059730360E+02 -0.11021632189E+03  0.14329669466E+03  0.47000000000E+01 0.  1.
         -5    1    4    4    0  502  0.13501373210E+02  0.18717434389E+02 -0.25681984640E+03  0.25789756287E+03  0.47000000000E+01 0.  1.
          1    1    1    2  503    0 -0.12115111885E+02 -0.39968071446E+02 -0.13248672054E+03  0.13891347592E+03  0.00000000000E+00 0. -1.
         -4    1    1    2    0  501  0.10404524707E+03 -0.39162943503E+02 -0.15484301098E+03  0.19061874942E+03  0.00000000000E+00 0.  1.
<mgrwt>
<rscale>  0 0.61861120E+02</rscale>
<asrwt>0</asrwt>
<pdfrwt beam="2">  1        2 0.23734791E+00 0.41763892E+02</pdfrwt>
<pdfrwt beam="1">  1       -3 0.79008032E-02 0.91629348E+02</pdfrwt>
<totfact> 0.93178757E+02</totfact>
</mgrwt>
</event>
<event>
13    1  0.2567607E-008  0.9358627E+02  0.7546771E-02  0.1443355E+00
          4   -1    0    0  503    0 -0.00000000000E+00  0.00000000000E+00  0.80660292486E+02  0.80660292486E+02  0.00000000000E+00 0. -1.
          2   -1    0    0  502    0  0.00000000000E+00 -0.00000000000E+00 -0.40009376956E+04  0.40009376956E+04  0.00000000000E+00 0. -1.
         24    2    1    2    0    0 -0.10985241686E+03  0.99946679466E+02 -0.12962392063E+04  0.13071327093E+04  0.79391104983E+02 0.  0.
         25    2    1    2    0    0  0.10072247160E+03 -0.19433026693E+03 -0.48751159137E+03  0.54881710915E+03  0.12499359443E+03 0.  0.
         24    2    1    2    0    0  0.22198101520E+02  0.19919122213E+02 -0.42782463506E+03  0.43624734835E+03  0.79926863051E+02 0.  0.
        -11    1    5    5    0    0 -0.26020741411E+02 -0.10158677069E+02 -0.11873445005E+03  0.12197601130E+03  0.00000000000E+00 0.  1.
         12    1    5    5    0    0  0.48218842931E+02  0.30077799281E+02 -0.30909018500E+03  0.31427133705E+03  0.00000000000E+00 0. -1.
        -11    1    3    3    0    0  0.12301334846E+02  0.14031460395E+02 -0.17483654798E+03  0.17582952888E+03  0.00000000000E+00 0.  1.
         12    1    3    3    0    0 -0.12215375171E+03  0.85915219071E+02 -0.11214026584E+04  0.11313031804E+04  0.00000000000E+00 0. -1.
          5    1    4    4  501    0  0.10044637813E+02 -0.30248803829E+02 -0.69457693966E+01  0.32957830548E+02  0.47000000000E+01 0.  1.
         -5    1    4    4    0  501  0.90677833788E+02 -0.16408146310E+03 -0.48056582197E+03  0.51585927860E+03  0.47000000000E+01 0.  1.
          1    1    1    2  502    0 -0.33687971624E+02  0.92065566206E+02 -0.17429591759E+04  0.17457140765E+04  0.00000000000E+00 0. -1.
          3    1    1    2  503    0  0.20619815365E+02 -0.17601100958E+02  0.34257205532E+02  0.43686744803E+02  0.00000000000E+00 0. -1.
<mgrwt>
<rscale>  0 0.50370271E+02</rscale>
<asrwt>0</asrwt>
<pdfrwt beam="2">  1        2 0.58837335E+00 0.93586268E+02</pdfrwt>
<pdfrwt beam="1">  1        4 0.11861804E-01 0.27110432E+02</pdfrwt>
<totfact> 0.16258867E+01</totfact>
</mgrwt>
</event>
<event>
13    1  0.1589573E-008  0.1132642E+03  0.7546771E-02  0.1323557E+00
          2   -1    0    0  502    0  0.00000000000E+00  0.00000000000E+00  0.35046812541E+04  0.35046812541E+04  0.00000000000E+00 0. -1.
          2   -1    0    0  503    0 -0.00000000000E+00 -0.00000000000E+00 -0.65792082759E+03  0.65792082759E+03  0.00000000000E+00 0. -1.
         24    2    1    2    0    0 -0.50651728223E+02  0.93517696190E+02  0.42028498160E+03  0.44080547457E+03  0.79742357504E+02 0.  0.
         25    2    1    2    0    0 -0.10505278864E+03  0.44889525474E+02  0.82891665937E+03  0.84603742190E+03  0.12500133267E+03 0.  0.
         24    2    1    2    0    0  0.11920629106E+02 -0.94556460588E+02  0.93031120276E+02  0.15503317838E+03  0.79356609186E+02 0.  0.
        -11    1    5    5    0    0 -0.13843880716E+02 -0.54785870807E+02  0.91596518550E+02  0.10762465742E+03  0.00000000000E+00 0.  1.
         12    1    5    5    0    0  0.25764509822E+02 -0.39770589781E+02  0.14346017264E+01  0.47408520964E+02  0.00000000000E+00 0. -1.
        -13    1    3    3    0    0  0.18900518883E+02  0.47065740515E+01  0.78775939531E+02  0.81148198392E+02  0.00000000000E+00 0.  1.
         14    1    3    3    0    0 -0.69552247106E+02  0.88811122138E+02  0.34150904207E+03  0.35965727618E+03  0.00000000000E+00 0. -1.
          5    1    4    4  501    0 -0.77347219173E+02  0.71533180455E+02  0.75742600730E+03  0.76473252497E+03  0.47000000000E+01 0. -1.
         -5    1    4    4    0  501 -0.27705569463E+02 -0.26643654981E+02  0.71490652072E+02  0.81304896923E+02  0.47000000000E+01 0. -1.
          1    1    1    2  502    0  0.53864421142E+02  0.24848416402E+02  0.21069413843E+04  0.21077762729E+04  0.00000000000E+00 0. -1.
          1    1    1    2  503    0  0.89919466611E+02 -0.68699177477E+02 -0.60241371905E+03  0.61294973396E+03  0.00000000000E+00 0. -1.
<mgrwt>
<rscale>  0 0.81968247E+02</rscale>
<asrwt>0</asrwt>
<pdfrwt beam="1">  1        2 0.51539430E+00 0.59319640E+02</pdfrwt>
<pdfrwt beam="2">  1        2 0.96753064E-01 0.11326423E+03</pdfrwt>
<totfact> 0.12646852E+01</totfact>
</mgrwt>
</event>
<event>
13    1  0.1589573E-008  0.1119495E+03  0.7546771E-02  0.1327766E+00
          2   -1    0    0  503    0  0.00000000000E+00  0.00000000000E+00  0.88752469444E+03  0.88752469444E+03  0.00000000000E+00 0. -1.
         -1   -1    0    0    0  501 -0.00000000000E+00 -0.00000000000E+00 -0.21395591950E+04  0.21395591950E+04  0.00000000000E+00 0.  1.
         24    2    1    2    0    0 -0.62321524619E+02  0.37692310177E+02 -0.38541678135E+03  0.40019566245E+03  0.79409005880E+02 0.  0.
         25    2    1    2    0    0 -0.55075940413E+02  0.12665245067E+03  0.24443290520E+03  0.30732556356E+03  0.12500941725E+03 0.  0.
         24    2    1    2    0    0 -0.20172142546E+02  0.21659896682E+02 -0.20198514453E+03  0.21872173322E+03  0.78518351440E+02 0.  0.
        -11    1    3    3    0    0 -0.14753811131E+02  0.53925720265E+02 -0.16853290825E+03  0.17756407128E+03  0.00000000000E+00 0.  1.
         12    1    3    3    0    0 -0.47567713488E+02 -0.16233410088E+02 -0.21688387311E+03  0.22263159116E+03  0.00000000000E+00 0. -1.
        -13    1    5    5    0    0  0.21099320072E+01 -0.21603319992E+02 -0.13019578447E+03  0.13199279352E+03  0.00000000000E+00 0.  1.
         14    1    5    5    0    0 -0.22282074553E+02  0.43263216674E+02 -0.71789360055E+02  0.86728939695E+02  0.00000000000E+00 0. -1.
          5    1    4    4  502    0 -0.78670969254E+01  0.13012199193E+03  0.13362522253E+03  0.18673889282E+03  0.47000000000E+01 0. -1.
         -5    1    4    4    0  502 -0.47208843487E+02 -0.34695412627E+01  0.11080768267E+03  0.12058667074E+03  0.47000000000E+01 0. -1.
          1    1    1    2  503    0  0.29581791478E+02 -0.49679875727E+02  0.58944408035E+03  0.59227316021E+03  0.00000000000E+00 0. -1.
         -2    1    1    2    0  501  0.10798781610E+03 -0.13632478180E+03 -0.14985095602E+04  0.15085677700E+04  0.00000000000E+00 0.  1.
<mgrwt>
<rscale>  0 0.80454574E+02</rscale>
<asrwt>0</asrwt>
<pdfrwt beam="1">  1        2 0.13051834E+00 0.57820173E+02</pdfrwt>
<pdfrwt beam="2">  1       -1 0.31464106E+00 0.11194948E+03</pdfrwt>
<totfact> 0.14155855E+00</totfact>
</mgrwt>
</event>
<event>
13    1  0.1589573E-008  0.7016220E+02  0.7546771E-02  0.1482282E+00
          2   -1    0    0  502    0  0.00000000000E+00  0.00000000000E+00  0.23238707111E+04  0.23238707111E+04  0.00000000000E+00 0. -1.
          4   -1    0    0  503    0 -0.00000000000E+00 -0.00000000000E+00 -0.49022654160E+03  0.49022654160E+03  0.00000000000E+00 0. -1.
         24    2    1    2    0    0  0.58633770771E+02  0.69618785053E+02  0.19022841401E+02  0.12267521967E+03  0.80016540290E+02 0.  0.
         25    2    1    2    0    0 -0.19827493174E+03 -0.14301514637E+03  0.47023240503E+03  0.54452771535E+03  0.12500254958E+03 0.  0.
         24    2    1    2    0    0  0.89342054885E+02  0.74330518018E+02  0.60278842795E+02  0.15262456224E+03  0.78445455128E+02 0.  0.
        -11    1    3    3    0    0  0.25276565592E+02  0.76021812275E+02  0.32063248770E+02  0.86291787740E+02  0.00000000000E+00 0.  1.
         12    1    3    3    0    0  0.33357205179E+02 -0.64030272220E+01 -0.13040407368E+02  0.36383431934E+02  0.00000000000E+00 0. -1.
        -11    1    5    5    0    0  0.38179486013E+01 -0.12655790545E+02 -0.51632226686E+01  0.14191710051E+02  0.00000000000E+00 0.  1.
         12    1    5    5    0    0  0.85524106284E+02  0.86986308563E+02  0.65442065463E+02  0.13843285219E+03  0.00000000000E+00 0. -1.
          5    1    4    4  501    0 -0.14488371571E+02 -0.29504044827E+02  0.77991940343E+01  0.34107462520E+02  0.47000000000E+01 0.  1.
         -5    1    4    4    0  501 -0.18378656017E+03 -0.11351110155E+03  0.46243321099E+03  0.51042025283E+03  0.47000000000E+01 0.  1.
          1    1    1    2  502    0 -0.16932027343E+02 -0.21394426594E+02  0.16355978888E+04  0.16358254396E+04  0.00000000000E+00 0. -1.
          3    1    1    2  503    0  0.67231133429E+02  0.20460269897E+02 -0.35148780856E+03  0.35844431578E+03  0.00000000000E+00 0. -1.
<mgrwt>
<rscale>  0 0.43752753E+02</rscale>
<asrwt>0</asrwt>
<pdfrwt beam="1">  1        2 0.34174569E+00 0.27283970E+02</pdfrwt>
<pdfrwt beam="2">  1        4 0.72092140E-01 0.70162201E+02</pdfrwt>
<totfact> 0.67171021E+00</totfact>
</mgrwt>
</event>
<event>
13    1  0.1589573E-008  0.1191000E+03  0.7546771E-02  0.1381337E+00
          2   -1    0    0  502    0  0.00000000000E+00  0.00000000000E+00  0.79115653191E+03  0.79115653191E+03  0.00000000000E+00 0. -1.
          4   -1    0    0  503    0 -0.00000000000E+00 -0.00000000000E+00 -0.71178529303E+03  0.71178529303E+03  0.00000000000E+00 0. -1.
         24    2    1    2    0    0  0.78321920155E+02 -0.14433889263E+03  0.89423387711E+00  0.18334661512E+03  0.81530009916E+02 0.  0.
         25    2    1    2    0    0  0.78435287820E+02  0.49386487214E+02  0.17538635912E+02  0.15659844823E+03  0.12499740295E+03 0.  0.
         24    2    1    2    0    0 -0.20335214351E+03 -0.23706783791E+02  0.35756962962E+03  0.41965754798E+03  0.79638631837E+02 0.  0.
        -11    1    3    3    0    0  0.71564599677E+02 -0.15319653583E+03 -0.77199204556E+01  0.16926389954E+03  0.00000000000E+00 0.  1.
         12    1    3    3    0    0  0.67573204778E+01  0.88576431958E+01  0.86141543327E+01  0.14082715572E+02  0.00000000000E+00 0. -1.
        -11    1    5    5    0    0 -0.29516282784E+02  0.84367181773E+01  0.15009115683E+02  0.34171080120E+02  0.00000000000E+00 0.  1.
         12    1    5    5    0    0 -0.17383586072E+03 -0.32143501969E+02  0.34256051394E+03  0.38548646786E+03  0.00000000000E+00 0. -1.
          5    1    4    4  501    0  0.47602359194E+01  0.73740337496E+02  0.25830435681E+02  0.78419376607E+02  0.47000000000E+01 0. -1.
         -5    1    4    4    0  501  0.73675051900E+02 -0.24353850282E+02 -0.82917997687E+01  0.78179071621E+02  0.47000000000E+01 0. -1.
          1    1    1    2  502    0  0.34512690092E+02  0.21883239442E+00  0.21514588571E+03  0.21789659429E+03  0.00000000000E+00 0. -1.
          3    1    1    2  503    0  0.12082245441E+02  0.11844035682E+03 -0.51177714624E+03  0.52544261932E+03  0.00000000000E+00 0. -1.
<mgrwt>
<rscale>  0 0.64113513E+02</rscale>
<asrwt>0</asrwt>
<pdfrwt beam="1">  1        2 0.11634655E+00 0.34513384E+02</pdfrwt>
<pdfrwt beam="2">  1        4 0.10467431E+00 0.11909996E+03</pdfrwt>
<totfact> 0.16274915E+01</totfact>
</mgrwt>
</event>
<event>
13    1  0.1589573E-008  0.6686149E+02  0.7546771E-02  0.1412065E+00
          2   -1    0    0  503    0  0.00000000000E+00  0.00000000000E+00  0.32381612216E+04  0.32381612216E+04  0.00000000000E+00 0. -1.
         -3   -1    0    0    0  501 -0.00000000000E+00 -0.00000000000E+00 -0.17069775157E+03  0.17069775157E+03  0.00000000000E+00 0.  1.
         24    2    1    2    0    0  0.76992626094E+02  0.13613796564E+03  0.19358649218E+03  0.25927581260E+03  0.72710431724E+02 0.  0.
         25    2    1    2    0    0 -0.17724306182E+03 -0.23632332917E+03  0.43724557844E+03  0.54228041285E+03  0.12498212442E+03 0.  0.
         24    2    1    2    0    0  0.11752412545E+01  0.47093612271E+02 -0.18952594346E+02  0.94126997260E+02  0.79255922631E+02 0.  0.
        -11    1    3    3    0    0  0.75615487067E+02  0.14056517669E+03  0.19698021237E+03  0.25353002751E+03  0.00000000000E+00 0.  1.
         12    1    3    3    0    0  0.13771390275E+01 -0.44272110466E+01 -0.33937201924E+01  0.57457850897E+01  0.00000000000E+00 0. -1.
        -13    1    5    5    0    0 -0.24162133704E+00 -0.21425774991E+02  0.41076788040E+01  0.21817315141E+02  0.00000000000E+00 0.  1.
         14    1    5    5    0    0  0.14168625915E+01  0.68519387262E+02 -0.23060273150E+02  0.72309682119E+02  0.00000000000E+00 0. -1.
          5    1    4    4  502    0 -0.16007364340E+03 -0.12056915123E+03  0.23805670601E+03  0.31121307301E+03  0.47000000000E+01 0.  1.
         -5    1    4    4    0  502 -0.17169418419E+02 -0.11575417794E+03  0.19918887243E+03  0.23106733983E+03  0.47000000000E+01 0.  1.
          1    1    1    2  503    0  0.44455489608E+02  0.18479021200E+02  0.24475405889E+04  0.24480140317E+04  0.00000000000E+00 0. -1.
         -4    1    1    2    0  501  0.54619704860E+02  0.34612730052E+02  0.80434048761E+01  0.65161718844E+02  0.00000000000E+00 0.  1.
<mgrwt>
<rscale>  0 0.56735561E+02</rscale>
<asrwt>0</asrwt>
<pdfrwt beam="1">  1        2 0.47620014E+00 0.48143170E+02</pdfrwt>
<pdfrwt beam="2">  1       -3 0.25102613E-01 0.66861487E+02</pdfrwt>
<totfact> 0.20621202E+01</totfact>
</mgrwt>
</event>
<event>
13    1  0.1589573E-008  0.1188165E+03  0.7546771E-02  0.1390576E+00
         -1   -1    0    0    0  501 -0.00000000000E+00  0.00000000000E+00  0.15469049859E+04  0.15469049859E+04  0.00000000000E+00 0.  1.
          2   -1    0    0  503    0  0.00000000000E+00 -0.00000000000E+00 -0.50635329989E+04  0.50635329989E+04  0.00000000000E+00 0. -1.
         24    2    1    2    0    0 -0.36187521429E+03 -0.33739226386E+01  0.59828706404E+03  0.70320586987E+03  0.74739750835E+02 0.  0.
         25    2    1    2    0    0  0.89102037852E+02 -0.39598744529E+01 -0.11235267645E+04  0.11339700313E+04  0.12498314899E+03 0.  0.
         24    2    1    2    0    0  0.31840911918E+03  0.99844401960E+02 -0.17471558458E+04  0.17805792874E+04  0.80967756453E+02 0.  0.
        -11    1    3    3    0    0 -0.17651281956E+03 -0.37075221249E+02  0.27008000386E+03  0.32476846519E+03  0.00000000000E+00 0.  1.
         12    1    3    3    0    0 -0.18536239473E+03  0.33701298610E+02  0.32820706018E+03  0.37843740468E+03  0.00000000000E+00 0. -1.
        -13    1    5    5    0    0  0.13754133009E+03  0.13115507866E+02 -0.86014428265E+03  0.87117037427E+03  0.00000000000E+00 0.  1.
         14    1    5    5    0    0  0.18086778908E+03  0.86728894094E+02 -0.88701156313E+03  0.90940891316E+03  0.00000000000E+00 0. -1.
          5    1    4    4  502    0  0.18552249788E+02 -0.40925621858E+02 -0.77967796756E+03  0.78098586133E+03  0.47000000000E+01 0.  1.
         -5    1    4    4    0  502  0.70549788064E+02  0.36965747405E+02 -0.34384879695E+03  0.35298416996E+03  0.47000000000E+01 0.  1.
          1    1    1    2  503    0 -0.21490385514E+02  0.23853234536E+02 -0.21142963124E+04  0.21145400706E+04  0.00000000000E+00 0. -1.
         -2    1    1    2    0  501 -0.24145557230E+02 -0.11636383940E+03  0.87006384567E+03  0.87814272564E+03  0.00000000000E+00 0.  1.
<mgrwt>
<rscale>  0 0.61763724E+02</rscale>
<asrwt>0</asrwt>
<pdfrwt beam="2">  1        2 0.74463720E+00 0.32106284E+02</pdfrwt>
<pdfrwt beam="1">  1       -1 0.22748603E+00 0.11881654E+03</pdfrwt>
<totfact> 0.19442314E-02</totfact>
</mgrwt>
</event>
<event>
13    1  0.1589573E-008  0.1768828E+03  0.7546771E-02  0.1290466E+00
          2   -1    0    0  503    0  0.00000000000E+00  0.00000000000E+00  0.87518319880E+03  0.87518319880E+03  0.00000000000E+00 0. -1.
          2   -1    0    0  502    0 -0.00000000000E+00 -0.00000000000E+00 -0.28113560861E+04  0.28113560861E+04  0.00000000000E+00 0. -1.
         24    2    1    2    0    0  0.24446852878E+03  0.19763546261E+03 -0.16432296104E+04  0.16749058105E+04  0.79254551590E+02 0.  0.
         25    2    1    2    0    0 -0.52048411002E+02 -0.41607443754E+02  0.31917423604E+03  0.34919532409E+03  0.12499985981E+03 0.  0.
         24    2    1    2    0    0 -0.22506536750E+03 -0.14886852684E+02 -0.27274896345E+03  0.36301986964E+03  0.80717969865E+02 0.  0.
        -11    1    5    5    0    0  0.23286418285E+01  0.12316436620E+01 -0.29608720376E+02  0.29725676463E+02  0.00000000000E+00 0.  1.
         12    1    5    5    0    0 -0.22739400933E+03 -0.16118496346E+02 -0.24314024308E+03  0.33329419318E+03  0.00000000000E+00 0. -1.
        -11    1    3    3    0    0  0.62468661750E+01 -0.18774862470E+01 -0.12677891737E+03  0.12694661154E+03  0.00000000000E+00 0.  1.
         12    1    3    3    0    0  0.23822166261E+03  0.19951294886E+03 -0.15164506930E+04  0.15479591989E+04  0.00000000000E+00 0. -1.
          5    1    4    4  501    0  0.30462819055E+02  0.16373571373E+02  0.13193660802E+03  0.13647503699E+03  0.47000000000E+01 0. -1.
         -5    1    4    4    0  501 -0.82511230058E+02 -0.57981015127E+02  0.18723762802E+03  0.21272028711E+03  0.47000000000E+01 0. -1.
          1    1    1    2  502    0  0.80004147609E+02 -0.16102129665E+03 -0.80811014109E+03  0.82787107797E+03  0.00000000000E+00 0. -1.
          1    1    1    2  503    0 -0.47358897887E+02  0.19880130474E+02  0.46874159153E+03  0.47154720275E+03  0.00000000000E+00 0. -1.
<mgrwt>
<rscale>  0 0.95315828E+02</rscale>
<asrwt>0</asrwt>
<pdfrwt beam="1">  1        2 0.12870341E+00 0.51362290E+02</pdfrwt>
<pdfrwt beam="2">  1        2 0.41343472E+00 0.17688283E+03</pdfrwt>
<totfact> 0.18716891E+01</totfact>
</mgrwt>
</event>
<event>
13    1  0.1589573E-008  0.1972999E+03  0.7546771E-02  0.1344544E+00
          2   -1    0    0  503    0  0.00000000000E+00  0.00000000000E+00  0.21967068097E+04  0.21967068097E+04  0.00000000000E+00 0. -1.
          2   -1    0    0  502    0 -0.00000000000E+00 -0.00000000000E+00 -0.20402140542E+04  0.20402140542E+04  0.00000000000E+00 0. -1.
         24    2    1    2    0    0  0.98309745909E+02  0.49334973853E+01 -0.23924550282E+03  0.27090997489E+03  0.80403099048E+02 0.  0.
         25    2    1    2    0    0 -0.14079838786E+03 -0.15129524040E+03  0.42765399569E+03  0.49114793082E+03  0.12499565644E+03 0.  0.
         24    2    1    2    0    0 -0.12404037723E+03  0.16836526239E+02  0.14153711373E+02  0.14958080200E+03  0.80651131318E+02 0.  0.
        -13    1    3    3    0    0 -0.11289410358E+02  0.12519876133E+02 -0.39464984092E+02  0.42914834894E+02  0.00000000000E+00 0.  1.
         14    1    3    3    0    0  0.10959915627E+03 -0.75863787476E+01 -0.19978051873E+03  0.22799514000E+03  0.00000000000E+00 0. -1.
        -13    1    5    5    0    0  0.87938942064E+01 -0.53016882442E+01  0.10757460216E+02  0.14871564270E+02  0.00000000000E+00 0.  1.
         14    1    5    5    0    0 -0.13283427143E+03  0.22138214483E+02  0.33962511573E+01  0.13470923773E+03  0.00000000000E+00 0. -1.
          5    1    4    4  501    0  0.17756126155E+02 -0.22108479463E+02  0.19921140868E+02  0.34971513174E+02  0.47000000000E+01 0. -1.
         -5    1    4    4    0  501 -0.15855451402E+03 -0.12918676094E+03  0.40773285482E+03  0.45617641765E+03  0.47000000000E+01 0. -1.
          1    1    1    2  502    0  0.17746082723E+03  0.15567757686E+03 -0.16772871587E+04  0.16938181915E+04  0.00000000000E+00 0. -1.
          1    1    1    2  503    0 -0.10931808052E+02 -0.26152360084E+02  0.16312177100E+04  0.16314639646E+04  0.00000000000E+00 0. -1.
<mgrwt>
<rscale>  0 0.74783058E+02</rscale>
<asrwt>0</asrwt>
<pdfrwt beam="1">  1        2 0.32304512E+00 0.28345200E+02</pdfrwt>
<pdfrwt beam="2">  1        2 0.30003148E+00 0.19729992E+03</pdfrwt>
<totfact> 0.10954052E+01</totfact>
</mgrwt>
</event>
<event>
13    1  0.1589573E-008  0.1669919E+03  0.7546771E-02  0.1314896E+00
          2   -1    0    0  503    0  0.00000000000E+00  0.00000000000E+00  0.34744824696E+04  0.34744824696E+04  0.00000000000E+00 0. -1.
          2   -1    0    0  502    0 -0.00000000000E+00 -0.00000000000E+00 -0.19435536454E+04  0.19435536454E+04  0.00000000000E+00 0. -1.
         24    2    1    2    0    0  0.16044890583E+03 -0.12779537767E+03 -0.60141420131E+03  0.64045852339E+03  0.80078515933E+02 0.  0.
         25    2    1    2    0    0  0.15702205668E+03  0.46559140884E+02  0.51365641531E+02  0.21233575747E+03  0.12499745952E+03 0.  0.
         24    2    1    2    0    0 -0.31711601995E+03  0.24530870700E+03 -0.17085227282E+03  0.44147416260E+03  0.70498264332E+02 0.  0.
        -11    1    5    5    0    0 -0.50458904961E+02  0.71804183764E+02 -0.51055918644E+02  0.10153151592E+03  0.00000000000E+00 0.  1.
         12    1    5    5    0    0 -0.26665711499E+03  0.17350452324E+03 -0.11979635418E+03  0.33994264668E+03  0.00000000000E+00 0. -1.
        -11    1    3    3    0    0  0.83983346516E+02 -0.19622033057E+02 -0.27429925518E+03  0.28753835930E+03  0.00000000000E+00 0.  1.
         12    1    3    3    0    0  0.76465559318E+02 -0.10817334462E+03 -0.32711494612E+03  0.35292016409E+03  0.00000000000E+00 0. -1.
          5    1    4    4  501    0  0.11454308324E+03  0.78248444114E+02  0.60376388749E+00  0.13879982513E+03  0.47000000000E+01 0. -1.
         -5    1    4    4    0  501  0.42478973437E+02 -0.31689303230E+02  0.50761877643E+02  0.73535932342E+02  0.47000000000E+01 0. -1.
          1    1    1    2  502    0  0.43048376681E+02 -0.16157444096E+03 -0.92835119277E+03  0.94328966909E+03  0.00000000000E+00 0. -1.
          1    1    1    2  503    0 -0.43403319240E+02 -0.24980292537E+01  0.31801808496E+04  0.31804780025E+04  0.00000000000E+00 0. -1.
<mgrwt>
<rscale>  0 0.85205614E+02</rscale>
<asrwt>0</asrwt>
<pdfrwt beam="1">  1        2 0.51095330E+00 0.43475145E+02</pdfrwt>
<pdfrwt beam="2">  1        2 0.28581671E+00 0.16699189E+03</pdfrwt>
<totfact> 0.26607011E+00</totfact>
</mgrwt>
</event>
<event>
13    1  0.1589573E-008  0.6235730E+02  0.7546771E-02  0.1388249E+00
          2   -1    0    0  502    0  0.00000000000E+00  0.00000000000E+00  0.14064114732E+04  0.14064114732E+04  0.00000000000E+00 0. -1.
          2   -1    0    0  503    0 -0.00000000000E+00 -0.00000000000E+00 -0.34379662398E+04  0.34379662398E+04  0.00000000000E+00 0. -1.
         24    2    1    2    0    0  0.62871197961E+03 -0.93287845350E+03 -0.82427373309E+03  0.13968625898E+04  0.79100855990E+02 0.  0.
         25    2    1    2    0    0 -0.19010606202E+03 -0.79346319501E+02  0.15336639988E+03  0.28562458981E+03  0.12499600178E+03 0.  0.
         24    2    1    2    0    0 -0.44613472711E+03  0.98702775554E+03 -0.29174421058E+03  0.11267223153E+04  0.10549173643E+03 0.  0.
        -11    1    3    3    0    0  0.20531316706E+03 -0.24464688546E+03 -0.24852100774E+03  0.40468294555E+03  0.00000000000E+00 0.  1.
         12    1    3    3    0    0  0.42339881255E+03 -0.68823156804E+03 -0.57575272535E+03  0.99217964425E+03  0.00000000000E+00 0. -1.
        -13    1    5    5    0    0 -0.28266164226E+03  0.59770268297E+03 -0.22970616861E+03  0.69993644364E+03  0.00000000000E+00 0.  1.
         14    1    5    5    0    0 -0.16347308484E+03  0.38932507257E+03 -0.62038041973E+02  0.42678587166E+03  0.00000000000E+00 0. -1.
          5    1    4    4  501    0 -0.15057595771E+03 -0.63878486788E+01  0.13052380029E+03  0.19943037906E+03  0.47000000000E+01 0. -1.
         -5    1    4    4    0  501 -0.39530104313E+02 -0.72958470822E+02  0.22842599590E+02  0.86194210756E+02  0.47000000000E+01 0. -1.
          1    1    1    2  502    0 -0.54632774986E+02  0.30133656426E+02  0.48048837785E+03  0.48452229939E+03  0.00000000000E+00 0. -1.
          1    1    1    2  503    0  0.62161584505E+02 -0.49366389621E+01 -0.15493916007E+04  0.15506459187E+04  0.00000000000E+00 0. -1.
<mgrwt>
<rscale>  0 0.62344366E+02</rscale>
<asrwt>0</asrwt>
<pdfrwt beam="1">  1        2 0.20682522E+00 0.62331434E+02</pdfrwt>
<pdfrwt beam="2">  1        2 0.50558327E+00 0.62357301E+02</pdfrwt>
<totfact> 0.51785635E+00</totfact>
</mgrwt>
</event>
<event>
13    1  0.1589573E-008  0.2017425E+03  0.7546771E-02  0.1335453E+00
          2   -1    0    0  503    0  0.00000000000E+00  0.00000000000E+00  0.28813053596E+04  0.28813053596E+04  0.00000000000E+00 0. -1.
          2   -1    0    0  502    0 -0.00000000000E+00 -0.00000000000E+00 -0.21669735869E+04  0.21669735869E+04  0.00000000000E+00 0. -1.
         24    2    1    2    0    0  0.79028528067E+02  0.24212167138E+02  0.16909413430E+03  0.20563254573E+03  0.82826205530E+02 0.  0.
         25    2    1    2    0    0 -0.79139979511E+02 -0.20303927643E+03  0.97493079248E+03  0.10067781681E+04  0.12499658207E+03 0.  0.
         24    2    1    2    0    0  0.91569126065E+02 -0.19988144950E+02  0.16311772637E+03  0.20412752404E+03  0.79222614368E+02 0.  0.
        -11    1    3    3    0    0  0.18545329814E+02  0.48414933137E+02  0.72991931006E+02  0.89530760081E+02  0.00000000000E+00 0.  1.
         12    1    3    3    0    0  0.60483198252E+02 -0.24202765999E+02  0.96102203297E+02  0.11610178565E+03  0.00000000000E+00 0. -1.
        -11    1    5    5    0    0  0.10970133081E+02  0.27195764109E+02  0.39531971653E+02  0.49221237165E+02  0.00000000000E+00 0.  1.
         12    1    5    5    0    0  0.80598992984E+02 -0.47183909059E+02  0.12358575472E+03  0.15490628687E+03  0.00000000000E+00 0. -1.
          5    1    4    4  501    0  0.21350671078E+02 -0.19488052755E+02  0.45805555342E+02  0.54367952471E+02  0.47000000000E+01 0.  1.
         -5    1    4    4    0  501 -0.10049065059E+03 -0.18355122367E+03  0.92912523714E+03  0.95241021564E+03  0.47000000000E+01 0.  1.
          1    1    1    2  502    0 -0.10553811446E+03  0.17233333398E+03 -0.21072936753E+04  0.21169609599E+04  0.00000000000E+00 0. -1.
          1    1    1    2  503    0  0.14080439837E+02  0.26481920256E+02  0.15144827949E+04  0.15147797487E+04  0.00000000000E+00 0. -1.
<mgrwt>
<rscale>  0 0.77786662E+02</rscale>
<asrwt>0</asrwt>
<pdfrwt beam="1">  1        2 0.42372137E+00 0.29992514E+02</pdfrwt>
<pdfrwt beam="2">  1        2 0.31867259E+00 0.20174250E+03</pdfrwt>
<totfact> 0.44599114E+00</totfact>
</mgrwt>
</event>
<event>
13    1  0.1589573E-008  0.1371951E+03  0.7546771E-02  0.1287470E+00
          2   -1    0    0  502    0  0.00000000000E+00  0.00000000000E+00  0.17320570307E+04  0.17320570307E+04  0.00000000000E+00 0. -1.
          2   -1    0    0  503    0 -0.00000000000E+00 -0.00000000000E+00 -0.38763195782E+04  0.38763195782E+04  0.00000000000E+00 0. -1.
         24    2    1    2    0    0 -0.22629433026E+03 -0.10961421192E+03 -0.11979349759E+03  0.28965463810E+03  0.79529415599E+02 0.  0.
         25    2    1    2    0    0  0.34973968265E+03  0.23419072010E+03 -0.97564451629E+02  0.44978491227E+03  0.12499802432E+03 0.  0.
         24    2    1    2    0    0  0.26432182885E+02 -0.30331218981E+02 -0.54664149442E+02  0.10575704772E+03  0.81103272256E+02 0.  0.
        -11    1    3    3    0    0 -0.12924921061E+03 -0.20093912493E+02 -0.47722257968E+02  0.13923554743E+03  0.00000000000E+00 0.  1.
         12    1    3    3    0    0 -0.97045119650E+02 -0.89520299427E+02 -0.72071239626E+02  0.15041909067E+03  0.00000000000E+00 0. -1.
        -13    1    5    5    0    0 -0.17240165493E+02 -0.34192503365E+02 -0.48011978879E+02  0.61412545204E+02  0.00000000000E+00 0.  1.
         14    1    5    5    0    0  0.43672348378E+02  0.38612843836E+01 -0.66521705634E+01  0.44344502513E+02  0.00000000000E+00 0. -1.
          5    1    4    4  501    0  0.22362487864E+03  0.20395570991E+03 -0.31996523196E+02  0.30438772223E+03  0.47000000000E+01 0. -1.
         -5    1    4    4    0  501  0.12611480401E+03  0.30235010194E+02 -0.65567928433E+02  0.14539719004E+03  0.47000000000E+01 0. -1.
          1    1    1    2  502    0 -0.83317665360E+02 -0.10868422271E+03  0.14418755144E+04  0.14483642818E+04  0.00000000000E+00 0. -1.
          1    1    1    2  503    0 -0.66559869916E+02  0.14438933507E+02 -0.33141159633E+04  0.33148157290E+04  0.00000000000E+00 0. -1.
<mgrwt>
<rscale>  0 0.96664791E+02</rscale>
<asrwt>0</asrwt>
<pdfrwt beam="1">  1        2 0.25471427E+00 0.13719508E+03</pdfrwt>
<pdfrwt beam="2">  1        2 0.57004699E+00 0.68107996E+02</pdfrwt>
<totfact> 0.18010077E+00</totfact>
</mgrwt>
</event>
<event>
13    1  0.1589573E-008  0.1169133E+03  0.7546771E-02  0.1356105E+00
          2   -1    0    0  503    0  0.00000000000E+00  0.00000000000E+00  0.94798393454E+03  0.94798393454E+03  0.00000000000E+00 0. -1.
          2   -1    0    0  502    0 -0.00000000000E+00 -0.00000000000E+00 -0.10900508466E+04  0.10900508466E+04  0.00000000000E+00 0. -1.
         24    2    1    2    0    0 -0.35315366151E+02  0.92522992643E+02 -0.91304367362E+02  0.16692066254E+03  0.98581645492E+02 0.  0.
         25    2    1    2    0    0 -0.15061700576E+03 -0.17021921768E+03 -0.39406551217E+02  0.26236626275E+03  0.12499246001E+03 0.  0.
         24    2    1    2    0    0  0.24172707176E+03  0.21852411997E+03  0.56702539203E+03  0.65885110841E+03  0.79888795264E+02 0.  0.
        -13    1    3    3    0    0 -0.16711157960E+02  0.92279782562E+02 -0.23597653363E+02  0.96704034633E+02  0.00000000000E+00 0.  1.
         14    1    3    3    0    0 -0.18604208190E+02  0.24321008080E+00 -0.67706713998E+02  0.70216627902E+02  0.00000000000E+00 0. -1.
        -13    1    5    5    0    0  0.93580994053E+02  0.79821458137E+02  0.29374680282E+03  0.31845886986E+03  0.00000000000E+00 0.  1.
         14    1    5    5    0    0  0.14814607771E+03  0.13870266183E+03  0.27327858922E+03  0.34039223855E+03  0.00000000000E+00 0. -1.
          5    1    4    4  501    0 -0.87038696747E+02 -0.78632474794E+02  0.41522118814E+02  0.12451898319E+03  0.47000000000E+01 0.  1.
         -5    1    4    4    0  501 -0.63578309014E+02 -0.91586742886E+02 -0.80928670030E+02  0.13784727956E+03  0.47000000000E+01 0.  1.
          1    1    1    2  502    0 -0.63220315615E+02 -0.98124618496E+02 -0.75707536250E+03  0.76602111823E+03  0.00000000000E+00 0. -1.
          1    1    1    2  503    0  0.74256157669E+01 -0.42703276436E+02  0.17869397701E+03  0.18387562919E+03  0.00000000000E+00 0. -1.
<mgrwt>
<rscale>  0 0.71186383E+02</rscale>
<asrwt>0</asrwt>
<pdfrwt beam="1">  1        2 0.13940940E+00 0.43344084E+02</pdfrwt>
<pdfrwt beam="2">  1        2 0.16030159E+00 0.11691333E+03</pdfrwt>
<totfact> 0.13201802E+02</totfact>
</mgrwt>
</event>
<event>
13    1  0.1589573E-008  0.2271345E+03  0.7546771E-02  0.1286209E+00
         -3   -1    0    0    0  501 -0.00000000000E+00  0.00000000000E+00  0.38018260137E+03  0.38018260137E+03  0.00000000000E+00 0.  1.
          2   -1    0    0  503    0  0.00000000000E+00 -0.00000000000E+00 -0.27146032579E+04  0.27146032579E+04  0.00000000000E+00 0. -1.
         24    2    1    2    0    0 -0.22546101273E+02 -0.62783016633E+02  0.17394673716E+02  0.10720537375E+03  0.82099839389E+02 0.  0.
         25    2    1    2    0    0 -0.62295192827E+02  0.31810352301E+03 -0.99001260295E+03  0.10491996700E+04  0.12499780434E+03 0.  0.
         24    2    1    2    0    0 -0.79524721330E+02 -0.78218703591E+02 -0.20760685564E+03  0.24931795581E+03  0.81341807742E+02 0.  0.
        -11    1    3    3    0    0  0.27138299031E+02 -0.79054195338E+01 -0.72535588422E+01  0.29182135771E+02  0.00000000000E+00 0.  1.
         12    1    3    3    0    0 -0.49684400304E+02 -0.54877597099E+02  0.24648232559E+02  0.78023237982E+02  0.00000000000E+00 0. -1.
        -11    1    5    5    0    0 -0.88206186270E+02 -0.54518376731E+02 -0.19555788243E+03  0.22134920392E+03  0.00000000000E+00 0.  1.
         12    1    5    5    0    0  0.86814649396E+01 -0.23700326860E+02 -0.12048973215E+02  0.27968751890E+02  0.00000000000E+00 0. -1.
          5    1    4    4  502    0 -0.74280778975E+02  0.31525562315E+03 -0.98133785681E+03  0.10334165768E+04  0.47000000000E+01 0. -1.
         -5    1    4    4    0  502  0.11985586148E+02  0.28478998582E+01 -0.86747461391E+01  0.15783093153E+02  0.47000000000E+01 0. -1.
          1    1    1    2  503    0  0.12396858114E+03 -0.16704568646E+03 -0.14123431593E+04  0.14275803550E+04  0.00000000000E+00 0. -1.
         -4    1    1    2    0  501  0.40397434288E+02 -0.10056116322E+02  0.25814728761E+03  0.26148250472E+03  0.00000000000E+00 0.  1.
<mgrwt>
<rscale>  0 0.97240262E+02</rscale>
<asrwt>0</asrwt>
<pdfrwt beam="2">  1        2 0.39920638E+00 0.22713453E+03</pdfrwt>
<pdfrwt beam="1">  1       -3 0.55909204E-01 0.41630255E+02</pdfrwt>
<totfact> 0.66458791E+00</totfact>
</mgrwt>
</event>
<event>
13    1  0.1589573E-008  0.1383935E+03  0.7546771E-02  0.1344229E+00
          2   -1    0    0  503    0  0.00000000000E+00  0.00000000000E+00  0.17665649252E+04  0.17665649252E+04  0.00000000000E+00 0. -1.
          2   -1    0    0  502    0 -0.00000000000E+00 -0.00000000000E+00 -0.21054111129E+04  0.21054111129E+04  0.00000000000E+00 0. -1.
         24    2    1    2    0    0  0.18844514152E+03 -0.41039683508E+02 -0.84721008839E+03  0.87239737622E+03  0.78207551987E+02 0.  0.
         25    2    1    2    0    0  0.20153996079E+02  0.14593220735E+03  0.15264429600E+04  0.15386216441E+04  0.12500424287E+03 0.  0.
         24    2    1    2    0    0 -0.21058804207E+02 -0.52791344219E+02 -0.57676938733E+02  0.11555165791E+03  0.82432743040E+02 0.  0.
        -11    1    3    3    0    0  0.14731155276E+03 -0.59614271322E+02 -0.72252290121E+03  0.73979314521E+03  0.00000000000E+00 0.  1.
         12    1    3    3    0    0  0.41133588762E+02  0.18574587815E+02 -0.12468718718E+03  0.13260423101E+03  0.00000000000E+00 0. -1.
        -13    1    5    5    0    0 -0.49857881407E+02 -0.13950478208E+02 -0.30190277931E+02  0.59932270624E+02  0.00000000000E+00 0.  1.
         14    1    5    5    0    0  0.28799077200E+02 -0.38840866011E+02 -0.27486660801E+02  0.55619387286E+02  0.00000000000E+00 0. -1.
          5    1    4    4  501    0 -0.23034214327E+02  0.15125493796E+01  0.55883742775E+03  0.55933373176E+03  0.47000000000E+01 0. -1.
         -5    1    4    4    0  501  0.43188210405E+02  0.14441965798E+03  0.96760553229E+03  0.97928791234E+03  0.47000000000E+01 0. -1.
          1    1    1    2  502    0 -0.18905558254E+03 -0.11609440776E+02 -0.11428867836E+04  0.11584761510E+04  0.00000000000E+00 0. -1.
          1    1    1    2  503    0  0.15152491501E+01 -0.40491738852E+02  0.18248466298E+03  0.18692920884E+03  0.00000000000E+00 0. -1.
<mgrwt>
<rscale>  0 0.74884681E+02</rscale>
<asrwt>0</asrwt>
<pdfrwt beam="1">  1        2 0.25978896E+00 0.40520080E+02</pdfrwt>
<pdfrwt beam="2">  1        2 0.30961928E+00 0.13839349E+03</pdfrwt>
<totfact> 0.15875888E+01</totfact>
</mgrwt>
</event>
<event>
13    1  0.1589573E-008  0.2274670E+03  0.7546771E-02  0.1282309E+00
          2   -1    0    0  502    0  0.00000000000E+00  0.00000000000E+00  0.34983388903E+04  0.34983388903E+04  0.00000000000E+00 0. -1.
          2   -1    0    0  503    0 -0.00000000000E+00 -0.00000000000E+00 -0.27948265186E+04  0.27948265186E+04  0.00000000000E+00 0. -1.
         24    2    1    2    0    0  0.46114343014E+03 -0.63249327732E+03  0.26055119632E+03  0.82890355617E+03  0.80580211649E+02 0.  0.
         25    2    1    2    0    0  0.33732310851E+03 -0.18560490753E+03  0.65610326563E+03  0.77093145644E+03  0.12501101599E+03 0.  0.
         24    2    1    2    0    0 -0.67530290371E+03  0.10582842844E+04  0.96265990515E+03  0.15830606410E+04  0.58028112103E+02 0.  0.
        -13    1    3    3    0    0  0.10721664886E+03 -0.11162092161E+03  0.26217901141E+02  0.15697776363E+03  0.00000000000E+00 0.  1.
         14    1    3    3    0    0  0.35392678128E+03 -0.52087235571E+03  0.23433329518E+03  0.67192579254E+03  0.00000000000E+00 0. -1.
        -13    1    5    5    0    0 -0.47439811374E+03  0.69897886358E+03  0.66357552263E+03  0.10742241369E+04  0.00000000000E+00 0.  1.
         14    1    5    5    0    0 -0.20090478997E+03  0.35930542082E+03  0.29908438252E+03  0.50883650413E+03  0.00000000000E+00 0. -1.
          5    1    4    4  501    0  0.38027039698E+02 -0.68435558523E+02  0.18142653401E+03  0.19765413899E+03  0.47000000000E+01 0. -1.
         -5    1    4    4    0  501  0.29929606881E+03 -0.11716934901E+03  0.47467673163E+03  0.57327731745E+03  0.47000000000E+01 0. -1.
          1    1    1    2  502    0 -0.13738984454E+02 -0.40883412846E+02  0.96071807625E+03  0.96168572578E+03  0.00000000000E+00 0. -1.
          1    1    1    2  503    0 -0.10942465048E+03 -0.19930268670E+03 -0.21365200716E+04  0.21485840294E+04  0.00000000000E+00 0. -1.
<mgrwt>
<rscale>  0 0.99048942E+02</rscale>
<asrwt>0</asrwt>
<pdfrwt beam="1">  1        2 0.51446160E+00 0.43130188E+02</pdfrwt>
<pdfrwt beam="2">  1        2 0.41100390E+00 0.22746696E+03</pdfrwt>
<totfact> 0.92238926E-01</totfact>
</mgrwt>
</event>
<event>
13    1  0.1589573E-008  0.4752094E+02  0.7546771E-02  0.1486355E+00
          2   -1    0    0  503    0  0.00000000000E+00  0.00000000000E+00  0.68730423191E+03  0.68730423191E+03  0.00000000000E+00 0. -1.
          2   -1    0    0  502    0 -0.00000000000E+00 -0.00000000000E+00 -0.10607881838E+04  0.10607881838E+04  0.00000000000E+00 0. -1.
         24    2    1    2    0    0 -0.28181381120E+02 -0.12876397285E+03 -0.47087825451E+03  0.49516635454E+03  0.78032282747E+02 0.  0.
         25    2    1    2    0    0  0.11680706505E+03  0.89458187405E+02 -0.44372237908E+02  0.19807862945E+03  0.12497835896E+03 0.  0.
         24    2    1    2    0    0 -0.99669773023E+02  0.12278092077E+03  0.44683648684E+02  0.18287112670E+03  0.80224699192E+02 0.  0.
        -11    1    3    3    0    0 -0.45993350492E+02 -0.35267126373E+02 -0.18380177735E+03  0.19272325197E+03  0.00000000000E+00 0.  1.
         12    1    3    3    0    0  0.17811969372E+02 -0.93496846476E+02 -0.28707647716E+03  0.30244310257E+03  0.00000000000E+00 0. -1.
        -13    1    5    5    0    0 -0.91614645669E+01  0.54497840947E+01 -0.18839320613E+02  0.21646075414E+02  0.00000000000E+00 0.  1.
         14    1    5    5    0    0 -0.90508308456E+02  0.11733113668E+03  0.63522969297E+02  0.16122505128E+03  0.00000000000E+00 0. -1.
          5    1    4    4  501    0 -0.89235398402E+01  0.32273884187E+02 -0.49306418509E+02  0.59786671340E+02  0.47000000000E+01 0.  1.
         -5    1    4    4    0  501  0.12573060489E+03  0.57184303218E+02  0.49341806009E+01  0.13829195811E+03  0.47000000000E+01 0.  1.
          1    1    1    2  502    0  0.15664825939E+02 -0.44601195123E+02 -0.38520874065E+03  0.38809847623E+03  0.00000000000E+00 0. -1.
          1    1    1    2  503    0 -0.46207368437E+01 -0.38873940203E+02  0.48229163249E+03  0.48387782880E+03  0.00000000000E+00 0. -1.
<mgrwt>
<rscale>  0 0.43131551E+02</rscale>
<asrwt>0</asrwt>
<pdfrwt beam="1">  1        2 0.10107415E+00 0.39147598E+02</pdfrwt>
<pdfrwt beam="2">  1        2 0.15599826E+00 0.47520940E+02</pdfrwt>
<totfact> 0.20960976E+02</totfact>
</mgrwt>
</event>
<event>
13    1  0.1589573E-008  0.5233210E+02  0.7546771E-02  0.1470929E+00
         -1   -1    0    0    0  501 -0.00000000000E+00  0.00000000000E+00  0.13021637695E+04  0.13021637695E+04  0.00000000000E+00 0.  1.
          2   -1    0    0  503    0  0.00000000000E+00 -0.00000000000E+00 -0.15971668148E+04  0.15971668148E+04  0.00000000000E+00 0. -1.
         24    2    1    2    0    0  0.18149541615E+03 -0.17608069725E+03  0.30067990197E+03  0.40120518367E+03  0.81315422451E+02 0.  0.
         25    2    1    2    0    0 -0.15251719481E+03  0.12928166970E+03 -0.42995501603E+03  0.49036804822E+03  0.12499704827E+03 0.  0.
         24    2    1    2    0    0  0.11816534622E+02  0.10721052131E+03  0.17219977468E+02  0.13623684967E+03  0.81426194893E+02 0.  0.
        -13    1    5    5    0    0  0.45466629621E+02  0.75471014477E+02  0.18203667639E+02  0.89969227799E+02  0.00000000000E+00 0.  1.
         14    1    5    5    0    0 -0.33650094999E+02  0.31739506831E+02 -0.98369017163E+00  0.46267621872E+02  0.00000000000E+00 0. -1.
        -13    1    3    3    0    0  0.14997950332E+03 -0.10667462228E+03  0.24675387153E+03  0.30783242124E+03  0.00000000000E+00 0.  1.
         14    1    3    3    0    0  0.31515912830E+02 -0.69406074967E+02  0.53926030440E+02  0.93372762425E+02  0.00000000000E+00 0. -1.
          5    1    4    4  502    0 -0.96543289533E+02  0.14784263662E+03 -0.32125517268E+03  0.36661291293E+03  0.47000000000E+01 0. -1.
         -5    1    4    4    0  502 -0.55973905273E+02 -0.18560966928E+02 -0.10869984336E+03  0.12375513529E+03  0.47000000000E+01 0. -1.
          1    1    1    2  503    0  0.69569160825E+01 -0.39034016109E+02 -0.10260404295E+04  0.10268062213E+04  0.00000000000E+00 0. -1.
         -2    1    1    2    0  501 -0.47751672049E+02 -0.21377477648E+02  0.84309252077E+03  0.84471428146E+03  0.00000000000E+00 0.  1.
<mgrwt>
<rscale>  0 0.45551313E+02</rscale>
<asrwt>0</asrwt>
<pdfrwt beam="2">  1        2 0.23487747E+00 0.39649125E+02</pdfrwt>
<pdfrwt beam="1">  1       -1 0.19149467E+00 0.52332103E+02</pdfrwt>
<totfact> 0.39218450E+00</totfact>
</mgrwt>
</event>
<event>
13    1  0.1589573E-008  0.2195357E+03  0.7546771E-02  0.1340713E+00
          2   -1    0    0  503    0  0.00000000000E+00  0.00000000000E+00  0.41548337542E+04  0.41548337542E+04  0.00000000000E+00 0. -1.
          2   -1    0    0  502    0 -0.00000000000E+00 -0.00000000000E+00 -0.23547638227E+03  0.23547638227E+03  0.00000000000E+00 0. -1.
         24    2    1    2    0    0 -0.96853733386E+01 -0.15563620971E+03  0.43995050086E+02  0.18082534821E+03  0.80285776415E+02 0.  0.
         25    2    1    2    0    0  0.66395258446E+01  0.15992006169E+03  0.25285207095E+04  0.25366645346E+04  0.12502589060E+03 0.  0.
         24    2    1    2    0    0  0.11159317225E+03  0.16087778463E+03  0.21748539343E+03  0.30363666063E+03  0.80997701479E+02 0.  0.
        -11    1    5    5    0    0 -0.57148808159E+01  0.19336855535E+02  0.18097762747E+01  0.20244731040E+02  0.00000000000E+00 0.  1.
         12    1    5    5    0    0  0.11730805307E+03  0.14154092910E+03  0.21567561715E+03  0.28339192959E+03  0.00000000000E+00 0. -1.
        -13    1    3    3    0    0 -0.38791712993E+02 -0.46115366366E+02  0.30700224706E+01  0.60339448539E+02  0.00000000000E+00 0.  1.
         14    1    3    3    0    0  0.29106339654E+02 -0.10952084334E+03  0.40925027615E+02  0.12048589967E+03  0.00000000000E+00 0. -1.
          5    1    4    4  501    0  0.46633546109E+02  0.13055282079E+03  0.13539541576E+04  0.13610410271E+04  0.47000000000E+01 0. -1.
         -5    1    4    4    0  501 -0.39994020265E+02  0.29367240903E+02  0.11745665519E+04  0.11756235075E+04  0.47000000000E+01 0. -1.
          1    1    1    2  502    0 -0.12514328263E+03 -0.14472010277E+03 -0.43356962750E+02  0.19617485963E+03  0.00000000000E+00 0. -1.
          1    1    1    2  503    0  0.16595957865E+02 -0.20441533841E+02  0.11727131817E+04  0.11730087334E+04  0.00000000000E+00 0. -1.
<mgrwt>
<rscale>  0 0.76029141E+02</rscale>
<asrwt>0</asrwt>
<pdfrwt beam="1">  1        2 0.61100492E+00 0.26330251E+02</pdfrwt>
<pdfrwt beam="2">  1        2 0.34628882E-01 0.21953571E+03</pdfrwt>
<totfact> 0.18347298E+01</totfact>
</mgrwt>
</event>
<event>
13    1  0.1589573E-008  0.1203282E+03  0.7546771E-02  0.1328852E+00
          2   -1    0    0  502    0  0.00000000000E+00  0.00000000000E+00  0.10851033465E+04  0.10851033465E+04  0.00000000000E+00 0. -1.
          2   -1    0    0  503    0 -0.00000000000E+00 -0.00000000000E+00 -0.21210699280E+04  0.21210699280E+04  0.00000000000E+00 0. -1.
         24    2    1    2    0    0 -0.12714411876E+02  0.19275719651E+02 -0.13315609349E+04  0.13342116722E+04  0.80827306068E+02 0.  0.
         25    2    1    2    0    0 -0.43888815100E+02 -0.68557008012E+02  0.41602488608E+03  0.44195985804E+03  0.12500207536E+03 0.  0.
         24    2    1    2    0    0  0.18021417461E+02 -0.11722655962E+03 -0.17145353540E+03  0.22380577987E+03  0.81399475021E+02 0.  0.
        -11    1    3    3    0    0  0.23136488595E+02  0.35076248810E+02 -0.51498888891E+03  0.51670029614E+03  0.00000000000E+00 0.  1.
         12    1    3    3    0    0 -0.35850900471E+02 -0.15800529160E+02 -0.81657204596E+03  0.81751137608E+03  0.00000000000E+00 0. -1.
        -11    1    5    5    0    0 -0.29917162921E+02 -0.71528293287E+02 -0.88587419804E+02  0.11772452729E+03  0.00000000000E+00 0.  1.
         12    1    5    5    0    0  0.47938580382E+02 -0.45698266330E+02 -0.82866115596E+02  0.10608125258E+03  0.00000000000E+00 0. -1.
          5    1    4    4  501    0  0.45307531166E+01 -0.68526499341E+02  0.95268664539E+02  0.11753560005E+03  0.47000000000E+01 0.  1.
         -5    1    4    4    0  501 -0.48419568216E+02 -0.30508671256E-01  0.32075622154E+03  0.32442425799E+03  0.47000000000E+01 0.  1.
          1    1    1    2  502    0  0.52920392578E+02  0.61903141723E+01  0.61622393249E+03  0.61852309812E+03  0.00000000000E+00 0. -1.
          1    1    1    2  503    0 -0.14338583064E+02  0.16031753381E+03 -0.56520092982E+03  0.58767286621E+03  0.00000000000E+00 0. -1.
<mgrwt>
<rscale>  0 0.80070177E+02</rscale>
<asrwt>0</asrwt>
<pdfrwt beam="1">  1        2 0.15957403E+00 0.53281216E+02</pdfrwt>
<pdfrwt beam="2">  1        2 0.31192204E+00 0.12032821E+03</pdfrwt>
<totfact> 0.33264158E+01</totfact>
</mgrwt>
</event>
<event>
13    1  0.1589573E-008  0.1334734E+03  0.7546771E-02  0.1311122E+00
          2   -1    0    0  502    0  0.00000000000E+00  0.00000000000E+00  0.78314425345E+03  0.78314425345E+03  0.00000000000E+00 0. -1.
          2   -1    0    0  503    0 -0.00000000000E+00 -0.00000000000E+00 -0.13808619080E+04  0.13808619080E+04  0.00000000000E+00 0. -1.
         24    2    1    2    0    0  0.13178091621E+02 -0.79831616931E+02 -0.45537235376E+03  0.46932315119E+03  0.79708785656E+02 0.  0.
         25    2    1    2    0    0  0.74633018557E+02 -0.26044703654E+03 -0.27660503600E+03  0.40686193244E+03  0.12499415915E+03 0.  0.
         24    2    1    2    0    0 -0.13296530295E+02  0.20805587828E+03  0.49294046226E+02  0.22899476925E+03  0.80899042937E+02 0.  0.
        -11    1    3    3    0    0  0.41735751517E+02 -0.25647243038E+02 -0.14763819094E+03  0.15555285100E+03  0.00000000000E+00 0.  1.
         12    1    3    3    0    0 -0.28557659897E+02 -0.54184373893E+02 -0.30773416282E+03  0.31377030019E+03  0.00000000000E+00 0. -1.
        -11    1    5    5    0    0 -0.15532036638E+02  0.14827321669E+03  0.71292679227E+02  0.16525385642E+03  0.00000000000E+00 0.  1.
         12    1    5    5    0    0  0.22355063433E+01  0.59782661589E+02 -0.21998633001E+02  0.63740912836E+02  0.00000000000E+00 0. -1.
          5    1    4    4  501    0  0.94488494471E+02 -0.23779330174E+03 -0.20124828123E+03  0.32557132958E+03  0.47000000000E+01 0. -1.
         -5    1    4    4    0  501 -0.19855475914E+02 -0.22653734798E+02 -0.75356754770E+02  0.81290602861E+02  0.47000000000E+01 0. -1.
          1    1    1    2  502    0 -0.18252327716E+02  0.13358132516E+03  0.56227376707E+03  0.57821181848E+03  0.00000000000E+00 0. -1.
          1    1    1    2  503    0 -0.56262252167E+02 -0.13585499652E+01 -0.47730807810E+03  0.48061449010E+03  0.00000000000E+00 0. -1.
<mgrwt>
<rscale>  0 0.86670089E+02</rscale>
<asrwt>0</asrwt>
<pdfrwt beam="1">  1        2 0.11516827E+00 0.13347342E+03</pdfrwt>
<pdfrwt beam="2">  1        2 0.20306793E+00 0.56278652E+02</pdfrwt>
<totfact> 0.11794431E+02</totfact>
</mgrwt>
</event>
<event>
13    1  0.1589573E-008  0.8796871E+02  0.7546771E-02  0.1340530E+00
          2   -1    0    0  503    0  0.00000000000E+00  0.00000000000E+00  0.12566737238E+04  0.12566737238E+04  0.00000000000E+00 0. -1.
          2   -1    0    0  502    0 -0.00000000000E+00 -0.00000000000E+00 -0.24840134983E+04  0.24840134983E+04  0.00000000000E+00 0. -1.
         24    2    1    2    0    0 -0.32544421981E+02  0.33958255108E+02 -0.14021335998E+04  0.14049386075E+04  0.75243316434E+02 0.  0.
         25    2    1    2    0    0  0.28658378631E+03  0.13533235908E+03  0.68953725485E+03  0.76911134167E+03  0.12500206426E+03 0.  0.
         24    2    1    2    0    0 -0.18370341831E+03 -0.81364911187E+02 -0.45730057668E+03  0.50616145009E+03  0.81904831709E+02 0.  0.
        -11    1    3    3    0    0  0.17807854645E+00 -0.20978445697E+02 -0.19798704921E+03  0.19909545086E+03  0.00000000000E+00 0.  1.
         12    1    3    3    0    0 -0.32722500527E+02  0.54936700805E+02 -0.12041465506E+04  0.12058431566E+04  0.00000000000E+00 0. -1.
        -13    1    5    5    0    0 -0.35784540493E+02 -0.28929507955E+01 -0.16892018095E+03  0.17269316731E+03  0.00000000000E+00 0.  1.
         14    1    5    5    0    0 -0.14791887782E+03 -0.78471960392E+02 -0.28838039573E+03  0.33346828279E+03  0.00000000000E+00 0. -1.
          5    1    4    4  501    0  0.61238503133E+00  0.10851529380E+02  0.11285487019E+03  0.11347441312E+03  0.47000000000E+01 0.  1.
         -5    1    4    4    0  501  0.28597140128E+03  0.12448082970E+03  0.57668238466E+03  0.65563692855E+03  0.47000000000E+01 0.  1.
          1    1    1    2  502    0 -0.84699562923E+02 -0.23697891688E+02 -0.55331173005E+03  0.56025840167E+03  0.00000000000E+00 0. -1.
          1    1    1    2  503    0  0.14363616911E+02 -0.64227811309E+02  0.49586887711E+03  0.50021742125E+03  0.00000000000E+00 0. -1.
<mgrwt>
<rscale>  0 0.76089429E+02</rscale>
<asrwt>0</asrwt>
<pdfrwt beam="1">  1        2 0.18480496E+00 0.65814324E+02</pdfrwt>
<pdfrwt beam="2">  1        2 0.36529610E+00 0.87968710E+02</pdfrwt>
<totfact> 0.18423169E+01</totfact>
</mgrwt>
</event>
<event>
13    1  0.1589573E-008  0.1036093E+03  0.7546771E-02  0.1327720E+00
         -1   -1    0    0    0  501 -0.00000000000E+00  0.00000000000E+00  0.40206900032E+03  0.40206900032E+03  0.00000000000E+00 0.  1.
          2   -1    0    0  503    0  0.00000000000E+00 -0.00000000000E+00 -0.22382375830E+04  0.22382375830E+04  0.00000000000E+00 0. -1.
         24    2    1    2    0    0  0.49659231705E+02 -0.12825960955E+03 -0.98616276570E+02  0.18753474783E+03  0.80793223130E+02 0.  0.
         25    2    1    2    0    0 -0.27712370644E+03  0.15627632146E+02 -0.27691316576E+03  0.41151767112E+03  0.12499648281E+03 0.  0.
         24    2    1    2    0    0  0.10198063587E+03  0.11781320185E+03 -0.84887594160E+03  0.86700605161E+03  0.82638542264E+02 0.  0.
        -13    1    5    5    0    0  0.58970723093E+02  0.11849605631E+03 -0.67802901221E+03  0.69082718747E+03  0.00000000000E+00 0.  1.
         14    1    5    5    0    0  0.43009912773E+02 -0.68285445785E+00 -0.17084692939E+03  0.17617886414E+03  0.00000000000E+00 0. -1.
        -13    1    3    3    0    0  0.69560975227E+02 -0.94742709130E+02 -0.88875297716E+02  0.14735578968E+03  0.00000000000E+00 0.  1.
         14    1    3    3    0    0 -0.19901743523E+02 -0.33516900422E+02 -0.97409788535E+01  0.40178958152E+02  0.00000000000E+00 0. -1.
          5    1    4    4  502    0 -0.15460794649E+03 -0.53450119726E+02 -0.15177835922E+03  0.22320235829E+03  0.47000000000E+01 0.  1.
         -5    1    4    4    0  502 -0.12251575995E+03  0.69077751871E+02 -0.12513480654E+03  0.18831531283E+03  0.47000000000E+01 0.  1.
          1    1    1    2  503    0  0.91898898608E+02  0.47528144121E+02 -0.88648727689E+03  0.89250435525E+03  0.00000000000E+00 0. -1.
         -2    1    1    2    0  501  0.33584940259E+02 -0.52709368566E+02  0.27472407817E+03  0.28174375747E+03  0.00000000000E+00 0.  1.
<mgrwt>
<rscale>  0 0.80470858E+02</rscale>
<asrwt>0</asrwt>
<pdfrwt beam="2">  1        2 0.32915259E+00 0.10360926E+03</pdfrwt>
<pdfrwt beam="1">  1       -1 0.59127793E-01 0.62499806E+02</pdfrwt>
<totfact> 0.24639765E+01</totfact>
</mgrwt>
</event>
<event>
13    1  0.1589573E-008  0.8533205E+02  0.7546771E-02  0.1386248E+00
          2   -1    0    0  502    0  0.00000000000E+00  0.00000000000E+00  0.18476750252E+04  0.18476750252E+04  0.00000000000E+00 0. -1.
          2   -1    0    0  503    0 -0.00000000000E+00 -0.00000000000E+00 -0.17817523409E+04  0.17817523409E+04  0.00000000000E+00 0. -1.
         24    2    1    2    0    0  0.22575529911E+03  0.86793597601E+02 -0.18177545773E+03  0.31316345734E+03  0.80811201674E+02 0.  0.
         25    2    1    2    0    0 -0.13206869250E+03 -0.46569106795E+02  0.95620439361E+03  0.97445362820E+03  0.12498883912E+03 0.  0.
         24    2    1    2    0    0 -0.11608537551E+03 -0.15617654118E+03 -0.23538794897E+01  0.21073596029E+03  0.80852815571E+02 0.  0.
        -11    1    5    5    0    0 -0.53261419239E+02 -0.72475808907E+02 -0.41428341824E+02  0.99024386706E+02  0.00000000000E+00 0.  1.
         12    1    5    5    0    0 -0.62823956269E+02 -0.83700732277E+02  0.39074462335E+02  0.11171157358E+03  0.00000000000E+00 0. -1.
        -11    1    3    3    0    0  0.20229551924E+02 -0.11375517322E+02 -0.25734176746E+01  0.23350795360E+02  0.00000000000E+00 0.  1.
         12    1    3    3    0    0  0.20552574719E+03  0.98169114922E+02 -0.17920204006E+03  0.28981266198E+03  0.00000000000E+00 0. -1.
          5    1    4    4  501    0 -0.12065977859E+03 -0.23701028878E+00  0.44785446121E+03  0.46384754690E+03  0.47000000000E+01 0. -1.
         -5    1    4    4    0  501 -0.11408913905E+02 -0.46332096506E+02  0.50834993240E+03  0.51060608129E+03  0.47000000000E+01 0. -1.
          1    1    1    2  502    0 -0.19822205566E+02  0.41831646618E+02  0.71042471682E+03  0.71193123598E+03  0.00000000000E+00 0. -1.
          1    1    1    2  503    0  0.42220974459E+02  0.74120403761E+02 -0.14165770889E+04  0.14191430843E+04  0.00000000000E+00 0. -1.
<mgrwt>
<rscale>  0 0.62849500E+02</rscale>
<asrwt>0</asrwt>
<pdfrwt beam="1">  1        2 0.27171692E+00 0.46290458E+02</pdfrwt>
<pdfrwt beam="2">  1        2 0.26202240E+00 0.85332049E+02</pdfrwt>
<totfact> 0.21618250E+01</totfact>
</mgrwt>
</event>
<event>
13    1  0.1589573E-008  0.1072433E+03  0.7546771E-02  0.1353037E+00
          2   -1    0    0  502    0  0.00000000000E+00  0.00000000000E+00  0.26005163550E+04  0.26005163550E+04  0.00000000000E+00 0. -1.
          2   -1    0    0  503    0 -0.00000000000E+00 -0.00000000000E+00 -0.20072603823E+04  0.20072603823E+04  0.00000000000E+00 0. -1.
         24    2    1    2    0    0 -0.20189925816E+03  0.12617729543E+03 -0.64577217629E+03  0.69506087871E+03  0.96973713471E+02 0.  0.
         25    2    1    2    0    0  0.18417564745E+03 -0.12275809982E+03  0.14490441621E+04  0.14711712182E+04  0.12500219734E+03 0.  0.
         24    2    1    2    0    0  0.43279533984E+02 -0.66477848116E+02  0.22655493909E+03  0.25335800215E+03  0.81059943693E+02 0.  0.
        -11    1    5    5    0    0  0.63289738808E+02 -0.28966238705E+02  0.12147066265E+03  0.13999912824E+03  0.00000000000E+00 0.  1.
         12    1    5    5    0    0 -0.20010204824E+02 -0.37511609411E+02  0.10508427644E+03  0.11335887390E+03  0.00000000000E+00 0. -1.
        -13    1    3    3    0    0 -0.32380284142E+02  0.37499504972E+02 -0.54717541862E+02  0.73815344351E+02  0.00000000000E+00 0.  1.
         14    1    3    3    0    0 -0.16951897402E+03  0.88677790462E+02 -0.59105463443E+03  0.62124553436E+03  0.00000000000E+00 0. -1.
          5    1    4    4  501    0 -0.87842923006E+01 -0.25528702266E+02  0.35047769214E+03  0.35154740949E+03  0.47000000000E+01 0. -1.
         -5    1    4    4    0  501  0.19295993975E+03 -0.97229397552E+02  0.10985664700E+04  0.11196238087E+04  0.47000000000E+01 0. -1.
          1    1    1    2  502    0 -0.20168407952E+02 -0.44103990405E+02  0.87294054446E+03  0.87428663539E+03  0.00000000000E+00 0. -1.
          1    1    1    2  503    0 -0.53875153215E+01  0.10716264290E+03 -0.13095114967E+04  0.13139000028E+04  0.00000000000E+00 0. -1.
<mgrwt>
<rscale>  0 0.72117562E+02</rscale>
<asrwt>0</asrwt>
<pdfrwt beam="1">  1        2 0.38242888E+00 0.48496666E+02</pdfrwt>
<pdfrwt beam="2">  1        2 0.29518535E+00 0.10724331E+03</pdfrwt>
<totfact> 0.72446083E+00</totfact>
</mgrwt>
</event>
<event>
13    1  0.1589573E-008  0.7569463E+02  0.7546771E-02  0.1371085E+00
          2   -1    0    0  503    0  0.00000000000E+00  0.00000000000E+00  0.23494987625E+04  0.23494987625E+04  0.00000000000E+00 0. -1.
         -1   -1    0    0    0  501 -0.00000000000E+00 -0.00000000000E+00 -0.88380194935E+03  0.88380194935E+03  0.00000000000E+00 0.  1.
         24    2    1    2    0    0  0.30083346603E+03  0.35153828922E+02 -0.44831899346E+03  0.54761620319E+03  0.84599173316E+02 0.  0.
         25    2    1    2    0    0 -0.35075427627E+02 -0.28153554789E+03  0.44135464458E+03  0.53936145898E+03  0.12499724313E+03 0.  0.
         24    2    1    2    0    0 -0.32098758607E+03  0.14371799733E+03  0.15678910091E+03  0.39336201394E+03  0.80392528765E+02 0.  0.
        -11    1    5    5    0    0 -0.31201297591E+03  0.12058046708E+03  0.13639946717E+03  0.36124307720E+03  0.00000000000E+00 0.  1.
         12    1    5    5    0    0 -0.89746101590E+01  0.23137530251E+02  0.20389633742E+02  0.32118936748E+02  0.00000000000E+00 0. -1.
        -11    1    3    3    0    0  0.28842675678E+03  0.41803827845E+02 -0.44681229541E+03  0.53345925934E+03  0.00000000000E+00 0.  1.
         12    1    3    3    0    0  0.12406709255E+02 -0.66499989225E+01 -0.15066980550E+01  0.14156943852E+02  0.00000000000E+00 0. -1.
          5    1    4    4  502    0 -0.53076821702E+02 -0.69416468962E+02  0.19500964045E+03  0.21374434503E+03  0.47000000000E+01 0.  1.
         -5    1    4    4    0  502  0.18001394075E+02 -0.21211907893E+03  0.24634500413E+03  0.32561711395E+03  0.47000000000E+01 0.  1.
          1    1    1    2  503    0  0.61586480923E+02  0.43938949731E+02  0.15294732439E+04  0.15313431783E+04  0.00000000000E+00 0. -1.
         -2    1    1    2    0  501 -0.63569332566E+01  0.58724771911E+02 -0.21360118280E+03  0.22161785742E+03  0.00000000000E+00 0.  1.
<mgrwt>
<rscale>  0 0.66866419E+02</rscale>
<asrwt>0</asrwt>
<pdfrwt beam="1">  1        2 0.34551452E+00 0.75694627E+02</pdfrwt>
<pdfrwt beam="2">  1       -1 0.12997087E+00 0.59067838E+02</pdfrwt>
<totfact> 0.44035863E+00</totfact>
</mgrwt>
</event>
<event>
13    1  0.1589573E-008  0.9822532E+02  0.7546771E-02  0.1449583E+00
          2   -1    0    0  502    0  0.00000000000E+00  0.00000000000E+00  0.25390221733E+04  0.25390221733E+04  0.00000000000E+00 0. -1.
          2   -1    0    0  503    0 -0.00000000000E+00 -0.00000000000E+00 -0.63886443051E+03  0.63886443051E+03  0.00000000000E+00 0. -1.
         24    2    1    2    0    0 -0.19045829461E+02 -0.34778455654E+03 -0.27136452759E+02  0.35830454509E+03  0.79554500651E+02 0.  0.
         25    2    1    2    0    0 -0.15939657018E+03 -0.55901470016E+01  0.12982906301E+04  0.13140092661E+04  0.12499309883E+03 0.  0.
         24    2    1    2    0    0  0.24852856883E+03  0.31695684165E+03  0.26320577605E+00  0.41088684924E+03  0.81239427675E+02 0.  0.
        -11    1    3    3    0    0 -0.15719716104E+02 -0.87341163373E+02  0.26000577380E+02  0.92474960491E+02  0.00000000000E+00 0.  1.
         12    1    3    3    0    0 -0.33261133570E+01 -0.26044339317E+03 -0.53137030138E+02  0.26582958460E+03  0.00000000000E+00 0. -1.
        -11    1    5    5    0    0  0.11531861777E+02  0.57441016198E+02 -0.92333416526E+01  0.59310275467E+02  0.00000000000E+00 0.  1.
         12    1    5    5    0    0  0.23699670705E+03  0.25951582545E+03  0.94965474286E+01  0.35157657377E+03  0.00000000000E+00 0. -1.
          5    1    4    4  501    0 -0.16695033486E+03  0.10604898591E+02  0.90878205625E+03  0.92406265694E+03  0.47000000000E+01 0.  1.
         -5    1    4    4    0  501  0.75537646842E+01 -0.16195045593E+02  0.38950857385E+03  0.38994660912E+03  0.47000000000E+01 0.  1.
          1    1    1    2  502    0  0.23705273271E+02  0.68164888414E+01  0.85114647219E+03  0.85150380013E+03  0.00000000000E+00 0. -1.
          1    1    1    2  503    0 -0.93791442461E+02  0.29601373054E+02 -0.22240611248E+03  0.24318214333E+03  0.00000000000E+00 0. -1.
<mgrwt>
<rscale>  0 0.49222064E+02</rscale>
<asrwt>0</asrwt>
<pdfrwt beam="1">  1        2 0.37338561E+00 0.24665857E+02</pdfrwt>
<pdfrwt beam="2">  1        2 0.93950652E-01 0.98225317E+02</pdfrwt>
<totfact> 0.48194779E+01</totfact>
</mgrwt>
</event>
<event>
13    1  0.1589573E-008  0.1664100E+03  0.7546771E-02  0.1334030E+00
          2   -1    0    0  503    0  0.00000000000E+00  0.00000000000E+00  0.18037355324E+04  0.18037355324E+04  0.00000000000E+00 0. -1.
          2   -1    0    0  502    0 -0.00000000000E+00 -0.00000000000E+00 -0.21218281694E+04  0.21218281694E+04  0.00000000000E+00 0. -1.
         24    2    1    2    0    0 -0.82176779724E+02  0.68741782248E+02 -0.29164884277E+03  0.32088517522E+03  0.80185986532E+02 0.  0.
         25    2    1    2    0    0  0.19443454944E+03  0.12094449693E+03  0.11685706890E+04  0.11973366353E+04  0.12500079113E+03 0.  0.
         24    2    1    2    0    0 -0.40262005581E+02  0.67821964164E+02 -0.52140746828E+02  0.12450694727E+03  0.81009101476E+02 0.  0.
        -11    1    5    5    0    0 -0.72317524655E+01  0.10973568772E+02  0.21867106471E+02  0.25512502831E+02  0.00000000000E+00 0.  1.
         12    1    5    5    0    0 -0.33030253115E+02  0.56848395392E+02 -0.74007853299E+02  0.98994444437E+02  0.00000000000E+00 0. -1.
        -11    1    3    3    0    0  0.14372760709E+02  0.13316899563E+02 -0.23839690486E+02  0.30858498130E+02  0.00000000000E+00 0.  1.
         12    1    3    3    0    0 -0.96549540433E+02  0.55424882685E+02 -0.26780915228E+03  0.29002667709E+03  0.00000000000E+00 0. -1.
          5    1    4    4  501    0  0.10822584451E+03  0.12984107370E+03  0.87565231185E+03  0.89182991601E+03  0.47000000000E+01 0.  1.
         -5    1    4    4    0  501  0.86208704937E+02 -0.88965767661E+01  0.29291837710E+03  0.30550671929E+03  0.47000000000E+01 0.  1.
          1    1    1    2  502    0 -0.50608042031E+02 -0.28747356416E+03 -0.16998064801E+04  0.17246867234E+04  0.00000000000E+00 0. -1.
          1    1    1    2  503    0 -0.21387722107E+02  0.29965320821E+02  0.55693274373E+03  0.55814822059E+03  0.00000000000E+00 0. -1.
<mgrwt>
<rscale>  0 0.78271371E+02</rscale>
<asrwt>0</asrwt>
<pdfrwt beam="1">  1        2 0.26525523E+00 0.36815148E+02</pdfrwt>
<pdfrwt beam="2">  1        2 0.31203355E+00 0.16640997E+03</pdfrwt>
<totfact> 0.14842897E+01</totfact>
</mgrwt>
</event>
<event>
13    1  0.1589573E-008  0.5118885E+02  0.7546771E-02  0.1483753E+00
         -1   -1    0    0    0  501 -0.00000000000E+00  0.00000000000E+00  0.67759863233E+03  0.67759863233E+03  0.00000000000E+00 0.  1.
          2   -1    0    0  503    0  0.00000000000E+00 -0.00000000000E+00 -0.12845219750E+04  0.12845219750E+04  0.00000000000E+00 0. -1.
         24    2    1    2    0    0 -0.29825283887E+03 -0.79847991872E+02 -0.58435410167E+02  0.32496162257E+03  0.82794331194E+02 0.  0.
         25    2    1    2    0    0  0.30394237237E+03 -0.12145296984E+03 -0.21750118340E+03  0.41238741149E+03  0.12499929108E+03 0.  0.
         24    2    1    2    0    0  0.82961489359E+01  0.20443458093E+03 -0.54674825467E+02  0.22514142890E+03  0.76400278140E+02 0.  0.
        -11    1    3    3    0    0 -0.15891542121E+03 -0.58393915380E+02  0.71887303882E+01  0.16945689214E+03  0.00000000000E+00 0.  1.
         12    1    3    3    0    0 -0.13933741767E+03 -0.21454076492E+02 -0.65624140555E+02  0.15550473042E+03  0.00000000000E+00 0. -1.
        -13    1    5    5    0    0 -0.12314097727E+02  0.13409565800E+03 -0.67662534292E+02  0.15070335446E+03  0.00000000000E+00 0.  1.
         14    1    5    5    0    0  0.20610246663E+02  0.70338922928E+02  0.12987708825E+02  0.74438074443E+02  0.00000000000E+00 0. -1.
          5    1    4    4  502    0  0.23575682080E+03 -0.51760411829E+02 -0.19938176949E+03  0.31310636977E+03  0.47000000000E+01 0. -1.
         -5    1    4    4    0  502  0.68185551564E+02 -0.69692558007E+02 -0.18119413912E+02  0.99281041716E+02  0.47000000000E+01 0. -1.
          1    1    1    2  503    0 -0.49315576865E+02 -0.14164542178E+02 -0.63598818618E+03  0.63805456925E+03  0.00000000000E+00 0. -1.
         -2    1    1    2    0  501  0.35329894437E+02  0.11030922959E+02  0.35967626254E+03  0.36157557513E+03  0.00000000000E+00 0.  1.
<mgrwt>
<rscale>  0 0.43526978E+02</rscale>
<asrwt>0</asrwt>
<pdfrwt beam="2">  1        2 0.18890029E+00 0.51188846E+02</pdfrwt>
<pdfrwt beam="1">  1       -1 0.99646859E-01 0.37011926E+02</pdfrwt>
<totfact> 0.27412818E+01</totfact>
</mgrwt>
</event>
<event>
13    1  0.1589573E-008  0.1741493E+03  0.7546771E-02  0.1196580E+00
          2   -1    0    0  502    0  0.00000000000E+00  0.00000000000E+00  0.20605518490E+04  0.20605518490E+04  0.00000000000E+00 0. -1.
          2   -1    0    0  503    0 -0.00000000000E+00 -0.00000000000E+00 -0.17648260448E+04  0.17648260448E+04  0.00000000000E+00 0. -1.
         24    2    1    2    0    0 -0.14758825482E+03  0.81083746864E+00 -0.84313738840E+03  0.85952684932E+03  0.78248313465E+02 0.  0.
         25    2    1    2    0    0  0.82823445866E+02  0.10320047968E+03  0.69790285736E+03  0.72125220994E+03  0.12500515926E+03 0.  0.
         24    2    1    2    0    0  0.12255672065E+03  0.79815908514E+02  0.13287143794E+03  0.21340002701E+03  0.80585504161E+02 0.  0.
        -11    1    3    3    0    0 -0.17170429109E+02  0.27501638212E+02 -0.12377409400E+03  0.12794995148E+03  0.00000000000E+00 0.  1.
         12    1    3    3    0    0 -0.13041782571E+03 -0.26690800743E+02 -0.71936329441E+03  0.73157689784E+03  0.00000000000E+00 0. -1.
        -13    1    5    5    0    0  0.12089334725E+02 -0.12085788507E+02 -0.84031464948E+00  0.17115035104E+02  0.00000000000E+00 0.  1.
         14    1    5    5    0    0  0.11046738592E+03  0.91901697020E+02  0.13371175259E+03  0.19628499191E+03  0.00000000000E+00 0. -1.
          5    1    4    4  501    0  0.30274339393E+02  0.40991243143E+02  0.54976624117E+03  0.55214294125E+03  0.47000000000E+01 0. -1.
         -5    1    4    4    0  501  0.52549106473E+02  0.62209236532E+02  0.14813661619E+03  0.16910926869E+03  0.47000000000E+01 0. -1.
          1    1    1    2  502    0  0.75653356345E+02 -0.16481250157E+03  0.11572667920E+04  0.11713893541E+04  0.00000000000E+00 0. -1.
          1    1    1    2  503    0 -0.13344526804E+03 -0.19014724084E+02 -0.84917789468E+03  0.85980945337E+03  0.00000000000E+00 0. -1.
<mgrwt>
<rscale>  0 0.15321273E+03</rscale>
<asrwt>0</asrwt>
<pdfrwt beam="1">  1        2 0.30302233E+00 0.17414933E+03</pdfrwt>
<pdfrwt beam="2">  1        2 0.25953324E+00 0.13479317E+03</pdfrwt>
<totfact> 0.14584041E+01</totfact>
</mgrwt>
</event>
<event>
13    1  0.1589573E-008  0.1100834E+03  0.7546771E-02  0.1291460E+00
          2   -1    0    0  503    0  0.00000000000E+00  0.00000000000E+00  0.23972758206E+04  0.23972758206E+04  0.00000000000E+00 0. -1.
         -1   -1    0    0    0  501 -0.00000000000E+00 -0.00000000000E+00 -0.66562538173E+03  0.66562538173E+03  0.00000000000E+00 0.  1.
         24    2    1    2    0    0 -0.14682386191E+03  0.44875616495E+02 -0.17336660467E+03  0.24084229857E+03  0.66166198209E+02 0.  0.
         25    2    1    2    0    0  0.13982256678E+02  0.28939470043E+02  0.55425180197E+03  0.56908116464E+03  0.12500126216E+03 0.  0.
         24    2    1    2    0    0  0.51969125251E+02 -0.64018554981E+02  0.24385999011E+02  0.11709633944E+03  0.79484026083E+02 0.  0.
        -11    1    5    5    0    0 -0.17308054916E+02 -0.31509581894E+02 -0.23696919248E+01  0.36028293825E+02  0.00000000000E+00 0.  1.
         12    1    5    5    0    0  0.69277180167E+02 -0.32508973087E+02  0.26755690936E+02  0.81068045619E+02  0.00000000000E+00 0. -1.
        -13    1    3    3    0    0 -0.94457494918E+02  0.54477775583E+02 -0.14204705715E+03  0.17907376364E+03  0.00000000000E+00 0.  1.
         14    1    3    3    0    0 -0.52366366988E+02 -0.96021590889E+01 -0.31319547514E+02  0.61768534928E+02  0.00000000000E+00 0. -1.
          5    1    4    4  502    0 -0.66948311479E+01  0.51716735541E+02  0.52067423332E+03  0.52330028544E+03  0.47000000000E+01 0. -1.
         -5    1    4    4    0  502  0.20677087826E+02 -0.22777265498E+02  0.33577568651E+02  0.45780879208E+02  0.47000000000E+01 0. -1.
          1    1    1    2  503    0  0.63453820864E+02 -0.89685526111E+02  0.17252356784E+04  0.17287301777E+04  0.00000000000E+00 0. -1.
         -2    1    1    2    0  501  0.17418659114E+02  0.79888994554E+02 -0.39885643589E+03  0.40715122201E+03  0.00000000000E+00 0.  1.
<mgrwt>
<rscale>  0 0.94873959E+02</rscale>
<asrwt>0</asrwt>
<pdfrwt beam="1">  1        2 0.35254056E+00 0.11008341E+03</pdfrwt>
<pdfrwt beam="2">  1       -1 0.97886086E-01 0.81765892E+02</pdfrwt>
<totfact> 0.74399788E+00</totfact>
</mgrwt>
</event>
<event>
13    1  0.1589573E-008  0.9281471E+02  0.7546771E-02  0.1378650E+00
          2   -1    0    0  502    0  0.00000000000E+00  0.00000000000E+00  0.50833310925E+04  0.50833310925E+04  0.00000000000E+00 0. -1.
          2   -1    0    0  503    0 -0.00000000000E+00 -0.00000000000E+00 -0.19821390693E+04  0.19821390693E+04  0.00000000000E+00 0. -1.
         24    2    1    2    0    0  0.36999063714E+03  0.22957131800E+03  0.26541754352E+03  0.51603257975E+03  0.79038530695E+02 0.  0.
         25    2    1    2    0    0 -0.18777854140E+03 -0.67842462762E+02  0.53446742990E+03  0.58407430617E+03  0.12499592449E+03 0.  0.
         24    2    1    2    0    0 -0.24088578521E+03 -0.46235588326E+02  0.24419399673E+04  0.24557206370E+04  0.85611634712E+02 0.  0.
        -11    1    5    5    0    0 -0.24812828039E+03 -0.46588062602E+02  0.23630515347E+04  0.23764996627E+04  0.00000000000E+00 0.  1.
         12    1    5    5    0    0  0.72424951810E+01  0.35247427612E+00  0.78888432620E+02  0.79220974343E+02  0.00000000000E+00 0. -1.
        -13    1    3    3    0    0  0.15898171667E+03  0.53722656193E+02  0.96855449699E+02  0.19375832410E+03  0.00000000000E+00 0.  1.
         14    1    3    3    0    0  0.21100892047E+03  0.17584866181E+03  0.16856209382E+03  0.32227425565E+03  0.00000000000E+00 0. -1.
          5    1    4    4  501    0  0.55703738670E+01 -0.21101099469E+02  0.12765510726E+02  0.25716409701E+02  0.47000000000E+01 0. -1.
         -5    1    4    4    0  501 -0.19334891527E+03 -0.46741363293E+02  0.52170191918E+03  0.55835789647E+03  0.47000000000E+01 0. -1.
          1    1    1    2  502    0  0.37675288680E+02 -0.25096842273E+02  0.16830206160E+04  0.16836293157E+04  0.00000000000E+00 0. -1.
          1    1    1    2  503    0  0.20998400791E+02 -0.90396424641E+02 -0.18236535335E+04  0.18260133232E+04  0.00000000000E+00 0. -1.
<mgrwt>
<rscale>  0 0.64819947E+02</rscale>
<asrwt>0</asrwt>
<pdfrwt beam="1">  1        2 0.74754869E+00 0.45268961E+02</pdfrwt>
<pdfrwt beam="2">  1        2 0.29149104E+00 0.92814710E+02</pdfrwt>
<totfact> 0.17720306E-01</totfact>
</mgrwt>
</event>
<event>
13    1  0.1589573E-008  0.1789601E+03  0.7546771E-02  0.1352446E+00
          2   -1    0    0  503    0  0.00000000000E+00  0.00000000000E+00  0.27361806237E+04  0.27361806237E+04  0.00000000000E+00 0. -1.
          2   -1    0    0  502    0 -0.00000000000E+00 -0.00000000000E+00 -0.20535319864E+04  0.20535319864E+04  0.00000000000E+00 0. -1.
         24    2    1    2    0    0  0.13266241286E+03 -0.10124758069E+03 -0.40542404373E+03  0.44531129056E+03  0.77994242655E+02 0.  0.
         25    2    1    2    0    0 -0.31957557771E+03  0.19684877513E+03  0.46418798189E+03  0.60989326704E+03  0.12498529719E+03 0.  0.
         24    2    1    2    0    0  0.30787290007E+02  0.12071771532E+02 -0.88831985216E+01  0.86084440941E+02  0.78981231076E+02 0.  0.
        -13    1    5    5    0    0  0.42910608348E+02  0.30886501090E+02  0.13356674331E+02  0.54531614753E+02  0.00000000000E+00 0.  1.
         14    1    5    5    0    0 -0.12123318341E+02 -0.18814729558E+02 -0.22239872853E+02  0.31552826188E+02  0.00000000000E+00 0. -1.
        -13    1    3    3    0    0  0.15612953446E+02 -0.16674861681E+02 -0.15137354435E+03  0.15308744317E+03  0.00000000000E+00 0.  1.
         14    1    3    3    0    0  0.11704945941E+03 -0.84572719012E+02 -0.25405049938E+03  0.29222384739E+03  0.00000000000E+00 0. -1.
          5    1    4    4  501    0 -0.10404744517E+03  0.60012499738E+01  0.16039958993E+03  0.19134263586E+03  0.47000000000E+01 0.  1.
         -5    1    4    4    0  501 -0.21552813254E+03  0.19084752516E+03  0.30378839196E+03  0.41855063118E+03  0.47000000000E+01 0.  1.
          1    1    1    2  502    0  0.13065716232E+03 -0.12197202405E+03 -0.15024305217E+04  0.15130254265E+04  0.00000000000E+00 0. -1.
          1    1    1    2  503    0  0.25468712522E+02  0.14299058079E+02  0.21351984194E+04  0.21353981850E+04  0.00000000000E+00 0. -1.
<mgrwt>
<rscale>  0 0.72298682E+02</rscale>
<asrwt>0</asrwt>
<pdfrwt beam="1">  1        2 0.40237951E+00 0.29208190E+02</pdfrwt>
<pdfrwt beam="2">  1        2 0.30199000E+00 0.17896006E+03</pdfrwt>
<totfact> 0.60777359E+00</totfact>
</mgrwt>
</event>
<event>
13    1  0.1589573E-008  0.3158717E+02  0.7546771E-02  0.1640828E+00
         -1   -1    0    0    0  501 -0.00000000000E+00  0.00000000000E+00  0.19326469827E+03  0.19326469827E+03  0.00000000000E+00 0.  1.
          2   -1    0    0  503    0  0.00000000000E+00 -0.00000000000E+00 -0.47972434319E+03  0.47972434319E+03  0.00000000000E+00 0. -1.
         24    2    1    2    0    0 -0.16858015416E+02 -0.16441327937E+02  0.22896505634E+02  0.87707549510E+02  0.81325606808E+02 0.  0.
         25    2    1    2    0    0 -0.60884087461E+02 -0.17455514575E+01 -0.30742672993E+03  0.33741163466E+03  0.12500199146E+03 0.  0.
         24    2    1    2    0    0  0.47676110168E+02  0.11141758895E+02 -0.36998197333E+02  0.10409335379E+03  0.84079780117E+02 0.  0.
        -11    1    5    5    0    0 -0.11849833081E+02  0.30679040623E+02 -0.35654258505E+01  0.33080724585E+02  0.00000000000E+00 0.  1.
         12    1    5    5    0    0  0.59525943250E+02 -0.19537281728E+02 -0.33432771482E+02  0.71012629201E+02  0.00000000000E+00 0. -1.
        -13    1    3    3    0    0 -0.19274368296E+02  0.48562214094E+01  0.49618301587E+02  0.53451473431E+02  0.00000000000E+00 0.  1.
         14    1    3    3    0    0  0.24163528800E+01 -0.21297549346E+02 -0.26721795953E+02  0.34256076079E+02  0.00000000000E+00 0. -1.
          5    1    4    4  502    0 -0.60436168582E+01  0.54725366651E+02 -0.84647801452E+02  0.10108774085E+03  0.47000000000E+01 0.  1.
         -5    1    4    4    0  502 -0.54840470603E+02 -0.56470918109E+02 -0.22277892848E+03  0.23632389381E+03  0.47000000000E+01 0.  1.
          1    1    1    2  503    0  0.28199629347E+02 -0.15047328167E+02 -0.48073105895E+02  0.57729236013E+02  0.00000000000E+00 0. -1.
         -2    1    1    2    0  501  0.18663633611E+01  0.22092448666E+02  0.83141882611E+02  0.86047267500E+02  0.00000000000E+00 0.  1.
<mgrwt>
<rscale>  0 0.26463628E+02</rscale>
<asrwt>0</asrwt>
<pdfrwt beam="2">  1        2 0.70547697E-01 0.31587166E+02</pdfrwt>
<pdfrwt beam="1">  1       -1 0.28421279E-01 0.22171143E+02</pdfrwt>
<totfact> 0.84277310E+02</totfact>
</mgrwt>
</event>
<event>
13    1  0.1589573E-008  0.7234255E+02  0.7546771E-02  0.1385316E+00
         -1   -1    0    0    0  501 -0.00000000000E+00  0.00000000000E+00  0.76549321482E+03  0.76549321482E+03  0.00000000000E+00 0.  1.
          2   -1    0    0  503    0  0.00000000000E+00 -0.00000000000E+00 -0.24543606928E+04  0.24543606928E+04  0.00000000000E+00 0. -1.
         24    2    1    2    0    0  0.41835457309E+03  0.43352884683E+03 -0.45642967596E+03  0.75993977081E+03  0.78820024812E+02 0.  0.
         25    2    1    2    0    0 -0.19595041259E+03 -0.21133536875E+03 -0.87137276017E+03  0.92626907133E+03  0.12499881222E+03 0.  0.
         24    2    1    2    0    0 -0.24120329058E+03 -0.25713196637E+03  0.32664395622E+02  0.36476166093E+03  0.87682558296E+02 0.  0.
        -13    1    3    3    0    0  0.29592683450E+03  0.25296877021E+03 -0.30017628403E+03  0.49160115091E+03  0.00000000000E+00 0.  1.
         14    1    3    3    0    0  0.12242773859E+03  0.18056007661E+03 -0.15625339193E+03  0.26833861990E+03  0.00000000000E+00 0. -1.
        -13    1    5    5    0    0 -0.15959308757E+03 -0.11008457419E+03  0.24506508597E+01  0.19389319937E+03  0.00000000000E+00 0.  1.
         14    1    5    5    0    0 -0.81610203011E+02 -0.14704739218E+03  0.30213744762E+02  0.17086846156E+03  0.00000000000E+00 0. -1.
          5    1    4    4  502    0 -0.21054245034E+03 -0.21128843140E+03 -0.83880681743E+03  0.89027517746E+03  0.47000000000E+01 0.  1.
         -5    1    4    4    0  502  0.14592037759E+02 -0.46937351241E-01 -0.32565942745E+02  0.35993893871E+02  0.47000000000E+01 0.  1.
          1    1    1    2  503    0  0.70641404155E+02  0.16524120954E+02 -0.77765719348E+03  0.78103390779E+03  0.00000000000E+00 0. -1.
         -2    1    1    2    0  501 -0.51842274080E+02  0.18414367339E+02  0.38392775601E+03  0.38784949676E+03  0.00000000000E+00 0.  1.
<mgrwt>
<rscale>  0 0.63086963E+02</rscale>
<asrwt>0</asrwt>
<pdfrwt beam="2">  1        2 0.36093540E+00 0.72342550E+02</pdfrwt>
<pdfrwt beam="1">  1       -1 0.11257253E+00 0.55015546E+02</pdfrwt>
<totfact> 0.55087002E+00</totfact>
</mgrwt>
</event>
<event>
13    1  0.1589573E-008  0.2410549E+03  0.7546771E-02  0.1220877E+00
          2   -1    0    0  502    0  0.00000000000E+00  0.00000000000E+00  0.16620557711E+04  0.16620557711E+04  0.00000000000E+00 0. -1.
          2   -1    0    0  503    0 -0.00000000000E+00 -0.00000000000E+00 -0.14112334239E+04  0.14112334239E+04  0.00000000000E+00 0. -1.
         24    2    1    2    0    0 -0.37004383653E+01 -0.11032535548E+02  0.13533357095E+03  0.15841552134E+03  0.81516206320E+02 0.  0.
         25    2    1    2    0    0  0.27951008560E+03  0.31182986022E+03  0.45455453359E+03  0.63056180941E+03  0.12499848719E+03 0.  0.
         24    2    1    2    0    0 -0.99713770513E+02 -0.36768644110E+02 -0.26913462080E+03  0.29973631261E+03  0.78189793207E+02 0.  0.
        -11    1    3    3    0    0  0.12452387607E+02  0.13837764787E+02 -0.12422658923E+01  0.18657141152E+02  0.00000000000E+00 0.  1.
         12    1    3    3    0    0 -0.16152825973E+02 -0.24870300335E+02  0.13657583684E+03  0.13975838019E+03  0.00000000000E+00 0. -1.
        -13    1    5    5    0    0 -0.11205785667E+02 -0.18835207457E+02 -0.14263931765E+03  0.14431323437E+03  0.00000000000E+00 0.  1.
         14    1    5    5    0    0 -0.88507984845E+02 -0.17933436653E+02 -0.12649530315E+03  0.15542307824E+03  0.00000000000E+00 0. -1.
          5    1    4    4  501    0 -0.30901361847E+01  0.54171628142E+02  0.52216158484E+02  0.75450191809E+02  0.47000000000E+01 0.  1.
         -5    1    4    4    0  501  0.28260022178E+03  0.25765823208E+03  0.40233837511E+03  0.55511161760E+03  0.47000000000E+01 0.  1.
          1    1    1    2  502    0  0.74856172103E+02 -0.58683072211E+01  0.92420664147E+03  0.92725174558E+03  0.00000000000E+00 0. -1.
          1    1    1    2  503    0 -0.25095204882E+03 -0.25816037335E+03 -0.99413777800E+03  0.10573238060E+04  0.00000000000E+00 0. -1.
<mgrwt>
<rscale>  0 0.13453554E+03</rscale>
<asrwt>0</asrwt>
<pdfrwt beam="1">  1        2 0.24441997E+00 0.75085841E+02</pdfrwt>
<pdfrwt beam="2">  1        2 0.20753433E+00 0.24105490E+03</pdfrwt>
<totfact> 0.35533266E+01</totfact>
</mgrwt>
</event>
<event>
13    1  0.1589573E-008  0.1219886E+03  0.7546771E-02  0.1290886E+00
          2   -1    0    0  503    0  0.00000000000E+00  0.00000000000E+00  0.50550200803E+03  0.50550200803E+03  0.00000000000E+00 0. -1.
         -1   -1    0    0    0  501 -0.00000000000E+00 -0.00000000000E+00 -0.13316547152E+04  0.13316547152E+04  0.00000000000E+00 0.  1.
         24    2    1    2    0    0  0.18060018582E+02 -0.51960270663E+02 -0.27140120473E+03  0.28839364886E+03  0.80537250852E+02 0.  0.
         25    2    1    2    0    0 -0.10393959839E+03  0.99470085638E+02 -0.31263725227E+02  0.19313195016E+03  0.12499916642E+03 0.  0.
         24    2    1    2    0    0  0.78248965085E-02  0.73276658841E+02 -0.26467045821E+03  0.28607211716E+03  0.80108276586E+02 0.  0.
        -11    1    3    3    0    0  0.15505020878E+02 -0.72552055390E+02 -0.23569890718E+03  0.24709953715E+03  0.00000000000E+00 0.  1.
         12    1    3    3    0    0  0.25549977042E+01  0.20591784727E+02 -0.35702297554E+02  0.41294111713E+02  0.00000000000E+00 0. -1.
        -11    1    5    5    0    0 -0.27316238697E+02  0.20938932729E+02 -0.35608446131E+02  0.49523501858E+02  0.00000000000E+00 0.  1.
         12    1    5    5    0    0  0.27324063593E+02  0.52337726112E+02 -0.22906201208E+03  0.23654861530E+03  0.00000000000E+00 0. -1.
          5    1    4    4  502    0 -0.71991126832E+02 -0.75896312866E+01  0.11425435698E+02  0.73436744389E+02  0.47000000000E+01 0.  1.
         -5    1    4    4    0  502 -0.31948471561E+02  0.10705971692E+03 -0.42689160925E+02  0.11969520577E+03  0.47000000000E+01 0.  1.
          1    1    1    2  503    0 -0.27353938377E+02 -0.68955714564E+02  0.39606006569E+03  0.40294752034E+03  0.00000000000E+00 0. -1.
         -2    1    1    2    0  501  0.11322569329E+03 -0.51830759253E+02 -0.65487738466E+03  0.66661148667E+03  0.00000000000E+00 0.  1.
<mgrwt>
<rscale>  0 0.95128816E+02</rscale>
<asrwt>0</asrwt>
<pdfrwt beam="1">  1        2 0.74338532E-01 0.74183074E+02</pdfrwt>
<pdfrwt beam="2">  1       -1 0.19583157E+00 0.12198863E+03</pdfrwt>
<totfact> 0.14441805E+01</totfact>
</mgrwt>
</event>
<event>
13    1  0.1589573E-008  0.9060791E+02  0.7546771E-02  0.1335946E+00
          2   -1    0    0  503    0  0.00000000000E+00  0.00000000000E+00  0.20683227873E+04  0.20683227873E+04  0.00000000000E+00 0. -1.
         -1   -1    0    0    0  501 -0.00000000000E+00 -0.00000000000E+00 -0.33621567642E+03  0.33621567642E+03  0.00000000000E+00 0.  1.
         24    2    1    2    0    0 -0.29913518982E+02  0.77951426726E+02 -0.42225006042E+02  0.12314953762E+03  0.80072554195E+02 0.  0.
         25    2    1    2    0    0 -0.20662597534E+03 -0.12764363119E+03  0.51093894400E+03  0.57937126104E+03  0.12500105340E+03 0.  0.
         24    2    1    2    0    0  0.12702552215E+03  0.43066390482E+01  0.44534150571E+03  0.47013029430E+03  0.80866596888E+02 0.  0.
        -13    1    3    3    0    0  0.21893132803E+02  0.29407598198E+02 -0.36801364635E+02  0.51946670102E+02  0.00000000000E+00 0.  1.
         14    1    3    3    0    0 -0.51806651784E+02  0.48543828528E+02 -0.54236414065E+01  0.71202867522E+02  0.00000000000E+00 0. -1.
        -13    1    5    5    0    0  0.97084156343E+02  0.32284386020E+02  0.24264280842E+03  0.26333087072E+03  0.00000000000E+00 0.  1.
         14    1    5    5    0    0  0.29941365812E+02 -0.27977746971E+02  0.20269869729E+03  0.20679942358E+03  0.00000000000E+00 0. -1.
          5    1    4    4  502    0 -0.21149116810E+03 -0.10828083932E+03  0.38996262439E+03  0.45666858089E+03  0.47000000000E+01 0. -1.
         -5    1    4    4    0  502  0.48651927608E+01 -0.19362791875E+02  0.12097631961E+03  0.12270268015E+03  0.47000000000E+01 0. -1.
          1    1    1    2  503    0  0.88717690206E+02 -0.17771864032E+02  0.10175679057E+04  0.10215826498E+04  0.00000000000E+00 0. -1.
         -2    1    1    2    0  501  0.20796281962E+02  0.63157429452E+02 -0.19951623847E+03  0.21030472095E+03  0.00000000000E+00 0.  1.
<mgrwt>
<rscale>  0 0.77619653E+02</rscale>
<asrwt>0</asrwt>
<pdfrwt beam="1">  1        2 0.30416511E+00 0.90607915E+02</pdfrwt>
<pdfrwt beam="2">  1       -1 0.49443483E-01 0.66493204E+02</pdfrwt>
<totfact> 0.41814210E+01</totfact>
</mgrwt>
</event>
<event>
13    1  0.1589573E-008  0.1650032E+03  0.7546771E-02  0.1183729E+00
          2   -1    0    0  503    0  0.00000000000E+00  0.00000000000E+00  0.16596410084E+04  0.16596410084E+04  0.00000000000E+00 0. -1.
          2   -1    0    0  502    0 -0.00000000000E+00 -0.00000000000E+00 -0.93431892835E+03  0.93431892835E+03  0.00000000000E+00 0. -1.
         24    2    1    2    0    0 -0.78929392091E+02  0.21222267594E+03 -0.12717455893E+03  0.27202612129E+03  0.80972397189E+02 0.  0.
         25    2    1    2    0    0  0.18828924175E+03  0.14919444370E+03  0.87307488325E+02  0.28452747310E+03  0.12498585857E+03 0.  0.
         24    2    1    2    0    0  0.49675370088E+02 -0.78944886456E+02 -0.17423700493E+03  0.21347325185E+03  0.80699181385E+02 0.  0.
        -11    1    5    5    0    0  0.71705073872E+02 -0.62590218996E+02 -0.12505306952E+03  0.15715413876E+03  0.00000000000E+00 0.  1.
         12    1    5    5    0    0 -0.22029703784E+02 -0.16354667461E+02 -0.49183935410E+02  0.56319113088E+02  0.00000000000E+00 0. -1.
        -11    1    3    3    0    0  0.94789878902E+01  0.96639180841E+01 -0.25238348915E+02  0.28639427022E+02  0.00000000000E+00 0.  1.
         12    1    3    3    0    0 -0.88408379981E+02  0.20255875786E+03 -0.10193621001E+03  0.24338669427E+03  0.00000000000E+00 0. -1.
          5    1    4    4  501    0  0.11551171269E+03  0.11487042373E+03  0.11481989577E+03  0.19935864285E+03  0.47000000000E+01 0. -1.
         -5    1    4    4    0  501  0.72777529057E+02  0.34324019972E+02 -0.27512407441E+02  0.85168830249E+02  0.47000000000E+01 0. -1.
          1    1    1    2  502    0 -0.25296974450E+02 -0.18589836336E+03 -0.41713249183E+03  0.45738130062E+03  0.00000000000E+00 0. -1.
          1    1    1    2  503    0 -0.13373824530E+03 -0.96573869825E+02  0.13565586474E+04  0.13665517899E+04  0.00000000000E+00 0. -1.
<mgrwt>
<rscale>  0 0.16448066E+03</rscale>
<asrwt>0</asrwt>
<pdfrwt beam="1">  1        2 0.24406485E+00 0.16500321E+03</pdfrwt>
<pdfrwt beam="2">  1        2 0.13739984E+00 0.16395976E+03</pdfrwt>
<totfact> 0.62736396E+01</totfact>
</mgrwt>
</event>
<event>
13    1  0.1589573E-008  0.1059583E+03  0.7546771E-02  0.1290467E+00
         -1   -1    0    0    0  501 -0.00000000000E+00  0.00000000000E+00  0.11526386094E+04  0.11526386094E+04  0.00000000000E+00 0.  1.
          2   -1    0    0  503    0  0.00000000000E+00 -0.00000000000E+00 -0.25884760609E+04  0.25884760609E+04  0.00000000000E+00 0. -1.
         24    2    1    2    0    0  0.49544402739E+03  0.92718730578E+02  0.22025093365E+03  0.55407297855E+03  0.66519504746E+02 0.  0.
         25    2    1    2    0    0 -0.38100703432E+03 -0.10594088348E+03  0.87208562743E+01  0.41484407877E+03  0.12501890001E+03 0.  0.
         24    2    1    2    0    0 -0.14723808455E+02 -0.11473963455E+03 -0.27945827103E+03  0.31268646499E+03  0.79334266690E+02 0.  0.
        -11    1    3    3    0    0  0.20831227897E+03  0.58466832865E+02  0.12361947698E+03  0.24918698041E+03  0.00000000000E+00 0.  1.
         12    1    3    3    0    0  0.28713174842E+03  0.34251897713E+02  0.96631456671E+02  0.30488599815E+03  0.00000000000E+00 0. -1.
        -11    1    5    5    0    0 -0.46371309946E+02 -0.59599346500E+02 -0.13135840351E+03  0.15151703093E+03  0.00000000000E+00 0.  1.
         12    1    5    5    0    0  0.31647501491E+02 -0.55140288046E+02 -0.14809986752E+03  0.16116943406E+03  0.00000000000E+00 0. -1.
          5    1    4    4  502    0  0.78971854472E+00 -0.11569458184E+02  0.17401530579E+02  0.21433135201E+02  0.47000000000E+01 0.  1.
         -5    1    4    4    0  502 -0.38179675287E+03 -0.94371425298E+02 -0.86806743046E+01  0.39341094357E+03  0.47000000000E+01 0.  1.
          1    1    1    2  503    0 -0.97071114552E+02  0.42260705476E+02 -0.19175394457E+04  0.19204599174E+04  0.00000000000E+00 0. -1.
         -2    1    1    2    0  501 -0.26420700618E+01  0.85701081974E+02  0.53218847524E+03  0.53905123056E+03  0.00000000000E+00 0.  1.
<mgrwt>
<rscale>  0 0.95315566E+02</rscale>
<asrwt>0</asrwt>
<pdfrwt beam="2">  1        2 0.38065824E+00 0.10595832E+03</pdfrwt>
<pdfrwt beam="1">  1       -1 0.16950568E+00 0.85741798E+02</pdfrwt>
<totfact> 0.15975757E+00</totfact>
</mgrwt>
</event>
<event>
13    1  0.1589573E-008  0.1342243E+03  0.7546771E-02  0.1306674E+00
          2   -1    0    0  503    0  0.00000000000E+00  0.00000000000E+00  0.40500530392E+04  0.40500530392E+04  0.00000000000E+00 0. -1.
          2   -1    0    0  502    0 -0.00000000000E+00 -0.00000000000E+00 -0.12937975015E+04  0.12937975015E+04  0.00000000000E+00 0. -1.
         24    2    1    2    0    0  0.69588423844E+02  0.21055618812E+02 -0.26117085585E+03  0.28332639276E+03  0.82327037322E+02 0.  0.
         25    2    1    2    0    0 -0.35385662592E+02 -0.11012512618E+03  0.49052712303E+03  0.51925074904E+03  0.12499917368E+03 0.  0.
         24    2    1    2    0    0  0.92565096683E+02 -0.14348417052E+02 -0.78932676593E+02  0.14646379943E+03  0.80293853515E+02 0.  0.
        -11    1    3    3    0    0  0.83030876125E+02 -0.25687639205E-01 -0.22013923555E+03  0.23527730464E+03  0.00000000000E+00 0.  1.
         12    1    3    3    0    0 -0.13442452282E+02  0.21081306452E+02 -0.41031620299E+02  0.48049088122E+02  0.00000000000E+00 0. -1.
        -11    1    5    5    0    0 -0.28561824652E+01 -0.10885918543E+02 -0.42990227192E+02  0.44438954024E+02  0.00000000000E+00 0.  1.
         12    1    5    5    0    0  0.95421279148E+02 -0.34624985092E+01 -0.35942449401E+02  0.10202484540E+03  0.00000000000E+00 0. -1.
          5    1    4    4  501    0  0.26117794938E+02 -0.28698844940E+02  0.35186201310E+02  0.52592030536E+02  0.47000000000E+01 0.  1.
         -5    1    4    4    0  501 -0.61503457530E+02 -0.81426281239E+02  0.45534092172E+03  0.46665871851E+03  0.47000000000E+01 0.  1.
          1    1    1    2  502    0 -0.18430333363E+03  0.94175747808E+02 -0.88226978220E+03  0.90622114236E+03  0.00000000000E+00 0. -1.
          1    1    1    2  503    0  0.57535475701E+02  0.92421766101E+01  0.34881017294E+04  0.34885884571E+04  0.00000000000E+00 0. -1.
<mgrwt>
<rscale>  0 0.88440152E+02</rscale>
<asrwt>0</asrwt>
<pdfrwt beam="1">  1        2 0.59559603E+00 0.58273054E+02</pdfrwt>
<pdfrwt beam="2">  1        2 0.19026434E+00 0.13422431E+03</pdfrwt>
<totfact> 0.23897804E+00</totfact>
</mgrwt>
</event>
<event>
13    1  0.1589573E-008  0.1233840E+03  0.7546771E-02  0.1248954E+00
          2   -1    0    0  503    0  0.00000000000E+00  0.00000000000E+00  0.41285058913E+04  0.41285058913E+04  0.00000000000E+00 0. -1.
          2   -1    0    0  502    0 -0.00000000000E+00 -0.00000000000E+00 -0.17797943279E+04  0.17797943279E+04  0.00000000000E+00 0. -1.
         24    2    1    2    0    0 -0.19826753097E+03 -0.55235923759E+02 -0.39110274957E+02  0.22420456412E+03  0.79856445297E+02 0.  0.
         25    2    1    2    0    0  0.85501886232E+02  0.50616711617E+02  0.30927282294E+04  0.30968476158E+04  0.12499852147E+03 0.  0.
         24    2    1    2    0    0 -0.12480175860E+02  0.13256775150E+02 -0.13519817626E+03  0.15678319090E+03  0.77271762041E+02 0.  0.
        -11    1    5    5    0    0  0.11047542077E+01  0.42986389191E+02 -0.52517079374E+02  0.67875575603E+02  0.00000000000E+00 0.  1.
         12    1    5    5    0    0 -0.13584930067E+02 -0.29729614041E+02 -0.82681096886E+02  0.88907615300E+02  0.00000000000E+00 0. -1.
        -13    1    3    3    0    0  0.33758425531E+01  0.75040061440E+01 -0.65789017866E+01  0.10535101797E+02  0.00000000000E+00 0.  1.
         14    1    3    3    0    0 -0.20164337352E+03 -0.62739929903E+02 -0.32531373170E+02  0.21366946232E+03  0.00000000000E+00 0. -1.
          5    1    4    4  501    0  0.62441358812E+02 -0.10648223205E+02  0.24403560317E+04  0.24411824920E+04  0.47000000000E+01 0.  1.
         -5    1    4    4    0  501  0.23060527420E+02  0.61264934822E+02  0.65237219776E+03  0.65566512380E+03  0.47000000000E+01 0.  1.
          1    1    1    2  502    0  0.18817364000E+03 -0.98858123656E+02 -0.14892622402E+04  0.15043551002E+04  0.00000000000E+00 0. -1.
          1    1    1    2  503    0 -0.62927819411E+02  0.90220560648E+02  0.91955402541E+03  0.92610974818E+03  0.00000000000E+00 0. -1.
<mgrwt>
<rscale>  0 0.11651826E+03</rscale>
<asrwt>0</asrwt>
<pdfrwt beam="1">  1        2 0.60713322E+00 0.11003459E+03</pdfrwt>
<pdfrwt beam="2">  1        2 0.26173446E+00 0.12338398E+03</pdfrwt>
<totfact> 0.10563613E+00</totfact>
</mgrwt>
</event>
<event>
13    1  0.1589573E-008  0.8194502E+02  0.7546771E-02  0.1472921E+00
          2   -1    0    0  503    0  0.00000000000E+00  0.00000000000E+00  0.27982031617E+04  0.27982031617E+04  0.00000000000E+00 0. -1.
         -1   -1    0    0    0  501 -0.00000000000E+00 -0.00000000000E+00 -0.98688052018E+03  0.98688052018E+03  0.00000000000E+00 0.  1.
         24    2    1    2    0    0  0.44750692425E+03  0.40660035380E+02 -0.96812610777E+02  0.47015904624E+03  0.98798590187E+02 0.  0.
         25    2    1    2    0    0  0.37189176830E+03 -0.33033687260E+03  0.48718031272E+03  0.70738916749E+03  0.12501536084E+03 0.  0.
         24    2    1    2    0    0 -0.79613113813E+03  0.39313431758E+03  0.53796220974E+03  0.10408352791E+04  0.74534276506E+02 0.  0.
        -11    1    3    3    0    0  0.23201759167E+03  0.30880091208E+02 -0.84876597292E+00  0.23406508343E+03  0.00000000000E+00 0.  1.
         12    1    3    3    0    0  0.21548933258E+03  0.97799441720E+01 -0.95963844804E+02  0.23609396281E+03  0.00000000000E+00 0. -1.
        -13    1    5    5    0    0 -0.74630448425E+02  0.13908316336E+02  0.47906338054E+02  0.89767267538E+02  0.00000000000E+00 0.  1.
         14    1    5    5    0    0 -0.72150068970E+03  0.37922600124E+03  0.49005587169E+03  0.95106801157E+03  0.00000000000E+00 0. -1.
          5    1    4    4  502    0  0.34289940813E+03 -0.30091798615E+03  0.38463931471E+03  0.59674209749E+03  0.47000000000E+01 0.  1.
         -5    1    4    4    0  502  0.28992360172E+02 -0.29418886443E+02  0.10254099800E+03  0.11064707000E+03  0.47000000000E+01 0.  1.
          1    1    1    2  503    0 -0.10689079817E+02 -0.22558860225E+02  0.12198151177E+04  0.12200705225E+04  0.00000000000E+00 0. -1.
         -2    1    1    2    0  501 -0.12578474611E+02 -0.80898620138E+02 -0.33682238785E+03  0.34662966653E+03  0.00000000000E+00 0.  1.
<mgrwt>
<rscale>  0 0.45228370E+02</rscale>
<asrwt>0</asrwt>
<pdfrwt beam="1">  1        2 0.41150046E+00 0.24963145E+02</pdfrwt>
<pdfrwt beam="2">  1       -1 0.14512949E+00 0.81945022E+02</pdfrwt>
<totfact> 0.23632726E+00</totfact>
</mgrwt>
</event>
<event>
13    1  0.1589573E-008  0.1524388E+03  0.7546771E-02  0.1412249E+00
          2   -1    0    0  503    0  0.00000000000E+00  0.00000000000E+00  0.12645888799E+04  0.12645888799E+04  0.00000000000E+00 0. -1.
         -1   -1    0    0    0  501 -0.00000000000E+00 -0.00000000000E+00 -0.24105221902E+03  0.24105221902E+03  0.00000000000E+00 0.  1.
         24    2    1    2    0    0  0.98185759357E+01  0.54330073956E+02 -0.76373768406E+01  0.98918803561E+02  0.81721715618E+02 0.  0.
         25    2    1    2    0    0 -0.15701245093E+03  0.22129756419E+02  0.26420553014E+03  0.33252338048E+03  0.12499840214E+03 0.  0.
         24    2    1    2    0    0  0.62129966398E+01  0.86168281652E+01  0.48541156691E+02  0.99417728885E+02  0.86109174127E+02 0.  0.
        -11    1    5    5    0    0 -0.22750677504E+02  0.31166608785E+02  0.33447671446E-01  0.38586940133E+02  0.00000000000E+00 0.  1.
         12    1    5    5    0    0  0.28963674144E+02 -0.22549780620E+02  0.48507709020E+02  0.60830788753E+02  0.00000000000E+00 0. -1.
        -11    1    3    3    0    0  0.33302709117E+02 -0.59455571339E+01 -0.47955814268E+01  0.34167494573E+02  0.00000000000E+00 0.  1.
         12    1    3    3    0    0 -0.23484133181E+02  0.60275631090E+02 -0.28417954138E+01  0.64751308988E+02  0.00000000000E+00 0. -1.
          5    1    4    4  502    0 -0.85296021858E+02  0.73371057902E+02  0.13127215736E+03  0.17295430836E+03  0.47000000000E+01 0. -1.
         -5    1    4    4    0  502 -0.71716429073E+02 -0.51241301482E+02  0.13293337278E+03  0.15956907211E+03  0.47000000000E+01 0. -1.
          1    1    1    2  503    0  0.12230494937E+03 -0.94865885433E+02  0.83860392654E+03  0.85276877433E+03  0.00000000000E+00 0. -1.
         -2    1    1    2    0  501  0.18675928989E+02  0.97892268924E+01 -0.12017657561E+03  0.12201241171E+03  0.00000000000E+00 0.  1.
<mgrwt>
<rscale>  0 0.56695018E+02</rscale>
<asrwt>0</asrwt>
<pdfrwt beam="1">  1        2 0.18596895E+00 0.15243884E+03</pdfrwt>
<pdfrwt beam="2">  1       -1 0.35448856E-01 0.21085997E+02</pdfrwt>
<totfact> 0.17358276E+02</totfact>
</mgrwt>
</event>
<event>
13    1  0.1589573E-008  0.8308207E+02  0.7546771E-02  0.1346858E+00
          2   -1    0    0  502    0  0.00000000000E+00  0.00000000000E+00  0.74944244915E+03  0.74944244915E+03  0.00000000000E+00 0. -1.
          4   -1    0    0  503    0 -0.00000000000E+00 -0.00000000000E+00 -0.21102593326E+04  0.21102593326E+04  0.00000000000E+00 0. -1.
         24    2    1    2    0    0 -0.21361453912E+02 -0.19919746251E+02 -0.11259087955E+04  0.11291044613E+04  0.79706717788E+02 0.  0.
         25    2    1    2    0    0  0.89986557975E+02 -0.16735765157E+03  0.32854147735E+03  0.39958088829E+03  0.12497687704E+03 0.  0.
         24    2    1    2    0    0  0.42749886165E+02  0.93956638907E+02 -0.93785569355E+02  0.16205056398E+03  0.82518176807E+02 0.  0.
        -11    1    5    5    0    0  0.53438196355E+02  0.69547565288E+02 -0.29622359004E+02  0.92574234105E+02  0.00000000000E+00 0.  1.
         12    1    5    5    0    0 -0.10688310190E+02  0.24409073620E+02 -0.64163210351E+02  0.69476329870E+02  0.00000000000E+00 0. -1.
        -11    1    3    3    0    0  0.19234427288E+02 -0.10842607907E+02 -0.10252828217E+03  0.10487885385E+03  0.00000000000E+00 0.  1.
         12    1    3    3    0    0 -0.40595881200E+02 -0.90771383445E+01 -0.10233805133E+04  0.10242256075E+04  0.00000000000E+00 0. -1.
          5    1    4    4  501    0  0.85099575903E+01 -0.12022579783E+03  0.24732614013E+03  0.27517080411E+03  0.47000000000E+01 0.  1.
         -5    1    4    4    0  501  0.81476600384E+02 -0.47131853744E+02  0.81215337213E+02  0.12441008418E+03  0.47000000000E+01 0.  1.
          1    1    1    2  502    0 -0.59270044719E+02  0.29010153700E+02  0.34442023505E+03  0.35068479512E+03  0.00000000000E+00 0. -1.
          3    1    1    2  503    0 -0.52104945508E+02  0.64310605218E+02 -0.81408423104E+03  0.81828107306E+03  0.00000000000E+00 0. -1.
<mgrwt>
<rscale>  0 0.74043836E+02</rscale>
<asrwt>0</asrwt>
<pdfrwt beam="1">  1        2 0.11021213E+00 0.65988842E+02</pdfrwt>
<pdfrwt beam="2">  1        4 0.31033225E+00 0.83082072E+02</pdfrwt>
<totfact> 0.77305484E-01</totfact>
</mgrwt>
</event>
<event>
13    1  0.1589573E-008  0.1021897E+03  0.7546771E-02  0.1323569E+00
          2   -1    0    0  503    0  0.00000000000E+00  0.00000000000E+00  0.34846926112E+04  0.34846926112E+04  0.00000000000E+00 0. -1.
          2   -1    0    0  502    0 -0.00000000000E+00 -0.00000000000E+00 -0.33903934028E+04  0.33903934028E+04  0.00000000000E+00 0. -1.
         24    2    1    2    0    0 -0.39186730488E+02  0.39772665402E+02 -0.77133966338E+02  0.12800102332E+03  0.85540332293E+02 0.  0.
         25    2    1    2    0    0  0.15942401710E+03  0.38856029294E+02  0.22170631543E+04  0.22266386427E+04  0.12499922716E+03 0.  0.
         24    2    1    2    0    0  0.20498449291E+02  0.11248880965E+02 -0.19875534631E+03  0.21471524573E+03  0.77796049490E+02 0.  0.
        -11    1    5    5    0    0 -0.11659080574E+02 -0.17250653643E+02 -0.14205468645E+03  0.14357246656E+03  0.00000000000E+00 0.  1.
         12    1    5    5    0    0  0.32157529866E+02  0.28499534609E+02 -0.56700659860E+02  0.71142779174E+02  0.00000000000E+00 0. -1.
        -13    1    3    3    0    0 -0.13454022612E+02  0.47362974625E+02 -0.86544089616E+02  0.99569782250E+02  0.00000000000E+00 0.  1.
         14    1    3    3    0    0 -0.25732707876E+02 -0.75903092235E+01  0.94101232782E+01  0.28431241071E+02  0.00000000000E+00 0. -1.
          5    1    4    4  501    0  0.16934526425E+03  0.58105878999E+02  0.17729708022E+04  0.17819937338E+04  0.47000000000E+01 0.  1.
         -5    1    4    4    0  501 -0.99212471502E+01 -0.19249849706E+02  0.44409235210E+03  0.44464490895E+03  0.47000000000E+01 0.  1.
          1    1    1    2  502    0 -0.57114890248E+02 -0.32554031101E+02 -0.30738607237E+04  0.30745636478E+04  0.00000000000E+00 0. -1.
          1    1    1    2  503    0 -0.83620845654E+02 -0.57323544559E+02  0.12269860905E+04  0.12311674544E+04  0.00000000000E+00 0. -1.
<mgrwt>
<rscale>  0 0.81963700E+02</rscale>
<asrwt>0</asrwt>
<pdfrwt beam="1">  1        2 0.51245480E+00 0.10218967E+03</pdfrwt>
<pdfrwt beam="2">  1        2 0.49858726E+00 0.65740974E+02</pdfrwt>
<totfact> 0.45699122E-01</totfact>
</mgrwt>
</event>
<event>
13    1  0.1589573E-008  0.1234733E+03  0.7546771E-02  0.1251785E+00
          4   -1    0    0  503    0 -0.00000000000E+00  0.00000000000E+00  0.88908585733E+03  0.88908585733E+03  0.00000000000E+00 0. -1.
          2   -1    0    0  502    0  0.00000000000E+00 -0.00000000000E+00 -0.19753902977E+04  0.19753902977E+04  0.00000000000E+00 0. -1.
         24    2    1    2    0    0 -0.26371299716E+02 -0.12214942955E+03  0.18444033521E+03  0.23609004751E+03  0.78130305856E+02 0.  0.
         25    2    1    2    0    0 -0.16746436968E+03 -0.70489542110E+02  0.60358738464E+02  0.22865073899E+03  0.12499956989E+03 0.  0.
         24    2    1    2    0    0  0.48518787710E+02 -0.94799644121E+01  0.11043099310E+03  0.14484774399E+03  0.79636186592E+02 0.  0.
        -11    1    5    5    0    0  0.24693306055E+02 -0.24489995826E+02  0.11136873893E+03  0.11667268434E+03  0.00000000000E+00 0.  1.
         12    1    5    5    0    0  0.23825481655E+02  0.15010031414E+02 -0.93774582703E+00  0.28175059652E+02  0.00000000000E+00 0. -1.
        -13    1    3    3    0    0  0.16787148742E+02 -0.80971887441E+02  0.13635688287E+03  0.15947242528E+03  0.00000000000E+00 0.  1.
         14    1    3    3    0    0 -0.43158448457E+02 -0.41177542114E+02  0.48083452341E+02  0.76617622234E+02  0.00000000000E+00 0. -1.
          5    1    4    4  501    0 -0.14392293542E+03 -0.98445384771E+02  0.22601676725E+02  0.17589266873E+03  0.47000000000E+01 0.  1.
         -5    1    4    4    0  501 -0.23541434254E+02  0.27955842661E+02  0.37757061739E+02  0.52758070252E+02  0.47000000000E+01 0.  1.
          1    1    1    2  502    0  0.46347602842E+02  0.96291728398E+02 -0.18336998101E+04  0.18368111473E+04  0.00000000000E+00 0. -1.
          3    1    1    2  503    0  0.98969278839E+02  0.10582720768E+03  0.39216530292E+03  0.41807647728E+03  0.00000000000E+00 0. -1.
<mgrwt>
<rscale>  0 0.11488331E+03</rscale>
<asrwt>0</asrwt>
<pdfrwt beam="2">  1        2 0.29049857E+00 0.10689091E+03</pdfrwt>
<pdfrwt beam="1">  1        4 0.13074792E+00 0.12347331E+03</pdfrwt>
<totfact> 0.21916089E+00</totfact>
</mgrwt>
</event>
<event>
13    1  0.1589573E-008  0.3420864E+03  0.7546771E-02  0.1085333E+00
          2   -1    0    0  502    0  0.00000000000E+00  0.00000000000E+00  0.34193286424E+04  0.34193286424E+04  0.00000000000E+00 0. -1.
          2   -1    0    0  503    0 -0.00000000000E+00 -0.00000000000E+00 -0.13184716507E+04  0.13184716507E+04  0.00000000000E+00 0. -1.
         24    2    1    2    0    0  0.53996376769E+02 -0.80281907446E+01 -0.31967669744E+02  0.10333367888E+03  0.81705916128E+02 0.  0.
         25    2    1    2    0    0 -0.67480348687E+03 -0.24124304562E+03 -0.15836081547E+03  0.74448687716E+03  0.12499843770E+03 0.  0.
         24    2    1    2    0    0 -0.54341410007E+03  0.19754288462E+03 -0.28023855944E+03  0.64743496642E+03  0.79475217075E+02 0.  0.
        -11    1    3    3    0    0  0.23485650428E+02 -0.41295236803E+02  0.86801494477E+00  0.47514479989E+02  0.00000000000E+00 0.  1.
         12    1    3    3    0    0  0.30510726342E+02  0.33267046059E+02 -0.32835684689E+02  0.55819198887E+02  0.00000000000E+00 0. -1.
        -11    1    5    5    0    0 -0.16341677325E+03  0.91413327391E+02 -0.66398490467E+02  0.19867107928E+03  0.00000000000E+00 0.  1.
         12    1    5    5    0    0 -0.37999732681E+03  0.10612955723E+03 -0.21384006898E+03  0.44876388714E+03  0.00000000000E+00 0. -1.
          5    1    4    4  501    0 -0.42465709416E+03 -0.10494743907E+03 -0.13862643046E+03  0.45889758096E+03  0.47000000000E+01 0. -1.
         -5    1    4    4    0  501 -0.25014639271E+03 -0.13629560655E+03 -0.19734385012E+02  0.28558929620E+03  0.47000000000E+01 0. -1.
          1    1    1    2  502    0 -0.41945770518E+02  0.25952926818E+03  0.17474019563E+04  0.17670677649E+04  0.00000000000E+00 0. -1.
          1    1    1    2  503    0  0.12061669807E+04 -0.20780091643E+03  0.82402208000E+03  0.14754770057E+04  0.00000000000E+00 0. -1.
<mgrwt>
<rscale>  0 0.29981521E+03</rscale>
<asrwt>0</asrwt>
<pdfrwt beam="1">  1        2 0.50284245E+00 0.26276740E+03</pdfrwt>
<pdfrwt beam="2">  1        2 0.19389289E+00 0.34208643E+03</pdfrwt>
<totfact> 0.41108621E+00</totfact>
</mgrwt>
</event>
<event>
13    1  0.1589573E-008  0.5125211E+02  0.7546771E-02  0.1567306E+00
          2   -1    0    0  502    0  0.00000000000E+00  0.00000000000E+00  0.67183010763E+03  0.67183010763E+03  0.00000000000E+00 0. -1.
          2   -1    0    0  503    0 -0.00000000000E+00 -0.00000000000E+00 -0.14596574610E+04  0.14596574610E+04  0.00000000000E+00 0. -1.
         24    2    1    2    0    0  0.74434853713E+01 -0.56226056567E+02 -0.45767917258E+03  0.46789398782E+03  0.78979642424E+02 0.  0.
         25    2    1    2    0    0  0.25858015593E+01 -0.72219767536E+02  0.33408033264E+03  0.36394641154E+03  0.12499976249E+03 0.  0.
         24    2    1    2    0    0  0.84335613450E+01  0.15586495690E+03 -0.48367083256E+03  0.51471875040E+03  0.81442666926E+02 0.  0.
        -11    1    3    3    0    0  0.39938795753E+02 -0.10888657517E+02 -0.18702417539E+03  0.19155080905E+03  0.00000000000E+00 0.  1.
         12    1    3    3    0    0 -0.32495310382E+02 -0.45337399050E+02 -0.27065499719E+03  0.27634317877E+03  0.00000000000E+00 0. -1.
        -11    1    5    5    0    0  0.39642871909E+02  0.67650350242E+02 -0.27636725434E+03  0.28727510587E+03  0.00000000000E+00 0.  1.
         12    1    5    5    0    0 -0.31209310564E+02  0.88214606657E+02 -0.20730357822E+03  0.22744364453E+03  0.00000000000E+00 0. -1.
          5    1    4    4  501    0 -0.51908353303E+02 -0.15327785703E+02  0.71723383993E+02  0.89976396731E+02  0.47000000000E+01 0.  1.
         -5    1    4    4    0  501  0.54494154863E+02 -0.56891981833E+02  0.26235694864E+03  0.27397001481E+03  0.47000000000E+01 0.  1.
          1    1    1    2  502    0 -0.18503458256E+01  0.21141410754E+02  0.30044588227E+03  0.30119447405E+03  0.00000000000E+00 0. -1.
          1    1    1    2  503    0 -0.16612502450E+02 -0.48560543549E+02 -0.48100356315E+03  0.48373394484E+03  0.00000000000E+00 0. -1.
<mgrwt>
<rscale>  0 0.32980055E+02</rscale>
<asrwt>0</asrwt>
<pdfrwt beam="1">  1        2 0.98798547E-01 0.21222230E+02</pdfrwt>
<pdfrwt beam="2">  1        2 0.21465550E+00 0.51252108E+02</pdfrwt>
<totfact> 0.13648365E+02</totfact>
</mgrwt>
</event>
<event>
13    1  0.1589573E-008  0.1478384E+03  0.7546771E-02  0.1421190E+00
          2   -1    0    0  503    0  0.00000000000E+00  0.00000000000E+00  0.73888225999E+03  0.73888225999E+03  0.00000000000E+00 0. -1.
          2   -1    0    0  502    0 -0.00000000000E+00 -0.00000000000E+00 -0.12369516919E+04  0.12369516919E+04  0.00000000000E+00 0. -1.
         24    2    1    2    0    0 -0.35051968078E+03  0.23671804289E+03  0.80208734881E+02  0.43825632041E+03  0.82071205620E+02 0.  0.
         25    2    1    2    0    0  0.33415290912E+03 -0.31628905430E+03 -0.12180106727E+03  0.49209576191E+03  0.12500322539E+03 0.  0.
         24    2    1    2    0    0 -0.39813732253E+02 -0.80969818186E+02 -0.51744018825E+02  0.13163930039E+03  0.80685916920E+02 0.  0.
        -11    1    3    3    0    0 -0.33490987260E+02  0.54113559674E+02 -0.32642743582E+00  0.63639846976E+02  0.00000000000E+00 0.  1.
         12    1    3    3    0    0 -0.31702869352E+03  0.18260448321E+03  0.80535162317E+02  0.37461647344E+03  0.00000000000E+00 0. -1.
        -11    1    5    5    0    0 -0.39001853778E+02 -0.18772608451E+00 -0.81621071243E+01  0.39847206074E+02  0.00000000000E+00 0.  1.
         12    1    5    5    0    0 -0.81187847512E+00 -0.80782092101E+02 -0.43581911701E+02  0.91792094313E+02  0.00000000000E+00 0. -1.
          5    1    4    4  501    0  0.18644103641E+03 -0.22080015717E+03 -0.12785232256E+03  0.31603999090E+03  0.47000000000E+01 0. -1.
         -5    1    4    4    0  501  0.14771187271E+03 -0.95488897132E+02  0.60512552972E+01  0.17605577101E+03  0.47000000000E+01 0. -1.
          1    1    1    2  502    0  0.12296391459E+02  0.16140356362E+02 -0.63674224940E+03  0.63706546329E+03  0.00000000000E+00 0. -1.
          1    1    1    2  503    0  0.43884112448E+02  0.14440047324E+03  0.23200916868E+03  0.27677710590E+03  0.00000000000E+00 0. -1.
<mgrwt>
<rscale>  0 0.54769912E+02</rscale>
<asrwt>0</asrwt>
<pdfrwt beam="1">  1        2 0.10865916E+00 0.14783836E+03</pdfrwt>
<pdfrwt beam="2">  1        2 0.18190466E+00 0.20290696E+02</pdfrwt>
<totfact> 0.15949776E+02</totfact>
</mgrwt>
</event>
<event>
13    1  0.1589573E-008  0.1242592E+03  0.7546771E-02  0.1322372E+00
          2   -1    0    0  503    0  0.00000000000E+00  0.00000000000E+00  0.14733521395E+04  0.14733521395E+04  0.00000000000E+00 0. -1.
          2   -1    0    0  502    0 -0.00000000000E+00 -0.00000000000E+00 -0.12645124211E+04  0.12645124211E+04  0.00000000000E+00 0. -1.
         24    2    1    2    0    0 -0.88604246495E+02 -0.12007680259E+03 -0.19133702469E+03  0.25512789969E+03  0.78811402520E+02 0.  0.
         25    2    1    2    0    0  0.84176133175E+02 -0.69519301389E+02 -0.99648768983E+02  0.19358356323E+03  0.12500465644E+03 0.  0.
         24    2    1    2    0    0  0.70578614977E+02  0.11316100331E+03 -0.60523871980E+03  0.62496594407E+03  0.80509438873E+02 0.  0.
        -13    1    3    3    0    0 -0.67417825813E+02 -0.12697866502E+03 -0.14761677081E+03  0.20605692328E+03  0.00000000000E+00 0.  1.
         14    1    3    3    0    0 -0.21186420682E+02  0.69018624347E+01 -0.43720253882E+02  0.49070976411E+02  0.00000000000E+00 0. -1.
        -13    1    5    5    0    0  0.83592836383E+02  0.11333668049E+03 -0.51972078885E+03  0.53846324276E+03  0.00000000000E+00 0.  1.
         14    1    5    5    0    0 -0.13014221405E+02 -0.17567718197E+00 -0.85517930944E+02  0.86502701311E+02  0.00000000000E+00 0. -1.
          5    1    4    4  501    0  0.43539292360E+02  0.33479740509E+02 -0.31808868211E+02  0.63643201527E+02  0.47000000000E+01 0. -1.
         -5    1    4    4    0  501  0.40636840815E+02 -0.10299904190E+03 -0.67839900773E+02  0.12994036171E+03  0.47000000000E+01 0. -1.
          1    1    1    2  502    0  0.47758715407E+02  0.26551862017E+02 -0.27406683462E+03  0.27946113524E+03  0.00000000000E+00 0. -1.
          1    1    1    2  503    0 -0.11390921706E+03  0.49883238649E+02  0.13791310665E+04  0.13847260183E+04  0.00000000000E+00 0. -1.
<mgrwt>
<rscale>  0 0.82401103E+02</rscale>
<asrwt>0</asrwt>
<pdfrwt beam="1">  1        2 0.21666943E+00 0.12425924E+03</pdfrwt>
<pdfrwt beam="2">  1        2 0.18595771E+00 0.54643355E+02</pdfrwt>
<totfact> 0.55472116E+01</totfact>
</mgrwt>
</event>
<event>
13    1  0.1589573E-008  0.9470769E+02  0.7546771E-02  0.1476172E+00
          2   -1    0    0  503    0  0.00000000000E+00  0.00000000000E+00  0.23878768027E+04  0.23878768027E+04  0.00000000000E+00 0. -1.
          2   -1    0    0  502    0 -0.00000000000E+00 -0.00000000000E+00 -0.21269730927E+04  0.21269730927E+04  0.00000000000E+00 0. -1.
         24    2    1    2    0    0 -0.64338360060E+03  0.15341260888E+03 -0.87907488545E+02  0.67251359358E+03  0.84076875099E+02 0.  0.
         25    2    1    2    0    0  0.22709346528E+02  0.19492886380E+03  0.52456395024E+03  0.57385268597E+03  0.12500636360E+03 0.  0.
         24    2    1    2    0    0  0.57644661509E+03 -0.24224391773E+03  0.49277395779E+02  0.63344135280E+03  0.88582560201E+02 0.  0.
        -11    1    3    3    0    0 -0.76500766237E+02 -0.81680689972E+01 -0.32493108619E+01  0.77004172660E+02  0.00000000000E+00 0.  1.
         12    1    3    3    0    0 -0.56688283436E+03  0.16158067787E+03 -0.84658177683E+02  0.59550942092E+03  0.00000000000E+00 0. -1.
        -13    1    5    5    0    0  0.37013843464E+03 -0.16866303815E+03 -0.87470537661E+01  0.40684910248E+03  0.00000000000E+00 0.  1.
         14    1    5    5    0    0  0.20630818045E+03 -0.73580879582E+02  0.58024449545E+02  0.22659225032E+03  0.00000000000E+00 0. -1.
          5    1    4    4  501    0  0.11770196732E+02 -0.16077137091E+02  0.33788467758E+02  0.39506485816E+02  0.47000000000E+01 0. -1.
         -5    1    4    4    0  501  0.10939149795E+02  0.21100600089E+03  0.49077548249E+03  0.53434620016E+03  0.47000000000E+01 0. -1.
          1    1    1    2  502    0  0.12719817561E+02 -0.16841345727E+02 -0.14280993240E+04  0.14282552657E+04  0.00000000000E+00 0. -1.
          1    1    1    2  503    0  0.31507821416E+02 -0.89256209222E+02  0.12030691765E+04  0.12067869974E+04  0.00000000000E+00 0. -1.
<mgrwt>
<rscale>  0 0.44708098E+02</rscale>
<asrwt>0</asrwt>
<pdfrwt beam="1">  1        2 0.35115836E+00 0.94707690E+02</pdfrwt>
<pdfrwt beam="2">  1        2 0.31279016E+00 0.21105087E+02</pdfrwt>
<totfact> 0.89582996E+00</totfact>
</mgrwt>
</event>
<event>
13    1  0.1589573E-008  0.1785170E+03  0.7546771E-02  0.1308734E+00
          2   -1    0    0  503    0  0.00000000000E+00  0.00000000000E+00  0.21316760207E+04  0.21316760207E+04  0.00000000000E+00 0. -1.
          2   -1    0    0  502    0 -0.00000000000E+00 -0.00000000000E+00 -0.68931663781E+03  0.68931663781E+03  0.00000000000E+00 0. -1.
         24    2    1    2    0    0  0.21751795369E+02 -0.11393610767E+03  0.18355956897E+02  0.15157200197E+03  0.95825640588E+02 0.  0.
         25    2    1    2    0    0 -0.33594681151E+03  0.21808852587E+03  0.11825165119E+04  0.12547461420E+04  0.12497885671E+03 0.  0.
         24    2    1    2    0    0 -0.26971559505E+02 -0.76443842221E+01  0.17806805941E+02  0.86871977114E+02  0.80273011888E+02 0.  0.
        -11    1    3    3    0    0  0.49095130525E+02 -0.11274023069E+03  0.17348580475E+02  0.12418399535E+03  0.00000000000E+00 0.  1.
         12    1    3    3    0    0 -0.27343335155E+02 -0.11958769814E+01  0.10073764218E+01  0.27388006616E+02  0.00000000000E+00 0. -1.
        -13    1    5    5    0    0 -0.83746523706E+01 -0.39471958332E+02 -0.89389517125E+01  0.41328865876E+02  0.00000000000E+00 0.  1.
         14    1    5    5    0    0 -0.18596907135E+02  0.31827574110E+02  0.26745757653E+02  0.45543111237E+02  0.00000000000E+00 0. -1.
          5    1    4    4  501    0 -0.22305193184E+03  0.20972481145E+03  0.85272178011E+03  0.90603155856E+03  0.47000000000E+01 0.  1.
         -5    1    4    4    0  501 -0.11289487967E+03  0.83637144266E+01  0.32979473183E+03  0.34871458346E+03  0.47000000000E+01 0.  1.
          1    1    1    2  502    0  0.38273886048E+03 -0.85518566145E+02 -0.48167458048E+03  0.62113835976E+03  0.00000000000E+00 0. -1.
          1    1    1    2  503    0 -0.41572284836E+02 -0.10989467841E+02  0.70535468855E+03  0.70666417762E+03  0.00000000000E+00 0. -1.
<mgrwt>
<rscale>  0 0.87614370E+02</rscale>
<asrwt>0</asrwt>
<pdfrwt beam="1">  1        2 0.31348177E+00 0.43000271E+02</pdfrwt>
<pdfrwt beam="2">  1        2 0.10137009E+00 0.17851697E+03</pdfrwt>
<totfact> 0.62093856E+01</totfact>
</mgrwt>
</event>
<event>
13    1  0.1589573E-008  0.1150880E+03  0.7546771E-02  0.1256293E+00
          2   -1    0    0  502    0  0.00000000000E+00  0.00000000000E+00  0.17328025660E+04  0.17328025660E+04  0.00000000000E+00 0. -1.
          2   -1    0    0  503    0 -0.00000000000E+00 -0.00000000000E+00 -0.11295704366E+04  0.11295704366E+04  0.00000000000E+00 0. -1.
         24    2    1    2    0    0 -0.59738350310E+02 -0.16266986246E+02 -0.58903045465E+02  0.11810287838E+03  0.81519542299E+02 0.  0.
         25    2    1    2    0    0  0.90871313274E+02 -0.74049969296E+02 -0.37186134369E+03  0.40944732191E+03  0.12500102783E+03 0.  0.
         24    2    1    2    0    0  0.10993887381E+03 -0.13350090731E+02  0.36104008763E+03  0.38616411801E+03  0.80672177747E+02 0.  0.
        -13    1    3    3    0    0  0.12708213205E+01 -0.24284716618E+02 -0.50431930340E+02  0.55988767140E+02  0.00000000000E+00 0.  1.
         14    1    3    3    0    0 -0.61009171630E+02  0.80177303720E+01 -0.84711151246E+01  0.62114111237E+02  0.00000000000E+00 0. -1.
        -13    1    5    5    0    0  0.66964805580E+02 -0.26852329019E+02  0.11300997224E+03  0.13407679362E+03  0.00000000000E+00 0.  1.
         14    1    5    5    0    0  0.42974068232E+02  0.13502238288E+02  0.24803011539E+03  0.25208732439E+03  0.00000000000E+00 0. -1.
          5    1    4    4  501    0  0.11461498827E+03 -0.46878233592E+02 -0.21257835247E+03  0.24606058250E+03  0.47000000000E+01 0.  1.
         -5    1    4    4    0  501 -0.23743674994E+02 -0.27171735704E+02 -0.15928299123E+03  0.16338673942E+03  0.47000000000E+01 0.  1.
          1    1    1    2  502    0 -0.23758658448E+02  0.11261778675E+03  0.13028233647E+04  0.13078975339E+04  0.00000000000E+00 0. -1.
          1    1    1    2  503    0 -0.11731317833E+03 -0.89507404783E+01 -0.62986693380E+03  0.64076115040E+03  0.00000000000E+00 0. -1.
<mgrwt>
<rscale>  0 0.11234241E+03</rscale>
<asrwt>0</asrwt>
<pdfrwt beam="1">  1        2 0.25482391E+00 0.11508802E+03</pdfrwt>
<pdfrwt beam="2">  1        2 0.16611330E+00 0.10966230E+03</pdfrwt>
<totfact> 0.46875783E+01</totfact>
</mgrwt>
</event>
<event>
13    1  0.1589573E-008  0.1858943E+03  0.7546771E-02  0.1359406E+00
          2   -1    0    0  503    0  0.00000000000E+00  0.00000000000E+00  0.12238051586E+04  0.12238051586E+04  0.00000000000E+00 0. -1.
          2   -1    0    0  502    0 -0.00000000000E+00 -0.00000000000E+00 -0.64402810354E+03  0.64402810354E+03  0.00000000000E+00 0. -1.
         24    2    1    2    0    0 -0.80543040116E+02  0.86575552211E+02 -0.25034939247E+03  0.28858088656E+03  0.81373227934E+02 0.  0.
         25    2    1    2    0    0  0.25491606189E+03 -0.15110127999E+02  0.42273524645E+03  0.50945115783E+03  0.12499951620E+03 0.  0.
         24    2    1    2    0    0 -0.43727838404E+02 -0.12682552297E+03  0.19961732877E+02  0.15799381922E+03  0.81035418209E+02 0.  0.
        -11    1    3    3    0    0 -0.37961563774E+02  0.36611486319E+00 -0.12477333635E+03  0.13042085657E+03  0.00000000000E+00 0.  1.
         12    1    3    3    0    0 -0.42581476342E+02  0.86209437348E+02 -0.12557605612E+03  0.15816002999E+03  0.00000000000E+00 0. -1.
        -11    1    5    5    0    0 -0.42009620806E+02 -0.13815389122E+03  0.22802145228E+02  0.14618906842E+03  0.00000000000E+00 0.  1.
         12    1    5    5    0    0 -0.17182175975E+01  0.11328368253E+02 -0.28404123504E+01  0.11804750794E+02  0.00000000000E+00 0. -1.
          5    1    4    4  501    0  0.13347036046E+03  0.53713462104E+02  0.23234340362E+03  0.27332219145E+03  0.47000000000E+01 0.  1.
         -5    1    4    4    0  501  0.12144570143E+03 -0.68823590102E+02  0.19039184283E+03  0.23612896639E+03  0.47000000000E+01 0.  1.
          1    1    1    2  502    0 -0.15599562519E+03  0.63121079199E+02 -0.23487524419E+03  0.28893820455E+03  0.00000000000E+00 0. -1.
          1    1    1    2  503    0  0.25350441821E+02 -0.77609804430E+01  0.62230471237E+03  0.62286919394E+03  0.00000000000E+00 0. -1.
<mgrwt>
<rscale>  0 0.70202568E+02</rscale>
<asrwt>0</asrwt>
<pdfrwt beam="1">  1        2 0.17997135E+00 0.26511841E+02</pdfrwt>
<pdfrwt beam="2">  1        2 0.94710015E-01 0.18589431E+03</pdfrwt>
<totfact> 0.18555114E+02</totfact>
</mgrwt>
</event>
<event>
13    1  0.1589573E-008  0.4941679E+02  0.7546771E-02  0.1574427E+00
          2   -1    0    0  503    0  0.00000000000E+00  0.00000000000E+00  0.68635808291E+03  0.68635808291E+03  0.00000000000E+00 0. -1.
         -3   -1    0    0    0  501 -0.00000000000E+00 -0.00000000000E+00 -0.91484184918E+03  0.91484184918E+03  0.00000000000E+00 0.  1.
         24    2    1    2    0    0  0.11683467991E+02  0.80541639379E+02 -0.92321881334E+02  0.14799977541E+03  0.82201853092E+02 0.  0.
         25    2    1    2    0    0 -0.61000762636E+02 -0.10320972388E+03 -0.19239864079E+03  0.25887534975E+03  0.12500347828E+03 0.  0.
         24    2    1    2    0    0  0.60558746273E+02 -0.14559243070E+02  0.43117128248E+03  0.44308349006E+03  0.80839167610E+02 0.  0.
        -13    1    5    5    0    0  0.52409340169E+02 -0.45900076769E+02  0.29432107196E+03  0.30245404508E+03  0.00000000000E+00 0.  1.
         14    1    5    5    0    0  0.81494061036E+01  0.31340833698E+02  0.13685021052E+03  0.14062944498E+03  0.00000000000E+00 0. -1.
        -13    1    3    3    0    0 -0.21769774127E+02  0.63241375428E+02 -0.87343342396E+02  0.11001024540E+03  0.00000000000E+00 0.  1.
         14    1    3    3    0    0  0.33453242118E+02  0.17300263950E+02 -0.49785389381E+01  0.37989530017E+02  0.00000000000E+00 0. -1.
          5    1    4    4  502    0  0.16980156151E+02 -0.84526179058E+02 -0.13461223143E+03  0.15992355518E+03  0.47000000000E+01 0. -1.
         -5    1    4    4    0  502 -0.77980918787E+02 -0.18683544820E+02 -0.57786409357E+02  0.98951794568E+02  0.47000000000E+01 0. -1.
          1    1    1    2  503    0  0.21051476235E+02 -0.21834767833E+00  0.18647439619E+03  0.18765903325E+03  0.00000000000E+00 0. -1.
         -4    1    1    2    0  501 -0.32292927863E+02  0.37445675249E+02 -0.56140892282E+03  0.56358228362E+03  0.00000000000E+00 0.  1.
<mgrwt>
<rscale>  0 0.32254493E+02</rscale>
<asrwt>0</asrwt>
<pdfrwt beam="1">  1        2 0.10093501E+00 0.21052609E+02</pdfrwt>
<pdfrwt beam="2">  1       -3 0.13453556E+00 0.49416790E+02</pdfrwt>
<totfact> 0.13447171E+01</totfact>
</mgrwt>
</event>
<event>
13    1  0.1589573E-008  0.7018647E+02  0.7546771E-02  0.1444234E+00
          2   -1    0    0  503    0  0.00000000000E+00  0.00000000000E+00  0.27447479256E+04  0.27447479256E+04  0.00000000000E+00 0. -1.
          2   -1    0    0  502    0 -0.00000000000E+00 -0.00000000000E+00 -0.57468186761E+03  0.57468186761E+03  0.00000000000E+00 0. -1.
         24    2    1    2    0    0 -0.17936608612E+03 -0.13684538949E+03 -0.76081179996E+02  0.25132316589E+03  0.80474432522E+02 0.  0.
         25    2    1    2    0    0  0.13945390522E+03  0.57904784283E+02  0.91650922800E+03  0.93723990366E+03  0.12501646400E+03 0.  0.
         24    2    1    2    0    0  0.10016413939E+02 -0.16821478789E+02  0.15482821456E+03  0.17571100098E+03  0.80742115044E+02 0.  0.
        -11    1    5    5    0    0 -0.33141846261E+02 -0.21739888724E+02  0.75108975768E+02  0.84925632033E+02  0.00000000000E+00 0.  1.
         12    1    5    5    0    0  0.43158260200E+02  0.49184099354E+01  0.79719238796E+02  0.90785368942E+02  0.00000000000E+00 0. -1.
        -13    1    3    3    0    0 -0.16944478083E+03 -0.14137517735E+03 -0.85745979299E+02  0.23675060187E+03  0.00000000000E+00 0.  1.
         14    1    3    3    0    0 -0.99213052864E+01  0.45297878518E+01  0.96647993037E+01  0.14572564021E+02  0.00000000000E+00 0. -1.
          5    1    4    4  501    0  0.80249060745E+02  0.54074111448E+02  0.25058033155E+03  0.26865687007E+03  0.47000000000E+01 0. -1.
         -5    1    4    4    0  501  0.59204844478E+02  0.38306728346E+01  0.66592889645E+03  0.66858303358E+03  0.47000000000E+01 0. -1.
          1    1    1    2  502    0  0.24910081468E+02  0.25870069267E+02 -0.38856015825E+03  0.39021631081E+03  0.00000000000E+00 0. -1.
          1    1    1    2  503    0  0.49856854870E+01  0.69892014734E+02  0.15633699537E+04  0.15649394119E+04  0.00000000000E+00 0. -1.
<mgrwt>
<rscale>  0 0.50205927E+02</rscale>
<asrwt>0</asrwt>
<pdfrwt beam="1">  1        2 0.40363940E+00 0.70186471E+02</pdfrwt>
<pdfrwt beam="2">  1        2 0.84512040E-01 0.35913405E+02</pdfrwt>
<totfact> 0.37339952E+01</totfact>
</mgrwt>
</event>
<event>
13    1  0.1589573E-008  0.3442671E+02  0.7546771E-02  0.1625887E+00
          2   -1    0    0  503    0  0.00000000000E+00  0.00000000000E+00  0.28757249943E+04  0.28757249943E+04  0.00000000000E+00 0. -1.
          2   -1    0    0  502    0 -0.00000000000E+00 -0.00000000000E+00 -0.23061284094E+04  0.23061284094E+04  0.00000000000E+00 0. -1.
         24    2    1    2    0    0  0.58082893793E+03  0.10312515596E+04 -0.51135190138E+03  0.12940623604E+04  0.11079075378E+03 0.  0.
         25    2    1    2    0    0 -0.10837898828E+03 -0.16423870354E+03 -0.16729402989E+03  0.28693699360E+03  0.12500075607E+03 0.  0.
         24    2    1    2    0    0 -0.46036591078E+03 -0.92229037869E+03  0.11628915996E+04  0.15561365374E+04  0.81778581074E+02 0.  0.
        -11    1    3    3    0    0  0.40276810243E+03  0.80605099496E+03 -0.37039307520E+03  0.97423374041E+03  0.00000000000E+00 0.  1.
         12    1    3    3    0    0  0.17806083550E+03  0.22520056466E+03 -0.14095882618E+03  0.31982861995E+03  0.00000000000E+00 0. -1.
        -11    1    5    5    0    0 -0.25423174397E+03 -0.53595085847E+03  0.61037734733E+03  0.85113900655E+03  0.00000000000E+00 0.  1.
         12    1    5    5    0    0 -0.20613416681E+03 -0.38633952022E+03  0.55251425224E+03  0.70499753088E+03  0.00000000000E+00 0. -1.
          5    1    4    4  501    0  0.62727882512E+01 -0.34210975845E+02 -0.90892864097E+02  0.97433779997E+02  0.47000000000E+01 0. -1.
         -5    1    4    4    0  501 -0.11465177653E+03 -0.13002772770E+03 -0.76401165796E+02  0.18950321360E+03  0.47000000000E+01 0. -1.
          1    1    1    2  502    0 -0.41853743964E+01  0.21773945374E+02 -0.97927964358E+03  0.97953062351E+03  0.00000000000E+00 0. -1.
          1    1    1    2  503    0 -0.78986644709E+01  0.33503577236E+02  0.10646305602E+04  0.10651868889E+04  0.00000000000E+00 0. -1.
<mgrwt>
<rscale>  0 0.27628391E+02</rscale>
<asrwt>0</asrwt>
<pdfrwt beam="1">  1        2 0.42290074E+00 0.34426710E+02</pdfrwt>
<pdfrwt beam="2">  1        2 0.33913653E+00 0.22172552E+02</pdfrwt>
<totfact> 0.49360673E+00</totfact>
</mgrwt>
</event>
<event>
13    1  0.1589573E-008  0.6681623E+02  0.7546771E-02  0.1397377E+00
          2   -1    0    0  503    0  0.00000000000E+00  0.00000000000E+00  0.12136856964E+04  0.12136856964E+04  0.00000000000E+00 0. -1.
          2   -1    0    0  502    0 -0.00000000000E+00 -0.00000000000E+00 -0.14348144790E+04  0.14348144790E+04  0.00000000000E+00 0. -1.
         24    2    1    2    0    0 -0.20204795533E+02  0.87511853442E+02 -0.23063813426E+03  0.25993235755E+03  0.79399768699E+02 0.  0.
         25    2    1    2    0    0  0.28829715021E+01  0.12348929323E+03  0.59465841444E+03  0.62008321465E+03  0.12500658446E+03 0.  0.
         24    2    1    2    0    0  0.86869178131E+02 -0.14300423444E+03 -0.22582775835E+03  0.29260894723E+03  0.81396279912E+02 0.  0.
        -11    1    5    5    0    0  0.17973540221E+02  0.83080733660E+01 -0.23121961762E+02  0.30441704073E+02  0.00000000000E+00 0.  1.
         12    1    5    5    0    0  0.68895637909E+02 -0.15131230781E+03 -0.20270579659E+03  0.26216724316E+03  0.00000000000E+00 0. -1.
        -13    1    3    3    0    0 -0.46511592247E+02  0.62235471889E+02 -0.11589050791E+03  0.13952487950E+03  0.00000000000E+00 0.  1.
         14    1    3    3    0    0  0.26306796714E+02  0.25276381553E+02 -0.11474762635E+03  0.12040747805E+03  0.00000000000E+00 0. -1.
          5    1    4    4  501    0 -0.21427271682E+02 -0.13059523642E+02  0.20232217573E+03  0.20392653560E+03  0.47000000000E+01 0. -1.
         -5    1    4    4    0  501  0.24310243184E+02  0.13654881687E+03  0.39233623871E+03  0.41615667905E+03  0.47000000000E+01 0. -1.
          1    1    1    2  502    0 -0.15559172457E+02 -0.64949700381E+02 -0.91506921083E+03  0.91750324906E+03  0.00000000000E+00 0. -1.
          1    1    1    2  503    0 -0.53988181643E+02 -0.30472118463E+01  0.55574790643E+03  0.55837240688E+03  0.00000000000E+00 0. -1.
<mgrwt>
<rscale>  0 0.60108471E+02</rscale>
<asrwt>0</asrwt>
<pdfrwt beam="1">  1        2 0.17848319E+00 0.54074109E+02</pdfrwt>
<pdfrwt beam="2">  1        2 0.21100213E+00 0.66816233E+02</pdfrwt>
<totfact> 0.64504159E+01</totfact>
</mgrwt>
</event>
<event>
13    1  0.1589573E-008  0.2481442E+03  0.7546771E-02  0.1205128E+00
          2   -1    0    0  502    0  0.00000000000E+00  0.00000000000E+00  0.12841368575E+04  0.12841368575E+04  0.00000000000E+00 0. -1.
          2   -1    0    0  503    0 -0.00000000000E+00 -0.00000000000E+00 -0.18752420601E+04  0.18752420601E+04  0.00000000000E+00 0. -1.
         24    2    1    2    0    0  0.13824271612E+03  0.12292052896E+03 -0.24938053273E+03  0.32301658718E+03  0.89042464522E+02 0.  0.
         25    2    1    2    0    0 -0.10448478080E+03 -0.40134945809E+02  0.83698607284E+03  0.85363822091E+03  0.12499857111E+03 0.  0.
         24    2    1    2    0    0 -0.82598642633E+02 -0.25475824718E+03 -0.91368628580E+03  0.95546755132E+03  0.79820501797E+02 0.  0.
        -13    1    3    3    0    0  0.13213292721E+03  0.70061632442E+02 -0.16015069133E+03  0.21912550451E+03  0.00000000000E+00 0.  1.
         14    1    3    3    0    0  0.61097889063E+01  0.52858896514E+02 -0.89229841396E+02  0.10389108266E+03  0.00000000000E+00 0. -1.
        -13    1    5    5    0    0 -0.66386735991E+02 -0.11278993824E+03 -0.53341103025E+03  0.54923227880E+03  0.00000000000E+00 0.  1.
         14    1    5    5    0    0 -0.16211906642E+02 -0.14196830894E+03 -0.38027525555E+03  0.40623527253E+03  0.00000000000E+00 0. -1.
          5    1    4    4  501    0 -0.73851944919E+02 -0.35517038666E+02  0.20424728716E+03  0.22012408800E+03  0.47000000000E+01 0. -1.
         -5    1    4    4    0  501 -0.30632835879E+02 -0.46179071438E+01  0.63273878568E+03  0.63351413291E+03  0.47000000000E+01 0. -1.
          1    1    1    2  502    0  0.12399137741E+03  0.21424533876E+03  0.33752634292E+03  0.41856774723E+03  0.00000000000E+00 0. -1.
          1    1    1    2  503    0 -0.75150670100E+02 -0.42272674728E+02 -0.60255079980E+03  0.60868881096E+03  0.00000000000E+00 0. -1.
<mgrwt>
<rscale>  0 0.14627379E+03</rscale>
<asrwt>0</asrwt>
<pdfrwt beam="1">  1        2 0.18884366E+00 0.24814420E+03</pdfrwt>
<pdfrwt beam="2">  1        2 0.27577089E+00 0.86224140E+02</pdfrwt>
<totfact> 0.32335612E+01</totfact>
</mgrwt>
</event>
<event>
13    1  0.1589573E-008  0.2194305E+03  0.7546771E-02  0.1235285E+00
          2   -1    0    0  503    0  0.00000000000E+00  0.00000000000E+00  0.32837633100E+04  0.32837633100E+04  0.00000000000E+00 0. -1.
         -1   -1    0    0    0  501 -0.00000000000E+00 -0.00000000000E+00 -0.21975715489E+03  0.21975715489E+03  0.00000000000E+00 0.  1.
         24    2    1    2    0    0 -0.17063779700E+03  0.20281980760E+03  0.25094025170E+03  0.37362808625E+03  0.79836112083E+02 0.  0.
         25    2    1    2    0    0 -0.55369868811E+02 -0.36924858466E+02  0.21935291105E+03  0.26109269411E+03  0.12499771113E+03 0.  0.
         24    2    1    2    0    0  0.36715343499E+03 -0.23496647237E+03  0.47172445604E+03  0.64732633694E+03  0.80601092475E+02 0.  0.
        -11    1    5    5    0    0  0.21688055630E+03 -0.18448166058E+03  0.29905280599E+03  0.41292037920E+03  0.00000000000E+00 0.  1.
         12    1    5    5    0    0  0.15027287869E+03 -0.50484811785E+02  0.17267165005E+03  0.23440595773E+03  0.00000000000E+00 0. -1.
        -13    1    3    3    0    0 -0.89404212634E+02  0.92702555095E+02  0.17452019546E+03  0.21689669334E+03  0.00000000000E+00 0.  1.
         14    1    3    3    0    0 -0.81233584364E+02  0.11011725251E+03  0.76420056236E+02  0.15673139291E+03  0.00000000000E+00 0. -1.
          5    1    4    4  502    0 -0.12917276728E+02 -0.48272682442E+02  0.21000694042E+03  0.21592154347E+03  0.47000000000E+01 0.  1.
         -5    1    4    4    0  502 -0.42452592083E+02  0.11347823976E+02  0.93459706311E+01  0.45171150645E+02  0.47000000000E+01 0.  1.
          1    1    1    2  503    0 -0.21170709784E+03  0.60750427549E+02  0.21374437324E+04  0.21487615547E+04  0.00000000000E+00 0. -1.
         -2    1    1    2    0  501  0.70561328667E+02  0.83210956777E+01 -0.15455196103E+02  0.72711792875E+02  0.00000000000E+00 0.  1.
<mgrwt>
<rscale>  0 0.12486231E+03</rscale>
<asrwt>0</asrwt>
<pdfrwt beam="1">  1        2 0.48290634E+00 0.21943047E+03</pdfrwt>
<pdfrwt beam="2">  1       -1 0.32317231E-01 0.71050276E+02</pdfrwt>
<totfact> 0.18090147E+01</totfact>
</mgrwt>
</event>
<event>
13    1  0.1589573E-008  0.1293063E+03  0.7546771E-02  0.1318477E+00
          2   -1    0    0  502    0  0.00000000000E+00  0.00000000000E+00  0.99879120060E+03  0.99879120060E+03  0.00000000000E+00 0. -1.
          2   -1    0    0  503    0 -0.00000000000E+00 -0.00000000000E+00 -0.32842151927E+04  0.32842151927E+04  0.00000000000E+00 0. -1.
         24    2    1    2    0    0 -0.30290694961E+03  0.17001933133E+02 -0.18986272217E+04  0.19244808302E+04  0.82458795366E+02 0.  0.
         25    2    1    2    0    0  0.16890107873E+03 -0.69973591367E+01  0.51022665196E+03  0.55184570834E+03  0.12500364796E+03 0.  0.
         24    2    1    2    0    0  0.61024635576E+02  0.59205009788E+02 -0.85993950137E+02  0.14466006737E+03  0.79387255272E+02 0.  0.
        -11    1    5    5    0    0  0.40697944804E+02  0.78396934090E+02 -0.63711535145E+02  0.10891079697E+03  0.00000000000E+00 0.  1.
         12    1    5    5    0    0  0.20326690772E+02 -0.19191924302E+02 -0.22282414991E+02  0.35749270398E+02  0.00000000000E+00 0. -1.
        -13    1    3    3    0    0 -0.14418225647E+03  0.24442332371E+02 -0.11437411290E+04  0.11530523496E+04  0.00000000000E+00 0.  1.
         14    1    3    3    0    0 -0.15872469313E+03 -0.74403992375E+01 -0.75488609274E+03  0.77142848065E+03  0.00000000000E+00 0. -1.
          5    1    4    4  501    0  0.10116050026E+03 -0.57535695590E+02  0.37153514996E+03  0.38936391812E+03  0.47000000000E+01 0. -1.
         -5    1    4    4    0  501  0.67740578468E+02  0.50538336453E+02  0.13869150200E+03  0.16248179021E+03  0.47000000000E+01 0. -1.
          1    1    1    2  502    0 -0.48427844322E+02 -0.24712724023E+02  0.42035918112E+03  0.42386060915E+03  0.00000000000E+00 0. -1.
          1    1    1    2  503    0  0.12140907962E+03 -0.44496859762E+02 -0.12313886533E+04  0.12381591782E+04  0.00000000000E+00 0. -1.
<mgrwt>
<rscale>  0 0.83846517E+02</rscale>
<asrwt>0</asrwt>
<pdfrwt beam="1">  1        2 0.14688106E+00 0.54368877E+02</pdfrwt>
<pdfrwt beam="2">  1        2 0.48297283E+00 0.12930630E+03</pdfrwt>
<totfact> 0.91468185E+00</totfact>
</mgrwt>
</event>
<event>
13    1  0.1589573E-008  0.1361626E+03  0.7546771E-02  0.1308782E+00
          2   -1    0    0  502    0  0.00000000000E+00  0.00000000000E+00  0.10696826125E+04  0.10696826125E+04  0.00000000000E+00 0. -1.
          2   -1    0    0  503    0 -0.00000000000E+00 -0.00000000000E+00 -0.44342414365E+03  0.44342414365E+03  0.00000000000E+00 0. -1.
         24    2    1    2    0    0  0.22808534973E+01  0.18806452700E+03 -0.13759351469E+03  0.24673190764E+03  0.81062879008E+02 0.  0.
         25    2    1    2    0    0 -0.17174475544E+03 -0.17549906823E+03  0.45267465872E+03  0.52993848561E+03  0.12499707162E+03 0.  0.
         24    2    1    2    0    0  0.70007386725E+02  0.18719499842E+02  0.93893297222E+02  0.15298209453E+03  0.96623579487E+02 0.  0.
        -11    1    3    3    0    0 -0.12272741737E+02  0.49657877667E+02 -0.17743041717E+00  0.51152287199E+02  0.00000000000E+00 0.  1.
         12    1    3    3    0    0  0.14553595234E+02  0.13840664934E+03 -0.13741608428E+03  0.19557962044E+03  0.00000000000E+00 0. -1.
        -13    1    5    5    0    0  0.81604102177E+02  0.42673056473E+02  0.60087609647E+02  0.10995790137E+03  0.00000000000E+00 0.  1.
         14    1    5    5    0    0 -0.11596715451E+02 -0.23953556631E+02  0.33805687574E+02  0.43024193158E+02  0.00000000000E+00 0. -1.
          5    1    4    4  501    0 -0.73080283971E+02 -0.41185070376E+02  0.59727887817E+02  0.10308466671E+03  0.47000000000E+01 0.  1.
         -5    1    4    4    0  501 -0.98664471474E+02 -0.13431399786E+03  0.39294677090E+03  0.42685381891E+03  0.47000000000E+01 0.  1.
          1    1    1    2  502    0 -0.34617914498E+02 -0.44464076838E+02  0.37318110415E+03  0.37741169911E+03  0.00000000000E+00 0. -1.
          1    1    1    2  503    0  0.13407442972E+03  0.13179118223E+02 -0.15589707656E+03  0.20604256925E+03  0.00000000000E+00 0. -1.
<mgrwt>
<rscale>  0 0.87595229E+02</rscale>
<asrwt>0</asrwt>
<pdfrwt beam="1">  1        2 0.15730627E+00 0.56351168E+02</pdfrwt>
<pdfrwt beam="2">  1        2 0.65209433E-01 0.13616265E+03</pdfrwt>
<totfact> 0.32348993E+02</totfact>
</mgrwt>
</event>
<event>
13    1  0.1589573E-008  0.1067705E+03  0.7546771E-02  0.1397666E+00
          2   -1    0    0  503    0  0.00000000000E+00  0.00000000000E+00  0.37316492100E+04  0.37316492100E+04  0.00000000000E+00 0. -1.
          2   -1    0    0  502    0 -0.00000000000E+00 -0.00000000000E+00 -0.10690872240E+04  0.10690872240E+04  0.00000000000E+00 0. -1.
         24    2    1    2    0    0 -0.19840498884E+01 -0.41304752079E+02 -0.92611297558E+02  0.13291936703E+03  0.85910923041E+02 0.  0.
         25    2    1    2    0    0 -0.95541052943E+02 -0.68667172338E+02  0.21086230704E+04  0.21155958529E+04  0.12494513257E+03 0.  0.
         24    2    1    2    0    0  0.21701573103E+03  0.81016674275E+02  0.58211065520E+02  0.25195152679E+03  0.80196724866E+02 0.  0.
        -11    1    3    3    0    0  0.13026947435E+02 -0.60586603993E+02 -0.88651838864E+02  0.10816462674E+03  0.00000000000E+00 0.  1.
         12    1    3    3    0    0 -0.15010997324E+02  0.19281851913E+02 -0.39594586940E+01  0.24754740294E+02  0.00000000000E+00 0. -1.
        -13    1    5    5    0    0  0.10460340115E+03  0.29897436455E+00  0.41582289962E+02  0.11256574859E+03  0.00000000000E+00 0.  1.
         14    1    5    5    0    0  0.11241232988E+03  0.80717699911E+02  0.16628775558E+02  0.13938577820E+03  0.00000000000E+00 0. -1.
          5    1    4    4  501    0 -0.24938150423E+01 -0.37647590815E+02  0.15828959928E+03  0.16279203742E+03  0.47000000000E+01 0.  1.
         -5    1    4    4    0  501 -0.93047237901E+02 -0.31019581522E+02  0.19503334711E+04  0.19528038154E+04  0.47000000000E+01 0.  1.
          1    1    1    2  502    0 -0.11086229605E+03 -0.36850689905E+01 -0.85217303610E+03  0.85936192135E+03  0.00000000000E+00 0. -1.
          1    1    1    2  503    0 -0.86283321439E+01  0.32640319132E+02  0.14405121837E+04  0.14409077659E+04  0.00000000000E+00 0. -1.
<mgrwt>
<rscale>  0 0.60039405E+02</rscale>
<asrwt>0</asrwt>
<pdfrwt beam="1">  1        2 0.54877194E+00 0.33761495E+02</pdfrwt>
<pdfrwt beam="2">  1        2 0.15721871E+00 0.10677045E+03</pdfrwt>
<totfact> 0.57450694E+00</totfact>
</mgrwt>
</event>
<event>
13    1  0.1589573E-008  0.1155071E+03  0.7546771E-02  0.1303963E+00
          2   -1    0    0  503    0  0.00000000000E+00  0.00000000000E+00  0.16255996290E+04  0.16255996290E+04  0.00000000000E+00 0. -1.
          2   -1    0    0  502    0 -0.00000000000E+00 -0.00000000000E+00 -0.18989731373E+03  0.18989731373E+03  0.00000000000E+00 0. -1.
         24    2    1    2    0    0 -0.73280304056E+02  0.66553270880E+02  0.61842345396E+03  0.63113628392E+03  0.78013458072E+02 0.  0.
         25    2    1    2    0    0  0.89333867195E+02  0.48842793150E+02 -0.79659415645E+01  0.16141683287E+03  0.12500311772E+03 0.  0.
         24    2    1    2    0    0 -0.20972740690E+02 -0.43815878985E+02  0.37149705584E+03  0.38321460754E+03  0.80521337742E+02 0.  0.
        -11    1    3    3    0    0  0.46848997774E+01 -0.69265433495E+01  0.86813961504E+01  0.12053710127E+02  0.00000000000E+00 0.  1.
         12    1    3    3    0    0 -0.77965203833E+02  0.73479814229E+02  0.60974205781E+03  0.61908257379E+03  0.00000000000E+00 0. -1.
        -13    1    5    5    0    0  0.24129177111E+02  0.79278031975E+01  0.10035570694E+03  0.10351973322E+03  0.00000000000E+00 0.  1.
         14    1    5    5    0    0 -0.45101917802E+02 -0.51743682183E+02  0.27114134890E+03  0.27969487431E+03  0.00000000000E+00 0. -1.
          5    1    4    4  501    0  0.94513563826E+02  0.54900252394E+02  0.37014453862E+02  0.11549463734E+03  0.47000000000E+01 0. -1.
         -5    1    4    4    0  501 -0.51796966305E+01 -0.60574592441E+01 -0.44980395426E+02  0.45922195531E+02  0.47000000000E+01 0. -1.
          1    1    1    2  502    0  0.11057272132E+02  0.68528457079E+02 -0.69371814269E+02  0.98136951815E+02  0.00000000000E+00 0. -1.
          1    1    1    2  503    0 -0.61380945812E+01 -0.14010864212E+03  0.52311956131E+03  0.54159226658E+03  0.00000000000E+00 0. -1.
<mgrwt>
<rscale>  0 0.89542726E+02</rscale>
<asrwt>0</asrwt>
<pdfrwt beam="1">  1        2 0.23905876E+00 0.11550708E+03</pdfrwt>
<pdfrwt beam="2">  1        2 0.27926076E-01 0.69414787E+02</pdfrwt>
<totfact> 0.39081784E+02</totfact>
</mgrwt>
</event>
<event>
13    1  0.1589573E-008  0.1345271E+03  0.7546771E-02  0.1273440E+00
          2   -1    0    0  503    0  0.00000000000E+00  0.00000000000E+00  0.43388395737E+04  0.43388395737E+04  0.00000000000E+00 0. -1.
          2   -1    0    0  502    0 -0.00000000000E+00 -0.00000000000E+00 -0.98382286700E+03  0.98382286700E+03  0.00000000000E+00 0. -1.
         24    2    1    2    0    0 -0.22922381644E+02  0.64108794143E+02 -0.22759237101E+03  0.25192416040E+03  0.83857749696E+02 0.  0.
         25    2    1    2    0    0 -0.73879642745E+01 -0.22985796561E+03  0.14530450547E+04  0.14764324706E+04  0.12499457148E+03 0.  0.
         24    2    1    2    0    0  0.24419923249E+02 -0.79552316916E+01  0.55087428921E+03  0.55706990575E+03  0.78770419744E+02 0.  0.
        -11    1    5    5    0    0 -0.25937027022E+02  0.35053968371E+01  0.28688310508E+03  0.28807452709E+03  0.00000000000E+00 0.  1.
         12    1    5    5    0    0  0.50356950271E+02 -0.11460628529E+02  0.26399118413E+03  0.26899537867E+03  0.00000000000E+00 0. -1.
        -11    1    3    3    0    0 -0.34409749662E+02  0.76845117652E+02 -0.21423003102E+03  0.23018190453E+03  0.00000000000E+00 0.  1.
         12    1    3    3    0    0  0.11487368017E+02 -0.12736323509E+02 -0.13362339982E+02  0.21742255869E+02  0.00000000000E+00 0. -1.
          5    1    4    4  501    0 -0.50777379382E+02 -0.10127291417E+03  0.89254296409E+03  0.89971638762E+03  0.47000000000E+01 0.  1.
         -5    1    4    4    0  501  0.43389415108E+02 -0.12858505144E+03  0.56050209056E+03  0.57671608294E+03  0.47000000000E+01 0.  1.
          1    1    1    2  502    0  0.40558177250E+02  0.10230391276E+03 -0.72443379494E+03  0.73274509862E+03  0.00000000000E+00 0. -1.
          1    1    1    2  503    0 -0.34667754580E+02  0.71400490402E+02  0.23031235288E+04  0.23044908054E+04  0.00000000000E+00 0. -1.
<mgrwt>
<rscale>  0 0.10333277E+03</rscale>
<asrwt>0</asrwt>
<pdfrwt beam="1">  1        2 0.63806464E+00 0.79371804E+02</pdfrwt>
<pdfrwt beam="2">  1        2 0.14467983E+00 0.13452714E+03</pdfrwt>
<totfact> 0.20679296E+00</totfact>
</mgrwt>
</event>
<event>
13    1  0.1589573E-008  0.8908117E+02  0.7546771E-02  0.1465720E+00
          2   -1    0    0  502    0  0.00000000000E+00  0.00000000000E+00  0.63191016028E+03  0.63191016028E+03  0.00000000000E+00 0. -1.
          2   -1    0    0  503    0 -0.00000000000E+00 -0.00000000000E+00 -0.12019474137E+04  0.12019474137E+04  0.00000000000E+00 0. -1.
         24    2    1    2    0    0  0.11889992760E+02  0.40479944338E+02 -0.15624240888E+03  0.17916700718E+03  0.76870854729E+02 0.  0.
         25    2    1    2    0    0 -0.42956220173E+02 -0.56372507290E+01  0.34526353569E+03  0.36974066543E+03  0.12499694056E+03 0.  0.
         24    2    1    2    0    0  0.33639485996E+02  0.40161457438E+02 -0.34883020588E+01  0.93183493431E+02  0.76983358689E+02 0.  0.
        -11    1    3    3    0    0  0.44025598371E+02  0.32045581811E+02 -0.98360736081E+02  0.11242778584E+03  0.00000000000E+00 0.  1.
         12    1    3    3    0    0 -0.32135605611E+02  0.84343625269E+01 -0.57881672800E+02  0.66739221342E+02  0.00000000000E+00 0. -1.
        -13    1    5    5    0    0 -0.19973877410E+02  0.13491187745E+01  0.14353590317E+02  0.24633340318E+02  0.00000000000E+00 0.  1.
         14    1    5    5    0    0  0.53613363406E+02  0.38812338664E+02 -0.17841892375E+02  0.68550153113E+02  0.00000000000E+00 0. -1.
          5    1    4    4  501    0 -0.12127818588E+02  0.12023673809E+02 -0.43953224775E+01  0.18249974665E+02  0.47000000000E+01 0.  1.
         -5    1    4    4    0  501 -0.30828401585E+02 -0.17660924538E+02  0.34965885817E+03  0.35149069076E+03  0.47000000000E+01 0.  1.
          1    1    1    2  502    0 -0.23844076621E+02 -0.86503355256E+02  0.20871111937E+03  0.22718208954E+03  0.00000000000E+00 0. -1.
          1    1    1    2  503    0  0.21270818038E+02  0.11499204208E+02 -0.96428119752E+03  0.96458431839E+03  0.00000000000E+00 0. -1.
<mgrwt>
<rscale>  0 0.46411158E+02</rscale>
<asrwt>0</asrwt>
<pdfrwt beam="1">  1        2 0.92927967E-01 0.89081170E+02</pdfrwt>
<pdfrwt beam="2">  1        2 0.17675697E+00 0.24180145E+02</pdfrwt>
<totfact> 0.19894694E+02</totfact>
</mgrwt>
</event>
<event>
13    1  0.1589573E-008  0.1150205E+03  0.7546771E-02  0.1348166E+00
          2   -1    0    0  502    0  0.00000000000E+00  0.00000000000E+00  0.21031596004E+04  0.21031596004E+04  0.00000000000E+00 0. -1.
          2   -1    0    0  503    0 -0.00000000000E+00 -0.00000000000E+00 -0.99566948036E+03  0.99566948036E+03  0.00000000000E+00 0. -1.
         24    2    1    2    0    0  0.90922184706E+02 -0.19943715431E+03 -0.21308091437E+03  0.31580545535E+03  0.79294308555E+02 0.  0.
         25    2    1    2    0    0  0.16140391733E+02  0.78883495502E+02  0.21589314559E+03  0.26214056837E+03  0.12499883665E+03 0.  0.
         24    2    1    2    0    0 -0.79904504446E+02  0.33743626669E+01  0.86518445114E+02  0.14092661124E+03  0.77322391698E+02 0.  0.
        -13    1    5    5    0    0  0.81546041803E+01  0.65912862513E+01 -0.68642366413E+01  0.12532372818E+02  0.00000000000E+00 0.  1.
         14    1    5    5    0    0 -0.88059108626E+02 -0.32169235843E+01  0.93382681756E+02  0.12839423843E+03  0.00000000000E+00 0. -1.
        -13    1    3    3    0    0  0.16906560869E+02 -0.25994234594E+02  0.33758203240E+00  0.31010417510E+02  0.00000000000E+00 0.  1.
         14    1    3    3    0    0  0.74015623837E+02 -0.17344291972E+03 -0.21341849640E+03  0.28479503784E+03  0.00000000000E+00 0. -1.
          5    1    4    4  501    0  0.47076261984E+02  0.99773588622E+02  0.17117604171E+03  0.20370142533E+03  0.47000000000E+01 0. -1.
         -5    1    4    4    0  501 -0.30935870251E+02 -0.20890093120E+02  0.44717103882E+02  0.58439143032E+02  0.47000000000E+01 0. -1.
          1    1    1    2  502    0 -0.46978489888E+02  0.38285724251E+01  0.16938660946E+04  0.16945217564E+04  0.00000000000E+00 0. -1.
          1    1    1    2  503    0  0.19820417895E+02  0.11335072372E+03 -0.67570665083E+03  0.68543468946E+03  0.00000000000E+00 0. -1.
<mgrwt>
<rscale>  0 0.73630194E+02</rscale>
<asrwt>0</asrwt>
<pdfrwt beam="1">  1        2 0.30928818E+00 0.47134239E+02</pdfrwt>
<pdfrwt beam="2">  1        2 0.14642198E+00 0.11502054E+03</pdfrwt>
<totfact> 0.40689605E+01</totfact>
</mgrwt>
</event>
<event>
13    1  0.1589573E-008  0.1094559E+03  0.7546771E-02  0.1297213E+00
         -1   -1    0    0    0  501 -0.00000000000E+00  0.00000000000E+00  0.32228727788E+03  0.32228727788E+03  0.00000000000E+00 0.  1.
          2   -1    0    0  503    0  0.00000000000E+00 -0.00000000000E+00 -0.77326482792E+03  0.77326482792E+03  0.00000000000E+00 0. -1.
         24    2    1    2    0    0  0.22261635210E+02 -0.51079157061E+02  0.10283947051E+02  0.98866381275E+02  0.81019387132E+02 0.  0.
         25    2    1    2    0    0  0.41512277751E+02  0.17142905404E+03 -0.11363510204E+03  0.24423322398E+03  0.12500296599E+03 0.  0.
         24    2    1    2    0    0 -0.67334800616E+02 -0.35189269082E+02 -0.21548232413E+03  0.24299877391E+03  0.82725522515E+02 0.  0.
        -11    1    5    5    0    0 -0.83531799964E+02 -0.21327067841E+02 -0.19598418157E+03  0.21410792805E+03  0.00000000000E+00 0.  1.
         12    1    5    5    0    0  0.16196999347E+02 -0.13862201241E+02 -0.19498142561E+02  0.28890845859E+02  0.00000000000E+00 0. -1.
        -13    1    3    3    0    0  0.45538706658E+02 -0.50721516458E+02 -0.88440160568E+01  0.68736181563E+02  0.00000000000E+00 0.  1.
         14    1    3    3    0    0 -0.23277071448E+02 -0.35764060263E+00  0.19127963108E+02  0.30130199712E+02  0.00000000000E+00 0. -1.
          5    1    4    4  502    0 -0.29013365977E+02  0.72507251216E+00 -0.47657045432E+01  0.29784275638E+02  0.47000000000E+01 0. -1.
         -5    1    4    4    0  502  0.70525643728E+02  0.17070398153E+03 -0.10886939750E+03  0.21444894834E+03  0.47000000000E+01 0. -1.
          1    1    1    2  503    0  0.80592689789E+02 -0.73228538755E+02 -0.30282867703E+03  0.32181175890E+03  0.00000000000E+00 0. -1.
         -2    1    1    2    0  501 -0.77031802133E+02 -0.11932089141E+02  0.17068460612E+03  0.18764196774E+03  0.00000000000E+00 0.  1.
<mgrwt>
<rscale>  0 0.92369566E+02</rscale>
<asrwt>0</asrwt>
<pdfrwt beam="2">  1        2 0.11371542E+00 0.10945590E+03</pdfrwt>
<pdfrwt beam="1">  1       -1 0.47395188E-01 0.77950454E+02</pdfrwt>
<totfact> 0.21223790E+02</totfact>
</mgrwt>
</event>
<event>
13    1  0.1589573E-008  0.1060617E+03  0.7546771E-02  0.1374793E+00
         -1   -1    0    0    0  501 -0.00000000000E+00  0.00000000000E+00  0.25864265158E+03  0.25864265158E+03  0.00000000000E+00 0.  1.
          2   -1    0    0  503    0  0.00000000000E+00 -0.00000000000E+00 -0.24445326167E+04  0.24445326167E+04  0.00000000000E+00 0. -1.
         24    2    1    2    0    0  0.13765747423E+02  0.10966827278E+02  0.37070083530E+00  0.82536048539E+02  0.80636807890E+02 0.  0.
         25    2    1    2    0    0  0.64654418421E+02  0.13671470996E+03 -0.40010409922E+02  0.20024194372E+03  0.12499958953E+03 0.  0.
         24    2    1    2    0    0 -0.41947361861E+02 -0.18600830255E+02 -0.33018177939E+03  0.34041265654E+03  0.68957938188E+02 0.  0.
        -13    1    3    3    0    0 -0.18942088481E+02  0.14833319705E+02 -0.29503919963E+02  0.38069822467E+02  0.00000000000E+00 0.  1.
         14    1    3    3    0    0  0.32707835904E+02 -0.38664924270E+01  0.29874620798E+02  0.44466226072E+02  0.00000000000E+00 0. -1.
        -13    1    5    5    0    0 -0.35252197000E+02  0.13319373185E+02 -0.26351036652E+03  0.26619135290E+03  0.00000000000E+00 0.  1.
         14    1    5    5    0    0 -0.66951648620E+01 -0.31920203439E+02 -0.66671412871E+02  0.74221303642E+02  0.00000000000E+00 0. -1.
          5    1    4    4  502    0  0.21950515135E+02  0.14294008672E+03 -0.54292010196E+02  0.15454256979E+03  0.47000000000E+01 0. -1.
         -5    1    4    4    0  502  0.42703903286E+02 -0.62253767553E+01  0.14281600274E+02  0.45699373934E+02  0.47000000000E+01 0. -1.
          1    1    1    2  503    0 -0.45185627379E+02 -0.89132893079E+02 -0.19435445379E+04  0.19461119661E+04  0.00000000000E+00 0. -1.
         -2    1    1    2    0  501  0.87128233971E+01 -0.39947813905E+02  0.12747606130E+03  0.13387265341E+03  0.00000000000E+00 0.  1.
<mgrwt>
<rscale>  0 0.65852403E+02</rscale>
<asrwt>0</asrwt>
<pdfrwt beam="2">  1        2 0.35949011E+00 0.10606174E+03</pdfrwt>
<pdfrwt beam="1">  1       -1 0.38035682E-01 0.40886931E+02</pdfrwt>
<totfact> 0.42267924E+01</totfact>
</mgrwt>
</event>
<event>
13    1  0.1589573E-008  0.1044317E+03  0.7546771E-02  0.1408412E+00
          2   -1    0    0  502    0  0.00000000000E+00  0.00000000000E+00  0.17019087845E+04  0.17019087845E+04  0.00000000000E+00 0. -1.
          2   -1    0    0  503    0 -0.00000000000E+00 -0.00000000000E+00 -0.16387932733E+04  0.16387932733E+04  0.00000000000E+00 0. -1.
         24    2    1    2    0    0 -0.12273016779E+03  0.35227584451E+02 -0.29046242440E+03  0.32771386288E+03  0.82001702059E+02 0.  0.
         25    2    1    2    0    0  0.22083253566E+03 -0.70239721413E+02  0.54168121912E+03  0.60227528571E+03  0.12496539261E+03 0.  0.
         24    2    1    2    0    0  0.18317014217E+02  0.26880938103E+02  0.70236513546E+02  0.10604516994E+03  0.72486635931E+02 0.  0.
        -13    1    3    3    0    0 -0.12730709229E+03  0.47224593829E+02 -0.27986383664E+03  0.31106434233E+03  0.00000000000E+00 0.  1.
         14    1    3    3    0    0  0.45769245036E+01 -0.11997009378E+02 -0.10598587765E+02  0.16649520550E+02  0.00000000000E+00 0. -1.
        -13    1    5    5    0    0 -0.15605442467E+02 -0.17468601498E+02  0.17470620319E+02  0.29221643472E+02  0.00000000000E+00 0.  1.
         14    1    5    5    0    0  0.33922456685E+02  0.44349539601E+02  0.52765893227E+02  0.76823526464E+02  0.00000000000E+00 0. -1.
          5    1    4    4  501    0  0.20481556991E+03 -0.73746061902E+02  0.36675818896E+03  0.42652263538E+03  0.47000000000E+01 0. -1.
         -5    1    4    4    0  501  0.16016965756E+02  0.35063404892E+01  0.17492303016E+03  0.17575265032E+03  0.47000000000E+01 0. -1.
          1    1    1    2  502    0 -0.13935876707E+02  0.28488210459E+02  0.10207875164E+04  0.10212800500E+04  0.00000000000E+00 0. -1.
          1    1    1    2  503    0 -0.10248350538E+03 -0.20357011600E+02 -0.12791273135E+04  0.12833876893E+04  0.00000000000E+00 0. -1.
<mgrwt>
<rscale>  0 0.57549656E+02</rscale>
<asrwt>0</asrwt>
<pdfrwt beam="1">  1        2 0.25028070E+00 0.31714142E+02</pdfrwt>
<pdfrwt beam="2">  1        2 0.24099901E+00 0.10443174E+03</pdfrwt>
<totfact> 0.30189946E+01</totfact>
</mgrwt>
</event>
<event>
13    1  0.1589573E-008  0.1046066E+03  0.7546771E-02  0.1321341E+00
          2   -1    0    0  502    0  0.00000000000E+00  0.00000000000E+00  0.15756853176E+04  0.15756853176E+04  0.00000000000E+00 0. -1.
          4   -1    0    0  503    0 -0.00000000000E+00 -0.00000000000E+00 -0.10285804312E+04  0.10285804312E+04  0.00000000000E+00 0. -1.
         24    2    1    2    0    0 -0.14445688290E+02  0.28490206079E+03 -0.54760781010E+02  0.30155951061E+03  0.81003290983E+02 0.  0.
         25    2    1    2    0    0 -0.97104635765E+02 -0.42493452209E+03  0.76714440361E+02  0.45990016307E+03  0.12499758511E+03 0.  0.
         24    2    1    2    0    0 -0.31347709900E+02  0.35382711822E+01  0.21507490052E+03  0.23172020026E+03  0.80261074600E+02 0.  0.
        -11    1    3    3    0    0 -0.41758461426E+02  0.23477560837E+03 -0.53862639243E+02  0.24446786965E+03  0.00000000000E+00 0.  1.
         12    1    3    3    0    0  0.27312773137E+02  0.50126452422E+02 -0.89814176717E+00  0.57091640959E+02  0.00000000000E+00 0. -1.
        -13    1    5    5    0    0 -0.48154114949E+02  0.27416139306E+02  0.11826713233E+03  0.13060466328E+03  0.00000000000E+00 0.  1.
         14    1    5    5    0    0  0.16806405049E+02 -0.23877868123E+02  0.96807768193E+02  0.10111553698E+03  0.00000000000E+00 0. -1.
          5    1    4    4  501    0  0.26750237062E+02 -0.13796111943E+03  0.30913540406E+02  0.14396729711E+03  0.47000000000E+01 0. -1.
         -5    1    4    4    0  501 -0.12385487283E+03 -0.28697340266E+03  0.45800899955E+02  0.31593286596E+03  0.47000000000E+01 0. -1.
          1    1    1    2  502    0  0.12130169729E+03  0.74648124394E+02  0.95362946076E+03  0.96420723533E+03  0.00000000000E+00 0. -1.
          3    1    1    2  503    0  0.21596336666E+02  0.61846065718E+02 -0.64355313428E+03  0.64687863950E+03  0.00000000000E+00 0. -1.
<mgrwt>
<rscale>  0 0.82780422E+02</rscale>
<asrwt>0</asrwt>
<pdfrwt beam="1">  1        2 0.23171843E+00 0.10460656E+03</pdfrwt>
<pdfrwt beam="2">  1        4 0.15126183E+00 0.65508302E+02</pdfrwt>
<totfact> 0.23625559E+00</totfact>
</mgrwt>
</event>
<event>
13    1  0.1589573E-008  0.9254836E+02  0.7546771E-02  0.1342958E+00
          2   -1    0    0  502    0  0.00000000000E+00  0.00000000000E+00  0.29828841776E+04  0.29828841776E+04  0.00000000000E+00 0. -1.
          2   -1    0    0  503    0 -0.00000000000E+00 -0.00000000000E+00 -0.27884940247E+04  0.27884940247E+04  0.00000000000E+00 0. -1.
         24    2    1    2    0    0  0.26190605586E+02 -0.33268107905E+02 -0.49405305948E+03  0.50214866011E+03  0.79196820892E+02 0.  0.
         25    2    1    2    0    0  0.95403573210E+02  0.58662945714E+02 -0.11059341363E+01  0.16783671410E+03  0.12499902611E+03 0.  0.
         24    2    1    2    0    0  0.36583222672E+02 -0.64485694099E+02 -0.35753316174E+03  0.37349411218E+03  0.78556687586E+02 0.  0.
        -11    1    3    3    0    0 -0.10531436186E+01  0.25206976451E+02 -0.13043772837E+03  0.13285519092E+03  0.00000000000E+00 0.  1.
         12    1    3    3    0    0  0.27243749205E+02 -0.58475084357E+02 -0.36361533111E+03  0.36929346918E+03  0.00000000000E+00 0. -1.
        -13    1    5    5    0    0 -0.93673894335E+01 -0.47704268607E+02 -0.25856790593E+03  0.26309847435E+03  0.00000000000E+00 0.  1.
         14    1    5    5    0    0  0.45950612106E+02 -0.16781425493E+02 -0.98965255815E+02  0.11039563784E+03  0.00000000000E+00 0. -1.
          5    1    4    4  501    0  0.71315071719E+02 -0.24544715644E+01  0.47614930650E+02  0.85913535056E+02  0.47000000000E+01 0.  1.
         -5    1    4    4    0  501  0.24088501491E+02  0.61117417278E+02 -0.48720864786E+02  0.81923179042E+02  0.47000000000E+01 0.  1.
          1    1    1    2  502    0 -0.53379540667E+02 -0.30055319246E+02  0.28850236390E+04  0.28856739412E+04  0.00000000000E+00 0. -1.
          1    1    1    2  503    0 -0.10479786080E+03  0.69146175537E+02 -0.18379413307E+04  0.18422247746E+04  0.00000000000E+00 0. -1.
<mgrwt>
<rscale>  0 0.75295714E+02</rscale>
<asrwt>0</asrwt>
<pdfrwt beam="1">  1        2 0.43865944E+00 0.61259265E+02</pdfrwt>
<pdfrwt beam="2">  1        2 0.41007265E+00 0.92548360E+02</pdfrwt>
<totfact> 0.18783646E+00</totfact>
</mgrwt>
</event>
<event>
13    1  0.1589573E-008  0.1172041E+03  0.7546771E-02  0.1269693E+00
         -3   -1    0    0    0  501 -0.00000000000E+00  0.00000000000E+00  0.65569668844E+03  0.65569668844E+03  0.00000000000E+00 0.  1.
          2   -1    0    0  503    0  0.00000000000E+00 -0.00000000000E+00 -0.40523002581E+04  0.40523002581E+04  0.00000000000E+00 0. -1.
         24    2    1    2    0    0 -0.62884386757E+02  0.18250423573E+02  0.46038907388E+03  0.47187746507E+03  0.80141865676E+02 0.  0.
         25    2    1    2    0    0 -0.17572004650E+00 -0.30851293956E+02 -0.12214424731E+04  0.12282095301E+04  0.12500040542E+03 0.  0.
         24    2    1    2    0    0 -0.52723443869E+02  0.73724892538E+01 -0.12552953420E+02  0.94608518887E+02  0.77195078051E+02 0.  0.
        -11    1    3    3    0    0 -0.45096234542E+02  0.42280885742E+02  0.18913962434E+03  0.19898527877E+03  0.00000000000E+00 0.  1.
         12    1    3    3    0    0 -0.17788152214E+02 -0.24030462169E+02  0.27124944954E+03  0.27289218631E+03  0.00000000000E+00 0. -1.
        -13    1    5    5    0    0 -0.48273348082E+02  0.38154545678E+02 -0.13363284335E+01  0.61545684370E+02  0.00000000000E+00 0.  1.
         14    1    5    5    0    0 -0.44500957863E+01 -0.30782056424E+02 -0.11216624986E+02  0.33062834517E+02  0.00000000000E+00 0. -1.
          5    1    4    4  502    0  0.13131606170E+02  0.96696897999E+01 -0.21000646264E+02  0.27001094884E+02  0.47000000000E+01 0. -1.
         -5    1    4    4    0  502 -0.13307326216E+02 -0.40520983756E+02 -0.12004418269E+04  0.12012084352E+04  0.47000000000E+01 0. -1.
          1    1    1    2  503    0 -0.10070943235E+02 -0.93919397539E+02 -0.27228679003E+04  0.27245058047E+04  0.00000000000E+00 0. -1.
         -4    1    1    2    0  501  0.12585449391E+03  0.99147778669E+02  0.99870683414E+02  0.18879562775E+03  0.00000000000E+00 0.  1.
<mgrwt>
<rscale>  0 0.10521682E+03</rscale>
<asrwt>0</asrwt>
<pdfrwt beam="2">  1        2 0.59592650E+00 0.94455555E+02</pdfrwt>
<pdfrwt beam="1">  1       -3 0.96425985E-01 0.11720411E+03</pdfrwt>
<totfact> 0.41569001E-01</totfact>
</mgrwt>
</event>
<event>
13    1  0.1589573E-008  0.1015788E+03  0.7546771E-02  0.1342585E+00
          2   -1    0    0  503    0  0.00000000000E+00  0.00000000000E+00  0.13982966233E+04  0.13982966233E+04  0.00000000000E+00 0. -1.
          2   -1    0    0  502    0 -0.00000000000E+00 -0.00000000000E+00 -0.39796808436E+03  0.39796808436E+03  0.00000000000E+00 0. -1.
         24    2    1    2    0    0 -0.13716249999E+03  0.82091554418E+02  0.19956744892E+03  0.27087410345E+03  0.89403794892E+02 0.  0.
         25    2    1    2    0    0 -0.14384604230E+02  0.57041901950E+01 -0.16660304182E+03  0.20885653784E+03  0.12500010093E+03 0.  0.
         24    2    1    2    0    0  0.47140587857E+02 -0.54697537391E+02  0.96586835940E+03  0.97184582215E+03  0.79803250025E+02 0.  0.
        -11    1    3    3    0    0 -0.38853847415E+01  0.19882072208E+02 -0.30652640751E+01  0.20488749443E+02  0.00000000000E+00 0.  1.
         12    1    3    3    0    0 -0.13327711525E+03  0.62209482210E+02  0.20263271299E+03  0.25038535401E+03  0.00000000000E+00 0. -1.
        -11    1    5    5    0    0 -0.76063901924E+01  0.16288414741E+02  0.16015537273E+03  0.16116113998E+03  0.00000000000E+00 0.  1.
         12    1    5    5    0    0  0.54746978049E+02 -0.70985952132E+02  0.80571298667E+03  0.81068468217E+03  0.00000000000E+00 0. -1.
          5    1    4    4  501    0  0.12348958258E+02 -0.17559210517E+02 -0.17138629699E+03  0.17278939620E+03  0.47000000000E+01 0.  1.
         -5    1    4    4    0  501 -0.26733562488E+02  0.23263400712E+02  0.47832551721E+01  0.36067141639E+02  0.47000000000E+01 0.  1.
          1    1    1    2  502    0  0.99113306775E+02  0.22643854491E+02 -0.15111396622E+03  0.18213078409E+03  0.00000000000E+00 0. -1.
          1    1    1    2  503    0  0.52932095908E+01 -0.55742061713E+02  0.15260973862E+03  0.16255746010E+03  0.00000000000E+00 0. -1.
<mgrwt>
<rscale>  0 0.75416711E+02</rscale>
<asrwt>0</asrwt>
<pdfrwt beam="1">  1        2 0.20563185E+00 0.55992817E+02</pdfrwt>
<pdfrwt beam="2">  1        2 0.58524719E-01 0.10157875E+03</pdfrwt>
<totfact> 0.24700051E+02</totfact>
</mgrwt>
</event>
<event>
13    1  0.1589573E-008  0.8049286E+02  0.7546771E-02  0.1437557E+00
          2   -1    0    0  503    0  0.00000000000E+00  0.00000000000E+00  0.22395689561E+04  0.22395689561E+04  0.00000000000E+00 0. -1.
          2   -1    0    0  502    0 -0.00000000000E+00 -0.00000000000E+00 -0.10494936751E+04  0.10494936751E+04  0.00000000000E+00 0. -1.
         24    2    1    2    0    0 -0.39455084139E+02 -0.88202142307E+01 -0.84800930671E+02  0.12108798040E+03  0.76397652523E+02 0.  0.
         25    2    1    2    0    0  0.13650609078E+03 -0.12127781152E+02  0.11904795742E+04  0.12048431726E+04  0.12499783229E+03 0.  0.
         24    2    1    2    0    0 -0.16347502647E+02  0.18278257383E+01 -0.30419546825E+03  0.31554770882E+03  0.82248962590E+02 0.  0.
        -11    1    3    3    0    0  0.10755246552E+02  0.22098341642E+02 -0.11846079937E+02  0.27282625270E+02  0.00000000000E+00 0.  1.
         12    1    3    3    0    0 -0.50210330691E+02 -0.30918555873E+02 -0.72954850734E+02  0.93805355130E+02  0.00000000000E+00 0. -1.
        -13    1    5    5    0    0  0.25617565215E+02  0.24458405758E+02 -0.10882451721E+03  0.11444321214E+03  0.00000000000E+00 0.  1.
         14    1    5    5    0    0 -0.41965067862E+02 -0.22630580020E+02 -0.19537095104E+03  0.20110449668E+03  0.00000000000E+00 0. -1.
          5    1    4    4  501    0  0.10008525691E+03  0.26338235556E+02  0.42218692867E+03  0.43471215079E+03  0.47000000000E+01 0. -1.
         -5    1    4    4    0  501  0.36420833868E+02 -0.38466016708E+02  0.76829264557E+03  0.77013102185E+03  0.47000000000E+01 0. -1.
          1    1    1    2  502    0 -0.64709278737E+02  0.47887858196E+02 -0.62665432807E+03  0.63180391310E+03  0.00000000000E+00 0. -1.
          1    1    1    2  503    0 -0.15994225256E+02 -0.28767688551E+02  0.10152464338E+04  0.10157798563E+04  0.00000000000E+00 0. -1.
<mgrwt>
<rscale>  0 0.51472517E+02</rscale>
<asrwt>0</asrwt>
<pdfrwt beam="1">  1        2 0.32934838E+00 0.32914968E+02</pdfrwt>
<pdfrwt beam="2">  1        2 0.15433730E+00 0.80492863E+02</pdfrwt>
<totfact> 0.34939706E+01</totfact>
</mgrwt>
</event>
<event>
13    1  0.1589573E-008  0.7639413E+02  0.7546771E-02  0.1448058E+00
          2   -1    0    0  503    0  0.00000000000E+00  0.00000000000E+00  0.23549680128E+04  0.23549680128E+04  0.00000000000E+00 0. -1.
          2   -1    0    0  502    0 -0.00000000000E+00 -0.00000000000E+00 -0.21775267272E+04  0.21775267272E+04  0.00000000000E+00 0. -1.
         24    2    1    2    0    0  0.87958148025E+03 -0.83111729761E+02 -0.54917189371E+03  0.10435542647E+04  0.82732064232E+02 0.  0.
         25    2    1    2    0    0 -0.34850375431E+03  0.42182615159E+03  0.47477027946E+03  0.73513412304E+03  0.12499276643E+03 0.  0.
         24    2    1    2    0    0 -0.43441336056E+03 -0.29872198101E+03  0.80602660008E+03  0.96749333059E+03  0.91731537186E+02 0.  0.
        -13    1    3    3    0    0  0.39623346567E+03 -0.22538167165E+01 -0.27094084276E+03  0.48001560317E+03  0.00000000000E+00 0.  1.
         14    1    3    3    0    0  0.48334801458E+03 -0.80857913045E+02 -0.27823105095E+03  0.56353866150E+03  0.00000000000E+00 0. -1.
        -13    1    5    5    0    0 -0.16135269997E+03 -0.68862845760E+02  0.22079589181E+03  0.28200640268E+03  0.00000000000E+00 0.  1.
         14    1    5    5    0    0 -0.27306066059E+03 -0.22985913525E+03  0.58523070827E+03  0.68548692790E+03  0.00000000000E+00 0. -1.
          5    1    4    4  501    0 -0.46049493524E+02  0.56516741055E+01  0.44055039271E+02  0.64151646582E+02  0.47000000000E+01 0.  1.
         -5    1    4    4    0  501 -0.30245426079E+03  0.41617447748E+03  0.43071524019E+03  0.67098247645E+03  0.47000000000E+01 0.  1.
          1    1    1    2  502    0 -0.22218504175E+02 -0.23131403399E+02 -0.11676629093E+04  0.11681033317E+04  0.00000000000E+00 0. -1.
          1    1    1    2  503    0 -0.74445861199E+02 -0.16861037415E+02  0.61347920909E+03  0.61820969000E+03  0.00000000000E+00 0. -1.
<mgrwt>
<rscale>  0 0.49499943E+02</rscale>
<asrwt>0</asrwt>
<pdfrwt beam="1">  1        2 0.34631883E+00 0.76394134E+02</pdfrwt>
<pdfrwt beam="2">  1        2 0.32022452E+00 0.32073724E+02</pdfrwt>
<totfact> 0.85706472E+00</totfact>
</mgrwt>
</event>
<event>
13    1  0.1589573E-008  0.1438091E+03  0.7546771E-02  0.1240236E+00
          2   -1    0    0  502    0  0.00000000000E+00  0.00000000000E+00  0.13450028323E+04  0.13450028323E+04  0.00000000000E+00 0. -1.
          2   -1    0    0  503    0 -0.00000000000E+00 -0.00000000000E+00 -0.13635796253E+04  0.13635796253E+04  0.00000000000E+00 0. -1.
         24    2    1    2    0    0  0.12398423761E+03  0.89715448795E+02 -0.47437377693E+03  0.50485336970E+03  0.80159164957E+02 0.  0.
         25    2    1    2    0    0  0.13242218286E+03  0.81222640946E+02 -0.32760315406E+03  0.38351465212E+03  0.12500763945E+03 0.  0.
         24    2    1    2    0    0  0.20449593875E+02 -0.33617421784E+02  0.23724371785E+03  0.25350707965E+03  0.80205615992E+02 0.  0.
        -13    1    3    3    0    0  0.58415483314E+02  0.89861219211E+02 -0.29130521967E+03  0.31039674357E+03  0.00000000000E+00 0.  1.
         14    1    3    3    0    0  0.65568754297E+02 -0.14577041650E+00 -0.18306855726E+03  0.19445662613E+03  0.00000000000E+00 0. -1.
        -13    1    5    5    0    0 -0.26354963173E+02 -0.50966780477E+01  0.13352947040E+03  0.13620087987E+03  0.00000000000E+00 0.  1.
         14    1    5    5    0    0  0.46804557048E+02 -0.28520743736E+02  0.10371424745E+03  0.11730619978E+03  0.00000000000E+00 0. -1.
          5    1    4    4  501    0  0.83569292960E+02 -0.11240627547E+02 -0.87622265906E+02  0.12169605547E+03  0.47000000000E+01 0.  1.
         -5    1    4    4    0  501  0.48852889904E+02  0.92463268494E+02 -0.23998088815E+03  0.26181859665E+03  0.47000000000E+01 0.  1.
          1    1    1    2  502    0 -0.17368453766E+03 -0.13836660056E+03  0.10393650003E+04  0.10628222987E+04  0.00000000000E+00 0. -1.
          1    1    1    2  503    0 -0.10317147669E+03  0.10459326049E+01 -0.49320858011E+03  0.50388505740E+03  0.00000000000E+00 0. -1.
<mgrwt>
<rscale>  0 0.12175083E+03</rscale>
<asrwt>0</asrwt>
<pdfrwt beam="1">  1        2 0.19779454E+00 0.14380910E+03</pdfrwt>
<pdfrwt beam="2">  1        2 0.20052641E+00 0.10307598E+03</pdfrwt>
<totfact> 0.54463297E+01</totfact>
</mgrwt>
</event>
<event>
13    1  0.1589573E-008  0.1184362E+03  0.7546771E-02  0.1369568E+00
          2   -1    0    0  503    0  0.00000000000E+00  0.00000000000E+00  0.73186336362E+03  0.73186336362E+03  0.00000000000E+00 0. -1.
          2   -1    0    0  502    0 -0.00000000000E+00 -0.00000000000E+00 -0.36677634449E+04  0.36677634449E+04  0.00000000000E+00 0. -1.
         24    2    1    2    0    0  0.22067762573E+02  0.49622647598E+02 -0.24143370051E+04  0.24162604307E+04  0.79636058503E+02 0.  0.
         25    2    1    2    0    0 -0.61984633504E+02 -0.19877900971E+03  0.33797762744E+03  0.41618284095E+03  0.12499636379E+03 0.  0.
         24    2    1    2    0    0 -0.72069195785E+02  0.75315600475E+02 -0.24439796423E+02  0.13675594856E+03  0.85079240488E+02 0.  0.
        -11    1    3    3    0    0 -0.20469506892E+02  0.15176559985E+02 -0.15405629342E+04  0.15407736637E+04  0.00000000000E+00 0.  1.
         12    1    3    3    0    0  0.42537269464E+02  0.34446087613E+02 -0.87377407089E+03  0.87548676700E+03  0.00000000000E+00 0. -1.
        -11    1    5    5    0    0 -0.52653652188E+02  0.77589899841E+02 -0.48650605256E+02  0.10563844489E+03  0.00000000000E+00 0.  1.
         12    1    5    5    0    0 -0.19415543597E+02 -0.22742993659E+01  0.24210808833E+02  0.31117503677E+02  0.00000000000E+00 0. -1.
          5    1    4    4  501    0 -0.58983718803E+02 -0.41564724982E+02  0.49596885224E+02  0.87684927271E+02  0.47000000000E+01 0.  1.
         -5    1    4    4    0  501 -0.30009147016E+01 -0.15721428472E+03  0.28838074222E+03  0.32849791368E+03  0.47000000000E+01 0.  1.
          1    1    1    2  502    0  0.74907562946E+02  0.64536077178E+02 -0.11293679672E+04  0.11336878113E+04  0.00000000000E+00 0. -1.
          1    1    1    2  503    0  0.37078503771E+02  0.93046844564E+01  0.29426705999E+03  0.29673977690E+03  0.00000000000E+00 0. -1.
<mgrwt>
<rscale>  0 0.67287433E+02</rscale>
<asrwt>0</asrwt>
<pdfrwt beam="1">  1        2 0.10762697E+00 0.38228165E+02</pdfrwt>
<pdfrwt beam="2">  1        2 0.53937697E+00 0.11843620E+03</pdfrwt>
<totfact> 0.80998584E+00</totfact>
</mgrwt>
</event>
<event>
13    1  0.1589573E-008  0.1173516E+03  0.7546771E-02  0.1369244E+00
          2   -1    0    0  503    0  0.00000000000E+00  0.00000000000E+00  0.24170186895E+03  0.24170186895E+03  0.00000000000E+00 0. -1.
          2   -1    0    0  502    0 -0.00000000000E+00 -0.00000000000E+00 -0.25746048794E+04  0.25746048794E+04  0.00000000000E+00 0. -1.
         24    2    1    2    0    0  0.62030553622E+02  0.11301693475E+03 -0.87861844164E+03  0.89159979722E+03  0.79744688225E+02 0.  0.
         25    2    1    2    0    0  0.52669867207E+02 -0.10264401465E+03 -0.57857084803E+03  0.60306018756E+03  0.12500981950E+03 0.  0.
         24    2    1    2    0    0 -0.16394298647E+02 -0.55587719587E+02 -0.14380556838E+03  0.16891503546E+03  0.67033425313E+02 0.  0.
        -11    1    3    3    0    0  0.60607423513E+02  0.10669121118E+03 -0.87608881852E+03  0.88463997890E+03  0.00000000000E+00 0.  1.
         12    1    3    3    0    0  0.14231301087E+01  0.63257235685E+01 -0.25296231133E+01  0.69598183214E+01  0.00000000000E+00 0. -1.
        -13    1    5    5    0    0  0.13409690365E+02  0.89483843091E+01 -0.16256755375E+02  0.22894878745E+02  0.00000000000E+00 0.  1.
         14    1    5    5    0    0 -0.29803989012E+02 -0.64536103896E+02 -0.12754881301E+03  0.14602015671E+03  0.00000000000E+00 0. -1.
          5    1    4    4  501    0  0.38564534560E+02 -0.13099099997E+03 -0.43447870450E+03  0.45545548637E+03  0.47000000000E+01 0. -1.
         -5    1    4    4    0  501  0.14105332647E+02  0.28346985320E+02 -0.14409214353E+03  0.14760470119E+03  0.47000000000E+01 0. -1.
          1    1    1    2  502    0 -0.13520627623E+02 -0.36245555236E+02 -0.92545886500E+03  0.92626705569E+03  0.00000000000E+00 0. -1.
          1    1    1    2  503    0 -0.84785494559E+02  0.81460354725E+02  0.19355071264E+03  0.22646467239E+03  0.00000000000E+00 0. -1.
<mgrwt>
<rscale>  0 0.67377855E+02</rscale>
<asrwt>0</asrwt>
<pdfrwt beam="1">  1        2 0.35544395E-01 0.11735162E+03</pdfrwt>
<pdfrwt beam="2">  1        2 0.37861834E+00 0.38685238E+02</pdfrwt>
<totfact> 0.12220245E+02</totfact>
</mgrwt>
</event>
<event>
13    1  0.1589573E-008  0.1210378E+03  0.7546771E-02  0.1431168E+00
          2   -1    0    0  502    0  0.00000000000E+00  0.00000000000E+00  0.78255209281E+03  0.78255209281E+03  0.00000000000E+00 0. -1.
          2   -1    0    0  503    0 -0.00000000000E+00 -0.00000000000E+00 -0.12186208838E+04  0.12186208838E+04  0.00000000000E+00 0. -1.
         24    2    1    2    0    0 -0.12287528990E+03  0.11233518750E+03 -0.42627050296E+03  0.46467203542E+03  0.80597937839E+02 0.  0.
         25    2    1    2    0    0  0.79360178697E+02 -0.26798375558E+03  0.31287326230E+03  0.43775325330E+03  0.12499960517E+03 0.  0.
         24    2    1    2    0    0 -0.57450809292E+02  0.51565720777E+02 -0.15692878024E+03  0.19232720543E+03  0.80021827232E+02 0.  0.
        -11    1    5    5    0    0 -0.11283622209E+02  0.62185054719E+02 -0.99579493996E+02  0.11794226039E+03  0.00000000000E+00 0.  1.
         12    1    5    5    0    0 -0.46167187083E+02 -0.10619333942E+02 -0.57349286246E+02  0.74384945045E+02  0.00000000000E+00 0. -1.
        -13    1    3    3    0    0 -0.28531188381E+02 -0.96632418290E+01 -0.84759825915E+02  0.89953516008E+02  0.00000000000E+00 0.  1.
         14    1    3    3    0    0 -0.94344101519E+02  0.12199842933E+03 -0.34151067705E+03  0.37471851941E+03  0.00000000000E+00 0. -1.
          5    1    4    4  501    0 -0.24371702851E+02 -0.11036303728E+03  0.82926278327E+02  0.14025989283E+03  0.47000000000E+01 0. -1.
         -5    1    4    4    0  501  0.10373188155E+03 -0.15762071830E+03  0.22994698397E+03  0.29749336047E+03  0.47000000000E+01 0. -1.
          1    1    1    2  502    0  0.21023662098E+02  0.92495813887E+01  0.36279649329E+03  0.36352282551E+03  0.00000000000E+00 0. -1.
          1    1    1    2  503    0  0.79942258397E+02  0.94833265911E+02 -0.52853926338E+03  0.54289765696E+03  0.00000000000E+00 0. -1.
<mgrwt>
<rscale>  0 0.52726178E+02</rscale>
<asrwt>0</asrwt>
<pdfrwt beam="1">  1        2 0.11508119E+00 0.22968438E+02</pdfrwt>
<pdfrwt beam="2">  1        2 0.17920895E+00 0.12103783E+03</pdfrwt>
<totfact> 0.14399809E+02</totfact>
</mgrwt>
</event>
<event>
13    1  0.1589573E-008  0.1186086E+03  0.7546771E-02  0.1360397E+00
          2   -1    0    0  502    0  0.00000000000E+00  0.00000000000E+00  0.12772337739E+04  0.12772337739E+04  0.00000000000E+00 0. -1.
          2   -1    0    0  503    0 -0.00000000000E+00 -0.00000000000E+00 -0.96673968152E+03  0.96673968152E+03  0.00000000000E+00 0. -1.
         24    2    1    2    0    0  0.24769308630E+03 -0.99316600117E+02 -0.17876436181E+03  0.33090950822E+03  0.79553463244E+02 0.  0.
         25    2    1    2    0    0 -0.13750092816E+03 -0.93422942455E+02  0.13469813855E+03  0.24779560504E+03  0.12499888771E+03 0.  0.
         24    2    1    2    0    0 -0.80124534604E+02  0.77536862089E+02  0.20632026215E+03  0.24546370847E+03  0.72473964796E+02 0.  0.
        -13    1    5    5    0    0 -0.84004152534E+02  0.83361632338E+02  0.20698929326E+03  0.23843327560E+03  0.00000000000E+00 0.  1.
         14    1    5    5    0    0  0.38796179300E+01 -0.58247702494E+01 -0.66903110613E+00  0.70304328716E+01  0.00000000000E+00 0. -1.
        -13    1    3    3    0    0  0.24903155629E+02 -0.40458106448E+02 -0.38442897339E+02  0.61113680085E+02  0.00000000000E+00 0.  1.
         14    1    3    3    0    0  0.22278993067E+03 -0.58858493669E+02 -0.14032146447E+03  0.26979582813E+03  0.00000000000E+00 0. -1.
          5    1    4    4  501    0 -0.88986594807E+02  0.89130784267E+01  0.86874914079E+02  0.12476937813E+03  0.47000000000E+01 0.  1.
         -5    1    4    4    0  501 -0.48514333348E+02 -0.10233602088E+03  0.47823224472E+02  0.12302622692E+03  0.47000000000E+01 0.  1.
          1    1    1    2  502    0  0.37307423415E+02  0.17497695677E+02  0.77793357824E+03  0.77902417508E+03  0.00000000000E+00 0. -1.
          1    1    1    2  503    0 -0.67375046956E+02  0.97704984806E+02 -0.62969352476E+03  0.64078045861E+03  0.00000000000E+00 0. -1.
<mgrwt>
<rscale>  0 0.69910651E+02</rscale>
<asrwt>0</asrwt>
<pdfrwt beam="1">  1        2 0.18782850E+00 0.41206956E+02</pdfrwt>
<pdfrwt beam="2">  1        2 0.14216760E+00 0.11860860E+03</pdfrwt>
<totfact> 0.10451742E+02</totfact>
</mgrwt>
</event>
<event>
13    1  0.1589573E-008  0.1642419E+03  0.7546771E-02  0.1387198E+00
          2   -1    0    0  503    0  0.00000000000E+00  0.00000000000E+00  0.14740780422E+04  0.14740780422E+04  0.00000000000E+00 0. -1.
          2   -1    0    0  502    0 -0.00000000000E+00 -0.00000000000E+00 -0.16529193577E+04  0.16529193577E+04  0.00000000000E+00 0. -1.
         24    2    1    2    0    0 -0.24007997509E+02 -0.34928596150E+02 -0.18090565654E+03  0.20243160622E+03  0.80344930490E+02 0.  0.
         25    2    1    2    0    0 -0.15098961597E+03 -0.15455764877E+03  0.32945288821E+03  0.41333583693E+03  0.12498550965E+03 0.  0.
         24    2    1    2    0    0 -0.12698555875E+03  0.58788255539E+02 -0.10450091518E+03  0.19164709991E+03  0.78909939236E+02 0.  0.
        -11    1    3    3    0    0 -0.39066774274E+02 -0.51363691435E+02 -0.10430810348E+03  0.12265652083E+03  0.00000000000E+00 0.  1.
         12    1    3    3    0    0  0.15058776765E+02  0.16435095285E+02 -0.76597553056E+02  0.79775085390E+02  0.00000000000E+00 0. -1.
        -13    1    5    5    0    0 -0.40557578783E+02 -0.34077679778E+01  0.23896029740E+01  0.40770581082E+02  0.00000000000E+00 0.  1.
         14    1    5    5    0    0 -0.86427979966E+02  0.62196023517E+02 -0.10689051816E+03  0.15087651883E+03  0.00000000000E+00 0. -1.
          5    1    4    4  501    0 -0.13823595190E+03 -0.58365368838E+02  0.22695236363E+03  0.27211240331E+03  0.47000000000E+01 0.  1.
         -5    1    4    4    0  501 -0.12753664063E+02 -0.96192279931E+02  0.10250052458E+03  0.14122343362E+03  0.47000000000E+01 0.  1.
          1    1    1    2  502    0  0.31533846859E+03  0.11091802670E+03 -0.12491191843E+04  0.12930738166E+04  0.00000000000E+00 0. -1.
          1    1    1    2  503    0 -0.13355296363E+02  0.19779962678E+02  0.10262315524E+04  0.10265090403E+04  0.00000000000E+00 0. -1.
<mgrwt>
<rscale>  0 0.62608966E+02</rscale>
<asrwt>0</asrwt>
<pdfrwt beam="1">  1        2 0.21677618E+00 0.23866522E+02</pdfrwt>
<pdfrwt beam="2">  1        2 0.24307637E+00 0.16424189E+03</pdfrwt>
<totfact> 0.37331580E+01</totfact>
</mgrwt>
</event>
<event>
13    1  0.1589573E-008  0.6961559E+02  0.7546771E-02  0.1438176E+00
          2   -1    0    0  503    0  0.00000000000E+00  0.00000000000E+00  0.11843491571E+04  0.11843491571E+04  0.00000000000E+00 0. -1.
          2   -1    0    0  502    0 -0.00000000000E+00 -0.00000000000E+00 -0.14692227206E+04  0.14692227206E+04  0.00000000000E+00 0. -1.
         24    2    1    2    0    0  0.62064564764E+02  0.11255230883E+03 -0.58955232674E+03  0.61078267972E+03  0.94675780749E+02 0.  0.
         25    2    1    2    0    0  0.27456963063E+02 -0.49862700982E+02  0.22333142563E+03  0.26217031402E+03  0.12496469144E+03 0.  0.
         24    2    1    2    0    0 -0.36629899414E+01 -0.74322849577E+02 -0.18963601056E+03  0.21914394967E+03  0.80777167012E+02 0.  0.
        -11    1    5    5    0    0 -0.36427991710E+02 -0.38756185476E+02 -0.56973525525E+02  0.77942434549E+02  0.00000000000E+00 0.  1.
         12    1    5    5    0    0  0.32765001768E+02 -0.35566664100E+02 -0.13266248504E+03  0.14120151512E+03  0.00000000000E+00 0. -1.
        -11    1    3    3    0    0  0.68352398063E+02  0.12575875770E+03 -0.50159874166E+03  0.52162113943E+03  0.00000000000E+00 0.  1.
         12    1    3    3    0    0 -0.62878332986E+01 -0.13206448876E+02 -0.87953585074E+02  0.89161540290E+02  0.00000000000E+00 0. -1.
          5    1    4    4  501    0  0.68442718486E+02 -0.17828616348E+02  0.67740958916E+02  0.98046890769E+02  0.47000000000E+01 0. -1.
         -5    1    4    4    0  501 -0.40985755422E+02 -0.32034084634E+02  0.15559046672E+03  0.16412342325E+03  0.47000000000E+01 0. -1.
          1    1    1    2  502    0 -0.58418142562E+02  0.37749269848E+02 -0.64297793472E+03  0.64672893185E+03  0.00000000000E+00 0. -1.
          1    1    1    2  503    0 -0.27440395325E+02 -0.26116028115E+02  0.91396128294E+03  0.91474600241E+03  0.00000000000E+00 0. -1.
<mgrwt>
<rscale>  0 0.51353246E+02</rscale>
<asrwt>0</asrwt>
<pdfrwt beam="1">  1        2 0.17416899E+00 0.37881687E+02</pdfrwt>
<pdfrwt beam="2">  1        2 0.21606217E+00 0.69615588E+02</pdfrwt>
<totfact> 0.65491809E+01</totfact>
</mgrwt>
</event>
<event>
13    1  0.1589573E-008  0.2583667E+03  0.7546771E-02  0.1294080E+00
          2   -1    0    0  503    0  0.00000000000E+00  0.00000000000E+00  0.49918670847E+03  0.49918670847E+03  0.00000000000E+00 0. -1.
          2   -1    0    0  502    0 -0.00000000000E+00 -0.00000000000E+00 -0.24904455191E+04  0.24904455191E+04  0.00000000000E+00 0. -1.
         24    2    1    2    0    0 -0.92764377088E+01 -0.91750595154E+02 -0.77391901223E+02  0.14476270075E+03  0.80389732835E+02 0.  0.
         25    2    1    2    0    0  0.17086160019E+03  0.16176727002E+03 -0.68701142413E+03  0.73686593340E+03  0.12499748342E+03 0.  0.
         24    2    1    2    0    0 -0.11205720618E+03  0.20027823442E+03  0.42765399196E+02  0.24671911696E+03  0.79832666649E+02 0.  0.
        -11    1    5    5    0    0 -0.55751011991E+02  0.16605405801E+03  0.44781396549E+02  0.18079684454E+03  0.00000000000E+00 0.  1.
         12    1    5    5    0    0 -0.56306194189E+02  0.34224176412E+02 -0.20159973532E+01  0.65922272416E+02  0.00000000000E+00 0. -1.
        -13    1    3    3    0    0 -0.37877132650E+02 -0.80350175287E+02 -0.70005572279E+02  0.11309999114E+03  0.00000000000E+00 0.  1.
         14    1    3    3    0    0  0.28600694941E+02 -0.11400419866E+02 -0.73863289435E+01  0.31662709605E+02  0.00000000000E+00 0. -1.
          5    1    4    4  501    0  0.16146989273E+03  0.11690827510E+03 -0.40851147425E+03  0.45458089010E+03  0.47000000000E+01 0. -1.
         -5    1    4    4    0  501  0.93917074568E+01  0.44858994920E+02 -0.27849994988E+03  0.28228504331E+03  0.47000000000E+01 0. -1.
          1    1    1    2  502    0 -0.18715110556E+02  0.28382877911E+02 -0.14890185086E+04  0.14894065805E+04  0.00000000000E+00 0. -1.
          1    1    1    2  503    0 -0.30812845747E+02 -0.29867778720E+03  0.21939762412E+03  0.37187789596E+03  0.00000000000E+00 0. -1.
<mgrwt>
<rscale>  0 0.93722303E+02</rscale>
<asrwt>0</asrwt>
<pdfrwt beam="1">  1        2 0.73409812E-01 0.25836665E+03</pdfrwt>
<pdfrwt beam="2">  1        2 0.36624198E+00 0.33997693E+02</pdfrwt>
<totfact> 0.62600200E+01</totfact>
</mgrwt>
</event>
<event>
13    1  0.1589573E-008  0.6306686E+02  0.7546771E-02  0.1429702E+00
          2   -1    0    0  502    0  0.00000000000E+00  0.00000000000E+00  0.20926515972E+04  0.20926515972E+04  0.00000000000E+00 0. -1.
          2   -1    0    0  503    0 -0.00000000000E+00 -0.00000000000E+00 -0.34995436565E+04  0.34995436565E+04  0.00000000000E+00 0. -1.
         24    2    1    2    0    0 -0.21338772975E+02  0.10677925031E+02 -0.12319722073E+03  0.14907975357E+03  0.80485131632E+02 0.  0.
         25    2    1    2    0    0  0.31153208353E+02 -0.71046083893E+02  0.96497769586E+03  0.97612770923E+03  0.12500113117E+03 0.  0.
         24    2    1    2    0    0 -0.21639153631E+02 -0.44797086266E+02  0.34920590701E+01  0.90840473304E+02  0.75926050903E+02 0.  0.
        -11    1    3    3    0    0 -0.25711093832E+02 -0.22301896073E+02 -0.10659874232E+03  0.11190052180E+03  0.00000000000E+00 0.  1.
         12    1    3    3    0    0  0.43723208570E+01  0.32979821104E+02 -0.16598478413E+02  0.37179231774E+02  0.00000000000E+00 0. -1.
        -11    1    5    5    0    0 -0.35711629540E+02 -0.23753060165E+02 -0.27404254366E+02  0.50897166021E+02  0.00000000000E+00 0.  1.
         12    1    5    5    0    0  0.14072475909E+02 -0.21044026102E+02  0.30896313436E+02  0.39943307283E+02  0.00000000000E+00 0. -1.
          5    1    4    4  501    0  0.12681666145E+02  0.35004729637E+02  0.32268381250E+03  0.32485856708E+03  0.47000000000E+01 0. -1.
         -5    1    4    4    0  501  0.18471542207E+02 -0.10605081353E+03  0.64229388335E+03  0.65126914215E+03  0.47000000000E+01 0. -1.
          1    1    1    2  502    0 -0.47283308467E+01  0.44321994169E+02  0.10612235638E+04  0.10621592389E+04  0.00000000000E+00 0. -1.
          1    1    1    2  503    0  0.16553049100E+02  0.60843250960E+02 -0.33133881574E+04  0.33139880788E+04  0.00000000000E+00 0. -1.
<mgrwt>
<rscale>  0 0.53019903E+02</rscale>
<asrwt>0</asrwt>
<pdfrwt beam="1">  1        2 0.30774288E+00 0.44573493E+02</pdfrwt>
<pdfrwt beam="2">  1        2 0.51463877E+00 0.63066857E+02</pdfrwt>
<totfact> 0.23389389E+00</totfact>
</mgrwt>
</event>
<event>
13    1  0.1589573E-008  0.9697106E+02  0.7546771E-02  0.1344587E+00
          2   -1    0    0  503    0  0.00000000000E+00  0.00000000000E+00  0.19518634323E+04  0.19518634323E+04  0.00000000000E+00 0. -1.
          2   -1    0    0  502    0 -0.00000000000E+00 -0.00000000000E+00 -0.35697990302E+04  0.35697990302E+04  0.00000000000E+00 0. -1.
         24    2    1    2    0    0  0.53677551027E+02  0.10315035164E+03 -0.13328533534E+04  0.13402916213E+04  0.79763989155E+02 0.  0.
         25    2    1    2    0    0 -0.62300407367E+02 -0.18194634146E+03  0.11290157336E+04  0.11520803558E+04  0.12500723044E+03 0.  0.
         24    2    1    2    0    0  0.30379043920E+02 -0.62692128743E+02 -0.12931988526E+03  0.16453590416E+03  0.74129897598E+02 0.  0.
        -11    1    5    5    0    0  0.13468535210E+02 -0.47348442596E+02 -0.20463966572E+02  0.53310884300E+02  0.00000000000E+00 0.  1.
         12    1    5    5    0    0  0.16910508711E+02 -0.15343686147E+02 -0.10885591868E+03  0.11122501986E+03  0.00000000000E+00 0. -1.
        -13    1    3    3    0    0  0.52187762040E+02  0.30393278082E+02 -0.39163247188E+03  0.39626166467E+03  0.00000000000E+00 0.  1.
         14    1    3    3    0    0  0.14897889871E+01  0.72757073559E+02 -0.94122088147E+03  0.94402995659E+03  0.00000000000E+00 0. -1.
          5    1    4    4  501    0 -0.83939194033E+02 -0.14603386296E+03  0.66000223277E+03  0.68117304313E+03  0.47000000000E+01 0.  1.
         -5    1    4    4    0  501  0.21638786666E+02 -0.35912478498E+02  0.46901350085E+03  0.47090731272E+03  0.47000000000E+01 0.  1.
          1    1    1    2  502    0  0.30448167550E+02  0.11702800009E+03 -0.20719493410E+04  0.20754750578E+04  0.00000000000E+00 0. -1.
          1    1    1    2  503    0 -0.52204355130E+02  0.24460118465E+02  0.78717124813E+03  0.78927952334E+03  0.00000000000E+00 0. -1.
<mgrwt>
<rscale>  0 0.74769247E+02</rscale>
<asrwt>0</asrwt>
<pdfrwt beam="1">  1        2 0.28703874E+00 0.57650604E+02</pdfrwt>
<pdfrwt beam="2">  1        2 0.52497044E+00 0.96971062E+02</pdfrwt>
<totfact> 0.22159470E+00</totfact>
</mgrwt>
</event>
<event>
13    1  0.1589573E-008  0.1920412E+03  0.7546771E-02  0.1243679E+00
          2   -1    0    0  503    0  0.00000000000E+00  0.00000000000E+00  0.27310476459E+04  0.27310476459E+04  0.00000000000E+00 0. -1.
          2   -1    0    0  502    0 -0.00000000000E+00 -0.00000000000E+00 -0.36600641446E+04  0.36600641446E+04  0.00000000000E+00 0. -1.
         24    2    1    2    0    0  0.33952785735E+03  0.47936450724E+02 -0.19310996141E+04  0.19629610269E+04  0.80580420949E+02 0.  0.
         25    2    1    2    0    0 -0.52610969551E+03 -0.19040510297E+03  0.44432166592E+03  0.72532026328E+03  0.12498890581E+03 0.  0.
         24    2    1    2    0    0  0.48277515108E+02 -0.53085087444E+02  0.73273537003E+02  0.12991425310E+03  0.79749338298E+02 0.  0.
        -11    1    5    5    0    0 -0.36679115957E+01 -0.54316112264E+02  0.29181630615E+02  0.61767800611E+02  0.00000000000E+00 0.  1.
         12    1    5    5    0    0  0.51945426704E+02  0.12310248201E+01  0.44091906388E+02  0.68146452486E+02  0.00000000000E+00 0. -1.
        -13    1    3    3    0    0  0.24525796310E+03  0.53211349078E+02 -0.12137131404E+04  0.12393879551E+04  0.00000000000E+00 0.  1.
         14    1    3    3    0    0  0.94269894246E+02 -0.52748983548E+01 -0.71738647373E+03  0.72357307178E+03  0.00000000000E+00 0. -1.
          5    1    4    4  501    0 -0.83823772697E+02 -0.41643065549E+02  0.13904854675E+03  0.16768171674E+03  0.47000000000E+01 0.  1.
         -5    1    4    4    0  501 -0.44228592281E+03 -0.14876203742E+03  0.30527311917E+03  0.55763854654E+03  0.47000000000E+01 0.  1.
          1    1    1    2  502    0 -0.74543943261E+02 -0.33610255907E+00 -0.15329922082E+04  0.15348035780E+04  0.00000000000E+00 0. -1.
          1    1    1    2  503    0  0.21284826632E+03  0.19588984225E+03  0.20174801208E+04  0.20381126693E+04  0.00000000000E+00 0. -1.
<mgrwt>
<rscale>  0 0.11964804E+03</rscale>
<asrwt>0</asrwt>
<pdfrwt beam="1">  1        2 0.40162465E+00 0.19204119E+03</pdfrwt>
<pdfrwt beam="2">  1        2 0.53824473E+00 0.74544701E+02</pdfrwt>
<totfact> 0.73466692E-01</totfact>
</mgrwt>
</event>
<event>
13    1  0.1589573E-008  0.1006647E+03  0.7546771E-02  0.1306370E+00
          2   -1    0    0  502    0  0.00000000000E+00  0.00000000000E+00  0.29168838827E+04  0.29168838827E+04  0.00000000000E+00 0. -1.
          2   -1    0    0  503    0 -0.00000000000E+00 -0.00000000000E+00 -0.63681484859E+03  0.63681484859E+03  0.00000000000E+00 0. -1.
         24    2    1    2    0    0 -0.20776729182E+02 -0.52215852630E+02 -0.37946107354E+03  0.39182368414E+03  0.79855653394E+02 0.  0.
         25    2    1    2    0    0 -0.27127636483E+02 -0.16203940048E+02 -0.13790413388E+02  0.12966748090E+03  0.12500001506E+03 0.  0.
         24    2    1    2    0    0 -0.63586863246E+02  0.46374864117E+02  0.22851282484E+03  0.25502880636E+03  0.81410464658E+02 0.  0.
        -13    1    3    3    0    0 -0.10671278902E+02  0.21031025545E+02 -0.83565886262E+02  0.86829934790E+02  0.00000000000E+00 0.  1.
         14    1    3    3    0    0 -0.10105450280E+02 -0.73246878176E+02 -0.29589518728E+03  0.30499374935E+03  0.00000000000E+00 0. -1.
        -13    1    5    5    0    0 -0.37245483304E+02  0.33701611168E+02  0.39857102286E+02  0.64121862298E+02  0.00000000000E+00 0.  1.
         14    1    5    5    0    0 -0.26341379943E+02  0.12673252949E+02  0.18865572255E+03  0.19090694406E+03  0.00000000000E+00 0. -1.
          5    1    4    4  501    0 -0.99162590461E+01 -0.41284247136E+02  0.45780357346E+02  0.62615112982E+02  0.47000000000E+01 0. -1.
         -5    1    4    4    0  501 -0.17211377436E+02  0.25080307088E+02 -0.59570770734E+02  0.67052367913E+02  0.47000000000E+01 0. -1.
          1    1    1    2  502    0  0.60215705724E+02  0.80710835701E+02  0.26008323623E+04  0.26027810409E+04  0.00000000000E+00 0. -1.
          1    1    1    2  503    0  0.51275523187E+02 -0.58665907141E+02 -0.15602466611E+03  0.17439771895E+03  0.00000000000E+00 0. -1.
<mgrwt>
<rscale>  0 0.88562808E+02</rscale>
<asrwt>0</asrwt>
<pdfrwt beam="1">  1        2 0.42895351E+00 0.10066474E+03</pdfrwt>
<pdfrwt beam="2">  1        2 0.93649243E-01 0.77915775E+02</pdfrwt>
<totfact> 0.25433970E+01</totfact>
</mgrwt>
</event>
<event>
13    1  0.1589573E-008  0.1036496E+03  0.7546771E-02  0.1449743E+00
          2   -1    0    0  503    0  0.00000000000E+00  0.00000000000E+00  0.17904487289E+04  0.17904487289E+04  0.00000000000E+00 0. -1.
          2   -1    0    0  502    0 -0.00000000000E+00 -0.00000000000E+00 -0.18609937153E+04  0.18609937153E+04  0.00000000000E+00 0. -1.
         24    2    1    2    0    0 -0.25791448320E+03 -0.40174004061E+03 -0.35368641241E+02  0.48592585587E+03  0.83414961163E+02 0.  0.
         25    2    1    2    0    0  0.54846836032E+03  0.19074288333E+03  0.65139704341E+03  0.88155739392E+03  0.12499976323E+03 0.  0.
         24    2    1    2    0    0 -0.29741748337E+03  0.29820672278E+03  0.20119772366E+03  0.47862057726E+03  0.10589015083E+03 0.  0.
        -11    1    3    3    0    0 -0.63021125705E+02 -0.75461823839E+02  0.24151566943E+02  0.10123955417E+03  0.00000000000E+00 0.  1.
         12    1    3    3    0    0 -0.19489335750E+03 -0.32627821677E+03 -0.59520208184E+02  0.38468630170E+03  0.00000000000E+00 0. -1.
        -13    1    5    5    0    0 -0.77359854324E+02  0.58451571513E+02  0.18386915136E+01  0.96976873840E+02  0.00000000000E+00 0.  1.
         14    1    5    5    0    0 -0.22005762905E+03  0.23975515127E+03  0.19935903214E+03  0.38164370342E+03  0.00000000000E+00 0. -1.
          5    1    4    4  501    0  0.52039445666E+03  0.14963761003E+03  0.57142789854E+03  0.78724439540E+03  0.47000000000E+01 0.  1.
         -5    1    4    4    0  501  0.28073903659E+02  0.41105273299E+02  0.79969144863E+02  0.94312998520E+02  0.47000000000E+01 0.  1.
          1    1    1    2  502    0  0.26186509575E+02 -0.10031424986E+03 -0.13442604958E+04  0.13482525589E+04  0.00000000000E+00 0. -1.
          1    1    1    2  503    0 -0.19322903316E+02  0.13104684357E+02  0.45648938362E+03  0.45708605831E+03  0.00000000000E+00 0. -1.
<mgrwt>
<rscale>  0 0.49193108E+02</rscale>
<asrwt>0</asrwt>
<pdfrwt beam="1">  1        2 0.26330128E+00 0.23347534E+02</pdfrwt>
<pdfrwt beam="2">  1        2 0.27367555E+00 0.10364957E+03</pdfrwt>
<totfact> 0.22215420E+01</totfact>
</mgrwt>
</event>
<event>
13    1  0.1589573E-008  0.1005358E+03  0.7546771E-02  0.1430956E+00
          2   -1    0    0  503    0  0.00000000000E+00  0.00000000000E+00  0.27991658005E+04  0.27991658005E+04  0.00000000000E+00 0. -1.
          2   -1    0    0  502    0 -0.00000000000E+00 -0.00000000000E+00 -0.14106716387E+04  0.14106716387E+04  0.00000000000E+00 0. -1.
         24    2    1    2    0    0 -0.14733172371E+03  0.52169914035E+02 -0.24419006097E+03  0.30124698997E+03  0.81808473582E+02 0.  0.
         25    2    1    2    0    0  0.33020726363E+03  0.76753707859E+02  0.20278752540E+04  0.20598132562E+04  0.12499854447E+03 0.  0.
         24    2    1    2    0    0 -0.11371988665E+03 -0.86450992666E+02  0.18241062508E+03  0.24458293631E+03  0.78365744036E+02 0.  0.
        -13    1    3    3    0    0 -0.10967574467E+03  0.73329337155E+02 -0.16737308394E+03  0.21311900404E+03  0.00000000000E+00 0.  1.
         14    1    3    3    0    0 -0.37655979042E+02 -0.21159423120E+02 -0.76816977028E+02  0.88127985931E+02  0.00000000000E+00 0. -1.
        -13    1    5    5    0    0  0.83970793449E+01 -0.23961330350E+02  0.34730973115E+02  0.43022050012E+02  0.00000000000E+00 0.  1.
         14    1    5    5    0    0 -0.12211696599E+03 -0.62489662316E+02  0.14767965197E+03  0.20156088630E+03  0.00000000000E+00 0. -1.
          5    1    4    4  501    0  0.51071188685E+02 -0.27029147632E+02  0.21713742539E+03  0.22474339288E+03  0.47000000000E+01 0. -1.
         -5    1    4    4    0  501  0.27913607494E+03  0.10378285549E+03  0.18107378286E+04  0.18350698634E+04  0.47000000000E+01 0. -1.
          1    1    1    2  502    0 -0.72190220089E+02 -0.70002639923E+02 -0.10882045339E+04  0.10928407501E+04  0.00000000000E+00 0. -1.
          1    1    1    2  503    0  0.30345668266E+01  0.27530010696E+02  0.51060287760E+03  0.51135350659E+03  0.00000000000E+00 0. -1.
<mgrwt>
<rscale>  0 0.52768509E+02</rscale>
<asrwt>0</asrwt>
<pdfrwt beam="1">  1        2 0.41164203E+00 0.27696752E+02</pdfrwt>
<pdfrwt beam="2">  1        2 0.20745171E+00 0.10053581E+03</pdfrwt>
<totfact> 0.12476038E+01</totfact>
</mgrwt>
</event>
<event>
13    1  0.1589573E-008  0.1218414E+03  0.7546771E-02  0.1395033E+00
          2   -1    0    0  502    0  0.00000000000E+00  0.00000000000E+00  0.21804267390E+04  0.21804267390E+04  0.00000000000E+00 0. -1.
          2   -1    0    0  503    0 -0.00000000000E+00 -0.00000000000E+00 -0.65539678439E+03  0.65539678439E+03  0.00000000000E+00 0. -1.
         24    2    1    2    0    0  0.20963226247E+02  0.14608631364E+02 -0.26523152317E+03  0.27827892193E+03  0.80240442038E+02 0.  0.
         25    2    1    2    0    0 -0.78749705910E+01 -0.98729199998E+02 -0.10167164890E+03  0.18913044506E+03  0.12499492375E+03 0.  0.
         24    2    1    2    0    0 -0.96496094872E+02  0.45931435691E+02 -0.11221164100E+02  0.13386943121E+03  0.79836814688E+02 0.  0.
        -13    1    5    5    0    0  0.61404893415E+01 -0.40650667673E+01 -0.18054829075E+02  0.19498903305E+02  0.00000000000E+00 0.  1.
         14    1    5    5    0    0 -0.10263658421E+03  0.49996502458E+02  0.68336649752E+01  0.11437052791E+03  0.00000000000E+00 0. -1.
        -13    1    3    3    0    0  0.61142441174E+01 -0.31101282135E+02 -0.15200049635E+03  0.15527016656E+03  0.00000000000E+00 0.  1.
         14    1    3    3    0    0  0.14848982130E+02  0.45709913498E+02 -0.11323102682E+03  0.12300875537E+03  0.00000000000E+00 0. -1.
          5    1    4    4  501    0  0.38388149892E+02 -0.10560474028E+03 -0.72526557823E+02  0.13382153344E+03  0.47000000000E+01 0.  1.
         -5    1    4    4    0  501 -0.46263120483E+02  0.68755402806E+01 -0.29145091077E+02  0.55308911622E+02  0.47000000000E+01 0.  1.
          1    1    1    2  502    0  0.10984695066E+03  0.52809172419E+02  0.20656609206E+04  0.20692535369E+04  0.00000000000E+00 0. -1.
          1    1    1    2  503    0 -0.26439111442E+02 -0.14620039475E+02 -0.16250662983E+03  0.16529118823E+03  0.00000000000E+00 0. -1.
<mgrwt>
<rscale>  0 0.60671954E+02</rscale>
<asrwt>0</asrwt>
<pdfrwt beam="1">  1        2 0.32065099E+00 0.12184137E+03</pdfrwt>
<pdfrwt beam="2">  1        2 0.96381881E-01 0.30212120E+02</pdfrwt>
<totfact> 0.57724395E+01</totfact>
</mgrwt>
</event>
<event>
13    1  0.1589573E-008  0.1827093E+03  0.7546771E-02  0.1217627E+00
          2   -1    0    0  503    0  0.00000000000E+00  0.00000000000E+00  0.37941199346E+04  0.37941199346E+04  0.00000000000E+00 0. -1.
         -3   -1    0    0    0  501 -0.00000000000E+00 -0.00000000000E+00 -0.42887962250E+03  0.42887962250E+03  0.00000000000E+00 0.  1.
         24    2    1    2    0    0 -0.12319643319E+02  0.20394206995E+03  0.24897407915E+03  0.33208243594E+03  0.80910510229E+02 0.  0.
         25    2    1    2    0    0  0.24178892800E+03 -0.29585474088E+03  0.75936040947E+02  0.40912411426E+03  0.12499738058E+03 0.  0.
         24    2    1    2    0    0  0.40494209217E+02  0.85493799560E+02  0.98290344554E+02  0.16069682941E+03  0.84932375488E+02 0.  0.
        -13    1    3    3    0    0 -0.16167873534E+02  0.11331483965E+02  0.56115263976E+02  0.59487187818E+02  0.00000000000E+00 0.  1.
         14    1    3    3    0    0  0.38482302150E+01  0.19261058598E+03  0.19285881517E+03  0.27259524812E+03  0.00000000000E+00 0. -1.
        -13    1    5    5    0    0 -0.21309726920E+02  0.52298979099E+02  0.36773973739E+02  0.67391489230E+02  0.00000000000E+00 0.  1.
         14    1    5    5    0    0  0.61803936137E+02  0.33194820462E+02  0.61516370815E+02  0.93305340178E+02  0.00000000000E+00 0. -1.
          5    1    4    4  502    0  0.19296037843E+02 -0.23365677100E+01  0.32591815579E+02  0.38237587108E+02  0.47000000000E+01 0.  1.
         -5    1    4    4    0  502  0.22249289016E+03 -0.29351817317E+03  0.43344225368E+02  0.37088652716E+03  0.47000000000E+01 0.  1.
          1    1    1    2  503    0 -0.17816350906E+03 -0.39190985641E+02  0.31148413467E+04  0.31201786462E+04  0.00000000000E+00 0. -1.
         -4    1    1    2    0  501 -0.91799984835E+02  0.45609857016E+02 -0.17280149918E+03  0.20091753132E+03  0.00000000000E+00 0.  1.
<mgrwt>
<rscale>  0 0.13685325E+03</rscale>
<asrwt>0</asrwt>
<pdfrwt beam="1">  1        2 0.55795880E+00 0.18270929E+03</pdfrwt>
<pdfrwt beam="2">  1       -3 0.63070535E-01 0.10250608E+03</pdfrwt>
<totfact> 0.13455193E+00</totfact>
</mgrwt>
</event>
<event>
13    1  0.1589573E-008  0.8201115E+02  0.7546771E-02  0.1426550E+00
          2   -1    0    0  502    0  0.00000000000E+00  0.00000000000E+00  0.27962282374E+04  0.27962282374E+04  0.00000000000E+00 0. -1.
          2   -1    0    0  503    0 -0.00000000000E+00 -0.00000000000E+00 -0.12323929490E+04  0.12323929490E+04  0.00000000000E+00 0. -1.
         24    2    1    2    0    0 -0.52887112933E+03  0.50021499732E+03  0.80052830821E+03  0.10852104072E+04  0.83164539166E+02 0.  0.
         25    2    1    2    0    0  0.25120161792E+03 -0.77237422278E+03  0.56266962046E+03  0.99593637533E+03  0.12501187567E+03 0.  0.
         24    2    1    2    0    0  0.28918071330E+03  0.15729427063E+03  0.14218606560E+03  0.36750622688E+03  0.80479668410E+02 0.  0.
        -11    1    3    3    0    0 -0.23545429153E+03  0.22852858619E+03  0.30034146236E+03  0.44482472067E+03  0.00000000000E+00 0.  1.
         12    1    3    3    0    0 -0.29341683780E+03  0.27168641113E+03  0.50018684585E+03  0.64038568649E+03  0.00000000000E+00 0. -1.
        -13    1    5    5    0    0  0.24562096957E+03  0.98265239736E+02  0.12259716169E+03  0.29157465954E+03  0.00000000000E+00 0.  1.
         14    1    5    5    0    0  0.43559743732E+02  0.59029030891E+02  0.19588903903E+02  0.75931567335E+02  0.00000000000E+00 0. -1.
          5    1    4    4  501    0  0.16034242393E+03 -0.54913007208E+03  0.32766432668E+03  0.65927196964E+03  0.47000000000E+01 0.  1.
         -5    1    4    4    0  501  0.90859193986E+02 -0.22324415070E+03  0.23500529378E+03  0.33666440569E+03  0.47000000000E+01 0.  1.
          1    1    1    2  502    0  0.54998683088E+01  0.34674860073E+02  0.81662320355E+03  0.81737754499E+03  0.00000000000E+00 0. -1.
          1    1    1    2  503    0 -0.17011070194E+02  0.80190094756E+02 -0.75817190940E+03  0.76259063200E+03  0.00000000000E+00 0. -1.
<mgrwt>
<rscale>  0 0.53658867E+02</rscale>
<asrwt>0</asrwt>
<pdfrwt beam="1">  1        2 0.41121003E+00 0.35108325E+02</pdfrwt>
<pdfrwt beam="2">  1        2 0.18123426E+00 0.82011147E+02</pdfrwt>
<totfact> 0.15029642E+01</totfact>
</mgrwt>
</event>
<event>
13    1  0.1589573E-008  0.1307002E+03  0.7546771E-02  0.1302110E+00
          2   -1    0    0  502    0  0.00000000000E+00  0.00000000000E+00  0.26705565108E+04  0.26705565108E+04  0.00000000000E+00 0. -1.
          4   -1    0    0  503    0 -0.00000000000E+00 -0.00000000000E+00 -0.77745368333E+03  0.77745368333E+03  0.00000000000E+00 0. -1.
         24    2    1    2    0    0  0.44423700888E+03  0.40891903563E+03 -0.23487177776E+03  0.65273132832E+03  0.79574727284E+02 0.  0.
         25    2    1    2    0    0 -0.35167560480E+03 -0.24398678338E+03  0.11016784926E+04  0.11884976923E+04  0.12500392819E+03 0.  0.
         24    2    1    2    0    0 -0.38861569494E+02 -0.58030018711E+02 -0.12782652835E+03  0.16244478166E+03  0.71909534018E+02 0.  0.
        -11    1    3    3    0    0  0.25718273280E+03  0.18629891161E+03 -0.10733264954E+03  0.33521715376E+03  0.00000000000E+00 0.  1.
         12    1    3    3    0    0  0.18705427608E+03  0.22262012402E+03 -0.12753912822E+03  0.31751417456E+03  0.00000000000E+00 0. -1.
        -13    1    5    5    0    0 -0.12409481991E+02 -0.55061960427E+02 -0.36256939733E+02  0.67084874660E+02  0.00000000000E+00 0.  1.
         14    1    5    5    0    0 -0.26452087503E+02 -0.29680582843E+01 -0.91569588616E+02  0.95359906997E+02  0.00000000000E+00 0. -1.
          5    1    4    4  501    0 -0.13450479344E+03 -0.16016177231E+03  0.59989734132E+03  0.63532845276E+03  0.47000000000E+01 0.  1.
         -5    1    4    4    0  501 -0.21717081136E+03 -0.83825011069E+02  0.50178115133E+03  0.55316923958E+03  0.47000000000E+01 0.  1.
          1    1    1    2  502    0  0.62388800120E+02 -0.10227166471E+01  0.12556940412E+04  0.12572433867E+04  0.00000000000E+00 0. -1.
          3    1    1    2  503    0 -0.11608863470E+03 -0.10587951690E+03 -0.10157140026E+03  0.18709300510E+03  0.00000000000E+00 0. -1.
<mgrwt>
<rscale>  0 0.90306818E+02</rscale>
<asrwt>0</asrwt>
<pdfrwt beam="1">  1        2 0.39272890E+00 0.62397182E+02</pdfrwt>
<pdfrwt beam="2">  1        4 0.11433142E+00 0.13070016E+03</pdfrwt>
<totfact> 0.14876316E+00</totfact>
</mgrwt>
</event>
<event>
13    1  0.1589573E-008  0.9119567E+02  0.7546771E-02  0.1336274E+00
          2   -1    0    0  503    0  0.00000000000E+00  0.00000000000E+00  0.97137391076E+03  0.97137391076E+03  0.00000000000E+00 0. -1.
          2   -1    0    0  502    0 -0.00000000000E+00 -0.00000000000E+00 -0.20374931022E+04  0.20374931022E+04  0.00000000000E+00 0. -1.
         24    2    1    2    0    0 -0.15692984535E+03  0.14892911422E+03 -0.83907214064E+03  0.87033717969E+03  0.81473257717E+02 0.  0.
         25    2    1    2    0    0  0.24155637852E+03 -0.23427466932E+03 -0.91969844477E+02  0.37056219874E+03  0.12499514452E+03 0.  0.
         24    2    1    2    0    0 -0.54040557509E+02  0.87598714391E+02 -0.25846069819E+03  0.28995356332E+03  0.81714256721E+02 0.  0.
        -11    1    3    3    0    0 -0.55154537270E+02  0.10455132761E+03 -0.37616355060E+03  0.39429940386E+03  0.00000000000E+00 0.  1.
         12    1    3    3    0    0 -0.10177530808E+03  0.44377786614E+02 -0.46290859004E+03  0.47603777583E+03  0.00000000000E+00 0. -1.
        -13    1    5    5    0    0 -0.23538180112E+01 -0.15028045411E+02 -0.18908020955E+02  0.24267176691E+02  0.00000000000E+00 0.  1.
         14    1    5    5    0    0 -0.51686739497E+02  0.10262675980E+03 -0.23955267724E+03  0.26568638663E+03  0.00000000000E+00 0. -1.
          5    1    4    4  501    0  0.17506645144E+02 -0.70749074292E+02  0.12555354534E+02  0.74105607513E+02  0.47000000000E+01 0. -1.
         -5    1    4    4    0  501  0.22404973338E+03 -0.16352559503E+03 -0.10452519901E+03  0.29645659123E+03  0.47000000000E+01 0. -1.
          1    1    1    2  502    0 -0.86326755740E+02  0.32855548287E+02 -0.67279950973E+03  0.67911042998E+03  0.00000000000E+00 0. -1.
          1    1    1    2  503    0  0.55740780078E+02 -0.35108707578E+02  0.79618300161E+03  0.79890364123E+03  0.00000000000E+00 0. -1.
<mgrwt>
<rscale>  0 0.77508787E+02</rscale>
<asrwt>0</asrwt>
<pdfrwt beam="1">  1        2 0.14284911E+00 0.65876065E+02</pdfrwt>
<pdfrwt beam="2">  1        2 0.29963134E+00 0.91195672E+02</pdfrwt>
<totfact> 0.43000698E+01</totfact>
</mgrwt>
</event>
<event>
13    1  0.1589573E-008  0.2587550E+03  0.7546771E-02  0.1220463E+00
          2   -1    0    0  503    0  0.00000000000E+00  0.00000000000E+00  0.21928304451E+04  0.21928304451E+04  0.00000000000E+00 0. -1.
          2   -1    0    0  502    0 -0.00000000000E+00 -0.00000000000E+00 -0.76632814477E+03  0.76632814477E+03  0.00000000000E+00 0. -1.
         24    2    1    2    0    0 -0.15472700723E+03  0.16185707204E+02 -0.13051346901E+03  0.21912971508E+03  0.82350728915E+02 0.  0.
         25    2    1    2    0    0  0.12591593803E+03 -0.99048797427E+02  0.26939152132E+03  0.33743474924E+03  0.12499972205E+03 0.  0.
         24    2    1    2    0    0  0.38816839120E+03  0.70238622864E+02  0.43431492429E+02  0.40501278092E+03  0.80875794319E+02 0.  0.
        -11    1    3    3    0    0 -0.14441416887E+02 -0.23024519629E+02 -0.67886368573E+01  0.28013721928E+02  0.00000000000E+00 0.  1.
         12    1    3    3    0    0 -0.14028559035E+03  0.39210226833E+02 -0.12372483215E+03  0.19111599315E+03  0.00000000000E+00 0. -1.
        -13    1    5    5    0    0  0.16125065403E+03  0.38962310584E+02 -0.20608491573E+02  0.16716621966E+03  0.00000000000E+00 0.  1.
         14    1    5    5    0    0  0.22691773717E+03  0.31276312279E+02  0.64039984002E+02  0.23784656126E+03  0.00000000000E+00 0. -1.
          5    1    4    4  501    0  0.13152242251E+03 -0.34627712161E+02  0.15779484840E+03  0.20837113585E+03  0.47000000000E+01 0. -1.
         -5    1    4    4    0  501 -0.56064844795E+01 -0.64421085266E+02  0.11159667292E+03  0.12906361340E+03  0.47000000000E+01 0. -1.
          1    1    1    2  502    0 -0.29618540233E+03  0.43364660455E+02 -0.31631011351E+03  0.43549784642E+03  0.00000000000E+00 0. -1.
          1    1    1    2  503    0 -0.63171919665E+02 -0.30740193096E+02  0.15605028691E+04  0.15620834982E+04  0.00000000000E+00 0. -1.
<mgrwt>
<rscale>  0 0.13482812E+03</rscale>
<asrwt>0</asrwt>
<pdfrwt beam="1">  1        2 0.32247506E+00 0.70254188E+02</pdfrwt>
<pdfrwt beam="2">  1        2 0.11269532E+00 0.25875501E+03</pdfrwt>
<totfact> 0.47678719E+01</totfact>
</mgrwt>
</event>
<event>
13    1  0.1589573E-008  0.1498873E+03  0.7546771E-02  0.1205469E+00
          2   -1    0    0  502    0  0.00000000000E+00  0.00000000000E+00  0.24298469918E+04  0.24298469918E+04  0.00000000000E+00 0. -1.
          2   -1    0    0  503    0 -0.00000000000E+00 -0.00000000000E+00 -0.28780184198E+04  0.28780184198E+04  0.00000000000E+00 0. -1.
         24    2    1    2    0    0 -0.12946909054E+03 -0.61286490423E+02 -0.12768875128E+04  0.12875738954E+04  0.82985158250E+02 0.  0.
         25    2    1    2    0    0  0.22507551354E+02  0.11670008466E+03  0.35309970757E+03  0.39297645799E+03  0.12500237365E+03 0.  0.
         24    2    1    2    0    0 -0.59405516601E+02  0.10000812966E+03 -0.76835770002E+02  0.16086287935E+03  0.80265116955E+02 0.  0.
        -11    1    3    3    0    0 -0.10961989464E+03 -0.19632396154E+02 -0.10599131200E+04  0.10657475190E+04  0.00000000000E+00 0.  1.
         12    1    3    3    0    0 -0.19849195894E+02 -0.41654094269E+02 -0.21697439284E+03  0.22182637646E+03  0.00000000000E+00 0. -1.
        -11    1    5    5    0    0 -0.60382240622E+02  0.25725023684E+02 -0.47372352986E+02  0.80944003197E+02  0.00000000000E+00 0.  1.
         12    1    5    5    0    0  0.97672402169E+00  0.74283105972E+02 -0.29463417016E+02  0.79918876149E+02  0.00000000000E+00 0. -1.
          5    1    4    4  501    0  0.26652882255E+02  0.70979219890E+02  0.61473842740E+02  0.97721794550E+02  0.47000000000E+01 0. -1.
         -5    1    4    4    0  501 -0.41453309012E+01  0.45720864771E+02  0.29162586483E+03  0.29525466344E+03  0.47000000000E+01 0. -1.
          1    1    1    2  502    0 -0.21442561866E+02 -0.14068205429E+03  0.20008248972E+04  0.20058792320E+04  0.00000000000E+00 0. -1.
          1    1    1    2  503    0  0.18780961765E+03 -0.14739669607E+02 -0.14483727500E+04  0.14605729469E+04  0.00000000000E+00 0. -1.
<mgrwt>
<rscale>  0 0.14600560E+03</rscale>
<asrwt>0</asrwt>
<pdfrwt beam="1">  1        2 0.35733044E+00 0.14222446E+03</pdfrwt>
<pdfrwt beam="2">  1        2 0.42323800E+00 0.14988726E+03</pdfrwt>
<totfact> 0.26732405E+00</totfact>
</mgrwt>
</event>
<event>
13    1  0.1589573E-008  0.1395469E+03  0.7546771E-02  0.1282262E+00
          2   -1    0    0  503    0  0.00000000000E+00  0.00000000000E+00  0.11300090499E+04  0.11300090499E+04  0.00000000000E+00 0. -1.
          2   -1    0    0  502    0 -0.00000000000E+00 -0.00000000000E+00 -0.77410963625E+03  0.77410963625E+03  0.00000000000E+00 0. -1.
         24    2    1    2    0    0  0.46935270251E+02  0.17233327847E+03  0.38755396360E+02  0.19926868593E+03  0.79399936915E+02 0.  0.
         25    2    1    2    0    0  0.13037493092E+03 -0.17605780870E+03  0.74080785577E+03  0.78256993764E+03  0.12500181406E+03 0.  0.
         24    2    1    2    0    0 -0.26090984380E+03 -0.95128257207E+02 -0.16468103250E+03  0.33295186730E+03  0.81325097972E+02 0.  0.
        -11    1    3    3    0    0  0.31566720887E+01 -0.67999613672E+00 -0.13043576672E+02  0.13437331052E+02  0.00000000000E+00 0.  1.
         12    1    3    3    0    0  0.43778598162E+02  0.17301327461E+03  0.51798973031E+02  0.18583135488E+03  0.00000000000E+00 0. -1.
        -13    1    5    5    0    0 -0.53957970689E+02  0.14357945821E+01 -0.48277598632E+01  0.54192539821E+02  0.00000000000E+00 0.  1.
         14    1    5    5    0    0 -0.20695187311E+03 -0.96564051789E+02 -0.15985327264E+03  0.27875932748E+03  0.00000000000E+00 0. -1.
          5    1    4    4  501    0  0.12690585105E+03 -0.14899330153E+03  0.45376961358E+03  0.49419940423E+03  0.47000000000E+01 0.  1.
         -5    1    4    4    0  501  0.34690798698E+01 -0.27064507170E+02  0.28703824218E+03  0.28837053341E+03  0.47000000000E+01 0.  1.
          1    1    1    2  502    0  0.24926160146E+02  0.13763942962E+03 -0.40433846055E+03  0.42784987639E+03  0.00000000000E+00 0. -1.
          1    1    1    2  503    0  0.58673482482E+02 -0.38786642188E+02  0.14535565459E+03  0.16147831892E+03  0.00000000000E+00 0. -1.
<mgrwt>
<rscale>  0 0.99070670E+02</rscale>
<asrwt>0</asrwt>
<pdfrwt beam="1">  1        2 0.16617780E+00 0.70334779E+02</pdfrwt>
<pdfrwt beam="2">  1        2 0.11383965E+00 0.13954686E+03</pdfrwt>
<totfact> 0.15804724E+02</totfact>
</mgrwt>
</event>
<event>
13    1  0.1589573E-008  0.1507122E+03  0.7546771E-02  0.1376882E+00
          2   -1    0    0  503    0  0.00000000000E+00  0.00000000000E+00  0.15501330268E+04  0.15501330268E+04  0.00000000000E+00 0. -1.
          2   -1    0    0  502    0 -0.00000000000E+00 -0.00000000000E+00 -0.18915551477E+04  0.18915551477E+04  0.00000000000E+00 0. -1.
         24    2    1    2    0    0  0.24918960111E+03 -0.18578385806E+03  0.59456317822E+03  0.67602596708E+03  0.83033945201E+02 0.  0.
         25    2    1    2    0    0 -0.29869039249E+03  0.29940606956E+03  0.24590205961E+03  0.50492874080E+03  0.12500106129E+03 0.  0.
         24    2    1    2    0    0 -0.67246647112E+02 -0.23977848819E+02  0.10725330860E+03  0.14655718617E+03  0.69847604321E+02 0.  0.
        -11    1    5    5    0    0 -0.39983047211E+02 -0.43014929022E+02  0.38606699149E+02  0.70280903539E+02  0.00000000000E+00 0.  1.
         12    1    5    5    0    0 -0.27263599901E+02  0.19037080203E+02  0.68646609455E+02  0.76276282630E+02  0.00000000000E+00 0. -1.
        -11    1    3    3    0    0  0.20286724164E+02 -0.51699759673E+02  0.12319918510E+03  0.13513865301E+03  0.00000000000E+00 0.  1.
         12    1    3    3    0    0  0.22890287695E+03 -0.13408409838E+03  0.47136399311E+03  0.54088731406E+03  0.00000000000E+00 0. -1.
          5    1    4    4  501    0 -0.13897020448E+03  0.76370023950E+02  0.45093382716E+02  0.16492604845E+03  0.47000000000E+01 0. -1.
         -5    1    4    4    0  501 -0.15972018800E+03  0.22303604560E+03  0.20080867689E+03  0.34000269235E+03  0.47000000000E+01 0. -1.
          1    1    1    2  502    0 -0.21313341032E+02 -0.18594927002E+02 -0.16869249548E+04  0.16871620648E+04  0.00000000000E+00 0. -1.
          1    1    1    2  503    0  0.13806077952E+03 -0.71049435679E+02  0.39778428740E+03  0.42701421575E+03  0.00000000000E+00 0. -1.
<mgrwt>
<rscale>  0 0.65290603E+02</rscale>
<asrwt>0</asrwt>
<pdfrwt beam="1">  1        2 0.22796074E+00 0.15071215E+03</pdfrwt>
<pdfrwt beam="2">  1        2 0.27816987E+00 0.28284798E+02</pdfrwt>
<totfact> 0.26949364E+01</totfact>
</mgrwt>
</event>
<event>
13    1  0.1589573E-008  0.1240293E+03  0.7546771E-02  0.1347465E+00
          2   -1    0    0  503    0  0.00000000000E+00  0.00000000000E+00  0.27123541286E+04  0.27123541286E+04  0.00000000000E+00 0. -1.
          2   -1    0    0  502    0 -0.00000000000E+00 -0.00000000000E+00 -0.68893375994E+03  0.68893375994E+03  0.00000000000E+00 0. -1.
         24    2    1    2    0    0 -0.16509725042E+02  0.10062159649E+03 -0.33771315822E+03  0.36185964581E+03  0.80591248484E+02 0.  0.
         25    2    1    2    0    0  0.12078114076E+03  0.75514274612E+02  0.36594250358E+03  0.41210406135E+03  0.12500140726E+03 0.  0.
         24    2    1    2    0    0 -0.26371710501E+02 -0.26946191147E+01  0.35759913468E+03  0.36738145682E+03  0.79932881871E+02 0.  0.
        -11    1    5    5    0    0  0.16481545940E+02  0.25753622888E+02  0.17609439266E+03  0.17872919620E+03  0.00000000000E+00 0.  1.
         12    1    5    5    0    0 -0.42853256442E+02 -0.28448242003E+02  0.18150474202E+03  0.18865226062E+03  0.00000000000E+00 0. -1.
        -13    1    3    3    0    0  0.10459014246E+02  0.38103132965E+02 -0.39121049064E+02  0.55603023305E+02  0.00000000000E+00 0.  1.
         14    1    3    3    0    0 -0.26968739289E+02  0.62518463525E+02 -0.29859210915E+03  0.30625662251E+03  0.00000000000E+00 0. -1.
          5    1    4    4  501    0  0.62784462899E+00  0.48212295107E+02  0.19748673223E+03  0.20334187713E+03  0.47000000000E+01 0. -1.
         -5    1    4    4    0  501  0.12015329613E+03  0.27301979505E+02  0.16845577135E+03  0.20876218421E+03  0.47000000000E+01 0. -1.
          1    1    1    2  502    0 -0.36781812092E+02  0.24099811449E+02 -0.30436815338E+03  0.30752833268E+03  0.00000000000E+00 0. -1.
          1    1    1    2  503    0 -0.41117893127E+02 -0.19754106344E+03  0.19419600420E+04  0.19524143919E+04  0.00000000000E+00 0. -1.
<mgrwt>
<rscale>  0 0.73851529E+02</rscale>
<asrwt>0</asrwt>
<pdfrwt beam="1">  1        2 0.39887560E+00 0.12402926E+03</pdfrwt>
<pdfrwt beam="2">  1        2 0.10131379E+00 0.43973886E+02</pdfrwt>
<totfact> 0.29304687E+01</totfact>
</mgrwt>
</event>
<event>
13    1  0.1589573E-008  0.9331683E+02  0.7546771E-02  0.1391774E+00
          2   -1    0    0  503    0  0.00000000000E+00  0.00000000000E+00  0.26820087199E+04  0.26820087199E+04  0.00000000000E+00 0. -1.
          2   -1    0    0  502    0 -0.00000000000E+00 -0.00000000000E+00 -0.63411412408E+03  0.63411412408E+03  0.00000000000E+00 0. -1.
         24    2    1    2    0    0  0.18260886370E+03  0.58474864942E+02 -0.97074224615E+02  0.22837074741E+03  0.77230086467E+02 0.  0.
         25    2    1    2    0    0 -0.14723231098E+03 -0.27809383910E+01  0.17289466578E+04  0.17397031001E+04  0.12500097529E+03 0.  0.
         24    2    1    2    0    0  0.29808380821E+02 -0.46624010382E+02 -0.15114074168E+03  0.18325195196E+03  0.87609452635E+02 0.  0.
        -11    1    5    5    0    0  0.36433684630E+02 -0.26688076770E+01 -0.14059180116E+02  0.39143281105E+02  0.00000000000E+00 0.  1.
         12    1    5    5    0    0 -0.66253038087E+01 -0.43955202705E+02 -0.13708156156E+03  0.14410867086E+03  0.00000000000E+00 0. -1.
        -13    1    3    3    0    0  0.25813153390E+02  0.32272660982E+02  0.14391870110E+01  0.41351115995E+02  0.00000000000E+00 0.  1.
         14    1    3    3    0    0  0.15679571031E+03  0.26202203960E+02 -0.98513411626E+02  0.18701963141E+03  0.00000000000E+00 0. -1.
          5    1    4    4  501    0  0.18606942168E+01  0.33443696078E+02  0.51154797081E+03  0.51266495826E+03  0.47000000000E+01 0. -1.
         -5    1    4    4    0  501 -0.14909300519E+03 -0.36224634469E+02  0.12173986870E+04  0.12270381418E+04  0.47000000000E+01 0. -1.
          1    1    1    2  502    0 -0.81192944080E+02 -0.46259604002E+02 -0.29102241291E+03  0.30565714444E+03  0.00000000000E+00 0. -1.
          1    1    1    2  503    0  0.16008010537E+02  0.37189687833E+02  0.85818531721E+03  0.85913990011E+03  0.00000000000E+00 0. -1.
<mgrwt>
<rscale>  0 0.61467640E+02</rscale>
<asrwt>0</asrwt>
<pdfrwt beam="1">  1        2 0.39441304E+00 0.40488632E+02</pdfrwt>
<pdfrwt beam="2">  1        2 0.93252078E-01 0.93316832E+02</pdfrwt>
<totfact> 0.38475807E+01</totfact>
</mgrwt>
</event>
<event>
13    1  0.1589573E-008  0.3311222E+02  0.7546771E-02  0.1616530E+00
          2   -1    0    0  503    0  0.00000000000E+00  0.00000000000E+00  0.96545619317E+03  0.96545619317E+03  0.00000000000E+00 0. -1.
          2   -1    0    0  502    0 -0.00000000000E+00 -0.00000000000E+00 -0.17437994567E+04  0.17437994567E+04  0.00000000000E+00 0. -1.
         24    2    1    2    0    0 -0.39139760212E+02 -0.12724891355E+02 -0.49272200870E+03  0.50076365388E+03  0.79343654479E+02 0.  0.
         25    2    1    2    0    0  0.96351231785E+02  0.16947473876E+03 -0.13817311718E+02  0.23199547572E+03  0.12500294279E+03 0.  0.
         24    2    1    2    0    0 -0.42122345201E+02 -0.14274247922E+03 -0.14017275304E+03  0.21958902445E+03  0.80132587790E+02 0.  0.
        -11    1    5    5    0    0 -0.52958448967E+02 -0.67119713831E+02 -0.10522394383E+03  0.13557924493E+03  0.00000000000E+00 0.  1.
         12    1    5    5    0    0  0.10836103765E+02 -0.75622765385E+02 -0.34948809213E+02  0.84009779518E+02  0.00000000000E+00 0. -1.
        -13    1    3    3    0    0 -0.51560285010E+02 -0.30938114834E+02 -0.43198065378E+03  0.43614552064E+03  0.00000000000E+00 0.  1.
         14    1    3    3    0    0  0.12420524798E+02  0.18213223479E+02 -0.60741354918E+02  0.64618133237E+02  0.00000000000E+00 0. -1.
          5    1    4    4  501    0  0.97845635593E+02  0.46975430081E+02 -0.12815746895E+02  0.10939283708E+03  0.47000000000E+01 0.  1.
         -5    1    4    4    0  501 -0.14944038081E+01  0.12249930868E+03 -0.10015648227E+01  0.12260263864E+03  0.47000000000E+01 0.  1.
          1    1    1    2  502    0 -0.15088817849E+02  0.19112915221E+02 -0.94377476159E+03  0.94408886053E+03  0.00000000000E+00 0. -1.
          1    1    1    2  503    0 -0.30852272109E-03 -0.33120283410E+02  0.81214357151E+03  0.81281863531E+03  0.00000000000E+00 0. -1.
<mgrwt>
<rscale>  0 0.28395754E+02</rscale>
<asrwt>0</asrwt>
<pdfrwt beam="1">  1        2 0.14197885E+00 0.33112219E+02</pdfrwt>
<pdfrwt beam="2">  1        2 0.25644109E+00 0.24351098E+02</pdfrwt>
<totfact> 0.70548937E+01</totfact>
</mgrwt>
</event>
<event>
13    1  0.1589573E-008  0.6930876E+02  0.7546771E-02  0.1434213E+00
          2   -1    0    0  503    0  0.00000000000E+00  0.00000000000E+00  0.26356851614E+04  0.26356851614E+04  0.00000000000E+00 0. -1.
          2   -1    0    0  502    0 -0.00000000000E+00 -0.00000000000E+00 -0.10093310170E+04  0.10093310170E+04  0.00000000000E+00 0. -1.
         24    2    1    2    0    0  0.12177684171E+03 -0.41024274033E+02 -0.15962116754E+03  0.22032690186E+03  0.80947120511E+02 0.  0.
         25    2    1    2    0    0 -0.33106222908E+02 -0.15707169907E+02  0.15655101001E+04  0.15709204313E+04  0.12500556299E+03 0.  0.
         24    2    1    2    0    0 -0.56553474306E+02 -0.15522898005E+02 -0.65716194207E+02  0.12055941472E+03  0.82320705038E+02 0.  0.
        -13    1    5    5    0    0 -0.59703051394E+02 -0.40608868704E+02 -0.33474723410E+02  0.79587006921E+02  0.00000000000E+00 0.  1.
         14    1    5    5    0    0  0.31495770878E+01  0.25085970699E+02 -0.32241470796E+02  0.40972407799E+02  0.00000000000E+00 0. -1.
        -13    1    3    3    0    0  0.18249632907E+02  0.18790418368E+02 -0.83157286167E+01  0.27482362819E+02  0.00000000000E+00 0.  1.
         14    1    3    3    0    0  0.10352720881E+03 -0.59814692401E+02 -0.15130543893E+03  0.19284453905E+03  0.00000000000E+00 0. -1.
          5    1    4    4  501    0 -0.25746330124E+02  0.49038333346E+01  0.64988500138E+02  0.70231874861E+02  0.47000000000E+01 0.  1.
         -5    1    4    4    0  501 -0.73598927840E+01 -0.20611003241E+02  0.15005215999E+04  0.15006885564E+04  0.47000000000E+01 0.  1.
          1    1    1    2  502    0  0.69436193999E+01  0.68960702289E+02 -0.72147216932E+03  0.72479368334E+03  0.00000000000E+00 0. -1.
          1    1    1    2  503    0 -0.39060763900E+02  0.32936396559E+01  0.10076535754E+04  0.10084157472E+04  0.00000000000E+00 0. -1.
<mgrwt>
<rscale>  0 0.52123510E+02</rscale>
<asrwt>0</asrwt>
<pdfrwt beam="1">  1        2 0.38760076E+00 0.39199379E+02</pdfrwt>
<pdfrwt beam="2">  1        2 0.14843103E+00 0.69308758E+02</pdfrwt>
<totfact> 0.23544264E+01</totfact>
</mgrwt>
</event>
<event>
13    1  0.1589573E-008  0.2019113E+03  0.7546771E-02  0.1295730E+00
          2   -1    0    0  502    0  0.00000000000E+00  0.00000000000E+00  0.36793088910E+04  0.36793088910E+04  0.00000000000E+00 0. -1.
          2   -1    0    0  503    0 -0.00000000000E+00 -0.00000000000E+00 -0.22839268402E+04  0.22839268402E+04  0.00000000000E+00 0. -1.
         24    2    1    2    0    0  0.52726009493E+02  0.28329465759E+02 -0.98997790663E+01  0.10126856129E+03  0.81084679028E+02 0.  0.
         25    2    1    2    0    0  0.12617535983E+03 -0.38322484271E+02  0.10657647221E+04  0.10811386227E+04  0.12496977427E+03 0.  0.
         24    2    1    2    0    0 -0.71719530053E+02 -0.11790549265E+03  0.16573050907E+03  0.23034435187E+03  0.80910584074E+02 0.  0.
        -11    1    5    5    0    0 -0.45373103045E+02 -0.12410209804E+03  0.14555497643E+03  0.19658662310E+03  0.00000000000E+00 0.  1.
         12    1    5    5    0    0 -0.26346427008E+02  0.61966053937E+01  0.20175532636E+02  0.33757728769E+02  0.00000000000E+00 0. -1.
        -11    1    3    3    0    0  0.64641276414E+02 -0.47465228362E+01 -0.26623163423E+00  0.64815854347E+02  0.00000000000E+00 0.  1.
         12    1    3    3    0    0 -0.11915266921E+02  0.33075988595E+02 -0.96335474321E+01  0.36452706943E+02  0.00000000000E+00 0. -1.
          5    1    4    4  501    0  0.12265371112E+02  0.13748089572E+02  0.55126067394E+03  0.55158849692E+03  0.47000000000E+01 0.  1.
         -5    1    4    4    0  501  0.11390998872E+03 -0.52070573843E+02  0.51450404814E+03  0.52955012580E+03  0.47000000000E+01 0.  1.
          1    1    1    2  502    0  0.14630787846E+01 -0.42816838249E+02  0.23572624476E+04  0.23576517277E+04  0.00000000000E+00 0. -1.
          1    1    1    2  503    0 -0.10864491805E+03  0.17071534941E+03 -0.21834758488E+04  0.21928324676E+04  0.00000000000E+00 0. -1.
<mgrwt>
<rscale>  0 0.93006711E+02</rscale>
<asrwt>0</asrwt>
<pdfrwt beam="1">  1        2 0.54107484E+00 0.42841828E+02</pdfrwt>
<pdfrwt beam="2">  1        2 0.33587159E+00 0.20191128E+03</pdfrwt>
<totfact> 0.13497107E+00</totfact>
</mgrwt>
</event>
<event>
13    1  0.1589573E-008  0.9701127E+02  0.7546771E-02  0.1350944E+00
          2   -1    0    0  503    0  0.00000000000E+00  0.00000000000E+00  0.62020426057E+03  0.62020426057E+03  0.00000000000E+00 0. -1.
          2   -1    0    0  502    0 -0.00000000000E+00 -0.00000000000E+00 -0.12411776541E+04  0.12411776541E+04  0.00000000000E+00 0. -1.
         24    2    1    2    0    0 -0.96721934921E+02  0.40210976233E+02 -0.46290660315E+03  0.48114542000E+03  0.79033769004E+02 0.  0.
         25    2    1    2    0    0  0.36561234270E+02  0.20598751340E+01  0.17740562344E+03  0.22008939982E+03  0.12500248697E+03 0.  0.
         24    2    1    2    0    0  0.17378692997E+02 -0.66918674157E+02 -0.43089932807E+01  0.10591124389E+03  0.80115518079E+02 0.  0.
        -11    1    5    5    0    0  0.26331611658E+02  0.77503161804E+00 -0.23157332720E+02  0.35074442336E+02  0.00000000000E+00 0.  1.
         12    1    5    5    0    0 -0.89529186605E+01 -0.67693705776E+02  0.18848339439E+02  0.70836801550E+02  0.00000000000E+00 0. -1.
        -13    1    3    3    0    0 -0.36326028359E+01 -0.20007160388E+02 -0.74501221789E+02  0.77226383563E+02  0.00000000000E+00 0.  1.
         14    1    3    3    0    0 -0.93089332085E+02  0.60218136622E+02 -0.38840538137E+03  0.40391903644E+03  0.00000000000E+00 0. -1.
          5    1    4    4  501    0 -0.44192270771E+02 -0.11806164442E+02  0.83907627392E+02  0.95681357898E+02  0.47000000000E+01 0. -1.
         -5    1    4    4    0  501  0.80753505041E+02  0.13866039576E+02  0.93497996050E+02  0.12440804192E+03  0.47000000000E+01 0. -1.
          1    1    1    2  502    0  0.61480129596E+02  0.75919495430E+02 -0.68716550588E+03  0.69407493010E+03  0.00000000000E+00 0. -1.
          1    1    1    2  503    0 -0.18698121942E+02 -0.51271672640E+02  0.35600208532E+03  0.36016092088E+03  0.00000000000E+00 0. -1.
<mgrwt>
<rscale>  0 0.72762398E+02</rscale>
<asrwt>0</asrwt>
<pdfrwt beam="1">  1        2 0.91206510E-01 0.54574758E+02</pdfrwt>
<pdfrwt beam="2">  1        2 0.18252612E+00 0.97011271E+02</pdfrwt>
<totfact> 0.17913416E+02</totfact>
</mgrwt>
</event>
<event>
13    1  0.1589573E-008  0.1128772E+03  0.7546771E-02  0.1458361E+00
          2   -1    0    0  503    0  0.00000000000E+00  0.00000000000E+00  0.14558736474E+04  0.14558736474E+04  0.00000000000E+00 0. -1.
          2   -1    0    0  502    0 -0.00000000000E+00 -0.00000000000E+00 -0.44503835964E+03  0.44503835964E+03  0.00000000000E+00 0. -1.
         24    2    1    2    0    0 -0.16048473446E+03 -0.79994228160E+02  0.11064319012E+03  0.22745864610E+03  0.85680182251E+02 0.  0.
         25    2    1    2    0    0  0.15270346233E+03  0.16416850856E+03  0.78743407416E+02  0.26850317402E+03  0.12499513445E+03 0.  0.
         24    2    1    2    0    0 -0.59745339305E+02  0.43918899762E+02  0.20215510648E+03  0.22917004982E+03  0.78446474325E+02 0.  0.
        -13    1    5    5    0    0 -0.21982180921E+02  0.58336012663E+02  0.86265364639E+02  0.10643317052E+03  0.00000000000E+00 0.  1.
         14    1    5    5    0    0 -0.37763158384E+02 -0.14417112901E+02  0.11588974184E+03  0.12273687930E+03  0.00000000000E+00 0. -1.
        -13    1    3    3    0    0 -0.51386175916E+01 -0.10720030079E+02  0.42657139251E+02  0.44282682447E+02  0.00000000000E+00 0.  1.
         14    1    3    3    0    0 -0.15534611687E+03 -0.69274198081E+02  0.67986050868E+02  0.18317596365E+03  0.00000000000E+00 0. -1.
          5    1    4    4  501    0  0.16884897505E+03  0.14154172970E+03  0.90134881334E+02  0.23809751039E+03  0.47000000000E+01 0. -1.
         -5    1    4    4    0  501 -0.16145512718E+02  0.22626778858E+02 -0.11391473918E+02  0.30405663625E+02  0.47000000000E+01 0. -1.
          1    1    1    2  502    0 -0.49914938525E-01  0.20127297035E+02 -0.27047495818E+03  0.27122281168E+03  0.00000000000E+00 0. -1.
          1    1    1    2  503    0  0.67576526379E+02 -0.14822047720E+03  0.88976854194E+03  0.90455732544E+03  0.00000000000E+00 0. -1.
<mgrwt>
<rscale>  0 0.47664669E+02</rscale>
<asrwt>0</asrwt>
<pdfrwt beam="1">  1        2 0.21409906E+00 0.11287724E+03</pdfrwt>
<pdfrwt beam="2">  1        2 0.65446818E-01 0.20127359E+02</pdfrwt>
<totfact> 0.19593614E+02</totfact>
</mgrwt>
</event>
<event>
13    1  0.1589573E-008  0.2028641E+03  0.7546771E-02  0.1199212E+00
          4   -1    0    0  503    0 -0.00000000000E+00  0.00000000000E+00  0.20202823404E+04  0.20202823404E+04  0.00000000000E+00 0. -1.
          2   -1    0    0  502    0  0.00000000000E+00 -0.00000000000E+00 -0.21177403152E+04  0.21177403152E+04  0.00000000000E+00 0. -1.
         24    2    1    2    0    0  0.10151548772E+03  0.35207550982E+02  0.40175437687E+03  0.42346225610E+03  0.79804367775E+02 0.  0.
         25    2    1    2    0    0  0.29394402025E+03 -0.27517998102E+02 -0.39341251460E+03  0.50750379210E+03  0.12500546027E+03 0.  0.
         24    2    1    2    0    0  0.91378987541E+02  0.17142498278E+02 -0.37453817534E+03  0.39435344372E+03  0.81189957323E+02 0.  0.
        -11    1    5    5    0    0  0.72391029481E+02  0.44838976054E+02 -0.31149818702E+03  0.32292741513E+03  0.00000000000E+00 0.  1.
         12    1    5    5    0    0  0.18987958060E+02 -0.27696477775E+02 -0.63039988323E+02  0.71426028590E+02  0.00000000000E+00 0. -1.
        -13    1    3    3    0    0  0.46078923090E+02 -0.24029668407E+02  0.17909101170E+03  0.18647863843E+03  0.00000000000E+00 0.  1.
         14    1    3    3    0    0  0.55436564626E+02  0.59237219389E+02  0.22266336517E+03  0.23698361767E+03  0.00000000000E+00 0. -1.
          5    1    4    4  501    0  0.24654012914E+03 -0.59656021882E+02 -0.26522101233E+03  0.36702200425E+03  0.47000000000E+01 0.  1.
         -5    1    4    4    0  501  0.47403891108E+02  0.32138023780E+02 -0.12819150227E+03  0.14048178785E+03  0.47000000000E+01 0.  1.
          1    1    1    2  502    0 -0.39987614643E+03  0.46447195458E+02 -0.12379834685E+04  0.13017915896E+04  0.00000000000E+00 0. -1.
          3    1    1    2  503    0 -0.86962349076E+02 -0.71279246617E+02  0.15067218069E+04  0.15109115740E+04  0.00000000000E+00 0. -1.
<mgrwt>
<rscale>  0 0.15103120E+03</rscale>
<asrwt>0</asrwt>
<pdfrwt beam="2">  1        2 0.31143240E+00 0.20286409E+03</pdfrwt>
<pdfrwt beam="1">  1        4 0.29710035E+00 0.11244190E+03</pdfrwt>
<totfact> 0.15733806E-01</totfact>
</mgrwt>
</event>
<event>
13    1  0.1589573E-008  0.1126730E+03  0.7546771E-02  0.1335848E+00
          2   -1    0    0  503    0  0.00000000000E+00  0.00000000000E+00  0.32398044929E+04  0.32398044929E+04  0.00000000000E+00 0. -1.
          2   -1    0    0  502    0 -0.00000000000E+00 -0.00000000000E+00 -0.21031006209E+04  0.21031006209E+04  0.00000000000E+00 0. -1.
         24    2    1    2    0    0  0.54663253075E+03 -0.28561174903E+03 -0.34931272566E+03  0.71396055664E+03  0.85668554724E+02 0.  0.
         25    2    1    2    0    0 -0.54165612049E+03  0.86785513359E+03 -0.22283684756E+03  0.10544401498E+04  0.12499553217E+03 0.  0.
         24    2    1    2    0    0 -0.14234879094E+03 -0.50239636262E+03  0.20415037145E+03  0.56802489710E+03  0.91157150576E+02 0.  0.
        -13    1    3    3    0    0  0.31874145328E+03 -0.14093617558E+03 -0.15535746635E+03  0.38156920995E+03  0.00000000000E+00 0.  1.
         14    1    3    3    0    0  0.22789107746E+03 -0.14467557345E+03 -0.19395525931E+03  0.33239134669E+03  0.00000000000E+00 0. -1.
        -13    1    5    5    0    0 -0.89655136280E+02 -0.34369519420E+03  0.18271521460E+03  0.39943620219E+03  0.00000000000E+00 0.  1.
         14    1    5    5    0    0 -0.52693654656E+02 -0.15870116842E+03  0.21435156853E+02  0.16858869490E+03  0.00000000000E+00 0. -1.
          5    1    4    4  501    0 -0.54147774622E+03  0.83709734185E+03 -0.20267567284E+03  0.10173640586E+04  0.47000000000E+01 0. -1.
         -5    1    4    4    0  501 -0.17837426894E+00  0.30757791734E+02 -0.20161174720E+02  0.37076091162E+02  0.47000000000E+01 0. -1.
          1    1    1    2  502    0  0.10653617387E+03 -0.36106939694E+02 -0.74635549830E+03  0.75478486821E+03  0.00000000000E+00 0. -1.
          1    1    1    2  503    0  0.30836206810E+02 -0.43740082245E+02  0.22510585721E+04  0.22516946421E+04  0.00000000000E+00 0. -1.
<mgrwt>
<rscale>  0 0.77652545E+02</rscale>
<asrwt>0</asrwt>
<pdfrwt beam="1">  1        2 0.47644184E+00 0.53516973E+02</pdfrwt>
<pdfrwt beam="2">  1        2 0.30927950E+00 0.11267300E+03</pdfrwt>
<totfact> 0.29994685E+00</totfact>
</mgrwt>
</event>
<event>
13    1  0.1589573E-008  0.7016827E+02  0.7546771E-02  0.1483234E+00
          2   -1    0    0  503    0  0.00000000000E+00  0.00000000000E+00  0.66853411111E+03  0.66853411111E+03  0.00000000000E+00 0. -1.
          2   -1    0    0  502    0 -0.00000000000E+00 -0.00000000000E+00 -0.27119731634E+04  0.27119731634E+04  0.00000000000E+00 0. -1.
         24    2    1    2    0    0  0.19100386877E+03 -0.47883565883E+00  0.26321923022E+03  0.33745578481E+03  0.90051853796E+02 0.  0.
         25    2    1    2    0    0 -0.31069933244E+03 -0.32818835214E+01 -0.11337923839E+03  0.35358733453E+03  0.12499722199E+03 0.  0.
         24    2    1    2    0    0  0.40307460068E+02 -0.49296066967E+02  0.17844565574E+03  0.20585273482E+03  0.80484177491E+02 0.  0.
        -13    1    3    3    0    0  0.90860222979E+02 -0.35098985972E+02  0.81062019501E+02  0.12672241294E+03  0.00000000000E+00 0.  1.
         14    1    3    3    0    0  0.10014364579E+03  0.34620150313E+02  0.18215721072E+03  0.21073337187E+03  0.00000000000E+00 0. -1.
        -13    1    5    5    0    0  0.95029563593E+01 -0.65477962258E+02  0.98454029921E+02  0.11862068002E+03  0.00000000000E+00 0.  1.
         14    1    5    5    0    0  0.30804503709E+02  0.16181895291E+02  0.79991625816E+02  0.87232054800E+02  0.00000000000E+00 0. -1.
          5    1    4    4  501    0 -0.22931249319E+03 -0.52477133468E+02 -0.54102270053E+02  0.24142745224E+03  0.47000000000E+01 0. -1.
         -5    1    4    4    0  501 -0.81386839251E+02  0.49195249946E+02 -0.59276968334E+02  0.11215988229E+03  0.47000000000E+01 0. -1.
          1    1    1    2  502    0  0.53350006703E+02  0.45546647211E+02 -0.24238487960E+04  0.24248636469E+04  0.00000000000E+00 0. -1.
          1    1    1    2  503    0  0.26037996900E+02  0.75101389368E+01  0.52124096207E+02  0.58747773360E+02  0.00000000000E+00 0. -1.
<mgrwt>
<rscale>  0 0.43606429E+02</rscale>
<asrwt>0</asrwt>
<pdfrwt beam="1">  1        2 0.98313842E-01 0.27099437E+02</pdfrwt>
<pdfrwt beam="2">  1        2 0.39881958E+00 0.70168272E+02</pdfrwt>
<totfact> 0.33224023E+01</totfact>
</mgrwt>
</event>
<event>
13    1  0.1589573E-008  0.1482881E+03  0.7546771E-02  0.1297673E+00
          2   -1    0    0  503    0  0.00000000000E+00  0.00000000000E+00  0.52390152500E+03  0.52390152500E+03  0.00000000000E+00 0. -1.
          2   -1    0    0  502    0 -0.00000000000E+00 -0.00000000000E+00 -0.30040724658E+04  0.30040724658E+04  0.00000000000E+00 0. -1.
         24    2    1    2    0    0 -0.15450811841E+03  0.18838999106E+03 -0.97257183566E+03  0.10057712839E+04  0.79475484453E+02 0.  0.
         25    2    1    2    0    0  0.41902240813E+03 -0.11497859346E+03 -0.17892442721E+03  0.48624692949E+03  0.12498908081E+03 0.  0.
         24    2    1    2    0    0 -0.15587527710E+03 -0.98738558001E+02 -0.56999430676E+03  0.60447952356E+03  0.80346622905E+02 0.  0.
        -11    1    5    5    0    0 -0.12299828565E+02 -0.29055983080E+02 -0.18574987474E+03  0.18841059392E+03  0.00000000000E+00 0.  1.
         12    1    5    5    0    0 -0.14357544854E+03 -0.69682574921E+02 -0.38424443202E+03  0.41606892964E+03  0.00000000000E+00 0. -1.
        -11    1    3    3    0    0 -0.41545415597E+02  0.99566168588E+02 -0.32471647670E+03  0.34216989015E+03  0.00000000000E+00 0.  1.
         12    1    3    3    0    0 -0.11296270282E+03  0.88823822474E+02 -0.64785535896E+03  0.66360139376E+03  0.00000000000E+00 0. -1.
          5    1    4    4  501    0  0.29838781719E+03 -0.11930950647E+03 -0.17370745878E+03  0.36533056129E+03  0.47000000000E+01 0.  1.
         -5    1    4    4    0  501  0.12063459094E+03  0.43309130079E+01 -0.52169684308E+01  0.12091636820E+03  0.47000000000E+01 0.  1.
          1    1    1    2  502    0 -0.14862740050E+03 -0.15702072279E+02 -0.10874903644E+04  0.10977121444E+04  0.00000000000E+00 0. -1.
          1    1    1    2  503    0  0.39988387883E+02  0.41029232675E+02  0.32880999324E+03  0.33376410945E+03  0.00000000000E+00 0. -1.
<mgrwt>
<rscale>  0 0.92172928E+02</rscale>
<asrwt>0</asrwt>
<pdfrwt beam="1">  1        2 0.77044341E-01 0.57292836E+02</pdfrwt>
<pdfrwt beam="2">  1        2 0.44177537E+00 0.14828815E+03</pdfrwt>
<totfact> 0.26806380E+01</totfact>
</mgrwt>
</event>
<event>
13    1  0.1589573E-008  0.1644848E+03  0.7546771E-02  0.1347823E+00
          2   -1    0    0  503    0  0.00000000000E+00  0.00000000000E+00  0.37305107973E+04  0.37305107973E+04  0.00000000000E+00 0. -1.
         -1   -1    0    0    0  501 -0.00000000000E+00 -0.00000000000E+00 -0.35416613663E+03  0.35416613663E+03  0.00000000000E+00 0.  1.
         24    2    1    2    0    0  0.15866872613E+03 -0.84253024169E+02  0.25029408913E+01  0.20312879264E+03  0.94766581404E+02 0.  0.
         25    2    1    2    0    0  0.13568760088E+03  0.15648670911E+03  0.22672511790E+04  0.22801210041E+04  0.12499867798E+03 0.  0.
         24    2    1    2    0    0 -0.12969412800E+02 -0.50127618421E+02  0.60037133480E+01  0.95115026988E+02  0.79560291528E+02 0.  0.
        -11    1    3    3    0    0  0.22246148467E+01 -0.24229874197E+02 -0.23183160739E+02  0.33607955259E+02  0.00000000000E+00 0.  1.
         12    1    3    3    0    0  0.15644411128E+03 -0.60023149971E+02  0.25686101630E+02  0.16952083738E+03  0.00000000000E+00 0. -1.
        -13    1    5    5    0    0  0.11615048832E+01  0.21597962815E+02 -0.11619253266E+01  0.21660359227E+02  0.00000000000E+00 0.  1.
         14    1    5    5    0    0 -0.14130917683E+02 -0.71725581236E+02  0.71656386746E+01  0.73454667761E+02  0.00000000000E+00 0. -1.
          5    1    4    4  502    0  0.63295658128E+02  0.42813236167E+01  0.94915952386E+03  0.95128889503E+03  0.47000000000E+01 0. -1.
         -5    1    4    4    0  502  0.72391942747E+02  0.15220538549E+03  0.13180916552E+04  0.13288321091E+04  0.47000000000E+01 0. -1.
          1    1    1    2  503    0  0.15616403256E+01 -0.33019955173E+02  0.12043026077E+04  0.12047562106E+04  0.00000000000E+00 0. -1.
         -2    1    1    2    0  501 -0.28294855453E+03  0.10913888654E+02 -0.10371578028E+03  0.30155589956E+03  0.00000000000E+00 0.  1.
<mgrwt>
<rscale>  0 0.73738400E+02</rscale>
<asrwt>0</asrwt>
<pdfrwt beam="1">  1        2 0.54860451E+00 0.33056863E+02</pdfrwt>
<pdfrwt beam="2">  1       -1 0.52083258E-01 0.16448480E+03</pdfrwt>
<totfact> 0.61135262E+00</totfact>
</mgrwt>
</event>
<event>
13    1  0.1589573E-008  0.1067860E+03  0.7546771E-02  0.1334045E+00
          2   -1    0    0  503    0  0.00000000000E+00  0.00000000000E+00  0.10889093349E+04  0.10889093349E+04  0.00000000000E+00 0. -1.
          2   -1    0    0  502    0 -0.00000000000E+00 -0.00000000000E+00 -0.13688837662E+04  0.13688837662E+04  0.00000000000E+00 0. -1.
         24    2    1    2    0    0 -0.33452350365E+03 -0.35722342908E+02 -0.10793306365E+03  0.36764381357E+03  0.10163841375E+03 0.  0.
         25    2    1    2    0    0  0.38859841313E+02  0.55289215192E+02  0.36599122738E+03  0.39261056756E+03  0.12500597848E+03 0.  0.
         24    2    1    2    0    0  0.13295756234E+03 -0.25809314342E+02  0.10268725507E+03  0.19478543244E+03  0.95146509378E+02 0.  0.
        -13    1    5    5    0    0  0.39008076986E+02 -0.52805108485E+02  0.26279002636E+02  0.70714889039E+02  0.00000000000E+00 0.  1.
         14    1    5    5    0    0  0.93949485355E+02  0.26995794144E+02  0.76408252435E+02  0.12407054340E+03  0.00000000000E+00 0. -1.
        -13    1    3    3    0    0 -0.17707194042E+03 -0.69812336145E+02 -0.59566826701E+02  0.19944031991E+03  0.00000000000E+00 0.  1.
         14    1    3    3    0    0 -0.15745156324E+03  0.34089993237E+02 -0.48366236951E+02  0.16820349367E+03  0.00000000000E+00 0. -1.
          5    1    4    4  501    0  0.54102156557E+02  0.82953787799E+02  0.19605354144E+03  0.21969855568E+03  0.47000000000E+01 0.  1.
         -5    1    4    4    0  501 -0.15242315244E+02 -0.27664572607E+02  0.16993768593E+03  0.17291201188E+03  0.47000000000E+01 0.  1.
          1    1    1    2  502    0  0.57360493659E+02 -0.57536679707E+00 -0.10644888345E+04  0.10660333184E+04  0.00000000000E+00 0. -1.
          1    1    1    2  503    0  0.10534560634E+03  0.68178088546E+01  0.42376898440E+03  0.43671996913E+03  0.00000000000E+00 0. -1.
<mgrwt>
<rscale>  0 0.78266264E+02</rscale>
<asrwt>0</asrwt>
<pdfrwt beam="1">  1        2 0.16013373E+00 0.10678604E+03</pdfrwt>
<pdfrwt beam="2">  1        2 0.20130644E+00 0.57363379E+02</pdfrwt>
<totfact> 0.78723308E+01</totfact>
</mgrwt>
</event>
<event>
13    1  0.1589573E-008  0.9966126E+02  0.7546771E-02  0.1439402E+00
         -1   -1    0    0    0  501 -0.00000000000E+00  0.00000000000E+00  0.23070245198E+03  0.23070245198E+03  0.00000000000E+00 0.  1.
          2   -1    0    0  503    0  0.00000000000E+00 -0.00000000000E+00 -0.26489473014E+04  0.26489473014E+04  0.00000000000E+00 0. -1.
         24    2    1    2    0    0 -0.42379697815E+02 -0.66755350073E+01 -0.73681450725E+02  0.11736284238E+03  0.80650350503E+02 0.  0.
         25    2    1    2    0    0  0.15367536565E+03 -0.90844888312E+02  0.33715172269E+01  0.21795895944E+03  0.12500331648E+03 0.  0.
         24    2    1    2    0    0 -0.87470032513E+02 -0.17260414491E+02 -0.76999153695E+03  0.77928400999E+03  0.80297401941E+02 0.  0.
        -11    1    3    3    0    0 -0.29518207931E+02 -0.36701621049E+02 -0.13679015347E+02  0.49045377437E+02  0.00000000000E+00 0.  1.
         12    1    3    3    0    0 -0.12861489884E+02  0.30026086042E+02 -0.60002435378E+02  0.68317464943E+02  0.00000000000E+00 0. -1.
        -13    1    5    5    0    0 -0.49654608762E+02 -0.47211989837E+02 -0.35981216622E+03  0.36627769126E+03  0.00000000000E+00 0.  1.
         14    1    5    5    0    0 -0.37815423751E+02  0.29951575346E+02 -0.41017937073E+03  0.41300631873E+03  0.00000000000E+00 0. -1.
          5    1    4    4  502    0  0.75871668037E+02 -0.10748680459E+03  0.27885457283E+02  0.13457195807E+03  0.47000000000E+01 0. -1.
         -5    1    4    4    0  502  0.77803697613E+02  0.16641916279E+02 -0.24513940056E+02  0.83387001366E+02  0.47000000000E+01 0. -1.
          1    1    1    2  503    0 -0.37077874292E+02  0.92156970731E+02 -0.16681495084E+04  0.16711045623E+04  0.00000000000E+00 0. -1.
         -2    1    1    2    0  501  0.13252238971E+02  0.22623867079E+02  0.90206129371E+02  0.93939379258E+02  0.00000000000E+00 0.  1.
<mgrwt>
<rscale>  0 0.51118163E+02</rscale>
<asrwt>0</asrwt>
<pdfrwt beam="2">  1        2 0.38955109E+00 0.99661262E+02</pdfrwt>
<pdfrwt beam="1">  1       -1 0.33926830E-01 0.26219481E+02</pdfrwt>
<totfact> 0.40256721E+01</totfact>
</mgrwt>
</event>
<event>
13    1  0.1589573E-008  0.7767333E+02  0.7546771E-02  0.1339440E+00
          2   -1    0    0  503    0  0.00000000000E+00  0.00000000000E+00  0.61826345503E+03  0.61826345503E+03  0.00000000000E+00 0. -1.
          2   -1    0    0  502    0 -0.00000000000E+00 -0.00000000000E+00 -0.12079005430E+04  0.12079005430E+04  0.00000000000E+00 0. -1.
         24    2    1    2    0    0 -0.47386216837E+02  0.30517490903E+03 -0.37576659312E+03  0.49284585028E+03  0.79494156904E+02 0.  0.
         25    2    1    2    0    0  0.15390530896E+03 -0.48402000888E+02  0.11176992662E+03  0.23270064361E+03  0.12500990051E+03 0.  0.
         24    2    1    2    0    0 -0.93306198781E+02 -0.11292607784E+03 -0.21632293598E+03  0.26939859565E+03  0.65739219059E+02 0.  0.
        -13    1    3    3    0    0  0.26979668688E+01  0.13571229587E+03 -0.21313958733E+03  0.25269267889E+03  0.00000000000E+00 0.  1.
         14    1    3    3    0    0 -0.50084183706E+02  0.16946261316E+03 -0.16262700579E+03  0.24015317138E+03  0.00000000000E+00 0. -1.
        -13    1    5    5    0    0 -0.10091315827E+03 -0.10924392841E+03 -0.18725983925E+03  0.23913165579E+03  0.00000000000E+00 0.  1.
         14    1    5    5    0    0  0.76069594858E+01 -0.36821494248E+01 -0.29063096728E+02  0.30266939859E+02  0.00000000000E+00 0. -1.
          5    1    4    4  501    0  0.11845399336E+03 -0.89981331947E+02  0.88257208961E+02  0.17303009442E+03  0.47000000000E+01 0. -1.
         -5    1    4    4    0  501  0.35451315596E+02  0.41579331059E+02  0.23512717661E+02  0.59670549190E+02  0.47000000000E+01 0. -1.
          1    1    1    2  502    0 -0.30970664312E+02 -0.68576097965E+02 -0.46305360978E+03  0.46912739079E+03  0.00000000000E+00 0. -1.
          1    1    1    2  503    0  0.17757770974E+02 -0.75270732337E+02  0.35373612428E+03  0.36209151771E+03  0.00000000000E+00 0. -1.
<mgrwt>
<rscale>  0 0.76449704E+02</rscale>
<asrwt>0</asrwt>
<pdfrwt beam="1">  1        2 0.90921097E-01 0.77673331E+02</pdfrwt>
<pdfrwt beam="2">  1        2 0.17763243E+00 0.75245354E+02</pdfrwt>
<totfact> 0.18866074E+02</totfact>
</mgrwt>
</event>
<event>
13    1  0.1589573E-008  0.1008833E+03  0.7546771E-02  0.1283781E+00
          2   -1    0    0  502    0  0.00000000000E+00  0.00000000000E+00  0.47590365462E+03  0.47590365462E+03  0.00000000000E+00 0. -1.
          2   -1    0    0  503    0 -0.00000000000E+00 -0.00000000000E+00 -0.13702432569E+04  0.13702432569E+04  0.00000000000E+00 0. -1.
         24    2    1    2    0    0  0.96732685496E+02  0.94890745289E+02 -0.62443697689E+03  0.64401838674E+03  0.80477812893E+02 0.  0.
         25    2    1    2    0    0 -0.30156844599E+02  0.50361658172E+02  0.20526458730E+03  0.24739445851E+03  0.12499894165E+03 0.  0.
         24    2    1    2    0    0  0.87480685996E+01 -0.76200499686E+02  0.39715124489E+02  0.11836057129E+03  0.80925205382E+02 0.  0.
        -11    1    3    3    0    0 -0.30446066999E+01  0.31251148323E+02 -0.64816898597E+02  0.72021762303E+02  0.00000000000E+00 0.  1.
         12    1    3    3    0    0  0.99777292196E+02  0.63639596966E+02 -0.55962007829E+03  0.57199662444E+03  0.00000000000E+00 0. -1.
        -13    1    5    5    0    0 -0.24280792934E+02 -0.32680391800E+02  0.48175711047E+02  0.63075066775E+02  0.00000000000E+00 0.  1.
         14    1    5    5    0    0  0.33028861533E+02 -0.43520107885E+02 -0.84605865579E+01  0.55285504515E+02  0.00000000000E+00 0. -1.
          5    1    4    4  501    0 -0.45412235170E+02  0.61347689615E+02  0.51000824355E+02  0.91918356215E+02  0.47000000000E+01 0. -1.
         -5    1    4    4    0  501  0.15255390572E+02 -0.10986031443E+02  0.15426376294E+03  0.15547610230E+03  0.47000000000E+01 0. -1.
          1    1    1    2  502    0 -0.99071805359E+02  0.23862927238E+02  0.14074811640E+03  0.17376620553E+03  0.00000000000E+00 0. -1.
          1    1    1    2  503    0  0.23747895862E+02 -0.92914831014E+02 -0.65563045362E+03  0.66260728950E+03  0.00000000000E+00 0. -1.
<mgrwt>
<rscale>  0 0.98360926E+02</rscale>
<asrwt>0</asrwt>
<pdfrwt beam="1">  1        2 0.69985831E-01 0.10088326E+03</pdfrwt>
<pdfrwt beam="2">  1        2 0.20150636E+00 0.95901660E+02</pdfrwt>
<totfact> 0.20287563E+02</totfact>
</mgrwt>
</event>
<event>
13    1  0.1589573E-008  0.1465367E+03  0.7546771E-02  0.1330887E+00
          2   -1    0    0  502    0  0.00000000000E+00  0.00000000000E+00  0.43040256328E+03  0.43040256328E+03  0.00000000000E+00 0. -1.
          2   -1    0    0  503    0 -0.00000000000E+00 -0.00000000000E+00 -0.11226860667E+04  0.11226860667E+04  0.00000000000E+00 0. -1.
         24    2    1    2    0    0 -0.59623360671E+02  0.40318395716E+02 -0.35019751695E+02  0.11436740844E+03  0.81688450425E+02 0.  0.
         25    2    1    2    0    0 -0.78628457207E+02 -0.86415090233E+02 -0.30503407988E+03  0.34974199237E+03  0.12499467684E+03 0.  0.
         24    2    1    2    0    0 -0.46059291077E+02 -0.10657203310E+03  0.59880448231E+02  0.16662794040E+03  0.10344150959E+03 0.  0.
        -13    1    3    3    0    0  0.17380523323E+02 -0.61733950913E+01 -0.10101211456E+02  0.21029214698E+02  0.00000000000E+00 0.  1.
         14    1    3    3    0    0 -0.77003883994E+02  0.46491790808E+02 -0.24918540239E+02  0.93338193738E+02  0.00000000000E+00 0. -1.
        -13    1    5    5    0    0 -0.58953539432E+02 -0.12152166135E+03  0.46797151486E+02  0.14294407080E+03  0.00000000000E+00 0.  1.
         14    1    5    5    0    0  0.12894248355E+02  0.14949628248E+02  0.13083296745E+02  0.23683869598E+02  0.00000000000E+00 0. -1.
          5    1    4    4  501    0 -0.10122841025E+03 -0.29900478232E+02 -0.15325678797E+03  0.18614769056E+03  0.47000000000E+01 0.  1.
         -5    1    4    4    0  501  0.22599953046E+02 -0.56514612001E+02 -0.15177729190E+03  0.16359430181E+03  0.47000000000E+01 0.  1.
          1    1    1    2  502    0  0.18573056516E+03  0.10971657238E+03  0.20864490142E+03  0.30011041965E+03  0.00000000000E+00 0. -1.
          1    1    1    2  503    0 -0.14194562077E+01  0.42952155240E+02 -0.62075502150E+03  0.62224086913E+03  0.00000000000E+00 0. -1.
<mgrwt>
<rscale>  0 0.79356807E+02</rscale>
<asrwt>0</asrwt>
<pdfrwt beam="1">  1        2 0.63294496E-01 0.14653669E+03</pdfrwt>
<pdfrwt beam="2">  1        2 0.16510089E+00 0.42975603E+02</pdfrwt>
<totfact> 0.31770294E+02</totfact>
</mgrwt>
</event>
<event>
13    1  0.1589573E-008  0.7925706E+02  0.7546771E-02  0.1387013E+00
          2   -1    0    0  503    0  0.00000000000E+00  0.00000000000E+00  0.12459084704E+04  0.12459084704E+04  0.00000000000E+00 0. -1.
          2   -1    0    0  502    0 -0.00000000000E+00 -0.00000000000E+00 -0.15541185098E+04  0.15541185098E+04  0.00000000000E+00 0. -1.
         24    2    1    2    0    0 -0.17718301836E+03  0.30167799968E+02 -0.59275475063E+03  0.62466717858E+03  0.80913357719E+02 0.  0.
         25    2    1    2    0    0  0.98762763392E+02 -0.71020413085E+02  0.51363326858E+03  0.54243709772E+03  0.12498355045E+03 0.  0.
         24    2    1    2    0    0  0.11719226784E+03  0.28260325492E+02  0.14020513278E+03  0.20224621658E+03  0.81935213588E+02 0.  0.
        -11    1    5    5    0    0  0.11204847894E+03  0.11326199241E+02  0.14529489255E+03  0.18383076517E+03  0.00000000000E+00 0.  1.
         12    1    5    5    0    0  0.51437889029E+01  0.16934126251E+02 -0.50897597731E+01  0.18415451412E+02  0.00000000000E+00 0. -1.
        -11    1    3    3    0    0 -0.15465272192E+03 -0.44613285735E+01 -0.43930991611E+03  0.46575805977E+03  0.00000000000E+00 0.  1.
         12    1    3    3    0    0 -0.22530296441E+02  0.34629128542E+02 -0.15344483451E+03  0.15890911881E+03  0.00000000000E+00 0. -1.
          5    1    4    4  501    0 -0.83242970040E+01  0.39443460018E+01  0.22848723789E+03  0.22872113952E+03  0.47000000000E+01 0. -1.
         -5    1    4    4    0  501  0.10708706040E+03 -0.74964759087E+02  0.28514603069E+03  0.31371595820E+03  0.47000000000E+01 0. -1.
          1    1    1    2  502    0 -0.51376514265E+02  0.60493363431E+02 -0.89707350370E+03  0.90057751709E+03  0.00000000000E+00 0. -1.
          1    1    1    2  503    0  0.12604501398E+02 -0.47901075807E+02  0.52777981361E+03  0.53009897017E+03  0.00000000000E+00 0. -1.
<mgrwt>
<rscale>  0 0.62655683E+02</rscale>
<asrwt>0</asrwt>
<pdfrwt beam="1">  1        2 0.18322183E+00 0.49531672E+02</pdfrwt>
<pdfrwt beam="2">  1        2 0.22854684E+00 0.79257058E+02</pdfrwt>
<totfact> 0.53904447E+01</totfact>
</mgrwt>
</event>
<event>
13    1  0.1589573E-008  0.2197278E+03  0.7546771E-02  0.1139097E+00
          2   -1    0    0  502    0  0.00000000000E+00  0.00000000000E+00  0.30026949502E+04  0.30026949502E+04  0.00000000000E+00 0. -1.
          2   -1    0    0  503    0 -0.00000000000E+00 -0.00000000000E+00 -0.12941924260E+04  0.12941924260E+04  0.00000000000E+00 0. -1.
         24    2    1    2    0    0 -0.42185692865E+03  0.74367322079E+02 -0.62043107243E+03  0.75824833570E+03  0.80697311587E+02 0.  0.
         25    2    1    2    0    0  0.31517577749E+03 -0.24145897797E+03  0.99493262033E+03  0.10784969374E+04  0.12500606462E+03 0.  0.
         24    2    1    2    0    0  0.10086283830E+03  0.17915437336E+02  0.30192879731E+03  0.32900779417E+03  0.81184080515E+02 0.  0.
        -11    1    5    5    0    0 -0.12612002468E+02  0.80758962166E+01  0.20367773513E+02  0.25280998869E+02  0.00000000000E+00 0.  1.
         12    1    5    5    0    0  0.11347484077E+03  0.98395411196E+01  0.28156102380E+03  0.30372679530E+03  0.00000000000E+00 0. -1.
        -13    1    3    3    0    0 -0.69379114895E+02  0.25402706289E+01 -0.15639421568E+03  0.17111126572E+03  0.00000000000E+00 0.  1.
         14    1    3    3    0    0 -0.35247781376E+03  0.71827051450E+02 -0.46403685675E+03  0.58713706997E+03  0.00000000000E+00 0. -1.
          5    1    4    4  501    0  0.25994970234E+03 -0.24166474560E+03  0.78777682230E+03  0.86405445937E+03  0.47000000000E+01 0. -1.
         -5    1    4    4    0  501  0.55226075153E+02  0.20576763391E+00  0.20715579803E+03  0.21444247801E+03  0.47000000000E+01 0. -1.
          1    1    1    2  502    0  0.11816957000E+03  0.32337800841E+03  0.15423759929E+04  0.15803357513E+04  0.00000000000E+00 0. -1.
          1    1    1    2  503    0 -0.11235125715E+03 -0.17420178985E+03 -0.51030381392E+03  0.55079855761E+03  0.00000000000E+00 0. -1.
<mgrwt>
<rscale>  0 0.21314799E+03</rscale>
<asrwt>0</asrwt>
<pdfrwt beam="1">  1        2 0.44157279E+00 0.21972777E+03</pdfrwt>
<pdfrwt beam="2">  1        2 0.19032242E+00 0.20676525E+03</pdfrwt>
<totfact> 0.77710847E+00</totfact>
</mgrwt>
</event>
<event>
13    1  0.1589573E-008  0.1268484E+03  0.7546771E-02  0.1256054E+00
          2   -1    0    0  502    0  0.00000000000E+00  0.00000000000E+00  0.20792822712E+03  0.20792822712E+03  0.00000000000E+00 0. -1.
          2   -1    0    0  503    0 -0.00000000000E+00 -0.00000000000E+00 -0.41775049453E+04  0.41775049453E+04  0.00000000000E+00 0. -1.
         24    2    1    2    0    0  0.20829957259E+00  0.56866876525E+02 -0.61109326506E+03  0.61885495774E+03  0.79451841255E+02 0.  0.
         25    2    1    2    0    0 -0.13062663173E+03 -0.14628743214E+03 -0.94471825895E+02  0.25102388534E+03  0.12499894161E+03 0.  0.
         24    2    1    2    0    0 -0.68396975210E+01  0.62877217133E+02 -0.10310584478E+04  0.10363220114E+04  0.82954581587E+02 0.  0.
        -11    1    3    3    0    0  0.34019395255E+02  0.20904593788E+02 -0.40364282861E+03  0.40561293665E+03  0.00000000000E+00 0.  1.
         12    1    3    3    0    0 -0.33811095682E+02  0.35962282737E+02 -0.20745043645E+03  0.21324202108E+03  0.00000000000E+00 0. -1.
        -11    1    5    5    0    0 -0.38007611179E+02  0.54766247305E+02 -0.52094790608E+03  0.52519581225E+03  0.00000000000E+00 0.  1.
         12    1    5    5    0    0  0.31167913658E+02  0.81109698284E+01 -0.51011054174E+03  0.51112619916E+03  0.00000000000E+00 0. -1.
          5    1    4    4  501    0 -0.31513981875E+02 -0.74794125429E+02 -0.99663112234E+02  0.12861616614E+03  0.47000000000E+01 0.  1.
         -5    1    4    4    0  501 -0.99112649852E+02 -0.71493306708E+02  0.51912863385E+01  0.12240771920E+03  0.47000000000E+01 0.  1.
          1    1    1    2  502    0  0.45580589087E+02  0.10766785758E+03  0.93409748019E+02  0.14965072229E+03  0.00000000000E+00 0. -1.
          1    1    1    2  503    0  0.91677440589E+02 -0.81124519104E+02 -0.23263629274E+04  0.23295815957E+04  0.00000000000E+00 0. -1.
<mgrwt>
<rscale>  0 0.11247512E+03</rscale>
<asrwt>0</asrwt>
<pdfrwt beam="1">  1        2 0.30577683E-01 0.12684843E+03</pdfrwt>
<pdfrwt beam="2">  1        2 0.61433891E+00 0.99730469E+02</pdfrwt>
<totfact> 0.14612604E+01</totfact>
</mgrwt>
</event>
<event>
13    1  0.1589573E-008  0.1918746E+03  0.7546771E-02  0.1331225E+00
          2   -1    0    0  503    0  0.00000000000E+00  0.00000000000E+00  0.38725724129E+04  0.38725724129E+04  0.00000000000E+00 0. -1.
          2   -1    0    0  502    0 -0.00000000000E+00 -0.00000000000E+00 -0.48595691525E+04  0.48595691525E+04  0.00000000000E+00 0. -1.
         24    2    1    2    0    0  0.15467626915E+04 -0.10112487559E+04 -0.15887420703E+04  0.24387454432E+04  0.90989562946E+02 0.  0.
         25    2    1    2    0    0 -0.47383279175E+03  0.46084456318E+03 -0.26163754605E+03  0.72178559999E+03  0.12500008361E+03 0.  0.
         24    2    1    2    0    0 -0.11807217321E+04  0.67556488576E+03  0.10379394934E+04  0.17130168046E+04  0.81341609798E+02 0.  0.
        -11    1    3    3    0    0  0.11689619254E+04 -0.72251722447E+03 -0.11550947029E+04  0.17952010738E+04  0.00000000000E+00 0.  1.
         12    1    3    3    0    0  0.37780076606E+03 -0.28873153147E+03 -0.43364736745E+03  0.64354436941E+03  0.00000000000E+00 0. -1.
        -13    1    5    5    0    0 -0.40165797887E+03  0.26637742376E+03  0.39574450819E+03  0.62361829643E+03  0.00000000000E+00 0.  1.
         14    1    5    5    0    0 -0.77906375324E+03  0.40918746200E+03  0.64219498518E+03  0.10893985082E+04  0.00000000000E+00 0. -1.
          5    1    4    4  501    0 -0.11278382656E+03  0.13372128076E+03 -0.14852285481E+02  0.17562531949E+03  0.47000000000E+01 0.  1.
         -5    1    4    4    0  501 -0.36104896519E+03  0.32712328243E+03 -0.24678526057E+03  0.54616028051E+03  0.47000000000E+01 0.  1.
          1    1    1    2  502    0 -0.13691754182E+01  0.32694828598E+02 -0.20114425209E+04  0.20117086870E+04  0.00000000000E+00 0. -1.
          1    1    1    2  503    0  0.10916100783E+03 -0.15785552159E+03  0.18368859042E+04  0.18468850307E+04  0.00000000000E+00 0. -1.
<mgrwt>
<rscale>  0 0.79238908E+02</rscale>
<asrwt>0</asrwt>
<pdfrwt beam="1">  1        2 0.56949594E+00 0.19187457E+03</pdfrwt>
<pdfrwt beam="2">  1        2 0.71464252E+00 0.32723485E+02</pdfrwt>
<totfact> 0.26693517E-02</totfact>
</mgrwt>
</event>
<event>
13    1  0.1589573E-008  0.1224853E+03  0.7546771E-02  0.1253942E+00
          2   -1    0    0  503    0  0.00000000000E+00  0.00000000000E+00  0.33068512550E+04  0.33068512550E+04  0.00000000000E+00 0. -1.
          2   -1    0    0  502    0 -0.00000000000E+00 -0.00000000000E+00 -0.58451674451E+03  0.58451674451E+03  0.00000000000E+00 0. -1.
         24    2    1    2    0    0  0.51533920631E+02 -0.25413485894E+02  0.14270720806E+02  0.10050336315E+03  0.81213806044E+02 0.  0.
         25    2    1    2    0    0 -0.22100476950E+01 -0.42948961223E+02 -0.21161096525E+02  0.13387552497E+03  0.12500146639E+03 0.  0.
         24    2    1    2    0    0 -0.37983063458E+02  0.32608852554E+02  0.98540948127E+03  0.99067556389E+03  0.88882938475E+02 0.  0.
        -11    1    3    3    0    0  0.66993797032E+02 -0.32820583771E+02  0.26800906039E+02  0.79269465272E+02  0.00000000000E+00 0.  1.
         12    1    3    3    0    0 -0.15459876401E+02  0.74070978774E+01 -0.12530185233E+02  0.21233897883E+02  0.00000000000E+00 0. -1.
        -11    1    5    5    0    0 -0.60255920485E+02  0.19176246403E+02  0.42659224627E+03  0.43125334660E+03  0.00000000000E+00 0.  1.
         12    1    5    5    0    0  0.22272857027E+02  0.13432606151E+02  0.55881723500E+03  0.55942221729E+03  0.00000000000E+00 0. -1.
          5    1    4    4  501    0 -0.49790166349E+02 -0.60871684634E+02 -0.25047290470E+02  0.82667281406E+02  0.47000000000E+01 0. -1.
         -5    1    4    4    0  501  0.47580118654E+02  0.17922723411E+02  0.38861939451E+01  0.51208243565E+02  0.47000000000E+01 0. -1.
          1    1    1    2  502    0 -0.82028693100E+02 -0.83935544244E+02 -0.45154964220E+03  0.46655220656E+03  0.00000000000E+00 0. -1.
          1    1    1    2  503    0  0.70687883622E+02  0.11968913881E+03  0.21953650471E+04  0.21997613409E+04  0.00000000000E+00 0. -1.
<mgrwt>
<rscale>  0 0.11365771E+03</rscale>
<asrwt>0</asrwt>
<pdfrwt beam="1">  1        2 0.48630165E+00 0.12248534E+03</pdfrwt>
<pdfrwt beam="2">  1        2 0.85958346E-01 0.10546629E+03</pdfrwt>
<totfact> 0.16500102E+01</totfact>
</mgrwt>
</event>
<event>
13    1  0.1589573E-008  0.4284400E+02  0.7546771E-02  0.1576304E+00
          2   -1    0    0  502    0  0.00000000000E+00  0.00000000000E+00  0.20661454492E+04  0.20661454492E+04  0.00000000000E+00 0. -1.
          2   -1    0    0  503    0 -0.00000000000E+00 -0.00000000000E+00 -0.25731012197E+04  0.25731012197E+04  0.00000000000E+00 0. -1.
         24    2    1    2    0    0 -0.81367865264E+03 -0.22827299874E+03 -0.96513827605E+03  0.12853715590E+04  0.80663752838E+02 0.  0.
         25    2    1    2    0    0  0.34988737791E+03 -0.32970127501E+03 -0.65520907172E+03  0.82222104925E+03  0.12499767274E+03 0.  0.
         24    2    1    2    0    0  0.46883729742E+03  0.52812689392E+03  0.39257914383E+03  0.81504666020E+03  0.10703385726E+03 0.  0.
        -11    1    3    3    0    0 -0.46591894332E+03 -0.13805671935E+03 -0.61368441727E+03  0.78278265406E+03  0.00000000000E+00 0.  1.
         12    1    3    3    0    0 -0.34775970932E+03 -0.90216279387E+02 -0.35145385877E+03  0.50258890491E+03  0.00000000000E+00 0. -1.
        -13    1    5    5    0    0  0.35620981179E+03  0.33144729625E+03  0.28832117239E+03  0.56557213391E+03  0.00000000000E+00 0.  1.
         14    1    5    5    0    0  0.11262748563E+03  0.19667959767E+03  0.10425797143E+03  0.24947452629E+03  0.00000000000E+00 0. -1.
          5    1    4    4  501    0  0.27597580945E+03 -0.23080009408E+03 -0.39582566715E+03  0.53491249714E+03  0.47000000000E+01 0.  1.
         -5    1    4    4    0  501  0.73911568464E+02 -0.98901180929E+02 -0.25938340457E+03  0.28730855210E+03  0.47000000000E+01 0.  1.
          1    1    1    2  502    0  0.17002292536E+02  0.39329399395E+02  0.12180437708E+04  0.12187971559E+04  0.00000000000E+00 0. -1.
          1    1    1    2  503    0 -0.22048315226E+02 -0.94820195673E+01 -0.49723133730E+03  0.49781024467E+03  0.00000000000E+00 0. -1.
<mgrwt>
<rscale>  0 0.32066944E+02</rscale>
<asrwt>0</asrwt>
<pdfrwt beam="1">  1        2 0.30384492E+00 0.42843998E+02</pdfrwt>
<pdfrwt beam="2">  1        2 0.37839724E+00 0.24000769E+02</pdfrwt>
<totfact> 0.86424867E+00</totfact>
</mgrwt>
</event>
<event>
13    1  0.1589573E-008  0.5759085E+02  0.7546771E-02  0.1546544E+00
          2   -1    0    0  502    0  0.00000000000E+00  0.00000000000E+00  0.20216141869E+03  0.20216141869E+03  0.00000000000E+00 0. -1.
          2   -1    0    0  503    0 -0.00000000000E+00 -0.00000000000E+00 -0.14723646338E+04  0.14723646338E+04  0.00000000000E+00 0. -1.
         24    2    1    2    0    0 -0.14661364522E+03 -0.13173946966E+03 -0.67108520701E+03  0.70468235493E+03  0.85854629781E+02 0.  0.
         25    2    1    2    0    0  0.11846754020E+03  0.12445955700E+03 -0.40539358370E+02  0.21631552759E+03  0.12499691392E+03 0.  0.
         24    2    1    2    0    0  0.45382821913E+02  0.67129291623E+02 -0.54419269965E+03  0.55623716673E+03  0.81781104044E+02 0.  0.
        -13    1    5    5    0    0  0.35298501817E+02  0.86386609965E+02 -0.43366761839E+03  0.44359467293E+03  0.00000000000E+00 0.  1.
         14    1    5    5    0    0  0.10084320095E+02 -0.19257318342E+02 -0.11052508126E+03  0.11264249380E+03  0.00000000000E+00 0. -1.
        -13    1    3    3    0    0 -0.46212012756E+02 -0.99055686313E+02 -0.35209850800E+03  0.36867456984E+03  0.00000000000E+00 0.  1.
         14    1    3    3    0    0 -0.10040163246E+03 -0.32683783349E+02 -0.31898669902E+03  0.33600778509E+03  0.00000000000E+00 0. -1.
          5    1    4    4  501    0 -0.22648495354E+01  0.11740590340E+02  0.33028542340E+02  0.35439322991E+02  0.47000000000E+01 0. -1.
         -5    1    4    4    0  501  0.12073238973E+03  0.11271896666E+03 -0.73567900710E+02  0.18087620460E+03  0.47000000000E+01 0. -1.
          1    1    1    2  502    0 -0.34089032456E+02 -0.46410837017E+02  0.81065226797E+02  0.99436406422E+02  0.00000000000E+00 0. -1.
          1    1    1    2  503    0  0.16852315560E+02 -0.13438541944E+02 -0.95451176880E+02  0.97854596811E+02  0.00000000000E+00 0. -1.
<mgrwt>
<rscale>  0 0.35232654E+02</rscale>
<asrwt>0</asrwt>
<pdfrwt beam="1">  1        2 0.29729621E-01 0.57590849E+02</pdfrwt>
<pdfrwt beam="2">  1        2 0.21652421E+00 0.21554465E+02</pdfrwt>
<totfact> 0.49668297E+02</totfact>
</mgrwt>
</event>
<event>
13    1  0.1589573E-008  0.6863088E+02  0.7546771E-02  0.1417020E+00
          2   -1    0    0  502    0  0.00000000000E+00  0.00000000000E+00  0.20412743368E+04  0.20412743368E+04  0.00000000000E+00 0. -1.
          2   -1    0    0  503    0 -0.00000000000E+00 -0.00000000000E+00 -0.41709505115E+03  0.41709505115E+03  0.00000000000E+00 0. -1.
         24    2    1    2    0    0  0.10714088115E+03 -0.21351126938E+01 -0.12018726350E+03  0.18019596604E+03  0.80881893820E+02 0.  0.
         25    2    1    2    0    0 -0.72809060613E+02  0.24265837566E+03  0.85972019578E+03  0.90494616235E+03  0.12499798056E+03 0.  0.
         24    2    1    2    0    0  0.47862064847E+02 -0.18728508061E+03  0.13564307291E+03  0.24987255299E+03  0.81674787029E+02 0.  0.
        -13    1    3    3    0    0  0.25085680517E+02 -0.18786044708E+02 -0.82738232493E+02  0.88474979282E+02  0.00000000000E+00 0.  1.
         14    1    3    3    0    0  0.82055200631E+02  0.16650932015E+02 -0.37449031010E+02  0.91720986755E+02  0.00000000000E+00 0. -1.
        -13    1    5    5    0    0  0.10506970415E+02 -0.15405725770E+03  0.12521068114E+03  0.19880077904E+03  0.00000000000E+00 0.  1.
         14    1    5    5    0    0  0.37355094432E+02 -0.33227822915E+02  0.10432391768E+02  0.51071773943E+02  0.00000000000E+00 0. -1.
          5    1    4    4  501    0 -0.14963414468E+02  0.21063331962E+03  0.71924685484E+03  0.74961885468E+03  0.47000000000E+01 0.  1.
         -5    1    4    4    0  501 -0.57845646145E+02  0.32025056042E+02  0.14047334094E+03  0.15532730767E+03  0.47000000000E+01 0.  1.
          1    1    1    2  502    0 -0.44933531266E+02  0.42563670136E+01  0.92934346014E+03  0.93043882432E+03  0.00000000000E+00 0. -1.
          1    1    1    2  503    0 -0.37260354115E+02 -0.57494549371E+02 -0.18034017970E+03  0.19291588222E+03  0.00000000000E+00 0. -1.
<mgrwt>
<rscale>  0 0.55656379E+02</rscale>
<asrwt>0</asrwt>
<pdfrwt beam="1">  1        2 0.30018740E+00 0.45134675E+02</pdfrwt>
<pdfrwt beam="2">  1        2 0.61337508E-01 0.68630882E+02</pdfrwt>
<totfact> 0.11981660E+02</totfact>
</mgrwt>
</event>
<event>
13    1  0.1589573E-008  0.1229894E+03  0.7546771E-02  0.1331002E+00
          2   -1    0    0  502    0  0.00000000000E+00  0.00000000000E+00  0.12368882751E+04  0.12368882751E+04  0.00000000000E+00 0. -1.
          2   -1    0    0  503    0 -0.00000000000E+00 -0.00000000000E+00 -0.25195953050E+04  0.25195953050E+04  0.00000000000E+00 0. -1.
         24    2    1    2    0    0  0.15273891536E+01  0.10240286039E+02 -0.11114117042E+04  0.11143704371E+04  0.80487877141E+02 0.  0.
         25    2    1    2    0    0  0.16347569394E+03  0.49704321733E+02  0.83104311274E+02  0.22742951602E+03  0.12499214414E+03 0.  0.
         24    2    1    2    0    0  0.66745073681E+02 -0.69007225618E+02 -0.10370145932E+03  0.16732783422E+03  0.89597485416E+02 0.  0.
        -13    1    3    3    0    0  0.36256070623E+02  0.14194104303E+02 -0.81065240047E+03  0.81158689593E+03  0.00000000000E+00 0.  1.
         14    1    3    3    0    0 -0.34728681470E+02 -0.39538182638E+01 -0.30075930374E+03  0.30278354113E+03  0.00000000000E+00 0. -1.
        -13    1    5    5    0    0  0.37450693118E+02 -0.86215564379E+02 -0.58257029664E+02  0.11058733861E+03  0.00000000000E+00 0.  1.
         14    1    5    5    0    0  0.29294380563E+02  0.17208338761E+02 -0.45444429656E+02  0.56740495611E+02  0.00000000000E+00 0. -1.
          5    1    4    4  501    0  0.14588961343E+03  0.87194583356E+02  0.66962743353E+02  0.18273689740E+03  0.47000000000E+01 0. -1.
         -5    1    4    4    0  501  0.17586080506E+02 -0.37490261622E+02  0.16141567921E+02  0.44692618619E+02  0.47000000000E+01 0. -1.
          1    1    1    2  502    0 -0.46208164388E+02 -0.21938804590E+02  0.10403184404E+04  0.10415752316E+04  0.00000000000E+00 0. -1.
          1    1    1    2  503    0 -0.18553999238E+03  0.31001422436E+02 -0.11910166181E+04  0.12057805611E+04  0.00000000000E+00 0. -1.
<mgrwt>
<rscale>  0 0.79316615E+02</rscale>
<asrwt>0</asrwt>
<pdfrwt beam="1">  1        2 0.18189534E+00 0.51151790E+02</pdfrwt>
<pdfrwt beam="2">  1        2 0.37052872E+00 0.12298935E+03</pdfrwt>
<totfact> 0.17626547E+01</totfact>
</mgrwt>
</event>
<event>
13    1  0.1589573E-008  0.9758428E+02  0.7546771E-02  0.1333426E+00
          2   -1    0    0  503    0  0.00000000000E+00  0.00000000000E+00  0.21277928216E+04  0.21277928216E+04  0.00000000000E+00 0. -1.
          2   -1    0    0  502    0 -0.00000000000E+00 -0.00000000000E+00 -0.44863774165E+03  0.44863774165E+03  0.00000000000E+00 0. -1.
         24    2    1    2    0    0 -0.12366033802E+02 -0.68514669840E+02 -0.96548235612E+01  0.10108770006E+03  0.72652107404E+02 0.  0.
         25    2    1    2    0    0  0.26925634516E+02 -0.10345543296E+03  0.38593883916E+02  0.16894432686E+03  0.12499872520E+03 0.  0.
         24    2    1    2    0    0  0.72464427524E+02 -0.64840926403E+01  0.14111491410E+04  0.14152911148E+04  0.80086856957E+02 0.  0.
        -13    1    5    5    0    0  0.68838550065E+02 -0.33071965194E+02  0.12026300807E+04  0.12050525348E+04  0.00000000000E+00 0.  1.
         14    1    5    5    0    0  0.36258774585E+01  0.26587872553E+02  0.20851906037E+03  0.21023857993E+03  0.00000000000E+00 0. -1.
        -13    1    3    3    0    0  0.27038338787E+02 -0.48147123976E+02  0.18931277557E+01  0.55252160539E+02  0.00000000000E+00 0.  1.
         14    1    3    3    0    0 -0.39404372589E+02 -0.20367545863E+02 -0.11547951317E+02  0.45835539521E+02  0.00000000000E+00 0. -1.
          5    1    4    4  501    0 -0.16719601941E+02 -0.65160146782E+02  0.74520582853E+02  0.10050272179E+03  0.47000000000E+01 0. -1.
         -5    1    4    4    0  501  0.43645236457E+02 -0.38295286176E+02 -0.35926698938E+02  0.68441605075E+02  0.47000000000E+01 0. -1.
          1    1    1    2  502    0 -0.54129860922E+02  0.12459132861E+03 -0.30998340658E+03  0.33844165430E+03  0.00000000000E+00 0. -1.
          1    1    1    2  503    0 -0.32894167316E+02  0.53862866828E+02  0.54905028513E+03  0.55266576722E+03  0.00000000000E+00 0. -1.
<mgrwt>
<rscale>  0 0.78478175E+02</rscale>
<asrwt>0</asrwt>
<pdfrwt beam="1">  1        2 0.31291070E+00 0.63112872E+02</pdfrwt>
<pdfrwt beam="2">  1        2 0.65976139E-01 0.97584276E+02</pdfrwt>
<totfact> 0.97037832E+01</totfact>
</mgrwt>
</event>
<event>
13    1  0.1589573E-008  0.1017481E+03  0.7546771E-02  0.1329650E+00
          2   -1    0    0  502    0  0.00000000000E+00  0.00000000000E+00  0.94460149783E+03  0.94460149783E+03  0.00000000000E+00 0. -1.
          2   -1    0    0  503    0 -0.00000000000E+00 -0.00000000000E+00 -0.21106519651E+04  0.21106519651E+04  0.00000000000E+00 0. -1.
         24    2    1    2    0    0  0.27321855001E+03 -0.10533071300E+03 -0.37149929072E+03  0.47970503938E+03  0.79763817797E+02 0.  0.
         25    2    1    2    0    0 -0.94312136033E+02  0.12136887493E+03  0.16986569322E+03  0.26096919161E+03  0.12500152971E+03 0.  0.
         24    2    1    2    0    0 -0.93141785497E+01  0.35944856704E+02 -0.60434142980E+03  0.61072355524E+03  0.79849298722E+02 0.  0.
        -11    1    5    5    0    0  0.32061461437E+02  0.25175521506E+02 -0.39247419591E+03  0.39458552767E+03  0.00000000000E+00 0.  1.
         12    1    5    5    0    0 -0.41375639987E+02  0.10769335198E+02 -0.21186723389E+03  0.21613802757E+03  0.00000000000E+00 0. -1.
        -11    1    3    3    0    0  0.24595711182E+02 -0.36579726903E+01 -0.77894794114E+02  0.81767528536E+02  0.00000000000E+00 0.  1.
         12    1    3    3    0    0  0.24862283883E+03 -0.10167274031E+03 -0.29360449660E+03  0.39793751084E+03  0.00000000000E+00 0. -1.
          5    1    4    4  501    0  0.55859871863E+01  0.88142712258E+02  0.10473476118E+03  0.13708319071E+03  0.47000000000E+01 0.  1.
         -5    1    4    4    0  501 -0.99898123219E+02  0.33226162675E+02  0.65130932046E+02  0.12388600090E+03  0.47000000000E+01 0.  1.
          1    1    1    2  502    0 -0.62533183200E+02 -0.21376893743E+01  0.66704269404E+03  0.66997083846E+03  0.00000000000E+00 0. -1.
          1    1    1    2  503    0 -0.10705905223E+03 -0.49845329264E+02 -0.10271181340E+04  0.10338848382E+04  0.00000000000E+00 0. -1.
<mgrwt>
<rscale>  0 0.79789389E+02</rscale>
<asrwt>0</asrwt>
<pdfrwt beam="1">  1        2 0.13891198E+00 0.62569711E+02</pdfrwt>
<pdfrwt beam="2">  1        2 0.31038999E+00 0.10174806E+03</pdfrwt>
<totfact> 0.40700792E+01</totfact>
</mgrwt>
</event>
<event>
13    1  0.1589573E-008  0.3534321E+02  0.7546771E-02  0.1618001E+00
          2   -1    0    0  503    0  0.00000000000E+00  0.00000000000E+00  0.14332392395E+04  0.14332392395E+04  0.00000000000E+00 0. -1.
         -1   -1    0    0    0  501 -0.00000000000E+00 -0.00000000000E+00 -0.12119715304E+04  0.12119715304E+04  0.00000000000E+00 0.  1.
         24    2    1    2    0    0 -0.18351733300E+02 -0.62083260007E+02 -0.53667184440E+03  0.54666586755E+03  0.81460327064E+02 0.  0.
         25    2    1    2    0    0 -0.13942335818E+03 -0.50639997052E+02  0.18350855995E+03  0.26703192126E+03  0.12500949281E+03 0.  0.
         24    2    1    2    0    0  0.14369940478E+03  0.56850476073E+02 -0.40246210332E+03  0.43842261336E+03  0.79731723468E+02 0.  0.
        -11    1    3    3    0    0  0.26320065407E+02 -0.13381367935E+02 -0.80743116845E+02  0.85972424467E+02  0.00000000000E+00 0.  1.
         12    1    3    3    0    0 -0.44671798706E+02 -0.48701892072E+02 -0.45592872755E+03  0.46069344308E+03  0.00000000000E+00 0. -1.
        -13    1    5    5    0    0  0.81638856010E+02 -0.99650634359E+01 -0.17504996290E+03  0.19340810431E+03  0.00000000000E+00 0.  1.
         14    1    5    5    0    0  0.62060548770E+02  0.66815539509E+02 -0.22741214042E+03  0.24501450905E+03  0.00000000000E+00 0. -1.
          5    1    4    4  502    0 -0.52567892887E+02 -0.70097208467E+02  0.14598065298E+03  0.17032158713E+03  0.47000000000E+01 0. -1.
         -5    1    4    4    0  502 -0.86855465289E+02  0.19457211415E+02  0.37527906970E+02  0.96710334133E+02  0.47000000000E+01 0. -1.
          1    1    1    2  503    0  0.31691978483E+01  0.22394235202E+02  0.11833935056E+04  0.11836096209E+04  0.00000000000E+00 0. -1.
         -2    1    1    2    0  501  0.10906488847E+02  0.33478545783E+02 -0.20650040867E+03  0.20948074687E+03  0.00000000000E+00 0.  1.
<mgrwt>
<rscale>  0 0.28273142E+02</rscale>
<asrwt>0</asrwt>
<pdfrwt beam="1">  1        2 0.21077047E+00 0.22617374E+02</pdfrwt>
<pdfrwt beam="2">  1       -1 0.17823111E+00 0.35343208E+02</pdfrwt>
<totfact> 0.62015768E+00</totfact>
</mgrwt>
</event>
<event>
13    1  0.1589573E-008  0.7053770E+02  0.7546771E-02  0.1367889E+00
          2   -1    0    0  503    0  0.00000000000E+00  0.00000000000E+00  0.19099391602E+04  0.19099391602E+04  0.00000000000E+00 0. -1.
         -1   -1    0    0    0  501 -0.00000000000E+00 -0.00000000000E+00 -0.11546951559E+03  0.11546951559E+03  0.00000000000E+00 0.  1.
         24    2    1    2    0    0 -0.40565620577E+02 -0.10883381149E+02  0.11403001017E+03  0.14582618346E+03  0.80612747161E+02 0.  0.
         25    2    1    2    0    0  0.14783194351E+02 -0.14300638059E+03  0.29473728721E+03  0.35095396757E+03  0.12501700346E+03 0.  0.
         24    2    1    2    0    0  0.81047259921E+02  0.18598474639E+03  0.13067553028E+04  0.13248654685E+04  0.80623223128E+02 0.  0.
        -11    1    5    5    0    0  0.86118909669E+01  0.65327800980E+02  0.64226213809E+03  0.64563344110E+03  0.00000000000E+00 0.  1.
         12    1    5    5    0    0  0.72435368954E+02  0.12065694541E+03  0.66449316467E+03  0.67923202740E+03  0.00000000000E+00 0. -1.
        -11    1    3    3    0    0 -0.51039885603E+02 -0.24351267596E+01  0.12050625779E+03  0.13089216146E+03  0.00000000000E+00 0.  1.
         12    1    3    3    0    0  0.10474265026E+02 -0.84482543896E+01 -0.64762476150E+01  0.14934022005E+02  0.00000000000E+00 0. -1.
          5    1    4    4  502    0  0.33958902973E+02 -0.11913033760E+03  0.29498190701E+03  0.31997134230E+03  0.47000000000E+01 0. -1.
         -5    1    4    4    0  502 -0.19175708622E+02 -0.23876042990E+02 -0.24461979479E+00  0.30982625274E+02  0.47000000000E+01 0. -1.
          1    1    1    2  503    0 -0.60441257270E+02  0.38252518481E+02  0.10628513065E+03  0.12811295698E+03  0.00000000000E+00 0. -1.
         -2    1    1    2    0  501  0.51764235749E+01 -0.70347503132E+02 -0.27338086211E+02  0.75650099244E+02  0.00000000000E+00 0.  1.
<mgrwt>
<rscale>  0 0.67757576E+02</rscale>
<asrwt>0</asrwt>
<pdfrwt beam="1">  1        2 0.28087339E+00 0.65087030E+02</pdfrwt>
<pdfrwt beam="2">  1       -1 0.16980812E-01 0.70537696E+02</pdfrwt>
<totfact> 0.30112535E+02</totfact>
</mgrwt>
</event>
<event>
13    1  0.1589573E-008  0.3271605E+03  0.7546771E-02  0.1167330E+00
          2   -1    0    0  503    0  0.00000000000E+00  0.00000000000E+00  0.20799199689E+04  0.20799199689E+04  0.00000000000E+00 0. -1.
          2   -1    0    0  502    0 -0.00000000000E+00 -0.00000000000E+00 -0.36853804193E+04  0.36853804193E+04  0.00000000000E+00 0. -1.
         24    2    1    2    0    0  0.57368925152E+03 -0.80300088565E+02 -0.22072034509E+04  0.22837190906E+04  0.89768309924E+02 0.  0.
         25    2    1    2    0    0 -0.31257099596E+03  0.63436239039E+02  0.87181656416E+03  0.93670347071E+03  0.12499794623E+03 0.  0.
         24    2    1    2    0    0 -0.69096764248E+03  0.14291983127E+03 -0.22553270815E+03  0.74670695838E+03  0.94042108244E+02 0.  0.
        -11    1    5    5    0    0 -0.56856685637E+03  0.15165842575E+03 -0.17418472553E+03  0.61368466404E+03  0.00000000000E+00 0.  1.
         12    1    5    5    0    0 -0.12240078610E+03 -0.87385944804E+01 -0.51347982613E+02  0.13302229434E+03  0.00000000000E+00 0. -1.
        -13    1    3    3    0    0  0.15648072903E+03  0.18119462890E+02 -0.58730686630E+03  0.60806569440E+03  0.00000000000E+00 0.  1.
         14    1    3    3    0    0  0.41720852249E+03 -0.98419551455E+02 -0.16198965846E+04  0.16756533962E+04  0.00000000000E+00 0. -1.
          5    1    4    4  501    0 -0.19517162095E+03 -0.21534040262E+02  0.53905049333E+03  0.57371874719E+03  0.47000000000E+01 0.  1.
         -5    1    4    4    0  501 -0.11739937501E+03  0.84970279302E+02  0.33276607082E+03  0.36298472352E+03  0.47000000000E+01 0.  1.
          1    1    1    2  502    0  0.33784725274E+03 -0.87971482810E+02 -0.88524119355E+03  0.95159430365E+03  0.00000000000E+00 0. -1.
          1    1    1    2  503    0  0.92002134168E+02 -0.38084498937E+02  0.84070033804E+03  0.84657656484E+03  0.00000000000E+00 0. -1.
<mgrwt>
<rscale>  0 0.18048938E+03</rscale>
<asrwt>0</asrwt>
<pdfrwt beam="1">  1        2 0.30587059E+00 0.99573198E+02</pdfrwt>
<pdfrwt beam="2">  1        2 0.54196771E+00 0.32716050E+03</pdfrwt>
<totfact> 0.12468563E+00</totfact>
</mgrwt>
</event>
<event>
13    1  0.1589573E-008  0.3074026E+03  0.7546771E-02  0.1147793E+00
          2   -1    0    0  502    0  0.00000000000E+00  0.00000000000E+00  0.25183904776E+04  0.25183904776E+04  0.00000000000E+00 0. -1.
          2   -1    0    0  503    0 -0.00000000000E+00 -0.00000000000E+00 -0.77255901024E+03  0.77255901024E+03  0.00000000000E+00 0. -1.
         24    2    1    2    0    0 -0.15931117817E+03 -0.89162305762E+02  0.28463106275E+03  0.34697882416E+03  0.77778494972E+02 0.  0.
         25    2    1    2    0    0  0.51916400912E+03 -0.45495116297E+03  0.15037362050E+04  0.16593252486E+04  0.12500350936E+03 0.  0.
         24    2    1    2    0    0 -0.11554973273E+03  0.11270590136E+03 -0.81063713871E+02  0.19763150835E+03  0.80203032681E+02 0.  0.
        -11    1    5    5    0    0  0.72703468874E+01  0.32608284906E+02 -0.18739621806E+02  0.38305764760E+02  0.00000000000E+00 0.  1.
         12    1    5    5    0    0 -0.12282007962E+03  0.80097616449E+02 -0.62324092065E+02  0.15932574359E+03  0.00000000000E+00 0. -1.
        -13    1    3    3    0    0 -0.16826528294E+03 -0.84725264471E+02  0.26839296686E+03  0.32791212320E+03  0.00000000000E+00 0.  1.
         14    1    3    3    0    0  0.89541047693E+01 -0.44370412910E+01  0.16238095888E+02  0.19066700966E+02  0.00000000000E+00 0. -1.
          5    1    4    4  501    0  0.60339799422E+02 -0.11235077999E+03  0.23720039425E+03  0.26935052662E+03  0.47000000000E+01 0. -1.
         -5    1    4    4    0  501  0.45882420970E+03 -0.34260038299E+03  0.12665358107E+04  0.13899747220E+04  0.47000000000E+01 0. -1.
          1    1    1    2  502    0 -0.32758636505E+02  0.12907213805E+03  0.48779069471E+03  0.50564068956E+03  0.00000000000E+00 0. -1.
          1    1    1    2  503    0 -0.21154446171E+03  0.30233542933E+03 -0.44926278120E+03  0.58137321720E+03  0.00000000000E+00 0. -1.
<mgrwt>
<rscale>  0 0.20232417E+03</rscale>
<asrwt>0</asrwt>
<pdfrwt beam="1">  1        2 0.37035154E+00 0.13316435E+03</pdfrwt>
<pdfrwt beam="2">  1        2 0.11361162E+00 0.30740260E+03</pdfrwt>
<totfact> 0.30058960E+01</totfact>
</mgrwt>
</event>
<event>
13    1  0.1589573E-008  0.8889225E+02  0.7546771E-02  0.1364963E+00
          2   -1    0    0  502    0  0.00000000000E+00  0.00000000000E+00  0.13649069935E+04  0.13649069935E+04  0.00000000000E+00 0. -1.
          2   -1    0    0  503    0 -0.00000000000E+00 -0.00000000000E+00 -0.11403042035E+04  0.11403042035E+04  0.00000000000E+00 0. -1.
         24    2    1    2    0    0 -0.63223904844E+01  0.43500823495E+02 -0.20291447702E+03  0.22314931276E+03  0.81786530290E+02 0.  0.
         25    2    1    2    0    0  0.46328331322E+02 -0.31797161250E+02 -0.29850763105E+03  0.32846215441E+03  0.12499282914E+03 0.  0.
         24    2    1    2    0    0  0.30166678603E+00  0.12498323099E+02  0.82190400602E+02  0.11235768202E+03  0.75582323829E+02 0.  0.
        -11    1    5    5    0    0  0.35751849485E+02  0.18815974352E+02  0.39398588565E+02  0.56431236149E+02  0.00000000000E+00 0.  1.
         12    1    5    5    0    0 -0.35450182698E+02 -0.63176512536E+01  0.42791812037E+02  0.55926445874E+02  0.00000000000E+00 0. -1.
        -13    1    3    3    0    0  0.81131149029E+01  0.52058170865E+02 -0.62537974333E+02  0.81773308731E+02  0.00000000000E+00 0.  1.
         14    1    3    3    0    0 -0.14435505387E+02 -0.85573473697E+01 -0.14037650269E+03  0.14137600403E+03  0.00000000000E+00 0. -1.
          5    1    4    4  501    0  0.34922470581E+02  0.42801654434E+02 -0.80745029889E+02  0.97945956657E+02  0.47000000000E+01 0. -1.
         -5    1    4    4    0  501  0.11405860741E+02 -0.74598815684E+02 -0.21776260116E+03  0.23051619775E+03  0.47000000000E+01 0. -1.
          1    1    1    2  502    0  0.27687281991E+02  0.45100092769E+02  0.12380332382E+04  0.12391637918E+04  0.00000000000E+00 0. -1.
          1    1    1    2  503    0 -0.67994889614E+02 -0.69302078113E+02 -0.59419874064E+03  0.60207825606E+03  0.00000000000E+00 0. -1.
<mgrwt>
<rscale>  0 0.68587484E+02</rscale>
<asrwt>0</asrwt>
<pdfrwt beam="1">  1        2 0.20072162E+00 0.52920733E+02</pdfrwt>
<pdfrwt beam="2">  1        2 0.16769179E+00 0.88892249E+02</pdfrwt>
<totfact> 0.75324694E+01</totfact>
</mgrwt>
</event>
<event>
13    1  0.1589573E-008  0.1203047E+03  0.7546771E-02  0.1266005E+00
          4   -1    0    0  503    0 -0.00000000000E+00  0.00000000000E+00  0.18331307936E+04  0.18331307936E+04  0.00000000000E+00 0. -1.
          2   -1    0    0  502    0  0.00000000000E+00 -0.00000000000E+00 -0.34498650944E+04  0.34498650944E+04  0.00000000000E+00 0. -1.
         24    2    1    2    0    0 -0.30302146009E+02  0.20234520539E+02  0.30718880115E+03  0.32041131220E+03  0.83491278355E+02 0.  0.
         25    2    1    2    0    0 -0.76832950671E+02  0.16351563042E+03  0.33838209315E+02  0.22228660526E+03  0.12500258705E+03 0.  0.
         24    2    1    2    0    0  0.15447380406E+02  0.65987574698E+01  0.35085013587E+03  0.36039936355E+03  0.80682825003E+02 0.  0.
        -11    1    3    3    0    0  0.34899525505E+01  0.36600273405E+02  0.59864413777E+02  0.70253169458E+02  0.00000000000E+00 0.  1.
         12    1    3    3    0    0 -0.33792098560E+02 -0.16365752866E+02  0.24732438737E+03  0.25015814274E+03  0.00000000000E+00 0. -1.
        -13    1    5    5    0    0 -0.88084696675E+01  0.34539733004E+02  0.25796243792E+03  0.26041352052E+03  0.00000000000E+00 0.  1.
         14    1    5    5    0    0  0.24255850073E+02 -0.27940975534E+02  0.92887697948E+02  0.99985843031E+02  0.00000000000E+00 0. -1.
          5    1    4    4  501    0  0.32989968127E+02  0.42303440887E+02 -0.50767173175E+01  0.54090499781E+02  0.47000000000E+01 0.  1.
         -5    1    4    4    0  501 -0.10982291880E+03  0.12121218953E+03  0.38914926633E+02  0.16819610548E+03  0.47000000000E+01 0.  1.
          1    1    1    2  502    0 -0.22869291453E+01 -0.15086840332E+03 -0.33400396158E+04  0.33434459978E+04  0.00000000000E+00 0. -1.
          3    1    1    2  503    0  0.93974645420E+02 -0.39480505104E+02  0.10314281686E+04  0.10364526092E+04  0.00000000000E+00 0. -1.
<mgrwt>
<rscale>  0 0.10711618E+03</rscale>
<asrwt>0</asrwt>
<pdfrwt beam="2">  1        2 0.50733309E+00 0.12030469E+03</pdfrwt>
<pdfrwt beam="1">  1        4 0.26957806E+00 0.95373475E+02</pdfrwt>
<totfact> 0.48116610E-02</totfact>
</mgrwt>
</event>
<event>
13    1  0.1589573E-008  0.1507441E+03  0.7546771E-02  0.1358711E+00
          2   -1    0    0  502    0  0.00000000000E+00  0.00000000000E+00  0.61533441330E+03  0.61533441330E+03  0.00000000000E+00 0. -1.
          2   -1    0    0  503    0 -0.00000000000E+00 -0.00000000000E+00 -0.16077216970E+04  0.16077216970E+04  0.00000000000E+00 0. -1.
         24    2    1    2    0    0 -0.15674514000E+03 -0.11741007252E+03 -0.45870335279E+03  0.50493872142E+03  0.78741237567E+02 0.  0.
         25    2    1    2    0    0  0.29566885778E+03  0.41388991450E+01  0.28856233406E+02  0.32233471268E+03  0.12501912192E+03 0.  0.
         24    2    1    2    0    0  0.60591792659E+02 -0.73524125881E+02  0.16232539370E+03  0.20039614294E+03  0.68788939835E+02 0.  0.
        -11    1    3    3    0    0 -0.21793911631E+02 -0.99029262864E+01 -0.13526806772E+02  0.27495763940E+02  0.00000000000E+00 0.  1.
         12    1    3    3    0    0 -0.13495122836E+03 -0.10750714623E+03 -0.44517654601E+03  0.47744295748E+03  0.00000000000E+00 0. -1.
        -13    1    5    5    0    0 -0.57490409629E+01 -0.44882222738E+02  0.63250856064E+02  0.77769763936E+02  0.00000000000E+00 0.  1.
         14    1    5    5    0    0  0.66340833622E+02 -0.28641903143E+02  0.99074537634E+02  0.12262637901E+03  0.00000000000E+00 0. -1.
          5    1    4    4  501    0  0.24846101811E+03 -0.44962965566E+02  0.27629831416E+02  0.25404732507E+03  0.47000000000E+01 0.  1.
         -5    1    4    4    0  501  0.47207839670E+02  0.49101864711E+02  0.12264019904E+01  0.68287387607E+02  0.47000000000E+01 0.  1.
          1    1    1    2  502    0 -0.18517757675E+03  0.15720002076E+03  0.17217958988E+03  0.29773879933E+03  0.00000000000E+00 0. -1.
          1    1    1    2  503    0 -0.14337933687E+02  0.29595278496E+02 -0.89704514793E+03  0.89764773396E+03  0.00000000000E+00 0. -1.
<mgrwt>
<rscale>  0 0.70408067E+02</rscale>
<asrwt>0</asrwt>
<pdfrwt beam="1">  1        2 0.90490357E-01 0.15074407E+03</pdfrwt>
<pdfrwt beam="2">  1        2 0.23642966E+00 0.32885511E+02</pdfrwt>
<totfact> 0.12733061E+02</totfact>
</mgrwt>
</event>
<event>
13    1  0.1589573E-008  0.1045480E+03  0.7546771E-02  0.1310375E+00
          2   -1    0    0  502    0  0.00000000000E+00  0.00000000000E+00  0.47482348563E+03  0.47482348563E+03  0.00000000000E+00 0. -1.
          2   -1    0    0  503    0 -0.00000000000E+00 -0.00000000000E+00 -0.93780150439E+03  0.93780150439E+03  0.00000000000E+00 0. -1.
         24    2    1    2    0    0  0.14824919216E+03 -0.57490834284E+02 -0.26770003488E+03  0.32164728421E+03  0.80688585105E+02 0.  0.
         25    2    1    2    0    0 -0.18656662458E+03  0.19391197265E+03 -0.24562289524E+03  0.38518406506E+03  0.12500879474E+03 0.  0.
         24    2    1    2    0    0 -0.10329015005E+02  0.47355767706E+02  0.64126416802E+02  0.11399147850E+03  0.80824517034E+02 0.  0.
        -11    1    5    5    0    0  0.33129639063E+02  0.51307500504E+01  0.20052319201E+02  0.39063961471E+02  0.00000000000E+00 0.  1.
         12    1    5    5    0    0 -0.43458654068E+02  0.42225017656E+02  0.44074097602E+02  0.74927517034E+02  0.00000000000E+00 0. -1.
        -11    1    3    3    0    0 -0.26673870603E+01  0.40902034134E+01 -0.47150172656E+02  0.47402357527E+02  0.00000000000E+00 0.  1.
         12    1    3    3    0    0  0.15091657922E+03 -0.61581037697E+02 -0.22054986222E+03  0.27424492669E+03  0.00000000000E+00 0. -1.
          5    1    4    4  501    0 -0.54902024717E+02  0.14483805328E+03 -0.11180433778E+03  0.19108792202E+03  0.47000000000E+01 0.  1.
         -5    1    4    4    0  501 -0.13166459986E+03  0.49073919372E+02 -0.13381855746E+03  0.19409614304E+03  0.47000000000E+01 0.  1.
          1    1    1    2  502    0  0.85199721506E+02 -0.12135461998E+03  0.26506848857E+03  0.30372230733E+03  0.00000000000E+00 0. -1.
          1    1    1    2  503    0 -0.36553274083E+02 -0.62422286101E+02 -0.27884999401E+03  0.28807985492E+03  0.00000000000E+00 0. -1.
<mgrwt>
<rscale>  0 0.86963893E+02</rscale>
<asrwt>0</asrwt>
<pdfrwt beam="1">  1        2 0.69826984E-01 0.10454800E+03</pdfrwt>
<pdfrwt beam="2">  1        2 0.13791198E+00 0.72337291E+02</pdfrwt>
<totfact> 0.35304752E+02</totfact>
</mgrwt>
</event>
<event>
13    1  0.1589573E-008  0.1065766E+03  0.7546771E-02  0.1335419E+00
          2   -1    0    0  502    0  0.00000000000E+00  0.00000000000E+00  0.68173587263E+03  0.68173587263E+03  0.00000000000E+00 0. -1.
          2   -1    0    0  503    0 -0.00000000000E+00 -0.00000000000E+00 -0.97786736734E+03  0.97786736734E+03  0.00000000000E+00 0. -1.
         24    2    1    2    0    0  0.53431920905E+02 -0.10843250629E+03 -0.22509899296E+03  0.26426373524E+03  0.67477303870E+02 0.  0.
         25    2    1    2    0    0  0.49281280232E+02  0.37423067781E+02  0.15271366240E+03  0.20682543291E+03  0.12500466564E+03 0.  0.
         24    2    1    2    0    0 -0.37462009049E+01  0.13091053613E+03 -0.18270937592E+03  0.23875318683E+03  0.80428637199E+02 0.  0.
        -13    1    3    3    0    0  0.92663627481E+01 -0.84717705223E+02 -0.11359866337E+03  0.14201271554E+03  0.00000000000E+00 0.  1.
         14    1    3    3    0    0  0.44165558157E+02 -0.23714801067E+02 -0.11150032960E+03  0.12225101970E+03  0.00000000000E+00 0. -1.
        -13    1    5    5    0    0 -0.36152703032E+02  0.80574565531E+02 -0.13878916827E+03  0.16450444303E+03  0.00000000000E+00 0.  1.
         14    1    5    5    0    0  0.32406502127E+02  0.50335970602E+02 -0.43920207654E+02  0.74248743807E+02  0.00000000000E+00 0. -1.
          5    1    4    4  501    0  0.45459949409E+02  0.23881599005E+01  0.16340932496E+03  0.16969681138E+03  0.47000000000E+01 0. -1.
         -5    1    4    4    0  501  0.38213308225E+01  0.35034907880E+02 -0.10695662558E+02  0.37128621534E+02  0.47000000000E+01 0. -1.
          1    1    1    2  502    0 -0.52641018908E+02 -0.92750176048E+02  0.44643276016E+03  0.45899442412E+03  0.00000000000E+00 0. -1.
          1    1    1    2  503    0 -0.46325981323E+02  0.32849078425E+02 -0.48746954839E+03  0.49076646086E+03  0.00000000000E+00 0. -1.
<mgrwt>
<rscale>  0 0.77798053E+02</rscale>
<asrwt>0</asrwt>
<pdfrwt beam="1">  1        2 0.10025528E+00 0.10657662E+03</pdfrwt>
<pdfrwt beam="2">  1        2 0.14380402E+00 0.56790479E+02</pdfrwt>
<totfact> 0.22686017E+02</totfact>
</mgrwt>
</event>
<event>
13    1  0.1589573E-008  0.9374180E+02  0.7546771E-02  0.1403534E+00
          2   -1    0    0  503    0  0.00000000000E+00  0.00000000000E+00  0.23419189681E+04  0.23419189681E+04  0.00000000000E+00 0. -1.
          2   -1    0    0  502    0 -0.00000000000E+00 -0.00000000000E+00 -0.30563620611E+04  0.30563620611E+04  0.00000000000E+00 0. -1.
         24    2    1    2    0    0  0.93615210035E+02 -0.11791147282E+03 -0.18928688961E+04  0.19005474561E+04  0.80380670504E+02 0.  0.
         25    2    1    2    0    0  0.29256937535E+01  0.14109006493E+03  0.11123173390E+04  0.11281839266E+04  0.12503656822E+03 0.  0.
         24    2    1    2    0    0 -0.40141565669E+02  0.22990320267E+02 -0.74465672542E+02  0.12523578569E+03  0.89436935940E+02 0.  0.
        -11    1    3    3    0    0  0.69593978990E+02 -0.69804929019E+02 -0.75479257782E+03  0.76120160638E+03  0.00000000000E+00 0.  1.
         12    1    3    3    0    0  0.24021231045E+02 -0.48106543801E+02 -0.11380763183E+04  0.11393458498E+04  0.00000000000E+00 0. -1.
        -13    1    5    5    0    0 -0.44976190173E+02 -0.25407697342E+02 -0.43892620144E+02  0.67786214453E+02  0.00000000000E+00 0.  1.
         14    1    5    5    0    0  0.48346245044E+01  0.48398017609E+02 -0.30573052399E+02  0.57449571239E+02  0.00000000000E+00 0. -1.
          5    1    4    4  501    0 -0.53978304947E+02  0.89774266862E+02  0.78568428252E+03  0.79265059023E+03  0.47000000000E+01 0.  1.
         -5    1    4    4    0  501  0.56903998700E+02  0.51315798067E+02  0.32663305651E+03  0.33553333635E+03  0.47000000000E+01 0.  1.
          1    1    1    2  502    0 -0.89058970385E+02 -0.29407377847E+02 -0.10494956412E+04  0.10536780319E+04  0.00000000000E+00 0. -1.
          1    1    1    2  503    0  0.32659632266E+02 -0.16761534530E+02  0.11900697779E+04  0.11906358288E+04  0.00000000000E+00 0. -1.
<mgrwt>
<rscale>  0 0.58662010E+02</rscale>
<asrwt>0</asrwt>
<pdfrwt beam="1">  1        2 0.34439985E+00 0.36709680E+02</pdfrwt>
<pdfrwt beam="2">  1        2 0.44946501E+00 0.93741799E+02</pdfrwt>
<totfact> 0.30243130E+00</totfact>
</mgrwt>
</event>
<event>
13    1  0.1589573E-008  0.1166033E+03  0.7546771E-02  0.1290605E+00
          2   -1    0    0  502    0  0.00000000000E+00  0.00000000000E+00  0.11667251916E+04  0.11667251916E+04  0.00000000000E+00 0. -1.
          2   -1    0    0  503    0 -0.00000000000E+00 -0.00000000000E+00 -0.13203453758E+04  0.13203453758E+04  0.00000000000E+00 0. -1.
         24    2    1    2    0    0 -0.19453375324E+02  0.70742184554E+01  0.21465025908E+02  0.85454625665E+02  0.80082877895E+02 0.  0.
         25    2    1    2    0    0  0.81683800439E+02 -0.15148032715E+03  0.58475460480E+03  0.62223922206E+03  0.12500067547E+03 0.  0.
         24    2    1    2    0    0 -0.71837646033E+02 -0.49632949025E+02  0.18788815262E+03  0.22182736932E+03  0.79254948526E+02 0.  0.
        -11    1    5    5    0    0 -0.62180646872E+02 -0.59138724278E+02  0.95254244693E+02  0.12820761556E+03  0.00000000000E+00 0.  1.
         12    1    5    5    0    0 -0.96569991608E+01  0.95057752534E+01  0.92633907927E+02  0.93619753759E+02  0.00000000000E+00 0. -1.
        -13    1    3    3    0    0 -0.38817842220E+02  0.24810616835E+02  0.33105574106E+02  0.56730684988E+02  0.00000000000E+00 0.  1.
         14    1    3    3    0    0  0.19364466896E+02 -0.17736398380E+02 -0.11640548197E+02  0.28723940676E+02  0.00000000000E+00 0. -1.
          5    1    4    4  501    0 -0.18543626719E+02 -0.45364556330E+02  0.60381658371E+02  0.77909201835E+02  0.47000000000E+01 0. -1.
         -5    1    4    4    0  501  0.10022742716E+03 -0.10611577082E+03  0.52437294642E+03  0.54433002022E+03  0.47000000000E+01 0. -1.
          1    1    1    2  502    0  0.41162879261E+01  0.77704931989E+02  0.29718356136E+03  0.30720200101E+03  0.00000000000E+00 0. -1.
          1    1    1    2  503    0  0.54909329917E+01  0.11633412573E+03 -0.12449115290E+04  0.12503473494E+04  0.00000000000E+00 0. -1.
<mgrwt>
<rscale>  0 0.95254158E+02</rscale>
<asrwt>0</asrwt>
<pdfrwt beam="1">  1        2 0.17157723E+00 0.77813882E+02</pdfrwt>
<pdfrwt beam="2">  1        2 0.19416844E+00 0.11660329E+03</pdfrwt>
<totfact> 0.73227825E+01</totfact>
</mgrwt>
</event>
<event>
13    1  0.1589573E-008  0.1033382E+03  0.7546771E-02  0.1307077E+00
         -3   -1    0    0    0  501 -0.00000000000E+00  0.00000000000E+00  0.49811751095E+03  0.49811751095E+03  0.00000000000E+00 0.  1.
          2   -1    0    0  503    0  0.00000000000E+00 -0.00000000000E+00 -0.34783766484E+04  0.34783766484E+04  0.00000000000E+00 0. -1.
         24    2    1    2    0    0 -0.21648236776E+03  0.93767360051E+02  0.68031223469E+02  0.25944606816E+03  0.83827689644E+02 0.  0.
         25    2    1    2    0    0  0.19592266900E+03 -0.10571557372E+02 -0.12374740829E+04  0.12591533527E+04  0.12501043876E+03 0.  0.
         24    2    1    2    0    0 -0.26899516122E+02 -0.58577286572E+02 -0.10271817451E+04  0.10322920786E+04  0.79810497268E+02 0.  0.
        -11    1    3    3    0    0 -0.21967666443E+03  0.77874498931E+02  0.57320298439E+02  0.24001643922E+03  0.00000000000E+00 0.  1.
         12    1    3    3    0    0  0.31942966693E+01  0.15892861119E+02  0.10710925030E+02  0.19429628940E+02  0.00000000000E+00 0. -1.
        -11    1    5    5    0    0  0.19570966709E+02 -0.93665032572E+01 -0.53946576063E+03  0.53990189943E+03  0.00000000000E+00 0.  1.
         12    1    5    5    0    0 -0.46470482831E+02 -0.49210783315E+02 -0.48771598448E+03  0.49239017912E+03  0.00000000000E+00 0. -1.
          5    1    4    4  502    0  0.12243930215E+03 -0.16125038065E+02 -0.40565357168E+03  0.42406168158E+03  0.47000000000E+01 0. -1.
         -5    1    4    4    0  502  0.73483366846E+02  0.55534806929E+01 -0.83182051120E+03  0.83509167114E+03  0.47000000000E+01 0. -1.
          1    1    1    2  503    0 -0.51536145863E+02 -0.55054698351E+02 -0.10949334183E+04  0.10975273047E+04  0.00000000000E+00 0. -1.
         -4    1    1    2    0  501  0.98995360749E+02  0.30436182244E+02  0.31129888538E+03  0.32807535518E+03  0.00000000000E+00 0.  1.
<mgrwt>
<rscale>  0 0.88277724E+02</rscale>
<asrwt>0</asrwt>
<pdfrwt beam="2">  1        2 0.51152598E+00 0.75412162E+02</pdfrwt>
<pdfrwt beam="1">  1       -3 0.73252574E-01 0.10333819E+03</pdfrwt>
<totfact> 0.18048260E+00</totfact>
</mgrwt>
</event>
<event>
13    1  0.1589573E-008  0.1412226E+03  0.7546771E-02  0.1390416E+00
          2   -1    0    0  503    0  0.00000000000E+00  0.00000000000E+00  0.18467744076E+04  0.18467744076E+04  0.00000000000E+00 0. -1.
          2   -1    0    0  502    0 -0.00000000000E+00 -0.00000000000E+00 -0.15802871833E+04  0.15802871833E+04  0.00000000000E+00 0. -1.
         24    2    1    2    0    0 -0.75018585943E+02  0.20060459580E+03 -0.26974597779E+03  0.35341559292E+03  0.79181416362E+02 0.  0.
         25    2    1    2    0    0 -0.17928376893E+03 -0.12653697767E+03  0.58197750358E+03  0.63440986901E+03  0.12499516274E+03 0.  0.
         24    2    1    2    0    0  0.19649687826E+02 -0.11178172869E+02 -0.45405497267E+02  0.96279685435E+02  0.81835547686E+02 0.  0.
        -11    1    3    3    0    0 -0.42201411528E+02  0.12174910617E+03 -0.21891477702E+03  0.25402260448E+03  0.00000000000E+00 0.  1.
         12    1    3    3    0    0 -0.32817174415E+02  0.78855489626E+02 -0.50831200769E+02  0.99392988447E+02  0.00000000000E+00 0. -1.
        -11    1    5    5    0    0 -0.26886982267E+02 -0.14861901575E+01  0.45638892547E+01  0.27312042431E+02  0.00000000000E+00 0.  1.
         12    1    5    5    0    0  0.46536670093E+02 -0.96919827112E+01 -0.49969386522E+02  0.68967643004E+02  0.00000000000E+00 0. -1.
          5    1    4    4  501    0 -0.16582840075E+02  0.12978807499E+02  0.15645350235E+03  0.15793425349E+03  0.47000000000E+01 0. -1.
         -5    1    4    4    0  501 -0.16270092885E+03 -0.13951578517E+03  0.42552400123E+03  0.47647561552E+03  0.47000000000E+01 0. -1.
          1    1    1    2  502    0  0.21793345503E+03 -0.41629016738E+02 -0.11609846572E+04  0.11819954908E+04  0.00000000000E+00 0. -1.
          1    1    1    2  503    0  0.16719212010E+02 -0.21260428524E+02  0.11606458530E+04  0.11609609528E+04  0.00000000000E+00 0. -1.
<mgrwt>
<rscale>  0 0.61803248E+02</rscale>
<asrwt>0</asrwt>
<pdfrwt beam="1">  1        2 0.27158447E+00 0.27046957E+02</pdfrwt>
<pdfrwt beam="2">  1        2 0.23239517E+00 0.14122260E+03</pdfrwt>
<totfact> 0.27541450E+01</totfact>
</mgrwt>
</event>
<event>
13    1  0.1589573E-008  0.7017618E+02  0.7546771E-02  0.1407447E+00
          2   -1    0    0  503    0  0.00000000000E+00  0.00000000000E+00  0.18169133076E+04  0.18169133076E+04  0.00000000000E+00 0. -1.
          2   -1    0    0  502    0 -0.00000000000E+00 -0.00000000000E+00 -0.80458477600E+03  0.80458477600E+03  0.00000000000E+00 0. -1.
         24    2    1    2    0    0  0.12223783594E+03  0.68899170727E+02 -0.23973152713E+03  0.28944605506E+03  0.81354959447E+02 0.  0.
         25    2    1    2    0    0 -0.21233157412E+03 -0.12708153028E+02  0.23261630430E+03  0.33908911740E+03  0.12499955998E+03 0.  0.
         24    2    1    2    0    0 -0.15462392027E+01 -0.53357377317E+01  0.12890546687E+03  0.14938857849E+03  0.75295863376E+02 0.  0.
        -11    1    5    5    0    0 -0.73032433933E+01  0.91214070843E+01 -0.63105513631E+01  0.13280078681E+02  0.00000000000E+00 0.  1.
         12    1    5    5    0    0  0.57570041905E+01 -0.14457144816E+02  0.13521601824E+03  0.13610849981E+03  0.00000000000E+00 0. -1.
        -13    1    3    3    0    0 -0.10424518042E+01 -0.23796009546E+01 -0.60380049334E+02  0.60435912867E+02  0.00000000000E+00 0.  1.
         14    1    3    3    0    0  0.12328028775E+03  0.71278771682E+02 -0.17935147780E+03  0.22901014219E+03  0.00000000000E+00 0. -1.
          5    1    4    4  501    0 -0.18840020134E+03 -0.52179601324E+02  0.21169784760E+03  0.28819336449E+03  0.47000000000E+01 0. -1.
         -5    1    4    4    0  501 -0.23931372778E+02  0.39471448296E+02  0.20918456704E+02  0.50895752913E+02  0.47000000000E+01 0. -1.
          1    1    1    2  502    0  0.47420930857E+02  0.35408704954E+01 -0.47442994488E+03  0.47680714660E+03  0.00000000000E+00 0. -1.
          1    1    1    2  503    0  0.44219046520E+02 -0.54396150463E+02  0.13649682325E+04  0.13667671861E+04  0.00000000000E+00 0. -1.
<mgrwt>
<rscale>  0 0.57767498E+02</rscale>
<asrwt>0</asrwt>
<pdfrwt beam="1">  1        2 0.26719313E+00 0.70176177E+02</pdfrwt>
<pdfrwt beam="2">  1        2 0.11832129E+00 0.47552944E+02</pdfrwt>
<totfact> 0.71768700E+01</totfact>
</mgrwt>
</event>
<event>
13    1  0.1589573E-008  0.1173377E+03  0.7546771E-02  0.1270486E+00
          2   -1    0    0  503    0  0.00000000000E+00  0.00000000000E+00  0.26502284241E+04  0.26502284241E+04  0.00000000000E+00 0. -1.
         -1   -1    0    0    0  501 -0.00000000000E+00 -0.00000000000E+00 -0.35914842846E+03  0.35914842846E+03  0.00000000000E+00 0.  1.
         24    2    1    2    0    0  0.49168429295E+02  0.88475898950E+02  0.25295638443E+03  0.27920557812E+03  0.61018876574E+02 0.  0.
         25    2    1    2    0    0  0.17895433586E+02 -0.13678926083E+03  0.13218489091E+04  0.13348942783E+04  0.12500658950E+03 0.  0.
         24    2    1    2    0    0 -0.29861686070E+01 -0.15110438380E+02 -0.34140942383E+02  0.91197603101E+02  0.83151405963E+02 0.  0.
        -11    1    5    5    0    0 -0.31597428123E+02 -0.12353781700E+00 -0.46832223342E+02  0.56494865861E+02  0.00000000000E+00 0.  1.
         12    1    5    5    0    0  0.28611259516E+02 -0.14986900563E+02  0.12691280959E+02  0.34702737240E+02  0.00000000000E+00 0. -1.
        -11    1    3    3    0    0 -0.59520166309E+01  0.19699355834E+02  0.15043493626E+02  0.25491132237E+02  0.00000000000E+00 0.  1.
         12    1    3    3    0    0  0.55120445926E+02  0.68776543116E+02  0.23791289080E+03  0.25371444589E+03  0.00000000000E+00 0. -1.
          5    1    4    4  502    0  0.62894916487E+02 -0.72753648757E+02  0.95012266741E+03  0.95498902458E+03  0.47000000000E+01 0.  1.
         -5    1    4    4    0  502 -0.44999482901E+02 -0.64035612077E+02  0.37172624170E+03  0.37990525377E+03  0.47000000000E+01 0.  1.
          1    1    1    2  503    0  0.16363497908E+02 -0.92079257143E+02  0.99715792255E+03  0.10015339616E+04  0.00000000000E+00 0. -1.
         -2    1    1    2    0  501 -0.80441192182E+02  0.15550305741E+03 -0.24674227809E+03  0.30254543140E+03  0.00000000000E+00 0.  1.
<mgrwt>
<rscale>  0 0.10481449E+03</rscale>
<asrwt>0</asrwt>
<pdfrwt beam="1">  1        2 0.38973947E+00 0.93627890E+02</pdfrwt>
<pdfrwt beam="2">  1       -1 0.52815947E-01 0.11733766E+03</pdfrwt>
<totfact> 0.19097143E+01</totfact>
</mgrwt>
</event>
<event>
13    1  0.1589573E-008  0.5329032E+02  0.7546771E-02  0.1436937E+00
          2   -1    0    0  503    0  0.00000000000E+00  0.00000000000E+00  0.28469025091E+04  0.28469025091E+04  0.00000000000E+00 0. -1.
          2   -1    0    0  502    0 -0.00000000000E+00 -0.00000000000E+00 -0.29232725426E+04  0.29232725426E+04  0.00000000000E+00 0. -1.
         24    2    1    2    0    0 -0.50235775658E+02 -0.35896751218E+02 -0.27639115896E+02  0.10548711656E+03  0.80940726017E+02 0.  0.
         25    2    1    2    0    0  0.25402738017E+03 -0.35538689546E+02  0.15247624097E+04  0.15512314474E+04  0.12500275687E+03 0.  0.
         24    2    1    2    0    0 -0.16432202433E+03 -0.17035209185E+02  0.22113156876E+02  0.18443238152E+03  0.78958125714E+02 0.  0.
        -11    1    5    5    0    0 -0.14401948719E+03 -0.26816904968E+02 -0.81249816038E+01  0.14672005455E+03  0.00000000000E+00 0.  1.
         12    1    5    5    0    0 -0.20302537136E+02  0.97816957825E+01  0.30238138480E+02  0.37712326967E+02  0.00000000000E+00 0. -1.
        -13    1    3    3    0    0 -0.72573838417E+02 -0.24529353086E+02 -0.23111097151E+02  0.80017335603E+02  0.00000000000E+00 0.  1.
         14    1    3    3    0    0  0.22338062759E+02 -0.11367398132E+02 -0.45280187451E+01  0.25469780955E+02  0.00000000000E+00 0. -1.
          5    1    4    4  501    0  0.14759948175E+03  0.41715570621E+02  0.85566310891E+03  0.86931423651E+03  0.47000000000E+01 0. -1.
         -5    1    4    4    0  501  0.10642789841E+03 -0.77254260167E+02  0.66909930076E+03  0.68191721092E+03  0.47000000000E+01 0. -1.
          1    1    1    2  502    0 -0.36735866256E+02  0.38596822814E+02 -0.27615235697E+04  0.27620375929E+04  0.00000000000E+00 0. -1.
          1    1    1    2  503    0 -0.27337139257E+01  0.49873827136E+02  0.11659170856E+04  0.11669865133E+04  0.00000000000E+00 0. -1.
<mgrwt>
<rscale>  0 0.51592458E+02</rscale>
<asrwt>0</asrwt>
<pdfrwt beam="1">  1        2 0.41866213E+00 0.49948692E+02</pdfrwt>
<pdfrwt beam="2">  1        2 0.42989302E+00 0.53290320E+02</pdfrwt>
<totfact> 0.21169343E+00</totfact>
</mgrwt>
</event>
<event>
13    1  0.1589573E-008  0.1175680E+03  0.7546771E-02  0.1369771E+00
          2   -1    0    0  502    0  0.00000000000E+00  0.00000000000E+00  0.42422200620E+03  0.42422200620E+03  0.00000000000E+00 0. -1.
          2   -1    0    0  503    0 -0.00000000000E+00 -0.00000000000E+00 -0.13753066741E+04  0.13753066741E+04  0.00000000000E+00 0. -1.
         24    2    1    2    0    0  0.23245910224E+02  0.69863769885E+02 -0.34599196030E+03  0.36255629252E+03  0.79468924569E+02 0.  0.
         25    2    1    2    0    0 -0.16220663760E+03  0.22241738201E+02  0.17373085312E+03  0.26946145039E+03  0.12498550203E+03 0.  0.
         24    2    1    2    0    0  0.19496044171E+02 -0.43681775078E+02 -0.12772637816E+03  0.15641042820E+03  0.76563706534E+02 0.  0.
        -11    1    5    5    0    0  0.31055028469E+02 -0.54037781709E+02 -0.12628067653E+03  0.14082366957E+03  0.00000000000E+00 0.  1.
         12    1    5    5    0    0 -0.11558984298E+02  0.10356006631E+02 -0.14457016303E+01  0.15586758629E+02  0.00000000000E+00 0. -1.
        -13    1    3    3    0    0  0.35468109413E+01  0.73459071782E+02 -0.16737204196E+03  0.18281743770E+03  0.00000000000E+00 0.  1.
         14    1    3    3    0    0  0.19699099283E+02 -0.35953018969E+01 -0.17861991834E+03  0.17973885483E+03  0.00000000000E+00 0. -1.
          5    1    4    4  501    0 -0.17655502985E+03  0.41577943789E+02  0.15305686980E+03  0.23737923112E+03  0.47000000000E+01 0.  1.
         -5    1    4    4    0  501  0.14348392247E+02 -0.19336205588E+02  0.20673983324E+02  0.32082219267E+02  0.47000000000E+01 0.  1.
          1    1    1    2  502    0 -0.12541640361E+02 -0.36342758635E+02  0.17258736722E+03  0.17681766928E+03  0.00000000000E+00 0. -1.
          1    1    1    2  503    0  0.13200632357E+03 -0.12080974373E+02 -0.82368454976E+03  0.83428283988E+03  0.00000000000E+00 0. -1.
<mgrwt>
<rscale>  0 0.67231008E+02</rscale>
<asrwt>0</asrwt>
<pdfrwt beam="1">  1        2 0.62385589E-01 0.38445921E+02</pdfrwt>
<pdfrwt beam="2">  1        2 0.20225098E+00 0.11756796E+03</pdfrwt>
<totfact> 0.22533042E+02</totfact>
</mgrwt>
</event>
<event>
13    1  0.1589573E-008  0.4610166E+02  0.7546771E-02  0.1536159E+00
          2   -1    0    0  502    0  0.00000000000E+00  0.00000000000E+00  0.99152417644E+03  0.99152417644E+03  0.00000000000E+00 0. -1.
          2   -1    0    0  503    0 -0.00000000000E+00 -0.00000000000E+00 -0.27209091616E+04  0.27209091616E+04  0.00000000000E+00 0. -1.
         24    2    1    2    0    0 -0.74573123751E+02  0.48226166268E+02 -0.22944314527E+04  0.22976456316E+04  0.82902612846E+02 0.  0.
         25    2    1    2    0    0 -0.20346908206E+03 -0.40880061093E+03  0.27117557692E+03  0.54559904604E+03  0.12499807467E+03 0.  0.
         24    2    1    2    0    0  0.29549699999E+03  0.32163415158E+03 -0.12180532040E+02  0.44426485097E+03  0.80348540575E+02 0.  0.
        -11    1    5    5    0    0  0.49019421949E+02  0.57203451334E+02  0.28390377791E+02  0.80505603059E+02  0.00000000000E+00 0.  1.
         12    1    5    5    0    0  0.24647757804E+03  0.26443070025E+03 -0.40570909831E+02  0.36375924791E+03  0.00000000000E+00 0. -1.
        -11    1    3    3    0    0  0.15777005636E+02 -0.94576883137E+00 -0.17256015356E+03  0.17328247165E+03  0.00000000000E+00 0.  1.
         12    1    3    3    0    0 -0.90350129388E+02  0.49171935099E+02 -0.21218712992E+04  0.21243631599E+04  0.00000000000E+00 0. -1.
          5    1    4    4  501    0 -0.19720784877E+02 -0.43239247531E+02 -0.10437510369E+02  0.48883264068E+02  0.47000000000E+01 0. -1.
         -5    1    4    4    0  501 -0.18374829718E+03 -0.36556136340E+03  0.28161308729E+03  0.49671578197E+03  0.47000000000E+01 0. -1.
          1    1    1    2  502    0 -0.40619585863E+02  0.21818290988E+02  0.36044042663E+03  0.36337761313E+03  0.00000000000E+00 0. -1.
          1    1    1    2  503    0  0.23164791679E+02  0.17122002094E+02 -0.54389003967E+02  0.61546196323E+02  0.00000000000E+00 0. -1.
<mgrwt>
<rscale>  0 0.36441629E+02</rscale>
<asrwt>0</asrwt>
<pdfrwt beam="1">  1        2 0.14581238E+00 0.46101660E+02</pdfrwt>
<pdfrwt beam="2">  1        2 0.40013370E+00 0.28805738E+02</pdfrwt>
<totfact> 0.23496016E+01</totfact>
</mgrwt>
</event>
<event>
13    1  0.1589573E-008  0.1804944E+03  0.7546771E-02  0.1278140E+00
          2   -1    0    0  502    0  0.00000000000E+00  0.00000000000E+00  0.30275476820E+04  0.30275476820E+04  0.00000000000E+00 0. -1.
          2   -1    0    0  503    0 -0.00000000000E+00 -0.00000000000E+00 -0.20007898395E+04  0.20007898395E+04  0.00000000000E+00 0. -1.
         24    2    1    2    0    0  0.55321415678E+02  0.75236471698E+02 -0.27650217013E+03  0.30302094715E+03  0.81530721913E+02 0.  0.
         25    2    1    2    0    0  0.46582786189E+03 -0.14766570018E+03  0.57680015839E+03  0.76624018954E+03  0.12499939773E+03 0.  0.
         24    2    1    2    0    0 -0.18265930318E+03  0.23724178665E+02  0.68562025309E+02  0.21265475924E+03  0.81203679872E+02 0.  0.
        -13    1    5    5    0    0 -0.13618469047E+03 -0.14686813768E+01  0.14369194971E+02  0.13694853306E+03  0.00000000000E+00 0.  1.
         14    1    5    5    0    0 -0.46474612711E+02  0.25192860042E+02  0.54192830337E+02  0.75706226189E+02  0.00000000000E+00 0. -1.
        -13    1    3    3    0    0  0.50957138425E+02  0.92245192219E+02 -0.24910573696E+03  0.27048007991E+03  0.00000000000E+00 0.  1.
         14    1    3    3    0    0  0.43642772526E+01 -0.17008720521E+02 -0.27396433172E+02  0.32540867232E+02  0.00000000000E+00 0. -1.
          5    1    4    4  501    0  0.43400566142E+03 -0.12873618462E+03  0.57063686212E+03  0.72841089900E+03  0.47000000000E+01 0. -1.
         -5    1    4    4    0  501  0.31822200469E+02 -0.18929515557E+02  0.61632962688E+01  0.37829290541E+02  0.47000000000E+01 0. -1.
          1    1    1    2  502    0 -0.54904258071E+02  0.13555940307E+02  0.21885720146E+04  0.21893025611E+04  0.00000000000E+00 0. -1.
          1    1    1    2  503    0 -0.28358571632E+03  0.35149109508E+02 -0.15306741856E+04  0.15571190645E+04  0.00000000000E+00 0. -1.
<mgrwt>
<rscale>  0 0.10103215E+03</rscale>
<asrwt>0</asrwt>
<pdfrwt beam="1">  1        2 0.44522760E+00 0.56552993E+02</pdfrwt>
<pdfrwt beam="2">  1        2 0.29423380E+00 0.18049435E+03</pdfrwt>
<totfact> 0.41215156E+00</totfact>
</mgrwt>
</event>
<event>
13    1  0.1589573E-008  0.1183635E+03  0.7546771E-02  0.1430742E+00
          2   -1    0    0  502    0  0.00000000000E+00  0.00000000000E+00  0.15513839340E+04  0.15513839340E+04  0.00000000000E+00 0. -1.
          2   -1    0    0  503    0 -0.00000000000E+00 -0.00000000000E+00 -0.78377189772E+03  0.78377189772E+03  0.00000000000E+00 0. -1.
         24    2    1    2    0    0 -0.30240576343E+02 -0.11613294633E+02 -0.26868234397E+03  0.28130741871E+03  0.76774349804E+02 0.  0.
         25    2    1    2    0    0  0.21836634163E+03  0.10085215999E+02  0.21179916098E+03  0.32904332600E+03  0.12500022023E+03 0.  0.
         24    2    1    2    0    0 -0.50240214923E+01  0.15949156811E+02 -0.94882714837E+02  0.12488077844E+03  0.79453526374E+02 0.  0.
        -11    1    5    5    0    0  0.36624517329E+02  0.25653058438E+01 -0.51713216665E+02  0.63420760335E+02  0.00000000000E+00 0.  1.
         12    1    5    5    0    0 -0.41648538821E+02  0.13383850967E+02 -0.43169498172E+02  0.61460018102E+02  0.00000000000E+00 0. -1.
        -13    1    3    3    0    0  0.62277024846E+01 -0.24572228875E+02 -0.28986208221E+02  0.38506869221E+02  0.00000000000E+00 0.  1.
         14    1    3    3    0    0 -0.36468278828E+02  0.12958934242E+02 -0.23969613575E+03  0.24280054948E+03  0.00000000000E+00 0. -1.
          5    1    4    4  501    0  0.12608677126E+03  0.28013250591E+02  0.19421897898E+03  0.23329320156E+03  0.47000000000E+01 0.  1.
         -5    1    4    4    0  501  0.92279570368E+02 -0.17928034592E+02  0.17580181992E+02  0.95750124441E+02  0.47000000000E+01 0.  1.
          1    1    1    2  502    0 -0.17858943403E+02 -0.15371632902E+02  0.12394706528E+04  0.12396946108E+04  0.00000000000E+00 0. -1.
          1    1    1    2  503    0 -0.16524280039E+03  0.95055472530E+00 -0.32009271865E+03  0.36022969779E+03  0.00000000000E+00 0. -1.
<mgrwt>
<rscale>  0 0.52811305E+02</rscale>
<asrwt>0</asrwt>
<pdfrwt beam="1">  1        2 0.22814470E+00 0.23563297E+02</pdfrwt>
<pdfrwt beam="2">  1        2 0.11526057E+00 0.11836349E+03</pdfrwt>
<totfact> 0.10573697E+02</totfact>
</mgrwt>
</event>
<event>
13    1  0.2767992E-008  0.8231911E+02  0.7546771E-02  0.1343626E+00
          2   -1    0    0  503    0  0.00000000000E+00  0.00000000000E+00  0.44158660484E+04  0.44158660484E+04  0.00000000000E+00 0. -1.
          2   -1    0    0  502    0 -0.00000000000E+00 -0.00000000000E+00 -0.27340780128E+04  0.27340780128E+04  0.00000000000E+00 0. -1.
         24    2    1    2    0    0  0.32143749907E+02 -0.19751815552E+03 -0.20189058910E+04  0.20307337466E+04  0.88611005331E+02 0.  0.
         25    2    1    2    0    0 -0.18067179436E+03  0.18529804129E+03  0.68693919580E+02  0.29550352485E+03  0.12500326886E+03 0.  0.
         24    2    1    2    0    0  0.47507365544E+02 -0.60257263409E+02 -0.43804769541E+02  0.11871819299E+03  0.79292269100E+02 0.  0.
        -13    1    5    5    0    0  0.17721609068E+02  0.12396726524E+01  0.18927358227E+02  0.25958372555E+02  0.00000000000E+00 0.  1.
         14    1    5    5    0    0  0.29785756476E+02 -0.61496936061E+02 -0.62732127768E+02  0.92759820440E+02  0.00000000000E+00 0. -1.
        -13    1    3    3    0    0  0.51976621257E+02 -0.96714680952E+02 -0.79886762070E+03  0.80637756298E+03  0.00000000000E+00 0.  1.
         14    1    3    3    0    0 -0.19832871350E+02 -0.10080347457E+03 -0.12200382703E+04  0.12243561836E+04  0.00000000000E+00 0. -1.
          5    1    4    4  501    0 -0.18559716984E+03  0.16769744848E+03  0.91061388316E+02  0.26623863379E+03  0.47000000000E+01 0.  1.
         -5    1    4    4    0  501  0.49253754832E+01  0.17600592813E+02 -0.22367468736E+02  0.29264891059E+02  0.47000000000E+01 0.  1.
          1    1    1    2  502    0  0.68405624839E+02 -0.31001720826E+01 -0.51190766812E+03  0.51646723154E+03  0.00000000000E+00 0. -1.
          1    1    1    2  503    0  0.32615054070E+02  0.75577549718E+02  0.41877124447E+04  0.41885213653E+04  0.00000000000E+00 0. -1.
<mgrwt>
<rscale>  0 0.75079092E+02</rscale>
<asrwt>0</asrwt>
<pdfrwt beam="1">  1        2 0.64939207E+00 0.82319108E+02</pdfrwt>
<pdfrwt beam="2">  1        2 0.40207030E+00 0.68475839E+02</pdfrwt>
<totfact> 0.25514315E-01</totfact>
</mgrwt>
</event>
<event>
13    1  0.1589573E-008  0.2786662E+03  0.7546771E-02  0.1260534E+00
         -1   -1    0    0    0  501 -0.00000000000E+00  0.00000000000E+00  0.89223367207E+03  0.89223367207E+03  0.00000000000E+00 0.  1.
          2   -1    0    0  503    0  0.00000000000E+00 -0.00000000000E+00 -0.37209893074E+04  0.37209893074E+04  0.00000000000E+00 0. -1.
         24    2    1    2    0    0  0.34784524746E+03  0.21277375730E+03 -0.43807951265E+03  0.60346646709E+03  0.77389466425E+02 0.  0.
         25    2    1    2    0    0 -0.91251293500E+02 -0.16418938016E+03 -0.18241340098E+03  0.29014915474E+03  0.12500772783E+03 0.  0.
         24    2    1    2    0    0  0.38150054461E+02 -0.17395957149E+03 -0.71796105835E+03  0.74414671128E+03  0.81048673254E+02 0.  0.
        -11    1    5    5    0    0 -0.22921619264E+02 -0.47790381844E+02 -0.25409718529E+03  0.25956637070E+03  0.00000000000E+00 0.  1.
         12    1    5    5    0    0  0.61071673725E+02 -0.12616918964E+03 -0.46386387306E+03  0.48458034058E+03  0.00000000000E+00 0. -1.
        -13    1    3    3    0    0  0.20627281933E+03  0.87164506850E+02 -0.26556577593E+03  0.34737776065E+03  0.00000000000E+00 0.  1.
         14    1    3    3    0    0  0.14157242813E+03  0.12560925045E+03 -0.17251373672E+03  0.25608870644E+03  0.00000000000E+00 0. -1.
          5    1    4    4  502    0 -0.48254997283E+02 -0.80595415333E+02 -0.11131918906E+02  0.94711009677E+02  0.47000000000E+01 0. -1.
         -5    1    4    4    0  502 -0.42996296217E+02 -0.83593964829E+02 -0.17128148208E+03  0.19543814507E+03  0.47000000000E+01 0. -1.
          1    1    1    2  503    0 -0.43420251174E+02 -0.11801082242E+01 -0.22060026462E+04  0.22064302359E+04  0.00000000000E+00 0. -1.
         -2    1    1    2    0  501 -0.25132375725E+03  0.12655530257E+03  0.71570098278E+03  0.76903041053E+03  0.00000000000E+00 0.  1.
<mgrwt>
<rscale>  0 0.11001920E+03</rscale>
<asrwt>0</asrwt>
<pdfrwt beam="2">  1        2 0.54720431E+00 0.43436285E+02</pdfrwt>
<pdfrwt beam="1">  1       -1 0.13121083E+00 0.27866621E+03</pdfrwt>
<totfact> 0.81282514E-01</totfact>
</mgrwt>
</event>
<event>
13    1  0.1589573E-008  0.1052970E+03  0.7546771E-02  0.1330215E+00
          2   -1    0    0  503    0  0.00000000000E+00  0.00000000000E+00  0.17118558771E+04  0.17118558771E+04  0.00000000000E+00 0. -1.
          2   -1    0    0  502    0 -0.00000000000E+00 -0.00000000000E+00 -0.24696408193E+04  0.24696408193E+04  0.00000000000E+00 0. -1.
         24    2    1    2    0    0 -0.25587410848E+02 -0.53986875955E+02 -0.33158548452E+03  0.34638261720E+03  0.80390830207E+02 0.  0.
         25    2    1    2    0    0  0.64216393762E+02 -0.53034001761E+02  0.20809715205E+03  0.25664423485E+03  0.12500195206E+03 0.  0.
         24    2    1    2    0    0 -0.13586628833E+02  0.55671344667E+02  0.21271508343E+02  0.10035417542E+03  0.79590127255E+02 0.  0.
        -11    1    3    3    0    0 -0.97002081441E+01 -0.66473086270E+02 -0.30838162841E+03  0.31561367838E+03  0.00000000000E+00 0.  1.
         12    1    3    3    0    0 -0.15887202704E+02  0.12486210315E+02 -0.23203856111E+02  0.30768938822E+02  0.00000000000E+00 0. -1.
        -11    1    5    5    0    0  0.66315266919E+01  0.63656608538E+02  0.36626165320E+02  0.73740198962E+02  0.00000000000E+00 0.  1.
         12    1    5    5    0    0 -0.20218155525E+02 -0.79852638706E+01 -0.15354656977E+02  0.26613976456E+02  0.00000000000E+00 0. -1.
          5    1    4    4  501    0  0.24521003612E+02  0.40608157406E+02  0.55018395234E+02  0.72797087031E+02  0.47000000000E+01 0.  1.
         -5    1    4    4    0  501  0.39695390151E+02 -0.93642159167E+02  0.15307875682E+03  0.18384714782E+03  0.47000000000E+01 0.  1.
          1    1    1    2  502    0 -0.26665882085E+02 -0.53928667841E+02 -0.20644392243E+04  0.20653156372E+04  0.00000000000E+00 0. -1.
          1    1    1    2  503    0  0.16235280038E+01  0.10527820089E+03  0.14088711062E+04  0.14128000317E+04  0.00000000000E+00 0. -1.
<mgrwt>
<rscale>  0 0.79591412E+02</rscale>
<asrwt>0</asrwt>
<pdfrwt beam="1">  1        2 0.25174351E+00 0.10529698E+03</pdfrwt>
<pdfrwt beam="2">  1        2 0.36318247E+00 0.60161204E+02</pdfrwt>
<totfact> 0.11318133E+01</totfact>
</mgrwt>
</event>
<event>
13    1  0.1589573E-008  0.8278405E+02  0.7546771E-02  0.1386064E+00
          2   -1    0    0  502    0  0.00000000000E+00  0.00000000000E+00  0.14183112518E+04  0.14183112518E+04  0.00000000000E+00 0. -1.
          2   -1    0    0  503    0 -0.00000000000E+00 -0.00000000000E+00 -0.14479002973E+04  0.14479002973E+04  0.00000000000E+00 0. -1.
         24    2    1    2    0    0 -0.10086422511E+03  0.15211139394E+03 -0.37978863289E+03  0.42895070056E+03  0.80298379593E+02 0.  0.
         25    2    1    2    0    0 -0.35797330117E+02 -0.12486937129E+03  0.39091713339E+03  0.43048036146E+03  0.12499331061E+03 0.  0.
         24    2    1    2    0    0  0.15067594012E+03  0.98940999271E+02 -0.21499493567E+03  0.29182518508E+03  0.80290447827E+02 0.  0.
        -13    1    5    5    0    0  0.61655345279E+02  0.28244599485E+02 -0.14022143762E+03  0.15576004164E+03  0.00000000000E+00 0.  1.
         14    1    5    5    0    0  0.89020594844E+02  0.70696399787E+02 -0.74773498049E+02  0.13606514344E+03  0.00000000000E+00 0. -1.
        -13    1    3    3    0    0 -0.89139143685E+02  0.70484854883E+02 -0.18074930330E+03  0.21350459561E+03  0.00000000000E+00 0.  1.
         14    1    3    3    0    0 -0.11725081423E+02  0.81626539053E+02 -0.19903932959E+03  0.21544610494E+03  0.00000000000E+00 0. -1.
          5    1    4    4  501    0  0.38927744773E+02 -0.17130306993E+02  0.53858802828E+02  0.68787189016E+02  0.47000000000E+01 0.  1.
         -5    1    4    4    0  501 -0.74725074890E+02 -0.10773906429E+03  0.33705833056E+03  0.36169317244E+03  0.47000000000E+01 0.  1.
          1    1    1    2  502    0  0.53534964755E+01 -0.82497695517E+02  0.94206328859E+03  0.94568375761E+03  0.00000000000E+00 0. -1.
          1    1    1    2  503    0 -0.19367881375E+02 -0.43685326404E+02 -0.76778589892E+03  0.76927154449E+03  0.00000000000E+00 0. -1.
<mgrwt>
<rscale>  0 0.62896238E+02</rscale>
<asrwt>0</asrwt>
<pdfrwt beam="1">  1        2 0.20857519E+00 0.82784052E+02</pdfrwt>
<pdfrwt beam="2">  1        2 0.21292651E+00 0.47786217E+02</pdfrwt>
<totfact> 0.49984459E+01</totfact>
</mgrwt>
</event>
<event>
13    1  0.1589573E-008  0.3734589E+02  0.7546771E-02  0.1568697E+00
          2   -1    0    0  503    0  0.00000000000E+00  0.00000000000E+00  0.11855013513E+04  0.11855013513E+04  0.00000000000E+00 0. -1.
          2   -1    0    0  502    0 -0.00000000000E+00 -0.00000000000E+00 -0.89689339532E+03  0.89689339532E+03  0.00000000000E+00 0. -1.
         24    2    1    2    0    0 -0.10137054350E+03 -0.68959142003E+02 -0.23655760092E+03  0.27833007795E+03  0.80478465320E+02 0.  0.
         25    2    1    2    0    0  0.49867614779E+03  0.12736194765E+03  0.73973775742E+03  0.90979838344E+03  0.12498873019E+03 0.  0.
         24    2    1    2    0    0 -0.34267127774E+03 -0.31969776076E+02 -0.35084044005E+03  0.49790848245E+03  0.79863454416E+02 0.  0.
        -13    1    3    3    0    0 -0.10157336001E+03 -0.83630209130E+02 -0.21858934763E+03  0.25513224461E+03  0.00000000000E+00 0.  1.
         14    1    3    3    0    0  0.20281650351E+00  0.14671067127E+02 -0.17968253290E+02  0.23197833336E+02  0.00000000000E+00 0. -1.
        -13    1    5    5    0    0 -0.24417544429E+03  0.13692891971E+02 -0.23558679116E+03  0.33957367249E+03  0.00000000000E+00 0.  1.
         14    1    5    5    0    0 -0.98495833451E+02 -0.45662668047E+02 -0.11525364889E+03  0.15833480996E+03  0.00000000000E+00 0. -1.
          5    1    4    4  501    0  0.39640765865E+03  0.13011525562E+03  0.65628241829E+03  0.77768741416E+03  0.47000000000E+01 0. -1.
         -5    1    4    4    0  501  0.10226848914E+03 -0.27533079682E+01  0.83455339125E+02  0.13211096928E+03  0.47000000000E+01 0. -1.
          1    1    1    2  502    0 -0.17482300417E+02 -0.22976992832E+02 -0.12711100992E+03  0.13034869340E+03  0.00000000000E+00 0. -1.
          1    1    1    2  503    0 -0.37152026128E+02 -0.34560367366E+01  0.26337924948E+03  0.26600910942E+03  0.00000000000E+00 0. -1.
<mgrwt>
<rscale>  0 0.32836533E+02</rscale>
<asrwt>0</asrwt>
<pdfrwt beam="1">  1        2 0.17433843E+00 0.37345885E+02</pdfrwt>
<pdfrwt beam="2">  1        2 0.13189609E+00 0.28871665E+02</pdfrwt>
<totfact> 0.13672037E+02</totfact>
</mgrwt>
</event>
<event>
13    1  0.1589573E-008  0.1861728E+03  0.7546771E-02  0.1256460E+00
          2   -1    0    0  502    0  0.00000000000E+00  0.00000000000E+00  0.19827338952E+04  0.19827338952E+04  0.00000000000E+00 0. -1.
          2   -1    0    0  503    0 -0.00000000000E+00 -0.00000000000E+00 -0.40650469964E+04  0.40650469964E+04  0.00000000000E+00 0. -1.
         24    2    1    2    0    0  0.12749357675E+03  0.12002572841E+03 -0.73914282386E+03  0.76363624017E+03  0.78405393009E+02 0.  0.
         25    2    1    2    0    0 -0.34201537142E+03 -0.20913879684E+03  0.10487417118E+03  0.43281962306E+03  0.12498273358E+03 0.  0.
         24    2    1    2    0    0  0.54963968871E+02  0.12873404268E+02 -0.59662683886E+02  0.11421749319E+03  0.79367735833E+02 0.  0.
        -11    1    3    3    0    0  0.23316560291E+02  0.73315072003E+02 -0.33124025429E+03  0.34005715377E+03  0.00000000000E+00 0.  1.
         12    1    3    3    0    0  0.10417701646E+03  0.46710656409E+02 -0.40790256957E+03  0.42357908640E+03  0.00000000000E+00 0. -1.
        -13    1    5    5    0    0  0.38548737000E+02  0.22351161172E+02 -0.76717395824E+02  0.88719436157E+02  0.00000000000E+00 0.  1.
         14    1    5    5    0    0  0.16415231872E+02 -0.94777569042E+01  0.17054711938E+02  0.25498057036E+02  0.00000000000E+00 0. -1.
          5    1    4    4  501    0 -0.25313618073E+03 -0.13561391600E+03  0.12904592562E+03  0.31487140411E+03  0.47000000000E+01 0.  1.
         -5    1    4    4    0  501 -0.88879190685E+02 -0.73524880846E+02 -0.24171754440E+02  0.11794821895E+03  0.47000000000E+01 0.  1.
          1    1    1    2  502    0  0.18547189530E+03  0.13718973786E+02  0.16688228624E+04  0.16791538882E+04  0.00000000000E+00 0. -1.
          1    1    1    2  503    0 -0.25914069498E+02  0.62520690377E+02 -0.30572046270E+04  0.30579536470E+04  0.00000000000E+00 0. -1.
<mgrwt>
<rscale>  0 0.11224924E+03</rscale>
<asrwt>0</asrwt>
<pdfrwt beam="1">  1        2 0.29157852E+00 0.18617281E+03</pdfrwt>
<pdfrwt beam="2">  1        2 0.59780102E+00 0.67678473E+02</pdfrwt>
<totfact> 0.99289472E-01</totfact>
</mgrwt>
</event>
<event>
13    1  0.1589573E-008  0.2413047E+03  0.7546771E-02  0.1275037E+00
          2   -1    0    0  503    0  0.00000000000E+00  0.00000000000E+00  0.48512325294E+03  0.48512325294E+03  0.00000000000E+00 0. -1.
          2   -1    0    0  502    0 -0.00000000000E+00 -0.00000000000E+00 -0.13404805600E+04  0.13404805600E+04  0.00000000000E+00 0. -1.
         24    2    1    2    0    0 -0.62213652912E+01 -0.89696096831E+02 -0.48970821037E+02  0.13238785343E+03  0.83930371433E+02 0.  0.
         25    2    1    2    0    0 -0.10528166867E+03 -0.13144123647E+03  0.14031155007E+03  0.25233715335E+03  0.12500271788E+03 0.  0.
         24    2    1    2    0    0 -0.32570838706E+02 -0.23772816427E+02  0.19828725968E+02  0.95928187886E+02  0.84752772950E+02 0.  0.
        -11    1    3    3    0    0  0.19556548680E+02 -0.90935136500E+02 -0.51732811926E+02  0.10643280263E+03  0.00000000000E+00 0.  1.
         12    1    3    3    0    0 -0.25777913971E+02  0.12390396686E+01  0.27619908884E+01  0.25955050793E+02  0.00000000000E+00 0. -1.
        -13    1    5    5    0    0 -0.51482270295E+02 -0.39902198832E+02  0.26299117736E+02  0.70244239764E+02  0.00000000000E+00 0.  1.
         14    1    5    5    0    0  0.18911431589E+02  0.16129382405E+02 -0.64703917683E+01  0.25683948122E+02  0.00000000000E+00 0. -1.
          5    1    4    4  501    0 -0.22708708791E+01  0.23202294117E+02  0.18127458204E+02  0.29903144446E+02  0.47000000000E+01 0.  1.
         -5    1    4    4    0  501 -0.10301079779E+03 -0.15464353058E+03  0.12218409186E+03  0.22243400890E+03  0.47000000000E+01 0.  1.
          1    1    1    2  502    0  0.10697947321E+03  0.22204365463E+03 -0.11398708096E+04  0.11662132973E+04  0.00000000000E+00 0. -1.
          1    1    1    2  503    0  0.37094399461E+02  0.22866495099E+02  0.17334404756E+03  0.17873732094E+03  0.00000000000E+00 0. -1.
<mgrwt>
<rscale>  0 0.10254318E+03</rscale>
<asrwt>0</asrwt>
<pdfrwt beam="1">  1        2 0.71341657E-01 0.43576038E+02</pdfrwt>
<pdfrwt beam="2">  1        2 0.19712949E+00 0.24130471E+03</pdfrwt>
<totfact> 0.19516593E+02</totfact>
</mgrwt>
</event>
<event>
13    1  0.1589573E-008  0.1247348E+03  0.7546771E-02  0.1309937E+00
         -1   -1    0    0    0  501 -0.00000000000E+00  0.00000000000E+00  0.48529792443E+02  0.48529792443E+02  0.00000000000E+00 0.  1.
          2   -1    0    0  503    0  0.00000000000E+00 -0.00000000000E+00 -0.35559610326E+04  0.35559610326E+04  0.00000000000E+00 0. -1.
         24    2    1    2    0    0 -0.24844705558E+02 -0.90704426461E+01 -0.38386871046E+03  0.39323296288E+03  0.81101442059E+02 0.  0.
         25    2    1    2    0    0  0.13723808585E+03 -0.13255138807E+03 -0.10133873557E+04  0.10387413202E+04  0.12500173926E+03 0.  0.
         24    2    1    2    0    0 -0.12082048694E+01 -0.44141172506E+02 -0.11110017889E+04  0.11149996488E+04  0.83362696424E+02 0.  0.
        -13    1    5    5    0    0  0.17922203464E+02  0.10202655384E+02 -0.66142098323E+03  0.66174240956E+03  0.00000000000E+00 0.  1.
         14    1    5    5    0    0 -0.19130408333E+02 -0.54343827890E+02 -0.44958080565E+03  0.45325723928E+03  0.00000000000E+00 0. -1.
        -13    1    3    3    0    0  0.29409965727E+02 -0.56584978659E+00 -0.16346188224E+03  0.16608748663E+03  0.00000000000E+00 0.  1.
         14    1    3    3    0    0 -0.54254671285E+02 -0.85045928595E+01 -0.22040682822E+03  0.22714547625E+03  0.00000000000E+00 0. -1.
          5    1    4    4  502    0  0.62182162619E+02  0.39301040711E+01 -0.44556456289E+03  0.44992436784E+03  0.47000000000E+01 0. -1.
         -5    1    4    4    0  502  0.75055923230E+02 -0.13648149214E+03 -0.56782279283E+03  0.58881695234E+03  0.47000000000E+01 0. -1.
          1    1    1    2  503    0 -0.10745145531E+03  0.12500578987E+03 -0.97989801641E+03  0.99366613372E+03  0.00000000000E+00 0. -1.
         -2    1    1    2    0  501 -0.37337201090E+01  0.60757213353E+02 -0.19275368689E+02  0.63850759419E+02  0.00000000000E+00 0.  1.
<mgrwt>
<rscale>  0 0.87136868E+02</rscale>
<asrwt>0</asrwt>
<pdfrwt beam="2">  1        2 0.52293552E+00 0.12473477E+03</pdfrwt>
<pdfrwt beam="1">  1       -1 0.71367331E-02 0.60871830E+02</pdfrwt>
<totfact> 0.14075103E+02</totfact>
</mgrwt>
</event>
<event>
13    1  0.1589573E-008  0.1012708E+03  0.7546771E-02  0.1380674E+00
          2   -1    0    0  502    0  0.00000000000E+00  0.00000000000E+00  0.20436624069E+04  0.20436624069E+04  0.00000000000E+00 0. -1.
          2   -1    0    0  503    0 -0.00000000000E+00 -0.00000000000E+00 -0.20671684352E+04  0.20671684352E+04  0.00000000000E+00 0. -1.
         24    2    1    2    0    0 -0.72139031610E+02  0.22969903276E+02  0.90458526524E+01  0.10340323520E+03  0.69848015445E+02 0.  0.
         25    2    1    2    0    0  0.46468103160E+02 -0.29395986265E+02  0.79175265245E+03  0.80344292034E+03  0.12499941985E+03 0.  0.
         24    2    1    2    0    0  0.78110632908E+02 -0.62481442966E+02  0.11954691998E+03  0.17527385664E+03  0.80151463216E+02 0.  0.
        -11    1    3    3    0    0 -0.11228142212E+00  0.19496615662E+01  0.26333695731E+02  0.26406009131E+02  0.00000000000E+00 0.  1.
         12    1    3    3    0    0 -0.72026750188E+02  0.21020241710E+02 -0.17287843079E+02  0.76997226070E+02  0.00000000000E+00 0. -1.
        -13    1    5    5    0    0  0.21924707695E+02  0.32752933083E+01  0.74552907501E+02  0.77778894121E+02  0.00000000000E+00 0.  1.
         14    1    5    5    0    0  0.56185925213E+02 -0.65756736274E+02  0.44994012483E+02  0.97494962520E+02  0.00000000000E+00 0. -1.
          5    1    4    4  501    0 -0.44532709879E+01 -0.59195141709E+02  0.59522499945E+03  0.59819627748E+03  0.47000000000E+01 0.  1.
         -5    1    4    4    0  501  0.50921374148E+02  0.29799155445E+02  0.19652765301E+03  0.20524664286E+03  0.47000000000E+01 0.  1.
          1    1    1    2  502    0 -0.24748049175E+02  0.98884124026E+02  0.10397274039E+04  0.10447122141E+04  0.00000000000E+00 0. -1.
          1    1    1    2  503    0 -0.27691655283E+02 -0.29976598071E+02 -0.19835788573E+04  0.19839986158E+04  0.00000000000E+00 0. -1.
<mgrwt>
<rscale>  0 0.64287037E+02</rscale>
<asrwt>0</asrwt>
<pdfrwt beam="1">  1        2 0.30053859E+00 0.10127083E+03</pdfrwt>
<pdfrwt beam="2">  1        2 0.30399536E+00 0.40809609E+02</pdfrwt>
<totfact> 0.12781335E+01</totfact>
</mgrwt>
</event>
<event>
13    1  0.1589573E-008  0.1014253E+03  0.7546771E-02  0.1363533E+00
          2   -1    0    0  502    0  0.00000000000E+00  0.00000000000E+00  0.33906099792E+04  0.33906099792E+04  0.00000000000E+00 0. -1.
          2   -1    0    0  503    0 -0.00000000000E+00 -0.00000000000E+00 -0.18790805538E+04  0.18790805538E+04  0.00000000000E+00 0. -1.
         24    2    1    2    0    0  0.34653461560E+02 -0.19884894402E+02 -0.22360707095E+03  0.24089563221E+03  0.80214163415E+02 0.  0.
         25    2    1    2    0    0 -0.28376752227E+02 -0.18626908715E+01  0.15022400562E+04  0.15077000857E+04  0.12500261006E+03 0.  0.
         24    2    1    2    0    0 -0.30024556425E+02 -0.60645000389E+02 -0.13624616108E+03  0.17045668765E+03  0.76897177408E+02 0.  0.
        -11    1    3    3    0    0 -0.63708782276E+01  0.26691722799E+02 -0.74017126422E+02  0.78940301236E+02  0.00000000000E+00 0.  1.
         12    1    3    3    0    0  0.41024339788E+02 -0.46576617202E+02 -0.14958994453E+03  0.16195533097E+03  0.00000000000E+00 0. -1.
        -13    1    5    5    0    0 -0.49812276408E+02 -0.16691516813E+02 -0.55525462515E+02  0.76439169291E+02  0.00000000000E+00 0.  1.
         14    1    5    5    0    0  0.19787719983E+02 -0.43953483576E+02 -0.80720698570E+02  0.94017518358E+02  0.00000000000E+00 0. -1.
          5    1    4    4  501    0 -0.63376016295E+02 -0.28216641249E+02  0.54092243779E+03  0.54537314931E+03  0.47000000000E+01 0.  1.
         -5    1    4    4    0  501  0.34999264068E+02  0.26353950377E+02  0.96131761837E+03  0.96232693643E+03  0.47000000000E+01 0.  1.
          1    1    1    2  502    0 -0.46125088236E+02  0.87006470325E+01  0.18578641391E+04  0.18584569902E+04  0.00000000000E+00 0. -1.
          1    1    1    2  503    0  0.69872935328E+02  0.73691938631E+02 -0.14887215379E+04  0.14921811372E+04  0.00000000000E+00 0. -1.
<mgrwt>
<rscale>  0 0.68998212E+02</rscale>
<asrwt>0</asrwt>
<pdfrwt beam="1">  1        2 0.49861912E+00 0.46938524E+02</pdfrwt>
<pdfrwt beam="2">  1        2 0.27633538E+00 0.10142529E+03</pdfrwt>
<totfact> 0.32950359E+00</totfact>
</mgrwt>
</event>
<event>
13    1  0.1589573E-008  0.7795836E+02  0.7546771E-02  0.1425468E+00
          2   -1    0    0  502    0  0.00000000000E+00  0.00000000000E+00  0.21355851058E+04  0.21355851058E+04  0.00000000000E+00 0. -1.
          2   -1    0    0  503    0 -0.00000000000E+00 -0.00000000000E+00 -0.93578962697E+03  0.93578962697E+03  0.00000000000E+00 0. -1.
         24    2    1    2    0    0 -0.95614412493E+02 -0.17893895352E+03  0.14560502305E+02  0.22115253685E+03  0.86805364826E+02 0.  0.
         25    2    1    2    0    0  0.80505260372E+02  0.25952132310E+03  0.45339462162E+02  0.30251108602E+03  0.12499950498E+03 0.  0.
         24    2    1    2    0    0  0.12739081359E+02  0.19627917241E+02 -0.41325155201E+03  0.42141180578E+03  0.79142437945E+02 0.  0.
        -13    1    5    5    0    0 -0.27899267861E+02  0.24116303338E+02 -0.26765508987E+03  0.27018366413E+03  0.00000000000E+00 0.  1.
         14    1    5    5    0    0  0.40638349220E+02 -0.44883860970E+01 -0.14559646214E+03  0.15122814165E+03  0.00000000000E+00 0. -1.
        -13    1    3    3    0    0 -0.20501296724E+02 -0.12863486866E+03  0.74336234824E+01  0.13047027002E+03  0.00000000000E+00 0.  1.
         14    1    3    3    0    0 -0.75113115769E+02 -0.50304084866E+02  0.71268788227E+01  0.90682266825E+02  0.00000000000E+00 0. -1.
          5    1    4    4  501    0  0.48093665164E+02  0.10066820104E+03 -0.40770989772E+02  0.11887577943E+03  0.47000000000E+01 0. -1.
         -5    1    4    4    0  501  0.32411595208E+02  0.15885312206E+03  0.86110451934E+02  0.18363530658E+03  0.47000000000E+01 0. -1.
          1    1    1    2  502    0 -0.24175440421E+02 -0.74092947382E+02  0.18376839353E+04  0.18393358755E+04  0.00000000000E+00 0. -1.
          1    1    1    2  503    0  0.26545511183E+02 -0.26117339432E+02 -0.28453686894E+03  0.28696342862E+03  0.00000000000E+00 0. -1.
<mgrwt>
<rscale>  0 0.53880697E+02</rscale>
<asrwt>0</asrwt>
<pdfrwt beam="1">  1        2 0.31405663E+00 0.77958360E+02</pdfrwt>
<pdfrwt beam="2">  1        2 0.13761612E+00 0.37239490E+02</pdfrwt>
<totfact> 0.42253851E+01</totfact>
</mgrwt>
</event>
<event>
13    1  0.1589573E-008  0.1046213E+03  0.7546771E-02  0.1311470E+00
         -1   -1    0    0    0  501 -0.00000000000E+00  0.00000000000E+00  0.17878142823E+03  0.17878142823E+03  0.00000000000E+00 0.  1.
          2   -1    0    0  503    0  0.00000000000E+00 -0.00000000000E+00 -0.14009844875E+04  0.14009844875E+04  0.00000000000E+00 0. -1.
         24    2    1    2    0    0 -0.24987573506E+02 -0.42517907768E+01 -0.29041260695E+02  0.88879493472E+02  0.80085660281E+02 0.  0.
         25    2    1    2    0    0  0.46058883288E+02 -0.13577252024E+03 -0.11454165907E+03  0.22203696013E+03  0.12500008808E+03 0.  0.
         24    2    1    2    0    0 -0.29102878403E+02 -0.23537288709E+02 -0.48455088353E+03  0.49229757167E+03  0.78526166678E+02 0.  0.
        -13    1    3    3    0    0  0.27370406499E+02  0.10929898253E+02 -0.10976664646E+02  0.31449785285E+02  0.00000000000E+00 0.  1.
         14    1    3    3    0    0 -0.52357980005E+02 -0.15181689030E+02 -0.18064596049E+02  0.57429708187E+02  0.00000000000E+00 0. -1.
        -13    1    5    5    0    0 -0.48912165435E+02 -0.37463841225E+02 -0.30879123720E+03  0.31487770245E+03  0.00000000000E+00 0.  1.
         14    1    5    5    0    0  0.19809287032E+02  0.13926552516E+02 -0.17575964632E+03  0.17741986922E+03  0.00000000000E+00 0. -1.
          5    1    4    4  502    0  0.51751702020E+02 -0.36272932303E+02  0.81542115921E+01  0.63894799840E+02  0.47000000000E+01 0. -1.
         -5    1    4    4    0  502 -0.56928187321E+01 -0.99499587933E+02 -0.12269587067E+03  0.15814216029E+03  0.47000000000E+01 0. -1.
          1    1    1    2  503    0  0.26038899373E+02  0.66668324241E+02 -0.65617235071E+03  0.66006427230E+03  0.00000000000E+00 0. -1.
         -2    1    1    2    0  501 -0.18007330752E+02  0.96893275480E+02  0.62103094765E+02  0.11648761811E+03  0.00000000000E+00 0.  1.
<mgrwt>
<rscale>  0 0.86533579E+02</rscale>
<asrwt>0</asrwt>
<pdfrwt beam="2">  1        2 0.20602714E+00 0.71572968E+02</pdfrwt>
<pdfrwt beam="1">  1       -1 0.26291386E-01 0.10462135E+03</pdfrwt>
<totfact> 0.26435741E+02</totfact>
</mgrwt>
</event>
<event>
13    1  0.1589573E-008  0.1321947E+03  0.7546771E-02  0.1227748E+00
          2   -1    0    0  502    0  0.00000000000E+00  0.00000000000E+00  0.23885494738E+04  0.23885494738E+04  0.00000000000E+00 0. -1.
          2   -1    0    0  503    0 -0.00000000000E+00 -0.00000000000E+00 -0.18519531462E+04  0.18519531462E+04  0.00000000000E+00 0. -1.
         24    2    1    2    0    0  0.67011799014E+02  0.34154462189E+02 -0.72735647210E+03  0.73553829897E+03  0.79448368449E+02 0.  0.
         25    2    1    2    0    0 -0.20216350174E+01 -0.18148507225E+03  0.20758031316E+03  0.30273513625E+03  0.12497222831E+03 0.  0.
         24    2    1    2    0    0 -0.71779419027E+02  0.34249084314E+01 -0.22370637759E+03  0.24798403463E+03  0.79293903080E+02 0.  0.
        -11    1    5    5    0    0 -0.42663692484E+02 -0.36626648126E+02 -0.13777021344E+03  0.14880300306E+03  0.00000000000E+00 0.  1.
         12    1    5    5    0    0 -0.29115726543E+02  0.40051556558E+02 -0.85936164151E+02  0.99181031573E+02  0.00000000000E+00 0. -1.
        -13    1    3    3    0    0 -0.53288752140E+01  0.36632904145E+02 -0.24399763454E+03  0.24678981389E+03  0.00000000000E+00 0.  1.
         14    1    3    3    0    0  0.72340674228E+02 -0.24784419561E+01 -0.48335883756E+03  0.48874848508E+03  0.00000000000E+00 0. -1.
          5    1    4    4  501    0  0.28896577934E+02 -0.16005591509E+03  0.10569930461E+03  0.19402922762E+03  0.47000000000E+01 0.  1.
         -5    1    4    4    0  501 -0.30918212951E+02 -0.21429157152E+02  0.10188100855E+03  0.10870590863E+03  0.47000000000E+01 0.  1.
          1    1    1    2  502    0  0.11485000008E+03  0.19151070822E+03  0.21070680796E+04  0.21188682748E+04  0.00000000000E+00 0. -1.
          1    1    1    2  503    0 -0.10806074505E+03 -0.47605006590E+02 -0.82698921550E+03  0.83537687532E+03  0.00000000000E+00 0. -1.
<mgrwt>
<rscale>  0 0.12980324E+03</rscale>
<asrwt>0</asrwt>
<pdfrwt beam="1">  1        2 0.35125728E+00 0.13219468E+03</pdfrwt>
<pdfrwt beam="2">  1        2 0.27234605E+00 0.12745506E+03</pdfrwt>
<totfact> 0.94247467E+00</totfact>
</mgrwt>
</event>
<event>
13    1  0.1589573E-008  0.1400467E+03  0.7546771E-02  0.1252972E+00
          2   -1    0    0  503    0  0.00000000000E+00  0.00000000000E+00  0.25677522885E+04  0.25677522885E+04  0.00000000000E+00 0. -1.
          2   -1    0    0  502    0 -0.00000000000E+00 -0.00000000000E+00 -0.84457479032E+03  0.84457479032E+03  0.00000000000E+00 0. -1.
         24    2    1    2    0    0  0.18565848620E+03  0.65640390407E+02 -0.26668964890E+03  0.34321634760E+03  0.88861454387E+02 0.  0.
         25    2    1    2    0    0 -0.22730958387E+03  0.44883765337E+01 -0.44397522268E+02  0.26322090652E+03  0.12499725279E+03 0.  0.
         24    2    1    2    0    0 -0.87638571890E+02 -0.89537703527E+02  0.77428337163E+03  0.78798468289E+03  0.75548668152E+02 0.  0.
        -11    1    3    3    0    0  0.23477613186E+02  0.18586063567E+02 -0.30070568312E+01  0.30094558821E+02  0.00000000000E+00 0.  1.
         12    1    3    3    0    0  0.16218087302E+03  0.47054326840E+02 -0.26368259206E+03  0.31312178877E+03  0.00000000000E+00 0. -1.
        -11    1    5    5    0    0 -0.19378195852E+02 -0.73729256477E+02  0.40656886062E+03  0.41365415043E+03  0.00000000000E+00 0.  1.
         12    1    5    5    0    0 -0.68260376038E+02 -0.15808447050E+02  0.36771451100E+03  0.37433053247E+03  0.00000000000E+00 0. -1.
          5    1    4    4  501    0 -0.11625289851E+03  0.14227014566E+02 -0.84666722133E+02  0.14459491067E+03  0.47000000000E+01 0.  1.
         -5    1    4    4    0  501 -0.11105668536E+03 -0.97386380319E+01  0.40269199865E+02  0.11862599585E+03  0.47000000000E+01 0.  1.
          1    1    1    2  502    0  0.36388941877E+02 -0.85732054197E+02 -0.37018042424E+03  0.38171676240E+03  0.00000000000E+00 0. -1.
          1    1    1    2  503    0  0.92900727679E+02  0.10514099078E+03  0.16301617220E+04  0.16361883794E+04  0.00000000000E+00 0. -1.
<mgrwt>
<rscale>  0 0.11420710E+03</rscale>
<asrwt>0</asrwt>
<pdfrwt beam="1">  1        2 0.37761063E+00 0.14004672E+03</pdfrwt>
<pdfrwt beam="2">  1        2 0.12420218E+00 0.93135064E+02</pdfrwt>
<totfact> 0.26330338E+01</totfact>
</mgrwt>
</event>
<event>
13    1  0.1589573E-008  0.1078948E+03  0.7546771E-02  0.1368602E+00
          2   -1    0    0  502    0  0.00000000000E+00  0.00000000000E+00  0.11499866230E+04  0.11499866230E+04  0.00000000000E+00 0. -1.
          2   -1    0    0  503    0 -0.00000000000E+00 -0.00000000000E+00 -0.69991268326E+03  0.69991268326E+03  0.00000000000E+00 0. -1.
         24    2    1    2    0    0  0.79601320138E+02  0.30479153402E+02 -0.16116218058E+02  0.11461737366E+03  0.74913689670E+02 0.  0.
         25    2    1    2    0    0  0.26761856174E+01  0.30496538482E+02 -0.21292240731E+03  0.24879723003E+03  0.12500763700E+03 0.  0.
         24    2    1    2    0    0 -0.10199344298E+02 -0.71590093388E+02  0.25909963090E+03  0.28058799313E+03  0.79798715907E+02 0.  0.
        -11    1    3    3    0    0  0.29119703980E+02  0.46395176602E+02  0.98581000702E+01  0.55656551355E+02  0.00000000000E+00 0.  1.
         12    1    3    3    0    0  0.50481616158E+02 -0.15916023200E+02 -0.25974318128E+02  0.58960822303E+02  0.00000000000E+00 0. -1.
        -11    1    5    5    0    0 -0.21294164122E+02 -0.84739338272E+02  0.23691965848E+03  0.25251756662E+03  0.00000000000E+00 0.  1.
         12    1    5    5    0    0  0.11094819823E+02  0.13149244884E+02  0.22179972415E+02  0.28070426507E+02  0.00000000000E+00 0. -1.
          5    1    4    4  501    0 -0.35543531456E+02  0.46341550187E+02 -0.40028164690E+02  0.70959325465E+02  0.47000000000E+01 0.  1.
         -5    1    4    4    0  501  0.38219717073E+02 -0.15845011705E+02 -0.17289424262E+03  0.17783790456E+03  0.47000000000E+01 0.  1.
          1    1    1    2  502    0  0.28121426296E+02 -0.31599133639E+02  0.80486734783E+03  0.80597814329E+03  0.00000000000E+00 0. -1.
          1    1    1    2  503    0 -0.10019958775E+03  0.42213535143E+02 -0.38485441358E+03  0.39991856620E+03  0.00000000000E+00 0. -1.
<mgrwt>
<rscale>  0 0.67557293E+02</rscale>
<asrwt>0</asrwt>
<pdfrwt beam="1">  1        2 0.16911568E+00 0.42300353E+02</pdfrwt>
<pdfrwt beam="2">  1        2 0.10292834E+00 0.10789479E+03</pdfrwt>
<totfact> 0.18053681E+02</totfact>
</mgrwt>
</event>
<event>
13    1  0.1589573E-008  0.9661635E+02  0.7546771E-02  0.1349536E+00
          2   -1    0    0  503    0  0.00000000000E+00  0.00000000000E+00  0.64566525059E+03  0.64566525059E+03  0.00000000000E+00 0. -1.
          2   -1    0    0  502    0 -0.00000000000E+00 -0.00000000000E+00 -0.96607788467E+03  0.96607788467E+03  0.00000000000E+00 0. -1.
         24    2    1    2    0    0  0.28084600901E+02 -0.12983963349E+03 -0.20741191569E+03  0.26619507779E+03  0.10096059347E+03 0.  0.
         25    2    1    2    0    0  0.10766180419E+03 -0.65942371292E+02 -0.40091332274E+03  0.43851670897E+03  0.12500380506E+03 0.  0.
         24    2    1    2    0    0 -0.11126294020E+03  0.12357777557E+03  0.34936283890E+03  0.39419793612E+03  0.75410285483E+02 0.  0.
        -13    1    3    3    0    0  0.65184644670E+02 -0.81196095853E+02 -0.11264678937E+03  0.15339864093E+03  0.00000000000E+00 0.  1.
         14    1    3    3    0    0 -0.37100043769E+02 -0.48643537639E+02 -0.94765126322E+02  0.11279643686E+03  0.00000000000E+00 0. -1.
        -13    1    5    5    0    0 -0.43087267058E+02  0.78822945249E+01  0.52490863999E+02  0.68366175502E+02  0.00000000000E+00 0.  1.
         14    1    5    5    0    0 -0.68175673143E+02  0.11569548104E+03  0.29687197490E+03  0.32583176061E+03  0.00000000000E+00 0. -1.
          5    1    4    4  501    0  0.49642873133E+01 -0.56803322326E+02 -0.24460965062E+03  0.25121152990E+03  0.47000000000E+01 0.  1.
         -5    1    4    4    0  501  0.10269751688E+03 -0.91390489663E+01 -0.15630367212E+03  0.18730517907E+03  0.47000000000E+01 0.  1.
          1    1    1    2  502    0 -0.78096678552E+02  0.58012968890E+02 -0.27526084816E+03  0.29194713612E+03  0.00000000000E+00 0. -1.
          1    1    1    2  503    0  0.53613213658E+02  0.14191260329E+02  0.21381061361E+03  0.22088627626E+03  0.00000000000E+00 0. -1.
<mgrwt>
<rscale>  0 0.73200446E+02</rscale>
<asrwt>0</asrwt>
<pdfrwt beam="1">  1        2 0.94950772E-01 0.55459612E+02</pdfrwt>
<pdfrwt beam="2">  1        2 0.14207028E+00 0.96616349E+02</pdfrwt>
<totfact> 0.24285391E+02</totfact>
</mgrwt>
</event>
<event>
13    1  0.1589573E-008  0.1514944E+03  0.7546771E-02  0.1231362E+00
          2   -1    0    0  503    0  0.00000000000E+00  0.00000000000E+00  0.33365640523E+04  0.33365640523E+04  0.00000000000E+00 0. -1.
          2   -1    0    0  502    0 -0.00000000000E+00 -0.00000000000E+00 -0.47026419974E+04  0.47026419974E+04  0.00000000000E+00 0. -1.
         24    2    1    2    0    0 -0.19839621261E+02  0.14989860715E+02 -0.18929770873E+03  0.20713889625E+03  0.80340483653E+02 0.  0.
         25    2    1    2    0    0 -0.22465896727E+03 -0.18270736634E+03 -0.47205862192E+03  0.56773135671E+03  0.12500367022E+03 0.  0.
         24    2    1    2    0    0  0.69338861253E+02  0.29878045379E+02 -0.59113364813E+03  0.60126282088E+03  0.79858716149E+02 0.  0.
        -11    1    5    5    0    0  0.54733059421E+02 -0.91244029485E+01 -0.18896540020E+03  0.19694386255E+03  0.00000000000E+00 0.  1.
         12    1    5    5    0    0  0.14605801831E+02  0.39002448328E+02 -0.40216824793E+03  0.40431895834E+03  0.00000000000E+00 0. -1.
        -11    1    3    3    0    0 -0.49803921717E+02 -0.19362977780E+00 -0.12586971418E+03  0.13536488857E+03  0.00000000000E+00 0.  1.
         12    1    3    3    0    0  0.29964300456E+02  0.15183490492E+02 -0.63427994547E+02  0.71774007674E+02  0.00000000000E+00 0. -1.
          5    1    4    4  501    0 -0.10203711479E+03 -0.92994300121E+01 -0.16733446264E+03  0.19626758413E+03  0.47000000000E+01 0.  1.
         -5    1    4    4    0  501 -0.12262185248E+03 -0.17340793633E+03 -0.30472415928E+03  0.37146377258E+03  0.47000000000E+01 0.  1.
          1    1    1    2  502    0  0.26847516289E+03  0.85203871204E+02 -0.33815972983E+04  0.33933079584E+04  0.00000000000E+00 0. -1.
          1    1    1    2  503    0 -0.93315435611E+02  0.52635589047E+02  0.32680093319E+04  0.32697650175E+04  0.00000000000E+00 0. -1.
<mgrwt>
<rscale>  0 0.12740228E+03</rscale>
<asrwt>0</asrwt>
<pdfrwt beam="1">  1        2 0.49067119E+00 0.10714152E+03</pdfrwt>
<pdfrwt beam="2">  1        2 0.69156500E+00 0.15149441E+03</pdfrwt>
<totfact> 0.57290604E-02</totfact>
</mgrwt>
</event>
<event>
13    1  0.1589573E-008  0.5932363E+02  0.7546771E-02  0.1527435E+00
          2   -1    0    0  502    0  0.00000000000E+00  0.00000000000E+00  0.23704161163E+04  0.23704161163E+04  0.00000000000E+00 0. -1.
          2   -1    0    0  503    0 -0.00000000000E+00 -0.00000000000E+00 -0.18020947104E+04  0.18020947104E+04  0.00000000000E+00 0. -1.
         24    2    1    2    0    0  0.27987999311E+02  0.39457274292E+02 -0.31474457422E+03  0.32858710976E+03  0.81025533616E+02 0.  0.
         25    2    1    2    0    0 -0.13516137027E+03 -0.49523099492E+02  0.81209170107E+03  0.83416972964E+03  0.12500029401E+03 0.  0.
         24    2    1    2    0    0  0.15604624459E+03 -0.54398331894E+02  0.22285852540E+03  0.28909812286E+03  0.81253881972E+02 0.  0.
        -13    1    5    5    0    0  0.15603068374E+03 -0.36122345107E+02  0.17183043053E+03  0.23489592363E+03  0.00000000000E+00 0.  1.
         14    1    5    5    0    0  0.15560850793E-01 -0.18275986786E+02  0.51028094866E+02  0.54202199225E+02  0.00000000000E+00 0. -1.
        -13    1    3    3    0    0 -0.23149217799E+02  0.21487340559E+02 -0.18953921707E+03  0.19215282173E+03  0.00000000000E+00 0.  1.
         14    1    3    3    0    0  0.51137217109E+02  0.17969933733E+02 -0.12520535715E+03  0.13643428803E+03  0.00000000000E+00 0. -1.
          5    1    4    4  501    0  0.33580354354E+01  0.14638045627E+02  0.12430004011E+02  0.20053522919E+02  0.47000000000E+01 0.  1.
         -5    1    4    4    0  501 -0.13851940571E+03 -0.64161145119E+02  0.79966169706E+03  0.81411620672E+03  0.47000000000E+01 0.  1.
          1    1    1    2  502    0 -0.42095433222E+02  0.41745181480E+02  0.12836037546E+04  0.12849720948E+04  0.00000000000E+00 0. -1.
          1    1    1    2  503    0 -0.67774404022E+01  0.22718975613E+02 -0.14354880010E+04  0.14356837697E+04  0.00000000000E+00 0. -1.
<mgrwt>
<rscale>  0 0.37502868E+02</rscale>
<asrwt>0</asrwt>
<pdfrwt beam="1">  1        2 0.34859061E+00 0.59323634E+02</pdfrwt>
<pdfrwt beam="2">  1        2 0.26501393E+00 0.23708343E+02</pdfrwt>
<totfact> 0.13315268E+01</totfact>
</mgrwt>
</event>
<event>
13    1  0.1589573E-008  0.1776927E+03  0.7546771E-02  0.1357228E+00
          2   -1    0    0  502    0  0.00000000000E+00  0.00000000000E+00  0.23229891968E+04  0.23229891968E+04  0.00000000000E+00 0. -1.
          2   -1    0    0  503    0 -0.00000000000E+00 -0.00000000000E+00 -0.45182761247E+04  0.45182761247E+04  0.00000000000E+00 0. -1.
         24    2    1    2    0    0  0.51579374051E+02 -0.20603856278E+02 -0.20425988725E+03  0.22689393774E+03  0.81693370123E+02 0.  0.
         25    2    1    2    0    0  0.23518392236E+03 -0.87210516395E+02  0.14849859036E+04  0.15111996273E+04  0.12499611221E+03 0.  0.
         24    2    1    2    0    0  0.38414294242E+02 -0.10294742117E+03 -0.33576150232E+02  0.13996692925E+03  0.79934685166E+02 0.  0.
        -11    1    5    5    0    0  0.29220743767E+02  0.19997797773E+00 -0.20260349666E+02  0.35558031808E+02  0.00000000000E+00 0.  1.
         12    1    5    5    0    0  0.91935504751E+01 -0.10314739914E+03 -0.13315800565E+02  0.10440889744E+03  0.00000000000E+00 0. -1.
        -13    1    3    3    0    0 -0.79723414089E+01 -0.12351779300E+02 -0.78410064220E+00  0.14722075032E+02  0.00000000000E+00 0.  1.
         14    1    3    3    0    0  0.59551715459E+02 -0.82520769773E+01 -0.20347578661E+03  0.21217186271E+03  0.00000000000E+00 0. -1.
          5    1    4    4  501    0  0.18013895675E+03 -0.11795818688E+03  0.12120112881E+04  0.12309986312E+04  0.47000000000E+01 0.  1.
         -5    1    4    4    0  501  0.55044965610E+02  0.30747670485E+02  0.27297461551E+03  0.28020099606E+03  0.47000000000E+01 0.  1.
          1    1    1    2  502    0 -0.25749725404E+02 -0.11617155647E+02  0.75184347143E+03  0.75237398426E+03  0.00000000000E+00 0. -1.
          1    1    1    2  503    0 -0.29942786525E+03  0.22237894949E+03 -0.41942802654E+04  0.42108308430E+04  0.00000000000E+00 0. -1.
<mgrwt>
<rscale>  0 0.70849448E+02</rscale>
<asrwt>0</asrwt>
<pdfrwt beam="1">  1        2 0.34161606E+00 0.28249012E+02</pdfrwt>
<pdfrwt beam="2">  1        2 0.66445237E+00 0.17769274E+03</pdfrwt>
<totfact> 0.31862577E-01</totfact>
</mgrwt>
</event>
<event>
13    1  0.1589573E-008  0.1643897E+03  0.7546771E-02  0.1303935E+00
          2   -1    0    0  503    0  0.00000000000E+00  0.00000000000E+00  0.22803826200E+04  0.22803826200E+04  0.00000000000E+00 0. -1.
          2   -1    0    0  502    0 -0.00000000000E+00 -0.00000000000E+00 -0.17656016598E+04  0.17656016598E+04  0.00000000000E+00 0. -1.
         24    2    1    2    0    0 -0.30011808010E+02  0.11505762159E+03 -0.81740347191E+01  0.14477399657E+03  0.82181082574E+02 0.  0.
         25    2    1    2    0    0 -0.12079104531E+03 -0.16802517473E+03  0.38708286610E+03  0.45637965155E+03  0.12500522047E+03 0.  0.
         24    2    1    2    0    0  0.14432819311E+02  0.39209354766E+02 -0.26480447448E+02  0.94546114149E+02  0.80573406464E+02 0.  0.
        -13    1    3    3    0    0 -0.19427518098E+02  0.16426789717E+02  0.29237194206E+02  0.38756694969E+02  0.00000000000E+00 0.  1.
         14    1    3    3    0    0 -0.10584289911E+02  0.98630831873E+02 -0.37411228925E+02  0.10601730160E+03  0.00000000000E+00 0. -1.
        -13    1    5    5    0    0 -0.16157076972E+02  0.32483751773E+01  0.21595037330E+02  0.27165211482E+02  0.00000000000E+00 0.  1.
         14    1    5    5    0    0  0.30589896283E+02  0.35960979589E+02 -0.48075484778E+02  0.67380902667E+02  0.00000000000E+00 0. -1.
          5    1    4    4  501    0 -0.29019983625E+02 -0.11599081135E+02  0.17255526996E+03  0.17542550933E+03  0.47000000000E+01 0. -1.
         -5    1    4    4    0  501 -0.91771061682E+02 -0.15642609360E+03  0.21452759614E+03  0.28095414221E+03  0.47000000000E+01 0. -1.
          1    1    1    2  502    0  0.16286156341E+03 -0.27208490774E+02 -0.15893492891E+04  0.15979034243E+04  0.00000000000E+00 0. -1.
          1    1    1    2  503    0 -0.26491529404E+02  0.40966689152E+02  0.17517018653E+04  0.17523810932E+04  0.00000000000E+00 0. -1.
<mgrwt>
<rscale>  0 0.89553950E+02</rscale>
<asrwt>0</asrwt>
<pdfrwt beam="1">  1        2 0.33535039E+00 0.48785969E+02</pdfrwt>
<pdfrwt beam="2">  1        2 0.25964730E+00 0.16438968E+03</pdfrwt>
<totfact> 0.12970141E+01</totfact>
</mgrwt>
</event>
<event>
13    1  0.1589573E-008  0.2735773E+03  0.7546771E-02  0.1226815E+00
          2   -1    0    0  502    0  0.00000000000E+00  0.00000000000E+00  0.40080721120E+04  0.40080721120E+04  0.00000000000E+00 0. -1.
          2   -1    0    0  503    0 -0.00000000000E+00 -0.00000000000E+00 -0.75930240622E+03  0.75930240622E+03  0.00000000000E+00 0. -1.
         24    2    1    2    0    0 -0.61312034582E+00  0.16560911594E+03 -0.62408547443E+02  0.19607620824E+03  0.84405553394E+02 0.  0.
         25    2    1    2    0    0  0.36487031439E+03 -0.12653391065E+03  0.13753035567E+04  0.14339561670E+04  0.12501695451E+03 0.  0.
         24    2    1    2    0    0 -0.70885976131E+02 -0.11878696396E+03  0.10593255294E+03  0.19065047122E+03  0.77399819031E+02 0.  0.
        -11    1    5    5    0    0 -0.23501171287E+02 -0.35913691491E+01 -0.44870959352E+01  0.24193739152E+02  0.00000000000E+00 0.  1.
         12    1    5    5    0    0 -0.47384804844E+02 -0.11519559481E+03  0.11041964887E+03  0.16645673207E+03  0.00000000000E+00 0. -1.
        -13    1    3    3    0    0 -0.16703687912E+02  0.16679689357E+03 -0.64889498055E+02  0.17975222906E+03  0.00000000000E+00 0.  1.
         14    1    3    3    0    0  0.16090567566E+02 -0.11877776271E+01  0.24809506116E+01  0.16323979179E+02  0.00000000000E+00 0. -1.
          5    1    4    4  501    0  0.29501929467E+02 -0.44744705164E+02  0.11077621249E+03  0.12314995630E+03  0.47000000000E+01 0. -1.
         -5    1    4    4    0  501  0.33536838492E+03 -0.81789205488E+02  0.12645273442E+04  0.13108062107E+04  0.47000000000E+01 0. -1.
          1    1    1    2  502    0  0.61363866503E+02  0.10079589406E+02  0.23293468142E+04  0.23301767537E+04  0.00000000000E+00 0. -1.
          1    1    1    2  503    0 -0.35473508442E+03  0.69632169260E+02 -0.49940467069E+03  0.61651491809E+03  0.00000000000E+00 0. -1.
<mgrwt>
<rscale>  0 0.13043285E+03</rscale>
<asrwt>0</asrwt>
<pdfrwt beam="1">  1        2 0.58942236E+00 0.62186190E+02</pdfrwt>
<pdfrwt beam="2">  1        2 0.11166212E+00 0.27357728E+03</pdfrwt>
<totfact> 0.50443331E+00</totfact>
</mgrwt>
</event>
<event>
13    1  0.1589573E-008  0.1343344E+03  0.7546771E-02  0.1383795E+00
         -1   -1    0    0    0  501 -0.00000000000E+00  0.00000000000E+00  0.11069581307E+04  0.11069581307E+04  0.00000000000E+00 0.  1.
          2   -1    0    0  503    0  0.00000000000E+00 -0.00000000000E+00 -0.28568419647E+04  0.28568419647E+04  0.00000000000E+00 0. -1.
         24    2    1    2    0    0  0.11749296833E+03 -0.51547934980E+02  0.51656333702E+02  0.16179066540E+03  0.83940785032E+02 0.  0.
         25    2    1    2    0    0 -0.59462500969E+02  0.13457807317E+03 -0.10840155945E+04  0.11010722316E+04  0.12499281280E+03 0.  0.
         24    2    1    2    0    0  0.83786000739E+02 -0.45546122527E+02 -0.58919838180E+03  0.60199213928E+03  0.78391705218E+02 0.  0.
        -13    1    3    3    0    0  0.11578148464E+03 -0.34441738864E+02  0.67530930323E+02  0.13839079489E+03  0.00000000000E+00 0.  1.
         14    1    3    3    0    0  0.17114836944E+01 -0.17106196116E+02 -0.15874596621E+02  0.23399870510E+02  0.00000000000E+00 0. -1.
        -13    1    5    5    0    0  0.55103967998E+02  0.31497851722E+01 -0.41985317034E+03  0.42346552761E+03  0.00000000000E+00 0.  1.
         14    1    5    5    0    0  0.28682032741E+02 -0.48695907699E+02 -0.16934521146E+03  0.17852661167E+03  0.00000000000E+00 0. -1.
          5    1    4    4  502    0 -0.38997236131E+02 -0.13425960112E+02 -0.30855948414E+03  0.31133918173E+03  0.47000000000E+01 0. -1.
         -5    1    4    4    0  502 -0.20465264838E+02  0.14800403328E+03 -0.77545611033E+03  0.78973304982E+03  0.47000000000E+01 0. -1.
          1    1    1    2  503    0  0.26235241133E+02  0.14539091155E+02 -0.11055783020E+04  0.11059851061E+04  0.00000000000E+00 0. -1.
         -2    1    1    2    0  501 -0.16805170923E+03 -0.52023106813E+02  0.97725211064E+03  0.99295995306E+03  0.00000000000E+00 0.  1.
<mgrwt>
<rscale>  0 0.63476762E+02</rscale>
<asrwt>0</asrwt>
<pdfrwt beam="2">  1        2 0.42012381E+00 0.29994550E+02</pdfrwt>
<pdfrwt beam="1">  1       -1 0.16278797E+00 0.13433438E+03</pdfrwt>
<totfact> 0.15370303E+00</totfact>
</mgrwt>
</event>
<event>
13    1  0.1589573E-008  0.5685790E+02  0.7546771E-02  0.1483373E+00
          2   -1    0    0  503    0  0.00000000000E+00  0.00000000000E+00  0.16296725175E+04  0.16296725175E+04  0.00000000000E+00 0. -1.
          2   -1    0    0  502    0 -0.00000000000E+00 -0.00000000000E+00 -0.56496715504E+03  0.56496715504E+03  0.00000000000E+00 0. -1.
         24    2    1    2    0    0 -0.18474695370E+03  0.14669078210E+03 -0.28814115935E+03  0.38155880118E+03  0.83139452658E+02 0.  0.
         25    2    1    2    0    0  0.17854685493E+03 -0.13721112086E+02  0.33433631417E+03  0.39933973827E+03  0.12499682902E+03 0.  0.
         24    2    1    2    0    0 -0.19024301305E+02 -0.95669974364E+02  0.34698858224E+03  0.36992794284E+03  0.83252259121E+02 0.  0.
        -11    1    5    5    0    0  0.64897432284E+01 -0.21963536319E+02  0.21793640120E+03  0.21913646128E+03  0.00000000000E+00 0.  1.
         12    1    5    5    0    0 -0.25514044533E+02 -0.73706438045E+02  0.12905218105E+03  0.15079148156E+03  0.00000000000E+00 0. -1.
        -13    1    3    3    0    0 -0.18892482949E+03  0.14136736713E+03 -0.29062251366E+03  0.37435113081E+03  0.00000000000E+00 0.  1.
         14    1    3    3    0    0  0.41778757830E+01  0.53234149634E+01  0.24813543145E+01  0.72076703702E+01  0.00000000000E+00 0. -1.
          5    1    4    4  501    0  0.21242461176E+02  0.23665188494E+02  0.15301097897E+03  0.15635131272E+03  0.47000000000E+01 0. -1.
         -5    1    4    4    0  501  0.15730439376E+03 -0.37386300581E+02  0.18132533520E+03  0.24298842555E+03  0.47000000000E+01 0. -1.
          1    1    1    2  502    0  0.27072635215E+02  0.19579067299E+02 -0.18369326454E+03  0.18670694387E+03  0.00000000000E+00 0. -1.
          1    1    1    2  503    0 -0.18482351383E+01 -0.56878762947E+02  0.85521488989E+03  0.85710624635E+03  0.00000000000E+00 0. -1.
<mgrwt>
<rscale>  0 0.43585044E+02</rscale>
<asrwt>0</asrwt>
<pdfrwt beam="1">  1        2 0.23965772E+00 0.56857903E+02</pdfrwt>
<pdfrwt beam="2">  1        2 0.83083405E-01 0.33410589E+02</pdfrwt>
<totfact> 0.13349722E+02</totfact>
</mgrwt>
</event>
<event>
13    1  0.1589573E-008  0.1818895E+03  0.7546771E-02  0.1254962E+00
          2   -1    0    0  503    0  0.00000000000E+00  0.00000000000E+00  0.33448110460E+04  0.33448110460E+04  0.00000000000E+00 0. -1.
          2   -1    0    0  502    0 -0.00000000000E+00 -0.00000000000E+00 -0.27660004198E+04  0.27660004198E+04  0.00000000000E+00 0. -1.
         24    2    1    2    0    0  0.91426852344E+03  0.33618291295E+03  0.69094932881E+03  0.11965820568E+04  0.74106407968E+02 0.  0.
         25    2    1    2    0    0 -0.14882503053E+04  0.19870187784E+03  0.45531901241E+03  0.15739479094E+04  0.12500084335E+03 0.  0.
         24    2    1    2    0    0  0.41163029771E+03 -0.69260381319E+03  0.63608137929E+03  0.10296725488E+04  0.80538764266E+02 0.  0.
        -11    1    3    3    0    0  0.34204830469E+03  0.13450567711E+03  0.30396752991E+03  0.47695395915E+03  0.00000000000E+00 0.  1.
         12    1    3    3    0    0  0.57222021876E+03  0.20167723584E+03  0.38698179890E+03  0.71962809762E+03  0.00000000000E+00 0. -1.
        -11    1    5    5    0    0  0.32092565740E+03 -0.55012209616E+03  0.45970482955E+03  0.78546554893E+03  0.00000000000E+00 0.  1.
         12    1    5    5    0    0  0.90704640317E+02 -0.14248171703E+03  0.17637654975E+03  0.24420699983E+03  0.00000000000E+00 0. -1.
          5    1    4    4  501    0 -0.12787031181E+04  0.13218166196E+03  0.36613654426E+03  0.13366494361E+04  0.47000000000E+01 0. -1.
         -5    1    4    4    0  501 -0.20954718720E+03  0.66520215885E+02  0.89182468149E+02  0.23729847326E+03  0.47000000000E+01 0. -1.
          1    1    1    2  502    0  0.92049998630E+02  0.15680653501E+03 -0.17501122425E+04  0.17595324246E+04  0.00000000000E+00 0. -1.
          1    1    1    2  503    0  0.70301485523E+02  0.91248738638E+00  0.54657314818E+03  0.55107652628E+03  0.00000000000E+00 0. -1.
<mgrwt>
<rscale>  0 0.11308483E+03</rscale>
<asrwt>0</asrwt>
<pdfrwt beam="1">  1        2 0.49188398E+00 0.70307407E+02</pdfrwt>
<pdfrwt beam="2">  1        2 0.40676476E+00 0.18188950E+03</pdfrwt>
<totfact> 0.10945072E+00</totfact>
</mgrwt>
</event>
<event>
13    1  0.1589573E-008  0.3735090E+02  0.7546771E-02  0.1541023E+00
          2   -1    0    0  502    0  0.00000000000E+00  0.00000000000E+00  0.19251612647E+04  0.19251612647E+04  0.00000000000E+00 0. -1.
          4   -1    0    0  503    0 -0.00000000000E+00 -0.00000000000E+00 -0.43936946423E+03  0.43936946423E+03  0.00000000000E+00 0. -1.
         24    2    1    2    0    0 -0.82264010754E+02 -0.79483952849E+02 -0.90933465035E+02  0.16676781437E+03  0.80358836601E+02 0.  0.
         25    2    1    2    0    0  0.12765280790E+03  0.11594260889E+03  0.49870722420E+03  0.54228398202E+03  0.12500037507E+03 0.  0.
         24    2    1    2    0    0  0.10252815380E+02  0.85604232694E+01 -0.22196791023E+03  0.23560401534E+03  0.77853052622E+02 0.  0.
        -11    1    5    5    0    0 -0.28077383052E+02  0.19265269265E+02 -0.14513506073E+03  0.14907607417E+03  0.00000000000E+00 0.  1.
         12    1    5    5    0    0  0.38330198432E+02 -0.10704845995E+02 -0.76832849505E+02  0.86527941167E+02  0.00000000000E+00 0. -1.
        -13    1    3    3    0    0 -0.26945681540E+02 -0.28632463879E+01 -0.62434042490E+02  0.68060837456E+02  0.00000000000E+00 0.  1.
         14    1    3    3    0    0 -0.55318329214E+02 -0.76620706461E+02 -0.28499422545E+02  0.98706976911E+02  0.00000000000E+00 0. -1.
          5    1    4    4  501    0  0.14139581931E+03  0.88353608101E+02  0.31984237500E+03  0.36072201572E+03  0.47000000000E+01 0. -1.
         -5    1    4    4    0  501 -0.13743011409E+02  0.27589000784E+02  0.17886484920E+03  0.18156196630E+03  0.47000000000E+01 0. -1.
          1    1    1    2  502    0 -0.27265852752E+02 -0.25493939219E+02  0.13547040627E+04  0.13552182352E+04  0.00000000000E+00 0. -1.
          3    1    1    2  503    0 -0.28375759770E+02 -0.19525140086E+02 -0.54718111135E+02  0.64656681976E+02  0.00000000000E+00 0. -1.
<mgrwt>
<rscale>  0 0.35868210E+02</rscale>
<asrwt>0</asrwt>
<pdfrwt beam="1">  1        2 0.28311195E+00 0.37350904E+02</pdfrwt>
<pdfrwt beam="2">  1        4 0.64613157E-01 0.34444373E+02</pdfrwt>
<totfact> 0.11532259E+01</totfact>
</mgrwt>
</event>
<event>
13    1  0.1589573E-008  0.8195918E+02  0.7546771E-02  0.1352195E+00
          2   -1    0    0  503    0  0.00000000000E+00  0.00000000000E+00  0.18747545005E+04  0.18747545005E+04  0.00000000000E+00 0. -1.
          2   -1    0    0  502    0 -0.00000000000E+00 -0.00000000000E+00 -0.93714224418E+03  0.93714224418E+03  0.00000000000E+00 0. -1.
         24    2    1    2    0    0 -0.14456214235E+03  0.40360957059E+02 -0.13687521795E+03  0.21794004331E+03  0.78967191505E+02 0.  0.
         25    2    1    2    0    0  0.86591125813E+02 -0.11709814039E+03  0.77776250784E+03  0.80109229838E+03  0.12499741746E+03 0.  0.
         24    2    1    2    0    0  0.66628522878E+02  0.21385055353E+03  0.37505075500E+03  0.44067176856E+03  0.57940654705E+02 0.  0.
        -13    1    5    5    0    0 -0.44172057108E+01  0.67733030326E+02  0.92406410431E+02  0.11465696574E+03  0.00000000000E+00 0.  1.
         14    1    5    5    0    0  0.71045728589E+02  0.14611752321E+03  0.28264434457E+03  0.32601480282E+03  0.00000000000E+00 0. -1.
        -13    1    3    3    0    0 -0.92864386107E+02  0.51708917356E+01 -0.36993073043E+02  0.10009505373E+03  0.00000000000E+00 0.  1.
         14    1    3    3    0    0 -0.51697756243E+02  0.35190065323E+02 -0.99882144904E+02  0.11784498958E+03  0.00000000000E+00 0. -1.
          5    1    4    4  501    0  0.62654375544E+02  0.89985787943E+01  0.25229483118E+03  0.26015633191E+03  0.47000000000E+01 0. -1.
         -5    1    4    4    0  501  0.23936750269E+02 -0.12609671919E+03  0.52546767666E+03  0.54093596647E+03  0.47000000000E+01 0. -1.
          1    1    1    2  502    0  0.19645897754E+02 -0.60818623385E+02 -0.71122121301E+03  0.71408716561E+03  0.00000000000E+00 0. -1.
          1    1    1    2  503    0 -0.28303404094E+02 -0.76294746816E+02  0.63289542440E+03  0.63810546879E+03  0.00000000000E+00 0. -1.
<mgrwt>
<rscale>  0 0.72375781E+02</rscale>
<asrwt>0</asrwt>
<pdfrwt beam="1">  1        2 0.27569919E+00 0.81959180E+02</pdfrwt>
<pdfrwt beam="2">  1        2 0.13781504E+00 0.63912958E+02</pdfrwt>
<totfact> 0.54510850E+01</totfact>
</mgrwt>
</event>
<event>
13    1  0.1589573E-008  0.5984292E+02  0.7546771E-02  0.1412961E+00
          2   -1    0    0  502    0  0.00000000000E+00  0.00000000000E+00  0.65462606116E+03  0.65462606116E+03  0.00000000000E+00 0. -1.
          2   -1    0    0  503    0 -0.00000000000E+00 -0.00000000000E+00 -0.16402906361E+04  0.16402906361E+04  0.00000000000E+00 0. -1.
         24    2    1    2    0    0 -0.36919967230E+02 -0.11691555654E+03 -0.60877077108E+03  0.62611770208E+03  0.79932432648E+02 0.  0.
         25    2    1    2    0    0 -0.37483492394E+02  0.94111592248E+02  0.11107877633E+03  0.19551480250E+03  0.12500215777E+03 0.  0.
         24    2    1    2    0    0  0.11019313912E+03  0.79194351017E+02 -0.10869935866E+03  0.19085304640E+03  0.78708713656E+02 0.  0.
        -11    1    5    5    0    0  0.90758610316E+02  0.49118139671E+02 -0.35097562706E+02  0.10900254997E+03  0.00000000000E+00 0.  1.
         12    1    5    5    0    0  0.19434528801E+02  0.30076211346E+02 -0.73601795955E+02  0.81850496434E+02  0.00000000000E+00 0. -1.
        -13    1    3    3    0    0  0.20517383540E+02 -0.10732578347E+02 -0.62111835277E+02  0.66287490122E+02  0.00000000000E+00 0.  1.
         14    1    3    3    0    0 -0.57437350769E+02 -0.10618297819E+03 -0.54665893581E+03  0.55983021196E+03  0.00000000000E+00 0. -1.
          5    1    4    4  501    0  0.43479187069E+01  0.19958859118E+02 -0.26419023611E+02  0.33724105072E+02  0.47000000000E+01 0.  1.
         -5    1    4    4    0  501 -0.41831411101E+02  0.74152733130E+02  0.13749779994E+03  0.16179069743E+03  0.47000000000E+01 0.  1.
          1    1    1    2  502    0  0.23542865328E+02 -0.47948294052E+02  0.44891277156E+03  0.45207961896E+03  0.00000000000E+00 0. -1.
          1    1    1    2  503    0 -0.59332544821E+02 -0.84420926738E+01 -0.82818599312E+03  0.83035152737E+03  0.00000000000E+00 0. -1.
<mgrwt>
<rscale>  0 0.56538394E+02</rscale>
<asrwt>0</asrwt>
<pdfrwt beam="1">  1        2 0.96268540E-01 0.53416340E+02</pdfrwt>
<pdfrwt beam="2">  1        2 0.24121921E+00 0.59842924E+02</pdfrwt>
<totfact> 0.11117748E+02</totfact>
</mgrwt>
</event>
<event>
13    1  0.1589573E-008  0.2363384E+03  0.7546771E-02  0.1360400E+00
          2   -1    0    0  503    0  0.00000000000E+00  0.00000000000E+00  0.10598489988E+04  0.10598489988E+04  0.00000000000E+00 0. -1.
          2   -1    0    0  502    0 -0.00000000000E+00 -0.00000000000E+00 -0.46801552952E+04  0.46801552952E+04  0.00000000000E+00 0. -1.
         24    2    1    2    0    0  0.17501005377E+03  0.78865702308E+02 -0.24239917746E+03  0.31937511427E+03  0.79967396247E+02 0.  0.
         25    2    1    2    0    0  0.54076679914E+00 -0.59255306197E+02  0.50287467880E+03  0.52155735409E+03  0.12501058868E+03 0.  0.
         24    2    1    2    0    0  0.83089559385E+02  0.18521011609E+02  0.92046105498E+02  0.14889253308E+03  0.80309389979E+02 0.  0.
        -13    1    5    5    0    0 -0.37533408763E+01  0.20556545106E+02 -0.18489785357E+01  0.20978032225E+02  0.00000000000E+00 0.  1.
         14    1    5    5    0    0  0.86842900261E+02 -0.20355334970E+01  0.93895084034E+02  0.12791450085E+03  0.00000000000E+00 0. -1.
        -13    1    3    3    0    0  0.10028384043E+03  0.17624298335E+01 -0.12532636268E+03  0.16051994267E+03  0.00000000000E+00 0.  1.
         14    1    3    3    0    0  0.74726213345E+02  0.77103272475E+02 -0.11707281478E+03  0.15885517161E+03  0.00000000000E+00 0. -1.
          5    1    4    4  501    0  0.22991668698E+02 -0.17415529250E+02  0.44753314017E+03  0.44848625289E+03  0.47000000000E+01 0. -1.
         -5    1    4    4    0  501 -0.22450901899E+02 -0.41839776947E+02  0.55341538636E+02  0.73071101193E+02  0.47000000000E+01 0. -1.
          1    1    1    2  502    0 -0.23815275896E+03 -0.35320739870E+02 -0.43579034563E+04  0.43645488685E+04  0.00000000000E+00 0. -1.
          1    1    1    2  503    0 -0.20487620998E+02 -0.28106678498E+01  0.38507555305E+03  0.38563042414E+03  0.00000000000E+00 0. -1.
<mgrwt>
<rscale>  0 0.69909679E+02</rscale>
<asrwt>0</asrwt>
<pdfrwt beam="1">  1        2 0.15586015E+00 0.20679518E+02</pdfrwt>
<pdfrwt beam="2">  1        2 0.68825813E+00 0.23633835E+03</pdfrwt>
<totfact> 0.85776025E-01</totfact>
</mgrwt>
</event>
<event>
13    1  0.1589573E-008  0.2079999E+03  0.7546771E-02  0.1244863E+00
          2   -1    0    0  503    0  0.00000000000E+00  0.00000000000E+00  0.21581747767E+04  0.21581747767E+04  0.00000000000E+00 0. -1.
          2   -1    0    0  502    0 -0.00000000000E+00 -0.00000000000E+00 -0.15523702712E+04  0.15523702712E+04  0.00000000000E+00 0. -1.
         24    2    1    2    0    0 -0.54472499368E+02 -0.12081890329E+03 -0.17835817355E+03  0.23667264412E+03  0.81472951465E+02 0.  0.
         25    2    1    2    0    0  0.16770313323E+03  0.20757814627E+03  0.37866837790E+03  0.47982145445E+03  0.12500344006E+03 0.  0.
         24    2    1    2    0    0  0.13987014473E+03 -0.26494990949E+03  0.18596907320E+02  0.31128957271E+03  0.82421121047E+02 0.  0.
        -11    1    3    3    0    0  0.12615220572E+02  0.20122399543E+01 -0.30560865433E+02  0.33123396501E+02  0.00000000000E+00 0.  1.
         12    1    3    3    0    0 -0.67087719940E+02 -0.12283114325E+03 -0.14779730812E+03  0.20354924762E+03  0.00000000000E+00 0. -1.
        -11    1    5    5    0    0  0.61964395839E+02 -0.43201397876E+02  0.88181910028E+01  0.76050691139E+02  0.00000000000E+00 0.  1.
         12    1    5    5    0    0  0.77905748894E+02 -0.22174851161E+03  0.97787163175E+01  0.23523888158E+03  0.00000000000E+00 0. -1.
          5    1    4    4  501    0  0.15799722388E+03  0.17137326009E+03  0.23406139981E+03  0.33036153818E+03  0.47000000000E+01 0.  1.
         -5    1    4    4    0  501  0.97059093493E+01  0.36204886175E+02  0.14460697809E+03  0.14945991627E+03  0.47000000000E+01 0.  1.
          1    1    1    2  502    0 -0.20374436724E+03  0.22497834590E+03 -0.11270915973E+04  0.11672456863E+04  0.00000000000E+00 0. -1.
          1    1    1    2  503    0 -0.49356411350E+02 -0.46787679387E+02  0.15139889912E+04  0.15155156904E+04  0.00000000000E+00 0. -1.
<mgrwt>
<rscale>  0 0.11893587E+03</rscale>
<asrwt>0</asrwt>
<pdfrwt beam="1">  1        2 0.31737864E+00 0.68008399E+02</pdfrwt>
<pdfrwt beam="2">  1        2 0.22828975E+00 0.20799990E+03</pdfrwt>
<totfact> 0.17841585E+01</totfact>
</mgrwt>
</event>
<event>
13    1  0.1589573E-008  0.8979577E+02  0.7546771E-02  0.1478404E+00
          2   -1    0    0  503    0  0.00000000000E+00  0.00000000000E+00  0.14958693770E+04  0.14958693770E+04  0.00000000000E+00 0. -1.
          2   -1    0    0  502    0 -0.00000000000E+00 -0.00000000000E+00 -0.18396073963E+04  0.18396073963E+04  0.00000000000E+00 0. -1.
         24    2    1    2    0    0 -0.56454472774E+03  0.40366349005E+03  0.43217379710E+03  0.82446686551E+03  0.10637884477E+03 0.  0.
         25    2    1    2    0    0  0.55174045953E+03 -0.24402934978E+03 -0.78887199554E+02  0.62113961555E+03  0.12499349386E+03 0.  0.
         24    2    1    2    0    0 -0.64584872370E+02 -0.14313276057E+03 -0.55656396507E+02  0.18536006886E+03  0.81255939903E+02 0.  0.
        -11    1    3    3    0    0 -0.29952563696E+02  0.50547620137E+02  0.57793825438E+02  0.82415679529E+02  0.00000000000E+00 0.  1.
         12    1    3    3    0    0 -0.53459216404E+03  0.35311586991E+03  0.37437997166E+03  0.74205118598E+03  0.00000000000E+00 0. -1.
        -11    1    5    5    0    0  0.18108212729E+02 -0.44452595700E+02 -0.17273345852E+02  0.51012832794E+02  0.00000000000E+00 0.  1.
         12    1    5    5    0    0 -0.82693085099E+02 -0.98680164865E+02 -0.38383050655E+02  0.13434723607E+03  0.00000000000E+00 0. -1.
          5    1    4    4  501    0  0.34962037633E+03 -0.12660760137E+03  0.73537250381E+01  0.37194093555E+03  0.47000000000E+01 0.  1.
         -5    1    4    4    0  501  0.20212008320E+03 -0.11742174842E+03 -0.86240924592E+02  0.24919867999E+03  0.47000000000E+01 0.  1.
          1    1    1    2  502    0  0.81361326392E+02 -0.38048420744E+02 -0.11709929133E+04  0.11744325229E+04  0.00000000000E+00 0. -1.
          1    1    1    2  503    0 -0.39721858154E+01  0.21547041046E+02  0.52962469290E+03  0.53007770050E+03  0.00000000000E+00 0. -1.
<mgrwt>
<rscale>  0 0.44355786E+02</rscale>
<asrwt>0</asrwt>
<pdfrwt beam="1">  1        2 0.21998079E+00 0.21910117E+02</pdfrwt>
<pdfrwt beam="2">  1        2 0.27053050E+00 0.89795765E+02</pdfrwt>
<totfact> 0.31448404E+01</totfact>
</mgrwt>
</event>
<event>
13    1  0.1589573E-008  0.9663008E+02  0.7546771E-02  0.1307105E+00
          2   -1    0    0  502    0  0.00000000000E+00  0.00000000000E+00  0.16538485773E+04  0.16538485773E+04  0.00000000000E+00 0. -1.
          2   -1    0    0  503    0 -0.00000000000E+00 -0.00000000000E+00 -0.24058468350E+04  0.24058468350E+04  0.00000000000E+00 0. -1.
         24    2    1    2    0    0 -0.14964927614E+02  0.87992868851E+02 -0.39752331887E+03  0.41497039995E+03  0.78796889332E+02 0.  0.
         25    2    1    2    0    0 -0.36612538398E+02 -0.26238209731E+03  0.65082356362E+03  0.71371046505E+03  0.12500589587E+03 0.  0.
         24    2    1    2    0    0 -0.45392453901E+02  0.26292121462E+02 -0.12538808327E+03  0.16089921643E+03  0.86108280100E+02 0.  0.
        -11    1    5    5    0    0 -0.54015038798E+02  0.20266520357E+02 -0.13489899509E+03  0.14671773969E+03  0.00000000000E+00 0.  1.
         12    1    5    5    0    0  0.86225848972E+01  0.60256011050E+01  0.95109118217E+01  0.14181476745E+02  0.00000000000E+00 0. -1.
        -13    1    3    3    0    0 -0.11071935093E+02  0.13896498990E+02 -0.99615478249E+01  0.20369900981E+02  0.00000000000E+00 0.  1.
         14    1    3    3    0    0 -0.38929925202E+01  0.74096369861E+02 -0.38756177104E+03  0.39460049897E+03  0.00000000000E+00 0. -1.
          5    1    4    4  501    0 -0.71143196928E+02 -0.19398535362E+03  0.54583637019E+03  0.58365324030E+03  0.47000000000E+01 0. -1.
         -5    1    4    4    0  501  0.34530658530E+02 -0.68396743688E+02  0.10498719343E+03  0.13005722475E+03  0.47000000000E+01 0. -1.
          1    1    1    2  502    0  0.46521243310E+02  0.65851313206E+02  0.94210411451E+03  0.94554787510E+03  0.00000000000E+00 0. -1.
          1    1    1    2  503    0  0.50448676603E+02  0.82245793789E+02 -0.18220145337E+04  0.18245674557E+04  0.00000000000E+00 0. -1.
<mgrwt>
<rscale>  0 0.88266294E+02</rscale>
<asrwt>0</asrwt>
<pdfrwt beam="1">  1        2 0.24321303E+00 0.80626432E+02</pdfrwt>
<pdfrwt beam="2">  1        2 0.35380100E+00 0.96630081E+02</pdfrwt>
<totfact> 0.12482320E+01</totfact>
</mgrwt>
</event>
<event>
13    1  0.1589573E-008  0.1078387E+03  0.7546771E-02  0.1270692E+00
          2   -1    0    0  503    0  0.00000000000E+00  0.00000000000E+00  0.92683044101E+03  0.92683044101E+03  0.00000000000E+00 0. -1.
          2   -1    0    0  502    0 -0.00000000000E+00 -0.00000000000E+00 -0.11913963922E+04  0.11913963922E+04  0.00000000000E+00 0. -1.
         24    2    1    2    0    0  0.71598356430E+02  0.24959470303E+03 -0.28462064971E+03  0.39324631019E+03  0.78802955631E+02 0.  0.
         25    2    1    2    0    0 -0.29652885197E+02 -0.35498301831E+03  0.49615761015E+02  0.38075540325E+03  0.12498286472E+03 0.  0.
         24    2    1    2    0    0 -0.34898061338E+02  0.11590724649E+03 -0.23789847201E+03  0.28430326346E+03  0.97878997536E+02 0.  0.
        -11    1    5    5    0    0  0.22597050916E+02  0.34415515313E+02 -0.22457491310E+02  0.46897689925E+02  0.00000000000E+00 0.  1.
         12    1    5    5    0    0 -0.57495112254E+02  0.81491731173E+02 -0.21544098070E+03  0.23740557354E+03  0.00000000000E+00 0. -1.
        -13    1    3    3    0    0  0.24606707768E+02  0.20890583228E+02 -0.65618841460E+02  0.73128235924E+02  0.00000000000E+00 0.  1.
         14    1    3    3    0    0  0.46991648661E+02  0.22870411980E+03 -0.21900180825E+03  0.32011807427E+03  0.00000000000E+00 0. -1.
          5    1    4    4  501    0  0.17205473073E+02 -0.64990007950E+02 -0.33740139940E+02  0.75367210909E+02  0.47000000000E+01 0.  1.
         -5    1    4    4    0  501 -0.46858358270E+02 -0.28999301036E+03  0.83355900955E+02  0.30538819234E+03  0.47000000000E+01 0.  1.
          1    1    1    2  502    0 -0.45774390009E+02  0.90784558370E+02 -0.41497293620E+03  0.42724661332E+03  0.00000000000E+00 0. -1.
          1    1    1    2  503    0  0.38726980114E+02 -0.10130348957E+03  0.62331034572E+03  0.63267524298E+03  0.00000000000E+00 0. -1.
<mgrwt>
<rscale>  0 0.10470982E+03</rscale>
<asrwt>0</asrwt>
<pdfrwt beam="1">  1        2 0.13629859E+00 0.10783874E+03</pdfrwt>
<pdfrwt beam="2">  1        2 0.17520535E+00 0.10167168E+03</pdfrwt>
<totfact> 0.11576614E+02</totfact>
</mgrwt>
</event>
<event>
13    1  0.1589573E-008  0.9950408E+02  0.7546771E-02  0.1358767E+00
          2   -1    0    0  502    0  0.00000000000E+00  0.00000000000E+00  0.34006984655E+04  0.34006984655E+04  0.00000000000E+00 0. -1.
          2   -1    0    0  503    0 -0.00000000000E+00 -0.00000000000E+00 -0.40455176408E+04  0.40455176408E+04  0.00000000000E+00 0. -1.
         24    2    1    2    0    0 -0.63776758445E+03  0.29196508396E+03 -0.20872758714E+03  0.73701238893E+03  0.87343882313E+02 0.  0.
         25    2    1    2    0    0  0.70723034383E+03 -0.73016353791E+03  0.73770681988E+03  0.12622007709E+04  0.12500353090E+03 0.  0.
         24    2    1    2    0    0  0.62158495696E+02  0.50299509772E+03  0.10441021264E+04  0.11639203455E+04  0.87713017008E+02 0.  0.
        -11    1    3    3    0    0 -0.91756459052E+01 -0.23659459819E+01  0.50642694965E+01  0.10744161377E+02  0.00000000000E+00 0.  1.
         12    1    3    3    0    0 -0.62859193854E+03  0.29433102994E+03 -0.21379185664E+03  0.72626822755E+03  0.00000000000E+00 0. -1.
        -13    1    5    5    0    0  0.50903465275E+02  0.16103788337E+03  0.28517388425E+03  0.33143401593E+03  0.00000000000E+00 0.  1.
         14    1    5    5    0    0  0.11255030421E+02  0.34195721435E+03  0.75892824214E+03  0.83248632955E+03  0.00000000000E+00 0. -1.
          5    1    4    4  501    0  0.44238852262E+03 -0.53885623212E+03  0.48984087657E+03  0.85207970178E+03  0.47000000000E+01 0.  1.
         -5    1    4    4    0  501  0.26484182121E+03 -0.19130730580E+03  0.24786594332E+03  0.41012106916E+03  0.47000000000E+01 0.  1.
          1    1    1    2  502    0 -0.82816163996E+02 -0.54909276928E+02  0.10300092556E+04  0.10347910960E+04  0.00000000000E+00 0. -1.
          1    1    1    2  503    0 -0.48805091078E+02 -0.98873668359E+01 -0.32479097901E+04  0.32482915050E+04  0.00000000000E+00 0. -1.
<mgrwt>
<rscale>  0 0.70391479E+02</rscale>
<asrwt>0</asrwt>
<pdfrwt beam="1">  1        2 0.50010272E+00 0.99504077E+02</pdfrwt>
<pdfrwt beam="2">  1        2 0.59492906E+00 0.49796555E+02</pdfrwt>
<totfact> 0.21713832E-01</totfact>
</mgrwt>
</event>
<event>
13    1  0.1589573E-008  0.3539097E+03  0.7546771E-02  0.1213573E+00
          2   -1    0    0  502    0  0.00000000000E+00  0.00000000000E+00  0.35363895705E+04  0.35363895705E+04  0.00000000000E+00 0. -1.
          2   -1    0    0  503    0 -0.00000000000E+00 -0.00000000000E+00 -0.20141169015E+04  0.20141169015E+04  0.00000000000E+00 0. -1.
         24    2    1    2    0    0 -0.43196431855E+03 -0.11000911767E+03 -0.41341049211E+03  0.61279898756E+03  0.76936244364E+02 0.  0.
         25    2    1    2    0    0  0.11953663550E+03 -0.11738274389E+03  0.16747528142E+04  0.16877444669E+04  0.12496671902E+03 0.  0.
         24    2    1    2    0    0  0.50038429406E+02 -0.22613371623E+02  0.37440607972E+03  0.38776068423E+03  0.84635847688E+02 0.  0.
        -11    1    5    5    0    0  0.55714405707E+02  0.14322534570E+02  0.28688157385E+03  0.29259232289E+03  0.00000000000E+00 0.  1.
         12    1    5    5    0    0 -0.56759763008E+01 -0.36935906194E+02  0.87524505871E+02  0.95168361346E+02  0.00000000000E+00 0. -1.
        -13    1    3    3    0    0 -0.44539386368E+01  0.12693757126E+01 -0.22331804593E+02  0.22806980959E+02  0.00000000000E+00 0.  1.
         14    1    3    3    0    0 -0.42751037991E+03 -0.11127849338E+03 -0.39107868752E+03  0.58999200660E+03  0.00000000000E+00 0. -1.
          5    1    4    4  501    0  0.12803603364E+03 -0.46090265520E+02  0.10192089518E+04  0.10282638358E+04  0.47000000000E+01 0.  1.
         -5    1    4    4    0  501 -0.84993981338E+01 -0.71292478366E+02  0.65554386244E+03  0.65948063113E+03  0.47000000000E+01 0.  1.
          1    1    1    2  502    0 -0.15474430963E+02  0.53026012016E+02  0.13543000343E+04  0.13554260581E+04  0.00000000000E+00 0. -1.
          1    1    1    2  503    0  0.27786368460E+03  0.19697922116E+03 -0.14677757672E+04  0.15067762753E+04  0.00000000000E+00 0. -1.
<mgrwt>
<rscale>  0 0.13981845E+03</rscale>
<asrwt>0</asrwt>
<pdfrwt beam="1">  1        2 0.52005729E+00 0.55237813E+02</pdfrwt>
<pdfrwt beam="2">  1        2 0.29619366E+00 0.35390973E+03</pdfrwt>
<totfact> 0.20094281E+00</totfact>
</mgrwt>
</event>
<event>
13    1  0.1589573E-008  0.1778878E+03  0.7546771E-02  0.1190594E+00
          2   -1    0    0  503    0  0.00000000000E+00  0.00000000000E+00  0.89029931554E+03  0.89029931554E+03  0.00000000000E+00 0. -1.
          2   -1    0    0  502    0 -0.00000000000E+00 -0.00000000000E+00 -0.94262909045E+03  0.94262909045E+03  0.00000000000E+00 0. -1.
         24    2    1    2    0    0  0.17583779054E+03  0.59765452223E+02 -0.33804131895E+03  0.39375183610E+03  0.79232173062E+02 0.  0.
         25    2    1    2    0    0 -0.24032561374E+03 -0.15416739446E+03  0.58731474743E+02  0.31717579940E+03  0.12500846158E+03 0.  0.
         24    2    1    2    0    0  0.21738294469E+02  0.24221038814E+02  0.14552229948E+02  0.85559207026E+02  0.77777878236E+02 0.  0.
        -13    1    5    5    0    0  0.79143697456E+01 -0.18042776732E+02 -0.20875295207E+02  0.28704651028E+02  0.00000000000E+00 0.  1.
         14    1    5    5    0    0  0.13823924723E+02  0.42263815545E+02  0.35427525155E+02  0.56854555999E+02  0.00000000000E+00 0. -1.
        -13    1    3    3    0    0  0.17423970247E+03  0.36577149774E+02 -0.28820401287E+03  0.33876085198E+03  0.00000000000E+00 0.  1.
         14    1    3    3    0    0  0.15980880696E+01  0.23188302449E+02 -0.49837306088E+02  0.54990984117E+02  0.00000000000E+00 0. -1.
          5    1    4    4  501    0 -0.55993258117E+02 -0.54310554742E+02  0.73075970487E+02  0.10699097520E+03  0.47000000000E+01 0.  1.
         -5    1    4    4    0  501 -0.18433235562E+03 -0.99856839715E+02 -0.14344495744E+02  0.21018482420E+03  0.47000000000E+01 0.  1.
          1    1    1    2  502    0 -0.17506237732E+03  0.10436512698E+03 -0.36516888280E+03  0.41819520400E+03  0.00000000000E+00 0. -1.
          1    1    1    2  503    0  0.21781190605E+03 -0.34184223559E+02  0.57759672215E+03  0.61824635947E+03  0.00000000000E+00 0. -1.
<mgrwt>
<rscale>  0 0.15833140E+03</rscale>
<asrwt>0</asrwt>
<pdfrwt beam="1">  1        2 0.13092637E+00 0.14092494E+03</pdfrwt>
<pdfrwt beam="2">  1        2 0.13862193E+00 0.17788783E+03</pdfrwt>
<totfact> 0.16210808E+02</totfact>
</mgrwt>
</event>
<event>
13    1  0.1589573E-008  0.1412093E+03  0.7546771E-02  0.1315192E+00
          2   -1    0    0  502    0  0.00000000000E+00  0.00000000000E+00  0.18092633836E+04  0.18092633836E+04  0.00000000000E+00 0. -1.
          2   -1    0    0  503    0 -0.00000000000E+00 -0.00000000000E+00 -0.13843257034E+04  0.13843257034E+04  0.00000000000E+00 0. -1.
         24    2    1    2    0    0 -0.10424566862E+03  0.66680908800E+02  0.59676570455E+02  0.15955674590E+03  0.81139134063E+02 0.  0.
         25    2    1    2    0    0 -0.56859080789E+02  0.31471458711E+01  0.35528281384E+03  0.38090034062E+03  0.12496532351E+03 0.  0.
         24    2    1    2    0    0  0.89875394565E+01  0.75203627257E+02 -0.19262261844E+03  0.22065054809E+03  0.76464565776E+02 0.  0.
        -13    1    5    5    0    0  0.83919983001E+01  0.90414440829E+02 -0.17643298976E+03  0.19842831608E+03  0.00000000000E+00 0.  1.
         14    1    5    5    0    0  0.59554115640E+00 -0.15210813572E+02 -0.16189628684E+02  0.22222232015E+02  0.00000000000E+00 0. -1.
        -13    1    3    3    0    0 -0.79057361279E+02  0.74404984203E+02  0.72205574844E+02  0.13038333132E+03  0.00000000000E+00 0.  1.
         14    1    3    3    0    0 -0.25188307337E+02 -0.77240754032E+01 -0.12529004389E+02  0.29173414581E+02  0.00000000000E+00 0. -1.
          5    1    4    4  501    0 -0.56758406459E+02 -0.47127743229E+02  0.12565965022E+03  0.14579087276E+03  0.47000000000E+01 0. -1.
         -5    1    4    4    0  501 -0.10067432968E+00  0.50274889100E+02  0.22962316362E+03  0.23510946787E+03  0.47000000000E+01 0. -1.
          1    1    1    2  502    0 -0.31234739802E+02 -0.40664658138E+02  0.13070535355E+04  0.13080589314E+04  0.00000000000E+00 0. -1.
          1    1    1    2  503    0  0.18335194975E+03 -0.10436702379E+03 -0.11044526212E+04  0.11244225209E+04  0.00000000000E+00 0. -1.
<mgrwt>
<rscale>  0 0.85091947E+02</rscale>
<asrwt>0</asrwt>
<pdfrwt beam="1">  1        2 0.26606815E+00 0.51275953E+02</pdfrwt>
<pdfrwt beam="2">  1        2 0.20357731E+00 0.14120926E+03</pdfrwt>
<totfact> 0.33609640E+01</totfact>
</mgrwt>
</event>
<event>
13    1  0.1589573E-008  0.4205053E+03  0.7546771E-02  0.1219426E+00
          2   -1    0    0  502    0  0.00000000000E+00  0.00000000000E+00  0.26240865047E+04  0.26240865047E+04  0.00000000000E+00 0. -1.
          2   -1    0    0  503    0 -0.00000000000E+00 -0.00000000000E+00 -0.30200353848E+04  0.30200353848E+04  0.00000000000E+00 0. -1.
         24    2    1    2    0    0  0.16171304304E+03  0.53305082706E+02 -0.32632881571E+03  0.37538970917E+03  0.73718367154E+02 0.  0.
         25    2    1    2    0    0  0.31098143599E+01 -0.14080088720E+03  0.77030571937E+03  0.79298710513E+03  0.12499234709E+03 0.  0.
         24    2    1    2    0    0 -0.30926943595E+03  0.42368861612E+03 -0.32064124497E+03  0.61967169046E+03  0.77605209493E+02 0.  0.
        -11    1    3    3    0    0  0.10185415005E+03  0.61440310674E+02 -0.16732337295E+03  0.20529561806E+03  0.00000000000E+00 0.  1.
         12    1    3    3    0    0  0.59858892990E+02 -0.81352279674E+01 -0.15900544276E+03  0.17009409111E+03  0.00000000000E+00 0. -1.
        -13    1    5    5    0    0 -0.81926432476E+02  0.80107203372E+02 -0.10126880990E+03  0.15291983596E+03  0.00000000000E+00 0.  1.
         14    1    5    5    0    0 -0.22734300347E+03  0.34358141275E+03 -0.21937243507E+03  0.46675185450E+03  0.00000000000E+00 0. -1.
          5    1    4    4  501    0  0.12822359657E+02  0.20433801845E+02  0.14885158908E+03  0.15086695707E+03  0.47000000000E+01 0. -1.
         -5    1    4    4    0  501 -0.97125452970E+01 -0.16123468905E+03  0.62145413029E+03  0.64212014806E+03  0.47000000000E+01 0. -1.
          1    1    1    2  502    0 -0.26771761191E+02  0.34543684509E+02  0.16490455193E+04  0.16496245386E+04  0.00000000000E+00 0. -1.
          1    1    1    2  503    0  0.17121833974E+03 -0.37073649613E+03 -0.21683300582E+04  0.22064488462E+04  0.00000000000E+00 0. -1.
<mgrwt>
<rscale>  0 0.13556379E+03</rscale>
<asrwt>0</asrwt>
<pdfrwt beam="1">  1        2 0.38589507E+00 0.43703471E+02</pdfrwt>
<pdfrwt beam="2">  1        2 0.44412285E+00 0.42050530E+03</pdfrwt>
<totfact> 0.18262591E+00</totfact>
</mgrwt>
</event>
<event>
13    1  0.1589573E-008  0.4431833E+02  0.7546771E-02  0.1568209E+00
          2   -1    0    0  502    0  0.00000000000E+00  0.00000000000E+00  0.22793126753E+04  0.22793126753E+04  0.00000000000E+00 0. -1.
          2   -1    0    0  503    0 -0.00000000000E+00 -0.00000000000E+00 -0.46283598159E+03  0.46283598159E+03  0.00000000000E+00 0. -1.
         24    2    1    2    0    0 -0.97328056003E+02  0.31684388040E+03  0.13878946504E+03  0.36990709225E+03  0.87783519277E+02 0.  0.
         25    2    1    2    0    0  0.27752633805E+03  0.13942192196E+03  0.30783313673E+03  0.45480233637E+03  0.12499833786E+03 0.  0.
         24    2    1    2    0    0 -0.22549922103E+03 -0.43399502906E+03  0.41649263259E+03  0.64726226605E+03  0.79251145788E+02 0.  0.
        -11    1    5    5    0    0 -0.35531519685E+02 -0.12540589675E+03  0.81201966429E+02  0.15356720738E+03  0.00000000000E+00 0.  1.
         12    1    5    5    0    0 -0.18996770135E+03 -0.30858913231E+03  0.33529066616E+03  0.49369505867E+03  0.00000000000E+00 0. -1.
        -13    1    3    3    0    0 -0.10916654822E+03  0.22416583890E+03  0.10524800913E+03  0.27063776900E+03  0.00000000000E+00 0.  1.
         14    1    3    3    0    0  0.11838492221E+02  0.92678041499E+02  0.33541455906E+02  0.99269323249E+02  0.00000000000E+00 0. -1.
          5    1    4    4  501    0  0.35941301501E+02  0.36116502150E+02  0.14920429126E+01  0.51190771367E+02  0.47000000000E+01 0. -1.
         -5    1    4    4    0  501  0.24158503655E+03  0.10330541981E+03  0.30634109382E+03  0.40361156501E+03  0.47000000000E+01 0. -1.
          1    1    1    2  502    0  0.10326221640E+01 -0.24382005512E+02  0.11085324681E+04  0.11088010558E+04  0.00000000000E+00 0. -1.
          1    1    1    2  503    0  0.44268316826E+02  0.21112322098E+01 -0.15517100882E+03  0.16137590636E+03  0.00000000000E+00 0. -1.
<mgrwt>
<rscale>  0 0.32886753E+02</rscale>
<asrwt>0</asrwt>
<pdfrwt beam="1">  1        2 0.33519304E+00 0.24403862E+02</pdfrwt>
<pdfrwt beam="2">  1        2 0.68064116E-01 0.44318335E+02</pdfrwt>
<totfact> 0.90802447E+01</totfact>
</mgrwt>
</event>
<event>
13    1  0.1589573E-008  0.5711691E+02  0.7546771E-02  0.1438752E+00
          2   -1    0    0  503    0  0.00000000000E+00  0.00000000000E+00  0.23195370115E+04  0.23195370115E+04  0.00000000000E+00 0. -1.
          2   -1    0    0  502    0 -0.00000000000E+00 -0.00000000000E+00 -0.35252861311E+04  0.35252861311E+04  0.00000000000E+00 0. -1.
         24    2    1    2    0    0 -0.27141078424E+03 -0.61592201534E+03 -0.80389690639E+03  0.10534275179E+04  0.10215457209E+03 0.  0.
         25    2    1    2    0    0  0.44666693308E+03  0.74661243421E+02  0.51735786762E+03  0.69883483391E+03  0.12500124609E+03 0.  0.
         24    2    1    2    0    0 -0.18578605619E+03  0.54647226580E+03 -0.49849130961E+03  0.76794464301E+03  0.89983292919E+02 0.  0.
        -11    1    5    5    0    0 -0.77642743558E+02  0.27031349728E+03 -0.29917416830E+03  0.41061291433E+03  0.00000000000E+00 0.  1.
         12    1    5    5    0    0 -0.10814331263E+03  0.27615876853E+03 -0.19931714131E+03  0.35733172868E+03  0.00000000000E+00 0. -1.
        -13    1    3    3    0    0 -0.81914977814E+02 -0.92938513889E+02 -0.16450383892E+03  0.20593480515E+03  0.00000000000E+00 0.  1.
         14    1    3    3    0    0 -0.18949580643E+03 -0.52298350145E+03 -0.63939306747E+03  0.84749271276E+03  0.00000000000E+00 0. -1.
          5    1    4    4  501    0  0.32676640536E+03  0.44491368504E+02  0.45011517109E+03  0.55801570121E+03  0.47000000000E+01 0.  1.
         -5    1    4    4    0  501  0.11990052772E+03  0.30169874917E+02  0.67242696525E+02  0.14081913270E+03  0.47000000000E+01 0.  1.
          1    1    1    2  502    0 -0.45724712040E+02  0.47655129376E+01 -0.18718230955E+04  0.18723875561E+04  0.00000000000E+00 0. -1.
          1    1    1    2  503    0  0.56254619386E+02 -0.99770068248E+01  0.14511043243E+04  0.14522285918E+04  0.00000000000E+00 0. -1.
<mgrwt>
<rscale>  0 0.51242562E+02</rscale>
<asrwt>0</asrwt>
<pdfrwt beam="1">  1        2 0.34110838E+00 0.57116911E+02</pdfrwt>
<pdfrwt beam="2">  1        2 0.51842443E+00 0.45972377E+02</pdfrwt>
<totfact> 0.18257141E+00</totfact>
</mgrwt>
</event>
<event>
13    1  0.1589573E-008  0.9270910E+03  0.7546771E-02  0.9572269E-01
          2   -1    0    0  502    0  0.00000000000E+00  0.00000000000E+00  0.25218701360E+04  0.25218701360E+04  0.00000000000E+00 0. -1.
          2   -1    0    0  503    0 -0.00000000000E+00 -0.00000000000E+00 -0.27551209185E+04  0.27551209185E+04  0.00000000000E+00 0. -1.
         24    2    1    2    0    0  0.30410227112E+03 -0.19671607393E+03 -0.43435532576E+03  0.57113242496E+03  0.79701272131E+02 0.  0.
         25    2    1    2    0    0 -0.33840157552E+03  0.32978857449E+03  0.91663555164E+03  0.10388087248E+04  0.12500680782E+03 0.  0.
         24    2    1    2    0    0 -0.65617259072E+02  0.17428724151E+03  0.19294029242E+03  0.27962884568E+03  0.79275895797E+02 0.  0.
        -11    1    5    5    0    0  0.10629480218E+02 -0.15151815512E+01  0.90283871587E+01  0.14028307080E+02  0.00000000000E+00 0.  1.
         12    1    5    5    0    0 -0.76246739290E+02  0.17580242306E+03  0.18391190527E+03  0.26560053860E+03  0.00000000000E+00 0. -1.
        -13    1    3    3    0    0  0.27652094221E+03 -0.20143227669E+03 -0.41045225473E+03  0.53433121469E+03  0.00000000000E+00 0.  1.
         14    1    3    3    0    0  0.27581328912E+02  0.47162027596E+01 -0.23903071033E+02  0.36801210276E+02  0.00000000000E+00 0. -1.
          5    1    4    4  501    0 -0.86580556433E+02  0.10355441061E+03  0.39014005888E+03  0.41285719596E+03  0.47000000000E+01 0. -1.
         -5    1    4    4    0  501 -0.25182101909E+03  0.22623416388E+03  0.52649549275E+03  0.62595152883E+03  0.47000000000E+01 0. -1.
          1    1    1    2  502    0 -0.95451024559E+03 -0.28929304381E+03  0.86754641625E+03  0.13218990349E+04  0.00000000000E+00 0. -1.
          1    1    1    2  503    0  0.10544268091E+04 -0.18066698248E+02 -0.17760177170E+04  0.20655220241E+04  0.00000000000E+00 0. -1.
<mgrwt>
<rscale>  0 0.79159100E+03</rscale>
<asrwt>0</asrwt>
<pdfrwt beam="1">  1        2 0.37086325E+00 0.92709097E+03</pdfrwt>
<pdfrwt beam="2">  1        2 0.40516484E+00 0.67589518E+03</pdfrwt>
<totfact> 0.18661754E+00</totfact>
</mgrwt>
</event>
<event>
13    1  0.1589573E-008  0.2761392E+03  0.7546771E-02  0.1257902E+00
          2   -1    0    0  502    0  0.00000000000E+00  0.00000000000E+00  0.20274484273E+04  0.20274484273E+04  0.00000000000E+00 0. -1.
          2   -1    0    0  503    0 -0.00000000000E+00 -0.00000000000E+00 -0.10052011377E+04  0.10052011377E+04  0.00000000000E+00 0. -1.
         24    2    1    2    0    0 -0.28372349524E+03 -0.12039546417E+03 -0.21825676666E+03  0.38526417773E+03  0.76147100430E+02 0.  0.
         25    2    1    2    0    0  0.52775879859E+02  0.99332835092E+02  0.61021297373E+03  0.63295890341E+03  0.12499917789E+03 0.  0.
         24    2    1    2    0    0  0.11937249215E+01 -0.13683615202E+03  0.93348596705E+02  0.18412282209E+03  0.80384672836E+02 0.  0.
        -13    1    5    5    0    0 -0.17956181147E+02 -0.59011625240E+02  0.79113248920E+00  0.61688104570E+02  0.00000000000E+00 0.  1.
         14    1    5    5    0    0  0.19149906069E+02 -0.77824526781E+02  0.92557464215E+02  0.12243471752E+03  0.00000000000E+00 0. -1.
        -13    1    3    3    0    0 -0.12007254538E+03 -0.56250380073E+02 -0.14010119929E+03  0.19289859370E+03  0.00000000000E+00 0.  1.
         14    1    3    3    0    0 -0.16365094987E+03 -0.64145084096E+02 -0.78155567371E+02  0.19236558402E+03  0.00000000000E+00 0. -1.
          5    1    4    4  501    0  0.92977476037E+02  0.71736543213E+02  0.46853184206E+03  0.48304774061E+03  0.47000000000E+01 0. -1.
         -5    1    4    4    0  501 -0.40201596177E+02  0.27596291880E+02  0.14168113168E+03  0.14991116281E+03  0.47000000000E+01 0. -1.
          1    1    1    2  502    0  0.34499803549E+02 -0.28867220264E+02  0.11549428527E+04  0.11558185609E+04  0.00000000000E+00 0. -1.
          1    1    1    2  503    0  0.19525408691E+03  0.18676600136E+03 -0.61800036694E+03  0.67448510084E+03  0.00000000000E+00 0. -1.
<mgrwt>
<rscale>  0 0.11145323E+03</rscale>
<asrwt>0</asrwt>
<pdfrwt beam="1">  1        2 0.29815418E+00 0.44983918E+02</pdfrwt>
<pdfrwt beam="2">  1        2 0.14782370E+00 0.27613919E+03</pdfrwt>
<totfact> 0.42044943E+01</totfact>
</mgrwt>
</event>
<event>
13    1  0.1589573E-008  0.9479200E+02  0.7546771E-02  0.1297369E+00
          2   -1    0    0  502    0  0.00000000000E+00  0.00000000000E+00  0.34433473535E+03  0.34433473535E+03  0.00000000000E+00 0. -1.
          2   -1    0    0  503    0 -0.00000000000E+00 -0.00000000000E+00 -0.19039380559E+04  0.19039380559E+04  0.00000000000E+00 0. -1.
         24    2    1    2    0    0 -0.70035124464E+02  0.86255606259E+00 -0.44724161334E+03  0.45946838524E+03  0.78615988606E+02 0.  0.
         25    2    1    2    0    0 -0.25855385578E+02 -0.15897406280E+03  0.28777372988E+02  0.20589247565E+03  0.12498928245E+03 0.  0.
         24    2    1    2    0    0  0.69733961438E+02 -0.14325138210E+02 -0.46492372772E+02  0.11970707077E+03  0.84262726654E+02 0.  0.
        -13    1    3    3    0    0 -0.26115432961E+02 -0.36567468528E+02 -0.14634596185E+03  0.15308930773E+03  0.00000000000E+00 0.  1.
         14    1    3    3    0    0 -0.43919691503E+02  0.37430024591E+02 -0.30089565150E+03  0.30637907750E+03  0.00000000000E+00 0. -1.
        -13    1    5    5    0    0  0.96639305182E+00  0.88070310581E+01 -0.46313045141E+02  0.47152898763E+02  0.00000000000E+00 0.  1.
         14    1    5    5    0    0  0.68767568386E+02 -0.23132169268E+02 -0.17932763108E+00  0.72554172004E+02  0.00000000000E+00 0. -1.
          5    1    4    4  501    0  0.15247834993E+02 -0.48501404420E+02  0.64847588079E+02  0.82535946002E+02  0.47000000000E+01 0. -1.
         -5    1    4    4    0  501 -0.41103220571E+02 -0.11047265838E+03 -0.36070215091E+02  0.12335652965E+03  0.47000000000E+01 0. -1.
          1    1    1    2  502    0 -0.14514951674E+02  0.92286243110E+02  0.17074180299E+03  0.19462835810E+03  0.00000000000E+00 0. -1.
          1    1    1    2  503    0  0.40671500278E+02  0.80150401834E+02 -0.12653885105E+04  0.12685765015E+04  0.00000000000E+00 0. -1.
<mgrwt>
<rscale>  0 0.92302885E+02</rscale>
<asrwt>0</asrwt>
<pdfrwt beam="1">  1        2 0.50637463E-01 0.94792002E+02</pdfrwt>
<pdfrwt beam="2">  1        2 0.27999088E+00 0.89879129E+02</pdfrwt>
<totfact> 0.15766446E+02</totfact>
</mgrwt>
</event>
<event>
13    1  0.1589573E-008  0.1393627E+03  0.7546771E-02  0.1401949E+00
          2   -1    0    0  502    0  0.00000000000E+00  0.00000000000E+00  0.12259495857E+04  0.12259495857E+04  0.00000000000E+00 0. -1.
          2   -1    0    0  503    0 -0.00000000000E+00 -0.00000000000E+00 -0.86807708517E+03  0.86807708517E+03  0.00000000000E+00 0. -1.
         24    2    1    2    0    0 -0.94373335697E+01 -0.15567586397E+03 -0.25571824704E+03  0.31044138868E+03  0.81596544332E+02 0.  0.
         25    2    1    2    0    0 -0.85528010248E+02 -0.11745807000E+03  0.55591439996E+03  0.58802894414E+03  0.12500312127E+03 0.  0.
         24    2    1    2    0    0  0.76710014317E+02  0.15834859125E+03  0.28379507140E+02  0.19587867290E+03  0.81267185412E+02 0.  0.
        -11    1    5    5    0    0 -0.16144731270E+02  0.10919923618E+02  0.46398196939E+01  0.20035593487E+02  0.00000000000E+00 0.  1.
         12    1    5    5    0    0  0.92854745587E+02  0.14742866763E+03  0.23739687446E+02  0.17584307941E+03  0.00000000000E+00 0. -1.
        -13    1    3    3    0    0 -0.16011309985E+02 -0.30308107544E+02 -0.12328579271E+03  0.12796222144E+03  0.00000000000E+00 0.  1.
         14    1    3    3    0    0  0.65739764157E+01 -0.12536775643E+03 -0.13243245433E+03  0.18247916724E+03  0.00000000000E+00 0. -1.
          5    1    4    4  501    0 -0.47781102687E+02  0.91731207471E+01  0.77058077990E+02  0.91253587884E+02  0.47000000000E+01 0. -1.
         -5    1    4    4    0  501 -0.37746907561E+02 -0.12663119074E+03  0.47885632197E+03  0.49677535626E+03  0.47000000000E+01 0. -1.
          1    1    1    2  502    0 -0.12976059056E+02 -0.21372343402E+02  0.50411601506E+03  0.50473568510E+03  0.00000000000E+00 0. -1.
          1    1    1    2  503    0  0.31231388556E+02  0.13615768612E+03 -0.47481917455E+03  0.49494198007E+03  0.00000000000E+00 0. -1.
<mgrwt>
<rscale>  0 0.59029664E+02</rscale>
<asrwt>0</asrwt>
<pdfrwt beam="1">  1        2 0.18028671E+00 0.25003103E+02</pdfrwt>
<pdfrwt beam="2">  1        2 0.12765839E+00 0.13936275E+03</pdfrwt>
<totfact> 0.13082618E+02</totfact>
</mgrwt>
</event>
<event>
13    1  0.1589573E-008  0.1201259E+03  0.7546771E-02  0.1270317E+00
          2   -1    0    0  503    0  0.00000000000E+00  0.00000000000E+00  0.25197495857E+04  0.25197495857E+04  0.00000000000E+00 0. -1.
          2   -1    0    0  502    0 -0.00000000000E+00 -0.00000000000E+00 -0.22280586603E+04  0.22280586603E+04  0.00000000000E+00 0. -1.
         24    2    1    2    0    0  0.95059678012E+02 -0.88423398585E+03  0.28289367042E+03  0.93680082416E+03  0.81614161021E+02 0.  0.
         25    2    1    2    0    0  0.29644265422E+03  0.12733954544E+04 -0.62255637171E+03  0.14534839724E+04  0.12499996676E+03 0.  0.
         24    2    1    2    0    0 -0.27218711065E+03 -0.36715272113E+03 -0.48246948051E+03  0.67236285282E+03  0.10201991177E+03 0.  0.
        -11    1    5    5    0    0 -0.62318701733E+02 -0.16705700108E+03 -0.18096996639E+03  0.25405076448E+03  0.00000000000E+00 0.  1.
         12    1    5    5    0    0 -0.20986840892E+03 -0.20009572005E+03 -0.30149951412E+03  0.41831208835E+03  0.00000000000E+00 0. -1.
        -13    1    3    3    0    0  0.10806378516E+03 -0.71497913146E+03  0.22104078210E+03  0.75612959699E+03  0.00000000000E+00 0.  1.
         14    1    3    3    0    0 -0.13004107149E+02 -0.16925485439E+03  0.61852888323E+02  0.18067122718E+03  0.00000000000E+00 0. -1.
          5    1    4    4  501    0  0.11036717292E+03  0.70985109272E+03 -0.30600598292E+03  0.78085289157E+03  0.47000000000E+01 0.  1.
         -5    1    4    4    0  501  0.18607548130E+03  0.56354436167E+03 -0.31655038879E+03  0.67263108087E+03  0.47000000000E+01 0.  1.
          1    1    1    2  502    0 -0.99827662899E+02  0.67498040679E+02 -0.27137991957E+03  0.29693199309E+03  0.00000000000E+00 0. -1.
          1    1    1    2  503    0 -0.19487558683E+02 -0.89506788094E+02  0.13852030267E+04  0.13882286034E+04  0.00000000000E+00 0. -1.
<mgrwt>
<rscale>  0 0.10489983E+03</rscale>
<asrwt>0</asrwt>
<pdfrwt beam="1">  1        2 0.37055141E+00 0.91603657E+02</pdfrwt>
<pdfrwt beam="2">  1        2 0.32765568E+00 0.12012593E+03</pdfrwt>
<totfact> 0.56037365E+00</totfact>
</mgrwt>
</event>
<event>
13    1  0.1589573E-008  0.4336324E+02  0.7546771E-02  0.1562588E+00
          2   -1    0    0  503    0  0.00000000000E+00  0.00000000000E+00  0.21876024510E+04  0.21876024510E+04  0.00000000000E+00 0. -1.
          2   -1    0    0  502    0 -0.00000000000E+00 -0.00000000000E+00 -0.12830596333E+04  0.12830596333E+04  0.00000000000E+00 0. -1.
         24    2    1    2    0    0  0.59067147645E+02 -0.75814239459E+02 -0.75896320285E+02  0.14570978222E+03  0.78957978491E+02 0.  0.
         25    2    1    2    0    0 -0.88701810175E+01  0.67751306097E+02  0.46544647404E+03  0.48675838563E+03  0.12499754478E+03 0.  0.
         24    2    1    2    0    0 -0.10076458381E+03 -0.13453336316E+02  0.32121266581E+03  0.34636087781E+03  0.80335467846E+02 0.  0.
        -11    1    5    5    0    0 -0.25375472570E+02  0.29791197518E+02  0.14028608609E+03  0.14564208186E+03  0.00000000000E+00 0.  1.
         12    1    5    5    0    0 -0.75389111237E+02 -0.43244533834E+02  0.18092657972E+03  0.20071879595E+03  0.00000000000E+00 0. -1.
        -11    1    3    3    0    0  0.47172057634E+01 -0.67371325958E+02 -0.29278185132E+02  0.73609508327E+02  0.00000000000E+00 0.  1.
         12    1    3    3    0    0  0.54349941882E+02 -0.84429135013E+01 -0.46618135153E+02  0.72100273898E+02  0.00000000000E+00 0. -1.
          5    1    4    4  501    0 -0.20274911110E+02  0.10229048888E+03  0.31239222377E+03  0.32937123069E+03  0.47000000000E+01 0. -1.
         -5    1    4    4    0  501  0.11404730093E+02 -0.34539182782E+02  0.15305425027E+03  0.15738715494E+03  0.47000000000E+01 0. -1.
          1    1    1    2  502    0  0.43237748871E+02 -0.32617863433E+01 -0.11484930586E+04  0.11493112929E+04  0.00000000000E+00 0. -1.
          1    1    1    2  503    0  0.73298683079E+01  0.24778056022E+02  0.13422730568E+04  0.13425217458E+04  0.00000000000E+00 0. -1.
<mgrwt>
<rscale>  0 0.33473630E+02</rscale>
<asrwt>0</asrwt>
<pdfrwt beam="1">  1        2 0.32170624E+00 0.25839486E+02</pdfrwt>
<pdfrwt beam="2">  1        2 0.18868524E+00 0.43363244E+02</pdfrwt>
<totfact> 0.29865017E+01</totfact>
</mgrwt>
</event>
<event>
13    1  0.1589573E-008  0.3904426E+02  0.7546771E-02  0.1537559E+00
          2   -1    0    0  503    0  0.00000000000E+00  0.00000000000E+00  0.51647481437E+03  0.51647481437E+03  0.00000000000E+00 0. -1.
          2   -1    0    0  502    0 -0.00000000000E+00 -0.00000000000E+00 -0.18724205148E+04  0.18724205148E+04  0.00000000000E+00 0. -1.
         24    2    1    2    0    0  0.10674820778E+02  0.27171205552E+02 -0.16627628653E+04  0.16649958395E+04  0.81108402519E+02 0.  0.
         25    2    1    2    0    0 -0.67959820881E+02 -0.79849836830E+02  0.10019930671E+03  0.19146699043E+03  0.12500069465E+03 0.  0.
         24    2    1    2    0    0  0.71175116188E+02  0.76905458440E+02 -0.22689530020E+02  0.14134760243E+03  0.92108540522E+02 0.  0.
        -11    1    5    5    0    0  0.16447932538E+02  0.50147196428E+02  0.30084953640E+02  0.60748499816E+02  0.00000000000E+00 0.  1.
         12    1    5    5    0    0  0.54727183650E+02  0.26758262012E+02 -0.52774483660E+02  0.80599102611E+02  0.00000000000E+00 0. -1.
        -13    1    3    3    0    0 -0.31957821686E+02  0.51557652354E+01 -0.39458282834E+03  0.39590843980E+03  0.00000000000E+00 0.  1.
         14    1    3    3    0    0  0.42632642464E+02  0.22015440317E+02 -0.12681800370E+04  0.12690873997E+04  0.00000000000E+00 0. -1.
          5    1    4    4  501    0 -0.23118830205E+02 -0.11607596308E+02  0.10624748294E+03  0.10945242909E+03  0.47000000000E+01 0. -1.
         -5    1    4    4    0  501 -0.44840990676E+02 -0.68242240522E+02 -0.60481762299E+01  0.82014561341E+02  0.47000000000E+01 0. -1.
          1    1    1    2  502    0 -0.32076618322E+02  0.10342095628E+02 -0.76079363130E+02  0.83210202976E+02  0.00000000000E+00 0. -1.
          1    1    1    2  503    0  0.18186502238E+02 -0.34568922790E+02  0.30538675129E+03  0.30787469391E+03  0.00000000000E+00 0. -1.
<mgrwt>
<rscale>  0 0.36275265E+02</rscale>
<asrwt>0</asrwt>
<pdfrwt beam="1">  1        2 0.75952176E-01 0.39044259E+02</pdfrwt>
<pdfrwt beam="2">  1        2 0.27535597E+00 0.33702647E+02</pdfrwt>
<totfact> 0.11897468E+02</totfact>
</mgrwt>
</event>
<event>
13    1  0.1589573E-008  0.3632503E+02  0.7546771E-02  0.1605786E+00
          2   -1    0    0  502    0  0.00000000000E+00  0.00000000000E+00  0.29641276576E+04  0.29641276576E+04  0.00000000000E+00 0. -1.
          2   -1    0    0  503    0 -0.00000000000E+00 -0.00000000000E+00 -0.19158361709E+04  0.19158361709E+04  0.00000000000E+00 0. -1.
         24    2    1    2    0    0 -0.32026984997E+03 -0.19675908325E+03  0.97339839727E+01  0.38442948537E+03  0.80027277478E+02 0.  0.
         25    2    1    2    0    0  0.53442763044E+03  0.41933600982E+03  0.21560861649E+04  0.22640204967E+04  0.12500271040E+03 0.  0.
         24    2    1    2    0    0 -0.20328039186E+03 -0.23900622200E+03  0.32790733318E+03  0.45815920260E+03  0.62767379292E+02 0.  0.
        -13    1    3    3    0    0 -0.23309320509E+03 -0.17372069252E+03  0.29237372755E+02  0.29217485387E+03  0.00000000000E+00 0.  1.
         14    1    3    3    0    0 -0.87176644879E+02 -0.23038390730E+02 -0.19503388783E+02  0.92254631503E+02  0.00000000000E+00 0. -1.
        -13    1    5    5    0    0 -0.17373623201E+03 -0.22936815088E+03  0.30663992927E+03  0.42050216786E+03  0.00000000000E+00 0.  1.
         14    1    5    5    0    0 -0.29544159852E+02 -0.96380711147E+01  0.21267403907E+02  0.37657034736E+02  0.00000000000E+00 0. -1.
          5    1    4    4  501    0  0.13131375447E+03  0.11930831718E+03  0.75366139733E+03  0.77427732014E+03  0.47000000000E+01 0. -1.
         -5    1    4    4    0  501  0.40311387596E+03  0.30002769265E+03  0.14024247676E+04  0.14897431766E+04  0.47000000000E+01 0. -1.
          1    1    1    2  502    0  0.23297501860E+02  0.41128743099E+01  0.16289976333E+03  0.16460869424E+03  0.00000000000E+00 0. -1.
          1    1    1    2  503    0 -0.34174890465E+02  0.12316421111E+02 -0.16083357587E+04  0.16087459495E+04  0.00000000000E+00 0. -1.
<mgrwt>
<rscale>  0 0.29314992E+02</rscale>
<asrwt>0</asrwt>
<pdfrwt beam="1">  1        2 0.43590113E+00 0.23657754E+02</pdfrwt>
<pdfrwt beam="2">  1        2 0.28174061E+00 0.36325035E+02</pdfrwt>
<totfact> 0.67244176E+00</totfact>
</mgrwt>
</event>
<event>
13    1  0.1589573E-008  0.1358906E+03  0.7546771E-02  0.1247884E+00
          2   -1    0    0  503    0  0.00000000000E+00  0.00000000000E+00  0.37691042869E+04  0.37691042869E+04  0.00000000000E+00 0. -1.
         -1   -1    0    0    0  501 -0.00000000000E+00 -0.00000000000E+00 -0.15255994818E+04  0.15255994818E+04  0.00000000000E+00 0.  1.
         24    2    1    2    0    0  0.16470183652E+02 -0.22041277369E+03 -0.59628961497E+03  0.64048063577E+03  0.76164835143E+02 0.  0.
         25    2    1    2    0    0 -0.25646037650E+02  0.36023293933E+03  0.10587129178E+04  0.11255771530E+04  0.12500158066E+03 0.  0.
         24    2    1    2    0    0  0.21310144955E+02  0.34573068417E+01 -0.18610333820E+03  0.20487420512E+03  0.82903028821E+02 0.  0.
        -11    1    3    3    0    0 -0.13990372950E+01 -0.20990296961E+03 -0.50540692486E+03  0.54726353218E+03  0.00000000000E+00 0.  1.
         12    1    3    3    0    0  0.17869220947E+02 -0.10509804078E+02 -0.90882690109E+02  0.93217103584E+02  0.00000000000E+00 0. -1.
        -13    1    5    5    0    0 -0.19912347996E+02  0.24597459980E+02 -0.12033905333E+03  0.12443080164E+03  0.00000000000E+00 0.  1.
         14    1    5    5    0    0  0.41222492952E+02 -0.21140153138E+02 -0.65764284869E+02  0.80443403485E+02  0.00000000000E+00 0. -1.
          5    1    4    4  502    0 -0.23326802245E+02  0.31432261142E+03  0.75188008830E+03  0.81528436814E+03  0.47000000000E+01 0.  1.
         -5    1    4    4    0  502 -0.23192354050E+01  0.45910327906E+02  0.30683282955E+03  0.31029278488E+03  0.47000000000E+01 0.  1.
          1    1    1    2  503    0 -0.80758289347E+02  0.60647181175E+02  0.26274208295E+04  0.26293611766E+04  0.00000000000E+00 0. -1.
         -2    1    1    2    0  501  0.68623998389E+02 -0.20392465366E+03 -0.66023598906E+03  0.69441059812E+03  0.00000000000E+00 0.  1.
<mgrwt>
<rscale>  0 0.11714426E+03</rscale>
<asrwt>0</asrwt>
<pdfrwt beam="1">  1        2 0.55428004E+00 0.10098405E+03</pdfrwt>
<pdfrwt beam="2">  1       -1 0.22435287E+00 0.13589055E+03</pdfrwt>
<totfact> 0.14825661E-01</totfact>
</mgrwt>
</event>
<event>
13    1  0.1589573E-008  0.7107134E+02  0.7546771E-02  0.1398050E+00
         -1   -1    0    0    0  501 -0.00000000000E+00  0.00000000000E+00  0.99506560530E+03  0.99506560530E+03  0.00000000000E+00 0.  1.
          2   -1    0    0  503    0  0.00000000000E+00 -0.00000000000E+00 -0.69237812458E+03  0.69237812458E+03  0.00000000000E+00 0. -1.
         24    2    1    2    0    0  0.24530273722E+02  0.16031430155E+02  0.23879488968E+03  0.25672995212E+03  0.89602052970E+02 0.  0.
         25    2    1    2    0    0 -0.30100234262E+02 -0.89170846355E+02  0.12385466783E+03  0.19955633895E+03  0.12500115891E+03 0.  0.
         24    2    1    2    0    0 -0.91069905116E+01 -0.10435955629E+01 -0.15697628994E+02  0.82283544688E+02  0.80250481634E+02 0.  0.
        -11    1    3    3    0    0  0.30805056771E+02  0.50517906383E+02  0.15397860177E+03  0.16495581284E+03  0.00000000000E+00 0.  1.
         12    1    3    3    0    0 -0.62747830493E+01 -0.34486476228E+02  0.84816287909E+02  0.91774139275E+02  0.00000000000E+00 0. -1.
        -11    1    5    5    0    0 -0.36908701359E+02  0.11610772281E+02 -0.29606620142E+02  0.48719751900E+02  0.00000000000E+00 0.  1.
         12    1    5    5    0    0  0.27801710847E+02 -0.12654367844E+02  0.13908991148E+02  0.33563792788E+02  0.00000000000E+00 0. -1.
          5    1    4    4  502    0  0.36029676445E+02 -0.24717401106E+01  0.67561081379E+02  0.76751786957E+02  0.47000000000E+01 0.  1.
         -5    1    4    4    0  502 -0.66129910708E+02 -0.86699106244E+02  0.56293586452E+02  0.12280455199E+03  0.47000000000E+01 0.  1.
          1    1    1    2  503    0 -0.34456114931E+02  0.62232791578E+02 -0.59328268309E+03  0.59753199601E+03  0.00000000000E+00 0. -1.
         -2    1    1    2    0  501  0.49133065983E+02  0.11950220184E+02  0.54901823529E+03  0.55134189812E+03  0.00000000000E+00 0.  1.
<mgrwt>
<rscale>  0 0.59947938E+02</rscale>
<asrwt>0</asrwt>
<pdfrwt beam="2">  1        2 0.10182031E+00 0.71071344E+02</pdfrwt>
<pdfrwt beam="1">  1       -1 0.14633318E+00 0.50565462E+02</pdfrwt>
<totfact> 0.24171620E+01</totfact>
</mgrwt>
</event>
<event>
13    1  0.1589573E-008  0.2488387E+03  0.7546771E-02  0.1324777E+00
          2   -1    0    0  503    0  0.00000000000E+00  0.00000000000E+00  0.15199470159E+04  0.15199470159E+04  0.00000000000E+00 0. -1.
          2   -1    0    0  502    0 -0.00000000000E+00 -0.00000000000E+00 -0.30485407237E+04  0.30485407237E+04  0.00000000000E+00 0. -1.
         24    2    1    2    0    0 -0.58501454309E+02  0.14199965660E+03 -0.35406037739E+03  0.39404488418E+03  0.79538024144E+02 0.  0.
         25    2    1    2    0    0  0.24739036048E+03  0.10221822287E+03 -0.13267626064E+04  0.13592553326E+04  0.12500195955E+03 0.  0.
         24    2    1    2    0    0  0.21014886783E+02 -0.77043715732E+02 -0.14823902570E+03  0.18680458041E+03  0.80893651913E+02 0.  0.
        -11    1    3    3    0    0 -0.39691204410E+02  0.18557285973E+02 -0.57678630280E+02  0.72433341502E+02  0.00000000000E+00 0.  1.
         12    1    3    3    0    0 -0.18810249898E+02  0.12344237063E+03 -0.29638174711E+03  0.32161154268E+03  0.00000000000E+00 0. -1.
        -13    1    5    5    0    0 -0.13212377820E+01  0.10376429692E+02  0.28345914245E+01  0.10837475305E+02  0.00000000000E+00 0.  1.
         14    1    5    5    0    0  0.22336124565E+02 -0.87420145425E+02 -0.15107361712E+03  0.17596710510E+03  0.00000000000E+00 0. -1.
          5    1    4    4  501    0  0.48445823368E+00  0.21927233794E+02 -0.34430731048E+02  0.41092621262E+02  0.47000000000E+01 0. -1.
         -5    1    4    4    0  501  0.24690590224E+03  0.80290989073E+02 -0.12923318753E+04  0.13181627113E+04  0.47000000000E+01 0. -1.
          1    1    1    2  502    0 -0.49403744467E+01 -0.26248922651E+02 -0.11532394225E+04  0.11535486895E+04  0.00000000000E+00 0. -1.
          1    1    1    2  503    0 -0.20496341850E+03 -0.14092524108E+03  0.14537077242E+04  0.14748342531E+04  0.00000000000E+00 0. -1.
<mgrwt>
<rscale>  0 0.81525652E+02</rscale>
<asrwt>0</asrwt>
<pdfrwt beam="1">  1        2 0.22352162E+00 0.24883873E+03</pdfrwt>
<pdfrwt beam="2">  1        2 0.44831481E+00 0.26709797E+02</pdfrwt>
<totfact> 0.77914632E+00</totfact>
</mgrwt>
</event>
<event>
13    1  0.1589573E-008  0.1673218E+03  0.7546771E-02  0.1181875E+00
          2   -1    0    0  503    0  0.00000000000E+00  0.00000000000E+00  0.14632421159E+04  0.14632421159E+04  0.00000000000E+00 0. -1.
          2   -1    0    0  502    0 -0.00000000000E+00 -0.00000000000E+00 -0.19991414628E+04  0.19991414628E+04  0.00000000000E+00 0. -1.
         24    2    1    2    0    0  0.51630914568E+02  0.13724737358E+02 -0.16399903234E+03  0.18917968712E+03  0.77711978848E+02 0.  0.
         25    2    1    2    0    0  0.32336673612E+03 -0.30700973722E+03 -0.73199286361E+03  0.86617541854E+03  0.12500111412E+03 0.  0.
         24    2    1    2    0    0  0.10199641809E+02 -0.95096819768E+02  0.68308016626E+02  0.14127577065E+03  0.78392731896E+02 0.  0.
        -11    1    3    3    0    0  0.33292784749E+02 -0.31244047498E+02 -0.75519135568E+02  0.88248171978E+02  0.00000000000E+00 0.  1.
         12    1    3    3    0    0  0.18338129819E+02  0.44968784856E+02 -0.88479896768E+02  0.10093151514E+03  0.00000000000E+00 0. -1.
        -11    1    5    5    0    0  0.42489208450E+02 -0.33718345294E+02  0.27657975187E+02  0.60886970983E+02  0.00000000000E+00 0.  1.
         12    1    5    5    0    0 -0.32289566642E+02 -0.61378474474E+02  0.40650041439E+02  0.80388799665E+02  0.00000000000E+00 0. -1.
          5    1    4    4  501    0  0.17766583093E+02 -0.73717884383E+02 -0.15778202724E+03  0.17512063292E+03  0.47000000000E+01 0.  1.
         -5    1    4    4    0  501  0.30560015303E+03 -0.23329185284E+03 -0.57421083637E+03  0.69105478563E+03  0.47000000000E+01 0.  1.
          1    1    1    2  502    0 -0.21373573765E+03  0.14933595660E+03 -0.95230521858E+03  0.98735476036E+03  0.00000000000E+00 0. -1.
          1    1    1    2  503    0 -0.17146155485E+03  0.23904586303E+03  0.12440897510E+04  0.12783979420E+04  0.00000000000E+00 0. -1.
<mgrwt>
<rscale>  0 0.16619469E+03</rscale>
<asrwt>0</asrwt>
<pdfrwt beam="1">  1        2 0.21518266E+00 0.16507513E+03</pdfrwt>
<pdfrwt beam="2">  1        2 0.29399139E+00 0.16732185E+03</pdfrwt>
<totfact> 0.21833066E+01</totfact>
</mgrwt>
</event>
<event>
13    1  0.1589573E-008  0.8919839E+02  0.7546771E-02  0.1362569E+00
          2   -1    0    0  503    0  0.00000000000E+00  0.00000000000E+00  0.32440072706E+03  0.32440072706E+03  0.00000000000E+00 0. -1.
          2   -1    0    0  502    0 -0.00000000000E+00 -0.00000000000E+00 -0.37089746594E+03  0.37089746594E+03  0.00000000000E+00 0. -1.
         24    2    1    2    0    0  0.15303846669E+02  0.26929029743E+02 -0.35228037052E+02  0.94013680542E+02  0.81475009474E+02 0.  0.
         25    2    1    2    0    0  0.38475849585E+02  0.18496723518E+02  0.16223404302E+03  0.20920748371E+03  0.12500146696E+03 0.  0.
         24    2    1    2    0    0  0.26945935254E+02  0.46541509830E+02 -0.47436056147E+02  0.10564359429E+03  0.77577019976E+02 0.  0.
        -11    1    3    3    0    0 -0.33645932282E+02  0.11456073552E+02 -0.10703212053E+02  0.37119390197E+02  0.00000000000E+00 0.  1.
         12    1    3    3    0    0  0.48949778951E+02  0.15472956190E+02 -0.24524824999E+02  0.56894290345E+02  0.00000000000E+00 0. -1.
        -13    1    5    5    0    0  0.33568083476E+02 -0.16354731521E+01 -0.46029818408E+02  0.56993290687E+02  0.00000000000E+00 0.  1.
         14    1    5    5    0    0 -0.66221482223E+01  0.48176982982E+02 -0.14062377394E+01  0.48650303606E+02  0.00000000000E+00 0. -1.
          5    1    4    4  501    0 -0.23092915680E+02 -0.38590830190E+02  0.78143677678E+02  0.90283217102E+02  0.47000000000E+01 0. -1.
         -5    1    4    4    0  501  0.61568765265E+02  0.57087553707E+02  0.84090365338E+02  0.11892426660E+03  0.47000000000E+01 0. -1.
          1    1    1    2  502    0 -0.99497435192E+02 -0.41543219638E+02 -0.18027331074E+03  0.21005724285E+03  0.00000000000E+00 0. -1.
          1    1    1    2  503    0  0.18771803684E+02 -0.50424043452E+02  0.54206622039E+02  0.76376191608E+02  0.00000000000E+00 0. -1.
<mgrwt>
<rscale>  0 0.69277040E+02</rscale>
<asrwt>0</asrwt>
<pdfrwt beam="1">  1        2 0.47705989E-01 0.53804877E+02</pdfrwt>
<pdfrwt beam="2">  1        2 0.54543745E-01 0.89198388E+02</pdfrwt>
<totfact> 0.14751321E+03</totfact>
</mgrwt>
</event>
<event>
13    1  0.1589573E-008  0.2009732E+03  0.7546771E-02  0.1363344E+00
          2   -1    0    0  503    0  0.00000000000E+00  0.00000000000E+00  0.13221349978E+04  0.13221349978E+04  0.00000000000E+00 0. -1.
          2   -1    0    0  502    0 -0.00000000000E+00 -0.00000000000E+00 -0.14436159450E+04  0.14436159450E+04  0.00000000000E+00 0. -1.
         24    2    1    2    0    0 -0.98850227217E+02  0.19096491682E+03  0.24721984137E+03  0.33757171773E+03  0.81228368005E+02 0.  0.
         25    2    1    2    0    0  0.29098882036E+03 -0.16453047690E+03 -0.16872145474E+03  0.39476160428E+03  0.12500009409E+03 0.  0.
         24    2    1    2    0    0  0.63269894768E+01  0.36020204034E+02 -0.19546826248E+02  0.91151052808E+02  0.81172348229E+02 0.  0.
        -11    1    3    3    0    0  0.43128788881E+01  0.13850953654E+02 -0.22694843831E+01  0.14683337523E+02  0.00000000000E+00 0.  1.
         12    1    3    3    0    0 -0.10316310610E+03  0.17711396316E+03  0.24948932576E+03  0.32288838021E+03  0.00000000000E+00 0. -1.
        -11    1    5    5    0    0  0.43717390157E+02  0.20148517455E+02 -0.14155601710E+02  0.50175233109E+02  0.00000000000E+00 0.  1.
         12    1    5    5    0    0 -0.37390400681E+02  0.15871686579E+02 -0.53912245380E+01  0.40975819698E+02  0.00000000000E+00 0. -1.
          5    1    4    4  501    0  0.57632386631E+02  0.17982422877E+02 -0.30941046979E+02  0.68002190475E+02  0.47000000000E+01 0.  1.
         -5    1    4    4    0  501  0.23335643373E+03 -0.18251289978E+03 -0.13778040776E+03  0.32675941380E+03  0.47000000000E+01 0.  1.
          1    1    1    2  502    0 -0.10008041445E+01 -0.23704793356E+02 -0.10497217717E+04  0.10499898651E+04  0.00000000000E+00 0. -1.
          1    1    1    2  503    0 -0.19746477848E+03 -0.38749850597E+02  0.86928926418E+03  0.89227670287E+03  0.00000000000E+00 0. -1.
<mgrwt>
<rscale>  0 0.69052682E+02</rscale>
<asrwt>0</asrwt>
<pdfrwt beam="1">  1        2 0.19443162E+00 0.20097323E+03</pdfrwt>
<pdfrwt beam="2">  1        2 0.21229646E+00 0.23725911E+02</pdfrwt>
<totfact> 0.56104026E+01</totfact>
</mgrwt>
</event>
<event>
13    1  0.1589573E-008  0.9654145E+02  0.7546771E-02  0.1335611E+00
          2   -1    0    0  502    0  0.00000000000E+00  0.00000000000E+00  0.90589161152E+03  0.90589161152E+03  0.00000000000E+00 0. -1.
          2   -1    0    0  503    0 -0.00000000000E+00 -0.00000000000E+00 -0.29396692427E+04  0.29396692427E+04  0.00000000000E+00 0. -1.
         24    2    1    2    0    0 -0.12629868094E+01  0.84481326484E+02 -0.31337896080E+03  0.33411940181E+03  0.79314008455E+02 0.  0.
         25    2    1    2    0    0 -0.43705316162E+02  0.36025934600E+01  0.36674549535E+03  0.38993619569E+03  0.12499938004E+03 0.  0.
         24    2    1    2    0    0  0.18497318778E+02  0.12411522808E+02 -0.12119646754E+02  0.82536766564E+02  0.78544479736E+02 0.  0.
        -11    1    5    5    0    0  0.24032260780E+02 -0.30220078908E+02 -0.70531299987E+01  0.39249832741E+02  0.00000000000E+00 0.  1.
         12    1    5    5    0    0 -0.55349420018E+01  0.42631601715E+02 -0.50665167558E+01  0.43286933823E+02  0.00000000000E+00 0. -1.
        -13    1    3    3    0    0  0.12585257270E+02 -0.55873165111E+01 -0.11488164803E+03  0.11570393192E+03  0.00000000000E+00 0.  1.
         14    1    3    3    0    0 -0.13848244079E+02  0.90068642996E+02 -0.19849731277E+03  0.21841546990E+03  0.00000000000E+00 0. -1.
          5    1    4    4  501    0 -0.20954345859E+02  0.16260944368E+02  0.36206928111E+03  0.36306990683E+03  0.47000000000E+01 0.  1.
         -5    1    4    4    0  501 -0.22750970303E+02 -0.12658350908E+02  0.46762142381E+01  0.26866288858E+02  0.47000000000E+01 0.  1.
          1    1    1    2  502    0  0.92999224827E+01  0.61893905842E+02  0.47731982865E+03  0.48140581941E+03  0.00000000000E+00 0. -1.
          1    1    1    2  503    0  0.17171061710E+02 -0.16238934859E+03 -0.25523443477E+04  0.25575626708E+04  0.00000000000E+00 0. -1.
<mgrwt>
<rscale>  0 0.77732895E+02</rscale>
<asrwt>0</asrwt>
<pdfrwt beam="1">  1        2 0.13321935E+00 0.62588690E+02</pdfrwt>
<pdfrwt beam="2">  1        2 0.43230430E+00 0.96541452E+02</pdfrwt>
<totfact> 0.16604481E+01</totfact>
</mgrwt>
</event>
<event>
13    1  0.1589573E-008  0.9423925E+02  0.7546771E-02  0.1373511E+00
          2   -1    0    0  503    0  0.00000000000E+00  0.00000000000E+00  0.39757726852E+04  0.39757726852E+04  0.00000000000E+00 0. -1.
          2   -1    0    0  502    0 -0.00000000000E+00 -0.00000000000E+00 -0.19588265649E+04  0.19588265649E+04  0.00000000000E+00 0. -1.
         24    2    1    2    0    0 -0.32157236203E+03 -0.33109482514E+03 -0.10408750432E+03  0.47662530942E+03  0.57488344595E+02 0.  0.
         25    2    1    2    0    0  0.49112645719E+03  0.80771655110E+03  0.32000900907E+03  0.10058046159E+04  0.12500374255E+03 0.  0.
         24    2    1    2    0    0 -0.19496322704E+03 -0.60337750936E+03  0.26800668066E+03  0.69323626496E+03  0.81693692999E+02 0.  0.
        -11    1    3    3    0    0 -0.15200755508E+03 -0.19487273757E+03 -0.44687986065E+02  0.25115472670E+03  0.00000000000E+00 0.  1.
         12    1    3    3    0    0 -0.16956480695E+03 -0.13622208758E+03 -0.59399518252E+02  0.22547058272E+03  0.00000000000E+00 0. -1.
        -13    1    5    5    0    0 -0.65609321475E+02 -0.10966223096E+03  0.37203241150E+02  0.13309571412E+03  0.00000000000E+00 0.  1.
         14    1    5    5    0    0 -0.12935390557E+03 -0.49371527840E+03  0.23080343951E+03  0.56014055085E+03  0.00000000000E+00 0. -1.
          5    1    4    4  501    0  0.59344997950E+02  0.39981364537E+02  0.12244713684E+02  0.72748617204E+02  0.47000000000E+01 0. -1.
         -5    1    4    4    0  501  0.43178145924E+03  0.76773518656E+03  0.30776429539E+03  0.93305599872E+03  0.47000000000E+01 0. -1.
          1    1    1    2  502    0  0.43107735306E+02  0.83751157859E+02 -0.11107597013E+04  0.11147464498E+04  0.00000000000E+00 0. -1.
          1    1    1    2  503    0 -0.17698603423E+02  0.43004625553E+02  0.26437776362E+04  0.26441866100E+04  0.00000000000E+00 0. -1.
<mgrwt>
<rscale>  0 0.66200594E+02</rscale>
<asrwt>0</asrwt>
<pdfrwt beam="1">  1        2 0.58467245E+00 0.46504176E+02</pdfrwt>
<pdfrwt beam="2">  1        2 0.28806273E+00 0.94239249E+02</pdfrwt>
<totfact> 0.13600645E+00</totfact>
</mgrwt>
</event>
<event>
13    1  0.1589573E-008  0.3945657E+02  0.7546771E-02  0.1527179E+00
          2   -1    0    0  503    0  0.00000000000E+00  0.00000000000E+00  0.20879185901E+04  0.20879185901E+04  0.00000000000E+00 0. -1.
          2   -1    0    0  502    0 -0.00000000000E+00 -0.00000000000E+00 -0.86897319302E+03  0.86897319302E+03  0.00000000000E+00 0. -1.
         24    2    1    2    0    0 -0.76371982567E+01  0.24611934269E+02 -0.38892713063E+02  0.93019969496E+02  0.80473582559E+02 0.  0.
         25    2    1    2    0    0 -0.11833717033E+03  0.65627606368E+02  0.45180388960E+03  0.48791588896E+03  0.12499796574E+03 0.  0.
         24    2    1    2    0    0  0.94198442174E+02 -0.82778060989E+02  0.48054609978E+03  0.50309037858E+03  0.80310778334E+02 0.  0.
        -13    1    3    3    0    0 -0.39753038563E+02 -0.43443447902E+01 -0.10691125119E+02  0.41394173055E+02  0.00000000000E+00 0.  1.
         14    1    3    3    0    0  0.32115840306E+02  0.28956279060E+02 -0.28201587945E+02  0.51625796441E+02  0.00000000000E+00 0. -1.
        -13    1    5    5    0    0  0.76316365355E+01  0.11684073557E+02  0.16157127336E+02  0.21349759129E+02  0.00000000000E+00 0.  1.
         14    1    5    5    0    0  0.86566805638E+02 -0.94462134546E+02  0.46438897245E+03  0.48174061945E+03  0.00000000000E+00 0. -1.
          5    1    4    4  501    0 -0.28527179556E+02 -0.87824668333E+01  0.11382448273E+02  0.32289035690E+02  0.47000000000E+01 0. -1.
         -5    1    4    4    0  501 -0.89809990777E+02  0.74410073201E+02  0.44042144133E+03  0.45562685327E+03  0.47000000000E+01 0. -1.
          1    1    1    2  502    0  0.12416324418E+02 -0.37464049087E+02 -0.77289507097E+03  0.77390213258E+03  0.00000000000E+00 0. -1.
          1    1    1    2  503    0  0.19359601997E+02  0.30002569438E+02  0.10983831917E+04  0.10989634135E+04  0.00000000000E+00 0. -1.
<mgrwt>
<rscale>  0 0.37534688E+02</rscale>
<asrwt>0</asrwt>
<pdfrwt beam="1">  1        2 0.30704685E+00 0.35706419E+02</pdfrwt>
<pdfrwt beam="2">  1        2 0.12779018E+00 0.39456569E+02</pdfrwt>
<totfact> 0.53209546E+01</totfact>
</mgrwt>
</event>
<event>
13    1  0.1589573E-008  0.6165275E+02  0.7546771E-02  0.1462459E+00
          2   -1    0    0  503    0  0.00000000000E+00  0.00000000000E+00  0.15191513410E+04  0.15191513410E+04  0.00000000000E+00 0. -1.
          2   -1    0    0  502    0 -0.00000000000E+00 -0.00000000000E+00 -0.28814902867E+04  0.28814902867E+04  0.00000000000E+00 0. -1.
         24    2    1    2    0    0  0.33626893732E+03  0.60157819901E+03 -0.71773723534E+03  0.99814996880E+03  0.78635192525E+02 0.  0.
         25    2    1    2    0    0 -0.15210845581E+03  0.26414262880E+03  0.51028117395E+03  0.60738783763E+03  0.12499919256E+03 0.  0.
         24    2    1    2    0    0 -0.19569646828E+03 -0.84225523604E+03 -0.85260011145E+03  0.12179298796E+04  0.93462566323E+02 0.  0.
        -13    1    5    5    0    0 -0.94588363919E+02 -0.23478210633E+03 -0.27208201511E+03  0.37161568722E+03  0.00000000000E+00 0.  1.
         14    1    5    5    0    0 -0.10110810436E+03 -0.60747312971E+03 -0.58051809634E+03  0.84631419241E+03  0.00000000000E+00 0. -1.
        -13    1    3    3    0    0  0.17329480786E+03  0.38641870801E+03 -0.45113923877E+03  0.61877065306E+03  0.00000000000E+00 0.  1.
         14    1    3    3    0    0  0.16297412946E+03  0.21515949100E+03 -0.26659799657E+03  0.37937931574E+03  0.00000000000E+00 0. -1.
          5    1    4    4  501    0 -0.12950922192E+03  0.12491986248E+03  0.35183932443E+03  0.39520957835E+03  0.47000000000E+01 0. -1.
         -5    1    4    4    0  501 -0.22599233889E+02  0.13922276632E+03  0.15844184952E+03  0.21217825928E+03  0.47000000000E+01 0. -1.
          1    1    1    2  502    0  0.32589366088E+02 -0.52383628991E+02 -0.93821265375E+03  0.94023884999E+03  0.00000000000E+00 0. -1.
          1    1    1    2  503    0 -0.21053379319E+02  0.28918037224E+02  0.63592988086E+03  0.63693509169E+03  0.00000000000E+00 0. -1.
<mgrwt>
<rscale>  0 0.46960865E+02</rscale>
<asrwt>0</asrwt>
<pdfrwt beam="1">  1        2 0.22340461E+00 0.35770067E+02</pdfrwt>
<pdfrwt beam="2">  1        2 0.42374857E+00 0.61652745E+02</pdfrwt>
<totfact> 0.95591619E+00</totfact>
</mgrwt>
</event>
<event>
13    1  0.1589573E-008  0.1872290E+03  0.7546771E-02  0.1345414E+00
          2   -1    0    0  503    0  0.00000000000E+00  0.00000000000E+00  0.31966328273E+04  0.31966328273E+04  0.00000000000E+00 0. -1.
          2   -1    0    0  502    0 -0.00000000000E+00 -0.00000000000E+00 -0.22929414075E+04  0.22929414075E+04  0.00000000000E+00 0. -1.
         24    2    1    2    0    0  0.74728867980E+02 -0.13578926611E+03 -0.14147030838E+04  0.14254710190E+04  0.80991865530E+02 0.  0.
         25    2    1    2    0    0 -0.25695175947E+02 -0.10969381095E+03  0.13196277310E+04  0.13303114256E+04  0.12497266299E+03 0.  0.
         24    2    1    2    0    0 -0.17215639625E+02  0.15714771121E+02 -0.11031846687E+02  0.83879583623E+02  0.79816982080E+02 0.  0.
        -11    1    5    5    0    0  0.15925848854E+02  0.17841933852E+02 -0.35376885484E+02  0.42702356982E+02  0.00000000000E+00 0.  1.
         12    1    5    5    0    0 -0.33141488479E+02 -0.21271627302E+01  0.24345038797E+02  0.41177226641E+02  0.00000000000E+00 0. -1.
        -13    1    3    3    0    0  0.11182211988E+02 -0.14523313244E+02 -0.40377951376E+02  0.44343516435E+02  0.00000000000E+00 0.  1.
         14    1    3    3    0    0  0.63546655992E+02 -0.12126595287E+03 -0.13743251324E+04  0.13811275026E+04  0.00000000000E+00 0. -1.
          5    1    4    4  501    0  0.50655475946E+01 -0.42305207981E+02  0.10493174856E+03  0.11334969013E+03  0.47000000000E+01 0. -1.
         -5    1    4    4    0  501 -0.30760723542E+02 -0.67388602967E+02  0.12146959825E+04  0.12169617355E+04  0.47000000000E+01 0. -1.
          1    1    1    2  502    0 -0.22448536642E+01  0.22767301818E+03 -0.80412952943E+03  0.83574179187E+03  0.00000000000E+00 0. -1.
          1    1    1    2  503    0 -0.29573198743E+02  0.20952877546E+01  0.18139281487E+04  0.18141704146E+04  0.00000000000E+00 0. -1.
<mgrwt>
<rscale>  0 0.74503964E+02</rscale>
<asrwt>0</asrwt>
<pdfrwt beam="1">  1        2 0.47009307E+00 0.29647332E+02</pdfrwt>
<pdfrwt beam="2">  1        2 0.33719726E+00 0.18722901E+03</pdfrwt>
<totfact> 0.26955730E+00</totfact>
</mgrwt>
</event>
<event>
13    1  0.1589573E-008  0.1163512E+03  0.7546771E-02  0.1397094E+00
          2   -1    0    0  503    0  0.00000000000E+00  0.00000000000E+00  0.98942050656E+03  0.98942050656E+03  0.00000000000E+00 0. -1.
          2   -1    0    0  502    0 -0.00000000000E+00 -0.00000000000E+00 -0.86409674839E+03  0.86409674839E+03  0.00000000000E+00 0. -1.
         24    2    1    2    0    0 -0.12222175680E+03 -0.17872164068E+02 -0.19903438754E+03  0.24605141647E+03  0.75293027842E+02 0.  0.
         25    2    1    2    0    0  0.11052746402E+03  0.13990702884E+03  0.33057603991E+03  0.39585813476E+03  0.12503138676E+03 0.  0.
         24    2    1    2    0    0 -0.15896766236E+02  0.21160119205E+02 -0.12878782155E+03  0.15830809352E+03  0.88174212060E+02 0.  0.
        -11    1    3    3    0    0 -0.98458686620E+02  0.19414626537E+02 -0.14212359230E+03  0.17398320661E+03  0.00000000000E+00 0.  1.
         12    1    3    3    0    0 -0.23763070183E+02 -0.37286790605E+02 -0.56910795240E+02  0.72068209864E+02  0.00000000000E+00 0. -1.
        -13    1    5    5    0    0 -0.15230075516E+02 -0.33271961997E+02 -0.40455840388E+02  0.54549552490E+02  0.00000000000E+00 0.  1.
         14    1    5    5    0    0 -0.66669072068E+00  0.54432081202E+02 -0.88331981157E+02  0.10375854103E+03  0.00000000000E+00 0. -1.
          5    1    4    4  501    0  0.50268810989E+02 -0.11164097662E+02  0.11207085243E+03  0.12342429420E+03  0.47000000000E+01 0.  1.
         -5    1    4    4    0  501  0.60258653029E+02  0.15107112650E+03  0.21850518748E+03  0.27243384056E+03  0.47000000000E+01 0.  1.
          1    1    1    2  502    0  0.56889237479E+02 -0.15369456598E+03 -0.45050080812E+03  0.47938437925E+03  0.00000000000E+00 0. -1.
          1    1    1    2  503    0 -0.29298178458E+02  0.10499582000E+02  0.57307073546E+03  0.57391523095E+03  0.00000000000E+00 0. -1.
<mgrwt>
<rscale>  0 0.60176126E+02</rscale>
<asrwt>0</asrwt>
<pdfrwt beam="1">  1        2 0.14550302E+00 0.31122733E+02</pdfrwt>
<pdfrwt beam="2">  1        2 0.12707305E+00 0.11635116E+03</pdfrwt>
<totfact> 0.17286507E+02</totfact>
</mgrwt>
</event>
<event>
13    1  0.1589573E-008  0.1262962E+03  0.7546771E-02  0.1242904E+00
          2   -1    0    0  502    0  0.00000000000E+00  0.00000000000E+00  0.32126277333E+03  0.32126277333E+03  0.00000000000E+00 0. -1.
          2   -1    0    0  503    0 -0.00000000000E+00 -0.00000000000E+00 -0.16418924672E+04  0.16418924672E+04  0.00000000000E+00 0. -1.
         24    2    1    2    0    0  0.16015776590E+02 -0.10338178161E+03 -0.24988200450E+03  0.28222135535E+03  0.79142778413E+02 0.  0.
         25    2    1    2    0    0 -0.14343132263E+03  0.22936734283E+03 -0.17581861367E+03  0.34600527909E+03  0.12500218388E+03 0.  0.
         24    2    1    2    0    0 -0.87790240077E+02 -0.22918505622E+02 -0.51789296348E+02  0.13355041119E+03  0.83193731502E+02 0.  0.
        -11    1    3    3    0    0  0.38757172858E+02 -0.80852809838E+02 -0.22324246429E+03  0.24057533782E+03  0.00000000000E+00 0.  1.
         12    1    3    3    0    0 -0.22741396268E+02 -0.22528971773E+02 -0.26639540209E+02  0.41646017527E+02  0.00000000000E+00 0. -1.
        -11    1    5    5    0    0 -0.87262828225E+02  0.11870415237E+02 -0.33318264839E+02  0.94158455380E+02  0.00000000000E+00 0.  1.
         12    1    5    5    0    0 -0.52741185173E+00 -0.34788920859E+02 -0.18471031509E+02  0.39391955814E+02  0.00000000000E+00 0. -1.
          5    1    4    4  501    0 -0.13019793364E+03  0.22429977495E+03 -0.19294672960E+03  0.32328380942E+03  0.47000000000E+01 0. -1.
         -5    1    4    4    0  501 -0.13233388990E+02  0.50675678798E+01  0.17128115937E+02  0.22721469669E+02  0.47000000000E+01 0. -1.
          1    1    1    2  502    0  0.11107932809E+03 -0.56071100902E+02  0.15384712811E+03  0.19786744126E+03  0.00000000000E+00 0. -1.
          1    1    1    2  503    0  0.10412645803E+03 -0.46995954695E+02 -0.99698690742E+03  0.10035107536E+04  0.00000000000E+00 0. -1.
<mgrwt>
<rscale>  0 0.12011730E+03</rscale>
<asrwt>0</asrwt>
<pdfrwt beam="1">  1        2 0.47244526E-01 0.12629618E+03</pdfrwt>
<pdfrwt beam="2">  1        2 0.24145477E+00 0.11424071E+03</pdfrwt>
<totfact> 0.22237086E+02</totfact>
</mgrwt>
</event>
<event>
13    1  0.1589573E-008  0.3215533E+03  0.7546771E-02  0.1106490E+00
          2   -1    0    0  502    0  0.00000000000E+00  0.00000000000E+00  0.24301482391E+04  0.24301482391E+04  0.00000000000E+00 0. -1.
          2   -1    0    0  503    0 -0.00000000000E+00 -0.00000000000E+00 -0.25717165436E+04  0.25717165436E+04  0.00000000000E+00 0. -1.
         24    2    1    2    0    0 -0.24172801342E+03  0.24538621654E+02 -0.35727938877E+03  0.43862023622E+03  0.75528627403E+02 0.  0.
         25    2    1    2    0    0  0.36187257274E+03  0.10719213015E+03  0.15707127389E+04  0.16202486393E+04  0.12500093300E+03 0.  0.
         24    2    1    2    0    0 -0.56096466678E+02  0.22678640403E+01 -0.80277572197E+03  0.80880931250E+03  0.81065944885E+02 0.  0.
        -11    1    3    3    0    0 -0.22818466553E+02  0.21886322632E+02 -0.75018950483E+02  0.81409682875E+02  0.00000000000E+00 0.  1.
         12    1    3    3    0    0 -0.21890954687E+03  0.26522990226E+01 -0.28226043828E+03  0.35721055334E+03  0.00000000000E+00 0. -1.
        -13    1    5    5    0    0 -0.47994374373E+02 -0.35635181488E+02 -0.50196698747E+03  0.50551378086E+03  0.00000000000E+00 0.  1.
         14    1    5    5    0    0 -0.81020923048E+01  0.37903045528E+02 -0.30080873451E+03  0.30329553164E+03  0.00000000000E+00 0. -1.
          5    1    4    4  501    0  0.11165456247E+03 -0.18890326472E+02  0.56317683400E+03  0.57446829513E+03  0.47000000000E+01 0.  1.
         -5    1    4    4    0  501  0.25021801027E+03  0.12608245662E+03  0.10075359049E+04  0.10457803442E+04  0.47000000000E+01 0.  1.
          1    1    1    2  502    0  0.31728836820E+03 -0.31657094237E+03  0.68954661847E+03  0.82241328369E+03  0.00000000000E+00 0. -1.
          1    1    1    2  503    0 -0.38133646085E+03  0.18257232653E+03 -0.12417725511E+04  0.13117733110E+04  0.00000000000E+00 0. -1.
<mgrwt>
<rscale>  0 0.26109049E+03</rscale>
<asrwt>0</asrwt>
<pdfrwt beam="1">  1        2 0.35737474E+00 0.32155334E+03</pdfrwt>
<pdfrwt beam="2">  1        2 0.37819361E+00 0.21199669E+03</pdfrwt>
<totfact> 0.33615356E+00</totfact>
</mgrwt>
</event>
<event>
13    1  0.1589573E-008  0.5442809E+02  0.7546771E-02  0.1548535E+00
          2   -1    0    0  502    0  0.00000000000E+00  0.00000000000E+00  0.20027239948E+04  0.20027239948E+04  0.00000000000E+00 0. -1.
          2   -1    0    0  503    0 -0.00000000000E+00 -0.00000000000E+00 -0.18507379358E+04  0.18507379358E+04  0.00000000000E+00 0. -1.
         24    2    1    2    0    0 -0.46755280127E+02 -0.19350894433E+02 -0.73409445758E+02  0.12108722944E+03  0.81930806613E+02 0.  0.
         25    2    1    2    0    0  0.17260541548E+03  0.37916258135E+02  0.66997121152E+03  0.70407238821E+03  0.12500492585E+03 0.  0.
         24    2    1    2    0    0 -0.86857493852E+02 -0.45170446078E+02  0.23622006376E+03  0.26817886792E+03  0.80841779028E+02 0.  0.
        -11    1    5    5    0    0  0.96137489008E+01 -0.27119503114E+02  0.56618952974E+02  0.63510608979E+02  0.00000000000E+00 0.  1.
         12    1    5    5    0    0 -0.96471242752E+02 -0.18050942963E+02  0.17960111079E+03  0.20466825894E+03  0.00000000000E+00 0. -1.
        -11    1    3    3    0    0  0.22453346195E+02 -0.67202177049E+01 -0.73000410883E+01  0.24548007683E+02  0.00000000000E+00 0.  1.
         12    1    3    3    0    0 -0.69208626321E+02 -0.12630676728E+02 -0.66109404669E+02  0.96539221758E+02  0.00000000000E+00 0. -1.
          5    1    4    4  501    0  0.13697264577E+03 -0.29339331570E+02  0.44096479872E+03  0.46270330210E+03  0.47000000000E+01 0.  1.
         -5    1    4    4    0  501  0.35632769714E+02  0.67255589704E+02  0.22900641281E+03  0.24136908611E+03  0.47000000000E+01 0.  1.
          1    1    1    2  502    0 -0.10624880772E+02 -0.19851796461E+02  0.10391112968E+04  0.10393552179E+04  0.00000000000E+00 0. -1.
          1    1    1    2  503    0 -0.28367760730E+02  0.46456878836E+02 -0.17199070673E+04  0.17207682271E+04  0.00000000000E+00 0. -1.
<mgrwt>
<rscale>  0 0.35007383E+02</rscale>
<asrwt>0</asrwt>
<pdfrwt beam="1">  1        2 0.29451823E+00 0.22516259E+02</pdfrwt>
<pdfrwt beam="2">  1        2 0.27216734E+00 0.54428087E+02</pdfrwt>
<totfact> 0.19370524E+01</totfact>
</mgrwt>
</event>
<event>
13    1  0.1589573E-008  0.1199892E+03  0.7546771E-02  0.1359119E+00
          2   -1    0    0  502    0  0.00000000000E+00  0.00000000000E+00  0.64420355898E+03  0.64420355898E+03  0.00000000000E+00 0. -1.
          2   -1    0    0  503    0 -0.00000000000E+00 -0.00000000000E+00 -0.22536606400E+04  0.22536606400E+04  0.00000000000E+00 0. -1.
         24    2    1    2    0    0 -0.20787804345E+02  0.35642744119E+03 -0.64044660967E+03  0.73803828557E+03  0.83999985044E+02 0.  0.
         25    2    1    2    0    0 -0.81697732206E+02 -0.20689993060E+03 -0.40385070007E+03  0.47770736531E+03  0.12500735258E+03 0.  0.
         24    2    1    2    0    0  0.30322741709E+02 -0.27479372097E+02  0.20766154527E+03  0.22747391803E+03  0.83345554422E+02 0.  0.
        -13    1    3    3    0    0 -0.42556030507E+01  0.21684363669E+03 -0.46608539482E+03  0.51407671431E+03  0.00000000000E+00 0.  1.
         14    1    3    3    0    0 -0.16532201295E+02  0.13958380450E+03 -0.17436121485E+03  0.22396157126E+03  0.00000000000E+00 0. -1.
        -13    1    5    5    0    0  0.57422991262E+02 -0.50223124384E+01  0.12717589197E+03  0.13962926286E+03  0.00000000000E+00 0.  1.
         14    1    5    5    0    0 -0.27100249553E+02 -0.22457059659E+02  0.80485653302E+02  0.87844655169E+02  0.00000000000E+00 0. -1.
          5    1    4    4  501    0 -0.62228890057E+02 -0.18967494617E+02 -0.86399632220E+02  0.10825519414E+03  0.47000000000E+01 0. -1.
         -5    1    4    4    0  501 -0.19468842149E+02 -0.18793243598E+03 -0.31745106785E+03  0.36945217118E+03  0.47000000000E+01 0. -1.
          1    1    1    2  502    0  0.40319517657E+02 -0.83392464879E+01  0.33652350406E+03  0.33903285286E+03  0.00000000000E+00 0. -1.
          1    1    1    2  503    0  0.31843277185E+02 -0.11370889200E+03 -0.11093448206E+04  0.11156117772E+04  0.00000000000E+00 0. -1.
<mgrwt>
<rscale>  0 0.70287285E+02</rscale>
<asrwt>0</asrwt>
<pdfrwt beam="1">  1        2 0.94735816E-01 0.41172886E+02</pdfrwt>
<pdfrwt beam="2">  1        2 0.33142069E+00 0.11998922E+03</pdfrwt>
<totfact> 0.53866464E+01</totfact>
</mgrwt>
</event>
<event>
13    1  0.1589573E-008  0.1757171E+03  0.7546771E-02  0.1219303E+00
          2   -1    0    0  503    0  0.00000000000E+00  0.00000000000E+00  0.12796609345E+04  0.12796609345E+04  0.00000000000E+00 0. -1.
          2   -1    0    0  502    0 -0.00000000000E+00 -0.00000000000E+00 -0.35604977789E+04  0.35604977789E+04  0.00000000000E+00 0. -1.
         24    2    1    2    0    0  0.69799601472E+02 -0.55727049978E+02 -0.68381157297E+03  0.69465045745E+03  0.83447601821E+02 0.  0.
         25    2    1    2    0    0  0.18069774222E+03 -0.34325425536E+03 -0.40506083879E+02  0.40956136623E+03  0.12499844803E+03 0.  0.
         24    2    1    2    0    0 -0.21044909178E+03  0.19588990385E+03 -0.45206597282E+03  0.54152323758E+03  0.78880278921E+02 0.  0.
        -11    1    5    5    0    0 -0.15814062990E+03  0.13513851259E+03 -0.25706473719E+03  0.33068588648E+03  0.00000000000E+00 0.  1.
         12    1    5    5    0    0 -0.52308461877E+02  0.60751391263E+02 -0.19500123563E+03  0.21083735111E+03  0.00000000000E+00 0. -1.
        -13    1    3    3    0    0 -0.75994333324E+01 -0.11790826433E+02 -0.17533106850E+02  0.22454060006E+02  0.00000000000E+00 0.  1.
         14    1    3    3    0    0  0.77399034804E+02 -0.43936223545E+02 -0.66627846612E+03  0.67219639745E+03  0.00000000000E+00 0. -1.
          5    1    4    4  501    0 -0.11863869493E+02 -0.61124441335E+00  0.52943918354E+01  0.13829157746E+02  0.47000000000E+01 0. -1.
         -5    1    4    4    0  501  0.19256161171E+03 -0.34264301094E+03 -0.45800475715E+02  0.39573220848E+03  0.47000000000E+01 0. -1.
          1    1    1    2  502    0  0.20637256086E+02  0.28843683621E+03 -0.21370521426E+04  0.21565281276E+04  0.00000000000E+00 0. -1.
          1    1    1    2  503    0 -0.60685507997E+02 -0.85345434728E+02  0.10325989278E+04  0.10378955246E+04  0.00000000000E+00 0. -1.
<mgrwt>
<rscale>  0 0.13565155E+03</rscale>
<asrwt>0</asrwt>
<pdfrwt beam="1">  1        2 0.18818543E+00 0.10472141E+03</pdfrwt>
<pdfrwt beam="2">  1        2 0.52360261E+00 0.17571711E+03</pdfrwt>
<totfact> 0.40730194E+00</totfact>
</mgrwt>
</event>
<event>
13    1  0.1589573E-008  0.7484799E+02  0.7546771E-02  0.1490640E+00
          2   -1    0    0  503    0  0.00000000000E+00  0.00000000000E+00  0.44560107444E+03  0.44560107444E+03  0.00000000000E+00 0. -1.
          2   -1    0    0  502    0 -0.00000000000E+00 -0.00000000000E+00 -0.11218506477E+04  0.11218506477E+04  0.00000000000E+00 0. -1.
         24    2    1    2    0    0  0.11016914227E+02  0.73795795244E+02 -0.82993943817E+03  0.83728381070E+03  0.81716074531E+02 0.  0.
         25    2    1    2    0    0  0.41049090856E+02  0.13866123186E+02 -0.28246171948E+02  0.13528437785E+03  0.12500687752E+03 0.  0.
         24    2    1    2    0    0 -0.53527862935E+02 -0.67943712813E+01 -0.14947479863E+03  0.17779172828E+03  0.79723193802E+02 0.  0.
        -11    1    5    5    0    0 -0.28631093257E+02  0.12601644784E+01 -0.27934812397E+01  0.28794635838E+02  0.00000000000E+00 0.  1.
         12    1    5    5    0    0 -0.24896769678E+02 -0.80545357596E+01 -0.14668131739E+03  0.14899709245E+03  0.00000000000E+00 0. -1.
        -13    1    3    3    0    0  0.37774577626E+02  0.56591180768E+02 -0.36708567988E+03  0.37333815346E+03  0.00000000000E+00 0.  1.
         14    1    3    3    0    0 -0.26757663399E+02  0.17204614476E+02 -0.46285375829E+03  0.46394565724E+03  0.00000000000E+00 0. -1.
          5    1    4    4  501    0 -0.34636863573E+02  0.36830776382E+02 -0.23383465712E+02  0.55902548026E+02  0.47000000000E+01 0.  1.
         -5    1    4    4    0  501  0.75685954429E+02 -0.22964653195E+02 -0.48627062352E+01  0.79381829823E+02  0.47000000000E+01 0.  1.
          1    1    1    2  502    0 -0.22036178478E+02 -0.98126120769E+01 -0.35337299179E+02  0.42785572697E+02  0.00000000000E+00 0. -1.
          1    1    1    2  503    0  0.23498036330E+02 -0.71054935072E+02  0.36674813466E+03  0.37430623263E+03  0.00000000000E+00 0. -1.
<mgrwt>
<rscale>  0 0.42491153E+02</rscale>
<asrwt>0</asrwt>
<pdfrwt beam="1">  1        2 0.65529570E-01 0.74847986E+02</pdfrwt>
<pdfrwt beam="2">  1        2 0.16497804E+00 0.24122200E+02</pdfrwt>
<totfact> 0.31878121E+02</totfact>
</mgrwt>
</event>
<event>
13    1  0.1589573E-008  0.1190016E+03  0.7546771E-02  0.1350131E+00
         -1   -1    0    0    0  501 -0.00000000000E+00  0.00000000000E+00  0.52264581246E+03  0.52264581246E+03  0.00000000000E+00 0.  1.
          2   -1    0    0  503    0  0.00000000000E+00 -0.00000000000E+00 -0.25525768547E+04  0.25525768547E+04  0.00000000000E+00 0. -1.
         24    2    1    2    0    0 -0.26042676931E+02 -0.94277392609E+02  0.63349554030E+02  0.14092800507E+03  0.79253320674E+02 0.  0.
         25    2    1    2    0    0  0.15816774640E+03  0.16156363312E+03 -0.13542264209E+03  0.29169185455E+03  0.12500000988E+03 0.  0.
         24    2    1    2    0    0 -0.88392452418E+02  0.19173491452E+02 -0.45240145392E+03  0.46868712053E+03  0.82581432694E+02 0.  0.
        -13    1    5    5    0    0 -0.52344574085E+02 -0.83497290099E+01 -0.37691246002E+03  0.38062143257E+03  0.00000000000E+00 0.  1.
         14    1    5    5    0    0 -0.36047878333E+02  0.27523220462E+02 -0.75488993894E+02  0.88065687961E+02  0.00000000000E+00 0. -1.
        -13    1    3    3    0    0 -0.39205755604E+02 -0.10290209440E+03  0.56471071158E+02  0.12375344109E+03  0.00000000000E+00 0.  1.
         14    1    3    3    0    0  0.13163078673E+02  0.86247017914E+01  0.68784828722E+01  0.17174563976E+02  0.00000000000E+00 0. -1.
          5    1    4    4  502    0  0.41058075919E+02  0.12419132205E+03 -0.96664756770E+02  0.16271267705E+03  0.47000000000E+01 0. -1.
         -5    1    4    4    0  502  0.11710967048E+03  0.37372311078E+02 -0.38757885321E+02  0.12897917751E+03  0.47000000000E+01 0. -1.
          1    1    1    2  503    0 -0.88121161351E+02 -0.80408296817E+02 -0.18362407087E+04  0.18401116198E+04  0.00000000000E+00 0. -1.
         -2    1    1    2    0  501  0.44388544300E+02 -0.60514351512E+01  0.33078420840E+03  0.33380406717E+03  0.00000000000E+00 0.  1.
<mgrwt>
<rscale>  0 0.73014869E+02</rscale>
<asrwt>0</asrwt>
<pdfrwt beam="2">  1        2 0.37537894E+00 0.11900165E+03</pdfrwt>
<pdfrwt beam="1">  1       -1 0.76859681E-01 0.44799138E+02</pdfrwt>
<totfact> 0.10334129E+01</totfact>
</mgrwt>
</event>
<event>
13    1  0.1589573E-008  0.1512392E+03  0.7546771E-02  0.1246534E+00
          2   -1    0    0  503    0  0.00000000000E+00  0.00000000000E+00  0.18436464977E+04  0.18436464977E+04  0.00000000000E+00 0. -1.
          2   -1    0    0  502    0 -0.00000000000E+00 -0.00000000000E+00 -0.62169158954E+03  0.62169158954E+03  0.00000000000E+00 0. -1.
         24    2    1    2    0    0  0.22919626809E+03  0.27026329030E+01 -0.42358356490E+02  0.24661792470E+03  0.80547730490E+02 0.  0.
         25    2    1    2    0    0 -0.29340528039E+03 -0.14668474335E+03  0.99480713489E+03  0.10549242892E+04  0.12498379043E+03 0.  0.
         24    2    1    2    0    0 -0.69589437046E+02  0.10508439006E+02  0.33569855293E+02  0.11201188160E+03  0.80415231123E+02 0.  0.
        -11    1    3    3    0    0  0.11948170123E+03  0.37148174109E+02 -0.32858683302E+01  0.12516653186E+03  0.00000000000E+00 0.  1.
         12    1    3    3    0    0  0.10971456687E+03 -0.34445541206E+02 -0.39072488160E+02  0.12145139284E+03  0.00000000000E+00 0. -1.
        -13    1    5    5    0    0 -0.40481786584E+02  0.39496757016E+02  0.41529871128E+02  0.70167649638E+02  0.00000000000E+00 0.  1.
         14    1    5    5    0    0 -0.29107650461E+02 -0.28988318009E+02 -0.79600158348E+01  0.41844231962E+02  0.00000000000E+00 0. -1.
          5    1    4    4  501    0 -0.12414382677E+03 -0.12688752707E+02  0.49417929905E+03  0.50971360957E+03  0.47000000000E+01 0. -1.
         -5    1    4    4    0  501 -0.16926145362E+03 -0.13399599064E+03  0.50062783584E+03  0.54521067965E+03  0.47000000000E+01 0. -1.
          1    1    1    2  502    0  0.86628822958E+02  0.21243012024E+03 -0.37193320382E+03  0.43699590051E+03  0.00000000000E+00 0. -1.
          1    1    1    2  503    0  0.47169626383E+02 -0.78956448806E+02  0.60786947827E+03  0.61478809119E+03  0.00000000000E+00 0. -1.
<mgrwt>
<rscale>  0 0.11794056E+03</rscale>
<asrwt>0</asrwt>
<pdfrwt beam="1">  1        2 0.27112448E+00 0.91973336E+02</pdfrwt>
<pdfrwt beam="2">  1        2 0.91425234E-01 0.15123922E+03</pdfrwt>
<totfact> 0.88385753E+01</totfact>
</mgrwt>
</event>
<event>
13    1  0.1589573E-008  0.1571825E+03  0.7546771E-02  0.1204628E+00
         -1   -1    0    0    0  501  0.00000000000E+00  0.00000000000E+00  0.21638162536E+04  0.21638162536E+04  0.00000000000E+00 0.  1.
         -3   -1    0    0    0  502 -0.00000000000E+00 -0.00000000000E+00 -0.11528682195E+04  0.11528682195E+04  0.00000000000E+00 0.  1.
         24    2    1    2    0    0  0.16173976389E+03 -0.37393744657E+02 -0.39572336450E+03  0.43660764269E+03  0.80443825622E+02 0.  0.
         25    2    1    2    0    0 -0.11324622215E+03  0.22220605872E+02  0.72486016042E+02  0.18492504830E+03  0.12499835524E+03 0.  0.
         24    2    1    2    0    0  0.93703481735E+02 -0.76573828798E+02 -0.28212842667E+02  0.14820615470E+03  0.80778747542E+02 0.  0.
        -11    1    5    5    0    0  0.58130434791E+01  0.10429127665E+02 -0.21208061618E+02  0.24338037225E+02  0.00000000000E+00 0.  1.
         12    1    5    5    0    0  0.87890438256E+02 -0.87002956463E+02 -0.70047810489E+01  0.12386811748E+03  0.00000000000E+00 0. -1.
        -13    1    3    3    0    0  0.74510768434E+02 -0.18770659424E+01 -0.26635707971E+03  0.27658899454E+03  0.00000000000E+00 0.  1.
         14    1    3    3    0    0  0.87228995459E+02 -0.35516678714E+02 -0.12936628480E+03  0.16001864816E+03  0.00000000000E+00 0. -1.
          5    1    4    4  503    0 -0.14044556392E+03  0.15155679978E+02  0.56166987322E+02  0.15209034001E+03  0.47000000000E+01 0.  1.
         -5    1    4    4    0  503  0.27199341766E+02  0.70649258943E+01  0.16319028720E+02  0.32834708294E+02  0.47000000000E+01 0.  1.
         -2    1    1    2    0  501 -0.22445099048E+02  0.15799806428E+03  0.19434516488E+04  0.19499926877E+04  0.00000000000E+00 0.  1.
         -4    1    1    2    0  502 -0.11975192443E+03 -0.66251096694E+02 -0.58105342356E+03  0.59695293973E+03  0.00000000000E+00 0.  1.
<mgrwt>
<rscale>  0 0.14666789E+03</rscale>
<asrwt>0</asrwt>
<pdfrwt beam="1">  1       -1 0.31820827E+00 0.15718254E+03</pdfrwt>
<pdfrwt beam="2">  1       -3 0.16953944E+00 0.13685661E+03</pdfrwt>
<totfact> 0.36779276E-02</totfact>
</mgrwt>
</event>
<event>
13    1  0.1589573E-008  0.1149603E+03  0.7546771E-02  0.1341609E+00
          2   -1    0    0  502    0  0.00000000000E+00  0.00000000000E+00  0.16803369634E+04  0.16803369634E+04  0.00000000000E+00 0. -1.
          2   -1    0    0  503    0 -0.00000000000E+00 -0.00000000000E+00 -0.11407010712E+04  0.11407010712E+04  0.00000000000E+00 0. -1.
         24    2    1    2    0    0  0.12801949791E+02 -0.18924437023E+03  0.18707540205E+03  0.27836409257E+03  0.80697214316E+02 0.  0.
         25    2    1    2    0    0 -0.15559122806E+03  0.26616591726E+03 -0.38549012737E+03  0.50919605712E+03  0.12500024211E+03 0.  0.
         24    2    1    2    0    0  0.41401152831E+02  0.10644240961E+02  0.20262231221E+03  0.22237012405E+03  0.81026633534E+02 0.  0.
        -13    1    5    5    0    0 -0.47264911851E+01  0.18846712614E+02  0.15260546494E+03  0.15383746691E+03  0.00000000000E+00 0.  1.
         14    1    5    5    0    0  0.46127644017E+02 -0.82024716523E+01  0.50016847274E+02  0.68532657142E+02  0.00000000000E+00 0. -1.
        -13    1    3    3    0    0 -0.25907909392E+02 -0.43944875403E+02  0.75515618465E+02  0.91131665602E+02  0.00000000000E+00 0.  1.
         14    1    3    3    0    0  0.38709859182E+02 -0.14529949483E+03  0.11155978358E+03  0.18723242697E+03  0.00000000000E+00 0. -1.
          5    1    4    4  501    0 -0.75148605970E+02  0.17912183424E+03 -0.31816782248E+03  0.37280664927E+03  0.47000000000E+01 0.  1.
         -5    1    4    4    0  501 -0.80442622090E+02  0.87044083024E+02 -0.67322304890E+02  0.13638940785E+03  0.47000000000E+01 0.  1.
          1    1    1    2  502    0  0.60991283607E+02 -0.11684926873E+03  0.11685815208E+04  0.11759916917E+04  0.00000000000E+00 0. -1.
          1    1    1    2  503    0  0.40396841832E+02  0.29283480737E+02 -0.63315321540E+03  0.63511606912E+03  0.00000000000E+00 0. -1.
<mgrwt>
<rscale>  0 0.75735382E+02</rscale>
<asrwt>0</asrwt>
<pdfrwt beam="1">  1        2 0.24710838E+00 0.11496031E+03</pdfrwt>
<pdfrwt beam="2">  1        2 0.16775016E+00 0.49894159E+02</pdfrwt>
<totfact> 0.51322408E+01</totfact>
</mgrwt>
</event>
<event>
13    1  0.1589573E-008  0.4108720E+02  0.7546771E-02  0.1518648E+00
          2   -1    0    0  503    0  0.00000000000E+00  0.00000000000E+00  0.10097152932E+04  0.10097152932E+04  0.00000000000E+00 0. -1.
          2   -1    0    0  502    0 -0.00000000000E+00 -0.00000000000E+00 -0.33232481637E+04  0.33232481637E+04  0.00000000000E+00 0. -1.
         24    2    1    2    0    0  0.21071856094E+02  0.98988181649E+02 -0.13412773432E+04  0.13475306047E+04  0.81062544476E+02 0.  0.
         25    2    1    2    0    0 -0.26012148543E+02 -0.25347588646E+02  0.41575498414E+03  0.43565317464E+03  0.12498939802E+03 0.  0.
         24    2    1    2    0    0 -0.11507824741E+02 -0.77151950204E+02 -0.13252615799E+03  0.17417352819E+03  0.81782528192E+02 0.  0.
        -11    1    3    3    0    0  0.34337562568E+02  0.10337714502E+03 -0.12823916456E+04  0.12870098038E+04  0.00000000000E+00 0.  1.
         12    1    3    3    0    0 -0.13265706474E+02 -0.43889633679E+01 -0.58885697535E+02  0.60520800902E+02  0.00000000000E+00 0. -1.
        -11    1    5    5    0    0 -0.57735595270E+01 -0.21677426457E+02 -0.11281315755E+03  0.11502196887E+03  0.00000000000E+00 0.  1.
         12    1    5    5    0    0 -0.57342652136E+01 -0.55474523747E+02 -0.19713000445E+02  0.59151559312E+02  0.00000000000E+00 0. -1.
          5    1    4    4  501    0  0.16535152286E+02 -0.56791761435E+02  0.10689347386E+03  0.12225800662E+03  0.47000000000E+01 0.  1.
         -5    1    4    4    0  501 -0.42547300829E+02  0.31444172789E+02  0.30886151028E+03  0.31339516802E+03  0.47000000000E+01 0.  1.
          1    1    1    2  502    0 -0.10156211881E+02  0.34843924543E+02 -0.18146093790E+04  0.18149722990E+04  0.00000000000E+00 0. -1.
          1    1    1    2  503    0  0.26604329071E+02 -0.31332567342E+02  0.55912502551E+03  0.56063385043E+03  0.00000000000E+00 0. -1.
<mgrwt>
<rscale>  0 0.38616254E+02</rscale>
<asrwt>0</asrwt>
<pdfrwt beam="1">  1        2 0.14848754E+00 0.41087202E+02</pdfrwt>
<pdfrwt beam="2">  1        2 0.48871297E+00 0.36293907E+02</pdfrwt>
<totfact> 0.10927464E+01</totfact>
</mgrwt>
</event>
<event>
13    1  0.1589573E-008  0.4456600E+02  0.7546771E-02  0.1492669E+00
          2   -1    0    0  503    0  0.00000000000E+00  0.00000000000E+00  0.39141574278E+04  0.39141574278E+04  0.00000000000E+00 0. -1.
          2   -1    0    0  502    0 -0.00000000000E+00 -0.00000000000E+00 -0.17932783197E+04  0.17932783197E+04  0.00000000000E+00 0. -1.
         24    2    1    2    0    0 -0.35310416385E+03 -0.82352661297E+03 -0.72231348813E+03  0.11536675319E+04  0.79582449750E+02 0.  0.
         25    2    1    2    0    0 -0.32402888014E+03 -0.44746033935E+03  0.10433583334E+04  0.11871984255E+04  0.12501207692E+03 0.  0.
         24    2    1    2    0    0  0.69766745888E+03  0.11909838775E+04  0.80367406088E+03  0.15998338161E+04  0.91617484748E+02 0.  0.
        -13    1    5    5    0    0  0.49237744833E+03  0.91820905037E+03  0.61002820074E+03  0.12073432890E+04  0.00000000000E+00 0.  1.
         14    1    5    5    0    0  0.20529001055E+03  0.27277482712E+03  0.19364586014E+03  0.39249052713E+03  0.00000000000E+00 0. -1.
        -13    1    3    3    0    0 -0.15303455146E+03 -0.44627168050E+03 -0.35548363050E+03  0.59071702050E+03  0.00000000000E+00 0.  1.
         14    1    3    3    0    0 -0.20006961238E+03 -0.37725493247E+03 -0.36682985763E+03  0.56295051143E+03  0.00000000000E+00 0. -1.
          5    1    4    4  501    0 -0.12152179307E+03 -0.23956241060E+03  0.59828327259E+03  0.65583737239E+03  0.47000000000E+01 0. -1.
         -5    1    4    4    0  501 -0.20250708707E+03 -0.20789792875E+03  0.44507506077E+03  0.53136105316E+03  0.47000000000E+01 0. -1.
          1    1    1    2  502    0 -0.19461164106E+02  0.40071712126E+02 -0.38371022290E+03  0.38628747608E+03  0.00000000000E+00 0. -1.
          1    1    1    2  503    0 -0.10732507922E+01  0.39931362697E+02  0.13798704249E+04  0.13804484978E+04  0.00000000000E+00 0. -1.
<mgrwt>
<rscale>  0 0.42192697E+02</rscale>
<asrwt>0</asrwt>
<pdfrwt beam="1">  1        2 0.57561139E+00 0.39945783E+02</pdfrwt>
<pdfrwt beam="2">  1        2 0.26371740E+00 0.44565997E+02</pdfrwt>
<totfact> 0.19923032E+00</totfact>
</mgrwt>
</event>
<event>
13    1  0.1589573E-008  0.1030841E+03  0.7546771E-02  0.1422670E+00
          2   -1    0    0  502    0  0.00000000000E+00  0.00000000000E+00  0.40066538468E+04  0.40066538468E+04  0.00000000000E+00 0. -1.
          2   -1    0    0  503    0 -0.00000000000E+00 -0.00000000000E+00 -0.23602938565E+03  0.23602938565E+03  0.00000000000E+00 0. -1.
         24    2    1    2    0    0  0.24223890970E+02  0.18269869071E+02  0.14932661625E+02  0.80185047089E+02  0.72705380708E+02 0.  0.
         25    2    1    2    0    0  0.56664040604E+02 -0.44381740089E+02  0.28653425218E+04  0.28689715124E+04  0.12501687559E+03 0.  0.
         24    2    1    2    0    0 -0.33804694565E+02 -0.67997240187E+02  0.50150144489E+03  0.51396901309E+03  0.83030507354E+02 0.  0.
        -13    1    5    5    0    0 -0.34668391060E+02 -0.50978253468E+02  0.15164148028E+03  0.16369428276E+03  0.00000000000E+00 0.  1.
         14    1    5    5    0    0  0.86369649541E+00 -0.17018986719E+02  0.34985996460E+03  0.35027473034E+03  0.00000000000E+00 0. -1.
        -13    1    3    3    0    0 -0.25926055107E+02  0.88266586433E+01  0.15655318486E+01  0.27432118515E+02  0.00000000000E+00 0.  1.
         14    1    3    3    0    0  0.50149946077E+02  0.94432104275E+01  0.13367129776E+02  0.52752928574E+02  0.00000000000E+00 0. -1.
          5    1    4    4  501    0 -0.65665459567E+01 -0.63604467090E+02  0.79945702970E+03  0.80202386505E+03  0.47000000000E+01 0. -1.
         -5    1    4    4    0  501  0.63230586561E+02  0.19222727001E+02  0.20658854921E+04  0.20669476473E+04  0.47000000000E+01 0. -1.
          1    1    1    2  502    0 -0.13793398637E+02 -0.25249732242E+02  0.56414939330E+03  0.56488259381E+03  0.00000000000E+00 0. -1.
          1    1    1    2  503    0 -0.33289838373E+02  0.11935884345E+03 -0.17530156053E+03  0.21467506602E+03  0.00000000000E+00 0. -1.
<mgrwt>
<rscale>  0 0.54460067E+02</rscale>
<asrwt>0</asrwt>
<pdfrwt beam="1">  1        2 0.58921376E+00 0.28771632E+02</pdfrwt>
<pdfrwt beam="2">  1        2 0.34710206E-01 0.10308414E+03</pdfrwt>
<totfact> 0.22102836E+01</totfact>
</mgrwt>
</event>
<event>
13    1  0.1589573E-008  0.6213779E+02  0.7546771E-02  0.1422061E+00
          2   -1    0    0  502    0  0.00000000000E+00  0.00000000000E+00  0.18832011480E+04  0.18832011480E+04  0.00000000000E+00 0. -1.
          2   -1    0    0  503    0 -0.00000000000E+00 -0.00000000000E+00 -0.70877958375E+03  0.70877958375E+03  0.00000000000E+00 0. -1.
         24    2    1    2    0    0 -0.12912325659E+03  0.97796495765E+01 -0.21741598596E+03  0.26521752885E+03  0.79386206100E+02 0.  0.
         25    2    1    2    0    0  0.38533516480E+03 -0.15447644532E+03  0.44332420611E+03  0.62008584066E+03  0.12499574662E+03 0.  0.
         24    2    1    2    0    0 -0.15887210657E+03  0.13095578915E+03 -0.52066619818E+02  0.22606563883E+03  0.77491775055E+02 0.  0.
        -11    1    3    3    0    0 -0.12086654677E+03 -0.18636615976E+02 -0.17431533815E+03  0.21293633484E+03  0.00000000000E+00 0.  1.
         12    1    3    3    0    0 -0.82567098291E+01  0.28416265553E+02 -0.43100647812E+02  0.52281194008E+02  0.00000000000E+00 0. -1.
        -11    1    5    5    0    0 -0.11092766759E+03  0.13148835987E+03 -0.41657606937E+02  0.17700139105E+03  0.00000000000E+00 0.  1.
         12    1    5    5    0    0 -0.47944438982E+02 -0.53257071853E+00 -0.10409012882E+02  0.49064247778E+02  0.00000000000E+00 0. -1.
          5    1    4    4  501    0  0.34543957904E+03 -0.17586800840E+03  0.40444139687E+03  0.56022584076E+03  0.47000000000E+01 0.  1.
         -5    1    4    4    0  501  0.39895585767E+02  0.21391563082E+02  0.38882809238E+02  0.59859999908E+02  0.47000000000E+01 0.  1.
          1    1    1    2  502    0 -0.44317481934E+02 -0.18318442048E+02  0.12361242985E+04  0.12370541160E+04  0.00000000000E+00 0. -1.
          1    1    1    2  503    0 -0.53022319706E+02  0.32059448640E+02 -0.23554433453E+03  0.24355760749E+03  0.00000000000E+00 0. -1.
<mgrwt>
<rscale>  0 0.54587249E+02</rscale>
<asrwt>0</asrwt>
<pdfrwt beam="1">  1        2 0.27694135E+00 0.47954192E+02</pdfrwt>
<pdfrwt beam="2">  1        2 0.10423229E+00 0.62137795E+02</pdfrwt>
<totfact> 0.79685726E+01</totfact>
</mgrwt>
</event>
<event>
13    1  0.1589573E-008  0.6725358E+02  0.7546771E-02  0.1435200E+00
          2   -1    0    0  502    0  0.00000000000E+00  0.00000000000E+00  0.13641220847E+04  0.13641220847E+04  0.00000000000E+00 0. -1.
          2   -1    0    0  503    0 -0.00000000000E+00 -0.00000000000E+00 -0.34045377106E+04  0.34045377106E+04  0.00000000000E+00 0. -1.
         24    2    1    2    0    0  0.20013554747E+02 -0.97697702560E+01 -0.45854732022E+03  0.46604707926E+03  0.80238671607E+02 0.  0.
         25    2    1    2    0    0  0.19584611001E+02 -0.19882896379E+03  0.66455214498E+02  0.24486308358E+03  0.12500048134E+03 0.  0.
         24    2    1    2    0    0 -0.14497145619E+03  0.18871519730E+03 -0.12769401136E+03  0.28258265438E+03  0.83168787537E+02 0.  0.
        -11    1    3    3    0    0 -0.85227080320E+00 -0.43191841890E+02 -0.21015742942E+03  0.21455164113E+03  0.00000000000E+00 0.  1.
         12    1    3    3    0    0  0.20865825550E+02  0.33422071634E+02 -0.24838989081E+03  0.25149543814E+03  0.00000000000E+00 0. -1.
        -13    1    5    5    0    0 -0.13007005375E+03  0.15546265486E+03 -0.70193914957E+02  0.21450883813E+03  0.00000000000E+00 0.  1.
         14    1    5    5    0    0 -0.14901402440E+02  0.33252542441E+02 -0.57500096402E+02  0.68073816256E+02  0.00000000000E+00 0. -1.
          5    1    4    4  501    0 -0.24544875332E+01 -0.20209812342E+03  0.81058168957E+02  0.21781228788E+03  0.47000000000E+01 0.  1.
         -5    1    4    4    0  501  0.22039098534E+02  0.32691596283E+01 -0.14602954459E+02  0.27050795696E+02  0.47000000000E+01 0.  1.
          1    1    1    2  502    0  0.39659112335E+02  0.59183343310E+01  0.11264858280E+04  0.11271992693E+04  0.00000000000E+00 0. -1.
          1    1    1    2  503    0  0.65714178106E+02  0.13965202414E+02 -0.26471153368E+04  0.26479677088E+04  0.00000000000E+00 0. -1.
<mgrwt>
<rscale>  0 0.51930268E+02</rscale>
<asrwt>0</asrwt>
<pdfrwt beam="1">  1        2 0.20060619E+00 0.40098278E+02</pdfrwt>
<pdfrwt beam="2">  1        2 0.50066730E+00 0.67253581E+02</pdfrwt>
<totfact> 0.57848604E+00</totfact>
</mgrwt>
</event>
<event>
13    1  0.1589573E-008  0.1418179E+03  0.7546771E-02  0.1269016E+00
          2   -1    0    0  503    0  0.00000000000E+00  0.00000000000E+00  0.84746608520E+03  0.84746608520E+03  0.00000000000E+00 0. -1.
          2   -1    0    0  502    0 -0.00000000000E+00 -0.00000000000E+00 -0.21643440017E+04  0.21643440017E+04  0.00000000000E+00 0. -1.
         24    2    1    2    0    0  0.20051051260E+03 -0.47296001591E+02  0.14656008153E+02  0.22255129923E+03  0.82902984170E+02 0.  0.
         25    2    1    2    0    0 -0.22605911765E+03  0.38742639759E+01 -0.98520684228E+03  0.10185159549E+04  0.12499797451E+03 0.  0.
         24    2    1    2    0    0  0.34195699442E+02  0.11351527446E+03  0.99116531933E+02  0.17519998417E+03  0.82558368162E+02 0.  0.
        -11    1    3    3    0    0  0.78300230522E+02  0.12477515543E+02  0.31805856056E+02  0.85429660969E+02  0.00000000000E+00 0.  1.
         12    1    3    3    0    0  0.12221028208E+03 -0.59773517134E+02 -0.17149847903E+02  0.13712163826E+03  0.00000000000E+00 0. -1.
        -11    1    5    5    0    0  0.39255540045E+01 -0.11044004616E+02 -0.20550223991E+01  0.11899711310E+02  0.00000000000E+00 0.  1.
         12    1    5    5    0    0  0.30270145437E+02  0.12455927908E+03  0.10117155433E+03  0.16330027286E+03  0.00000000000E+00 0. -1.
          5    1    4    4  501    0 -0.10238680033E+03  0.40480146347E+02 -0.65087822189E+03  0.66014108254E+03  0.47000000000E+01 0. -1.
         -5    1    4    4    0  501 -0.12367231732E+03 -0.36605882371E+02 -0.33432862039E+03  0.35837487232E+03  0.47000000000E+01 0. -1.
          1    1    1    2  502    0  0.52398098639E+02  0.58553250275E+02 -0.10101289379E+04  0.10131803961E+04  0.00000000000E+00 0. -1.
          1    1    1    2  503    0 -0.61045193031E+02 -0.12864678712E+03  0.56468532360E+03  0.58236245253E+03  0.00000000000E+00 0. -1.
<mgrwt>
<rscale>  0 0.10556207E+03</rscale>
<asrwt>0</asrwt>
<pdfrwt beam="1">  1        2 0.12462736E+00 0.14181785E+03</pdfrwt>
<pdfrwt beam="2">  1        2 0.31828588E+00 0.78575084E+02</pdfrwt>
<totfact> 0.43743788E+01</totfact>
</mgrwt>
</event>
<event>
13    1  0.1589573E-008  0.2554660E+02  0.7546771E-02  0.1658991E+00
          2   -1    0    0  503    0  0.00000000000E+00  0.00000000000E+00  0.27960848107E+04  0.27960848107E+04  0.00000000000E+00 0. -1.
          2   -1    0    0  502    0 -0.00000000000E+00 -0.00000000000E+00 -0.12337909183E+04  0.12337909183E+04  0.00000000000E+00 0. -1.
         24    2    1    2    0    0 -0.47681256355E+02  0.59689608331E+01 -0.35795299597E+03  0.36986344476E+03  0.79746408995E+02 0.  0.
         25    2    1    2    0    0  0.35795184792E+02  0.12858480483E+03  0.20132514873E+04  0.20215394124E+04  0.12499879000E+03 0.  0.
         24    2    1    2    0    0  0.92005625503E+01 -0.11884689419E+03  0.53719311571E+02  0.15521433205E+03  0.83645022725E+02 0.  0.
        -13    1    5    5    0    0  0.39140991877E+02 -0.83079934201E+02  0.57603001870E+02  0.10840848000E+03  0.00000000000E+00 0.  1.
         14    1    5    5    0    0 -0.29940429327E+02 -0.35766959993E+02 -0.38836902996E+01  0.46805852046E+02  0.00000000000E+00 0. -1.
        -13    1    3    3    0    0  0.11698089601E+02 -0.17873250164E+02 -0.38162414387E+02  0.43734062738E+02  0.00000000000E+00 0.  1.
         14    1    3    3    0    0 -0.59379345956E+02  0.23842210997E+02 -0.31979058158E+03  0.32612938202E+03  0.00000000000E+00 0. -1.
          5    1    4    4  501    0  0.39260026582E+02 -0.11140134489E+01  0.21508879758E+03  0.21869584257E+03  0.47000000000E+01 0. -1.
         -5    1    4    4    0  501 -0.34648417897E+01  0.12969881827E+03  0.17981626897E+04  0.18028435698E+04  0.47000000000E+01 0. -1.
          1    1    1    2  502    0 -0.22356638103E+02 -0.10597119243E+02 -0.81455896153E+03  0.81493461088E+03  0.00000000000E+00 0. -1.
          1    1    1    2  503    0  0.25042147116E+02 -0.51097522207E+01  0.66783505100E+03  0.66832392898E+03  0.00000000000E+00 0. -1.
<mgrwt>
<rscale>  0 0.25140586E+02</rscale>
<asrwt>0</asrwt>
<pdfrwt beam="1">  1        2 0.41118894E+00 0.25546603E+02</pdfrwt>
<pdfrwt beam="2">  1        2 0.18143984E+00 0.24741023E+02</pdfrwt>
<totfact> 0.17157744E+01</totfact>
</mgrwt>
</event>
<event>
13    1  0.1589573E-008  0.2378268E+03  0.7546771E-02  0.1308728E+00
          2   -1    0    0  503    0  0.00000000000E+00  0.00000000000E+00  0.27612269503E+04  0.27612269503E+04  0.00000000000E+00 0. -1.
          2   -1    0    0  502    0 -0.00000000000E+00 -0.00000000000E+00 -0.15682637862E+04  0.15682637862E+04  0.00000000000E+00 0. -1.
         24    2    1    2    0    0 -0.22793621292E+02  0.44230743881E+03  0.83450258575E+02  0.45778026442E+03  0.80270824332E+02 0.  0.
         25    2    1    2    0    0  0.12688383682E+03 -0.88107775570E+02  0.11546178587E+04  0.11715926911E+04  0.12499818403E+03 0.  0.
         24    2    1    2    0    0 -0.92209277353E+02 -0.10842458270E+03 -0.29695797834E+02  0.16609711742E+03  0.80299259289E+02 0.  0.
        -11    1    3    3    0    0  0.18460676106E+02  0.48552316004E+02 -0.47633284888E+01  0.52161415336E+02  0.00000000000E+00 0.  1.
         12    1    3    3    0    0 -0.41254297398E+02  0.39375512280E+03  0.88213587063E+02  0.40561884908E+03  0.00000000000E+00 0. -1.
        -11    1    5    5    0    0 -0.19756104617E+02 -0.82628240179E+02 -0.41557314563E+01  0.85058802300E+02  0.00000000000E+00 0.  1.
         12    1    5    5    0    0 -0.72453172736E+02 -0.25796342525E+02 -0.25540066378E+02  0.81038315122E+02  0.00000000000E+00 0. -1.
          5    1    4    4  501    0  0.92531690631E+02 -0.11896904172E+03  0.93948156717E+03  0.95150588633E+03  0.47000000000E+01 0. -1.
         -5    1    4    4    0  501  0.34352146187E+02  0.30861266150E+02  0.21513629156E+03  0.22008680479E+03  0.47000000000E+01 0. -1.
          1    1    1    2  502    0  0.33744055104E+01 -0.21732921348E+03 -0.12652395441E+04  0.12837735305E+04  0.00000000000E+00 0. -1.
          1    1    1    2  503    0 -0.15255343683E+02 -0.28445867055E+02  0.12498303888E+04  0.12502471330E+04  0.00000000000E+00 0. -1.
<mgrwt>
<rscale>  0 0.87616553E+02</rscale>
<asrwt>0</asrwt>
<pdfrwt beam="1">  1        2 0.40606278E+00 0.32278365E+02</pdfrwt>
<pdfrwt beam="2">  1        2 0.23062703E+00 0.23782680E+03</pdfrwt>
<totfact> 0.99078433E+00</totfact>
</mgrwt>
</event>
<event>
13    1  0.1589573E-008  0.7409980E+02  0.7546771E-02  0.1397387E+00
          2   -1    0    0  502    0  0.00000000000E+00  0.00000000000E+00  0.36389275169E+04  0.36389275169E+04  0.00000000000E+00 0. -1.
          2   -1    0    0  503    0 -0.00000000000E+00 -0.00000000000E+00 -0.46201704389E+04  0.46201704389E+04  0.00000000000E+00 0. -1.
         24    2    1    2    0    0 -0.18730847782E+03 -0.19440158826E+04  0.11951987191E+04  0.22911685417E+04  0.81676744631E+02 0.  0.
         25    2    1    2    0    0 -0.11355710239E+04  0.37557949825E+03 -0.10032625426E+04  0.15661237273E+04  0.12500516060E+03 0.  0.
         24    2    1    2    0    0  0.13098342869E+04  0.15465756173E+04  0.15645831973E+03  0.20342352526E+04  0.77922127465E+02 0.  0.
        -11    1    3    3    0    0 -0.18787674130E+03 -0.17144148672E+04  0.10703282593E+04  0.20298075253E+04  0.00000000000E+00 0.  1.
         12    1    3    3    0    0  0.56826348113E+00 -0.22960101534E+03  0.12487045976E+03  0.26136101640E+03  0.00000000000E+00 0. -1.
        -13    1    5    5    0    0  0.81893514384E+03  0.98032865280E+03  0.13529839590E+03  0.12845250847E+04  0.00000000000E+00 0.  1.
         14    1    5    5    0    0  0.49089914308E+03  0.56624696451E+03  0.21159923826E+02  0.74971016791E+03  0.00000000000E+00 0. -1.
          5    1    4    4  501    0 -0.75025698421E+03  0.24205498082E+03 -0.58291282618E+03  0.98045173722E+03  0.47000000000E+01 0.  1.
         -5    1    4    4    0  501 -0.38531403969E+03  0.13352451742E+03 -0.42034971639E+03  0.58567199011E+03  0.47000000000E+01 0.  1.
          1    1    1    2  502    0 -0.29422574373E+02 -0.38876265831E+02  0.51707652506E+03  0.51936998825E+03  0.00000000000E+00 0. -1.
          1    1    1    2  503    0  0.42467789171E+02  0.60737032842E+02 -0.18467139433E+04  0.18482004460E+04  0.00000000000E+00 0. -1.
<mgrwt>
<rscale>  0 0.60106050E+02</rscale>
<asrwt>0</asrwt>
<pdfrwt beam="1">  1        2 0.53513640E+00 0.48755020E+02</pdfrwt>
<pdfrwt beam="2">  1        2 0.67943683E+00 0.74099801E+02</pdfrwt>
<totfact> 0.62009316E-02</totfact>
</mgrwt>
</event>
<event>
13    1  0.1589573E-008  0.1796827E+03  0.7546771E-02  0.1317924E+00
          2   -1    0    0  502    0  0.00000000000E+00  0.00000000000E+00  0.41536750168E+04  0.41536750168E+04  0.00000000000E+00 0. -1.
          2   -1    0    0  503    0 -0.00000000000E+00 -0.00000000000E+00 -0.56600251976E+03  0.56600251976E+03  0.00000000000E+00 0. -1.
         24    2    1    2    0    0 -0.29239088006E+02  0.21295142233E+01 -0.51646143601E+02  0.10027148793E+03  0.80793490115E+02 0.  0.
         25    2    1    2    0    0 -0.21009072834E+03  0.15400632739E+03  0.18027198198E+03  0.34054594956E+03  0.12496996944E+03 0.  0.
         24    2    1    2    0    0  0.46630646224E+02 -0.52297004477E+02  0.70351564883E+03  0.71139975621E+03  0.79031330177E+02 0.  0.
        -11    1    3    3    0    0 -0.38818761366E+02 -0.26113350302E+02 -0.80829979365E+01  0.47477764835E+02  0.00000000000E+00 0.  1.
         12    1    3    3    0    0  0.95796733603E+01  0.28242864526E+02 -0.43563145664E+02  0.52793723097E+02  0.00000000000E+00 0. -1.
        -13    1    5    5    0    0 -0.11766021974E+02 -0.41280224939E+02  0.21178101486E+03  0.21608723817E+03  0.00000000000E+00 0.  1.
         14    1    5    5    0    0  0.58396668199E+02 -0.11016779539E+02  0.49173463397E+03  0.49531251805E+03  0.00000000000E+00 0. -1.
          5    1    4    4  501    0 -0.21316158838E+03  0.10841532115E+03  0.12920808142E+03  0.27186129354E+03  0.47000000000E+01 0.  1.
         -5    1    4    4    0  501  0.30708600415E+01  0.45591006246E+02  0.51063900559E+02  0.68684656017E+02  0.47000000000E+01 0.  1.
          1    1    1    2  502    0  0.22899209055E+03 -0.11896792936E+03  0.31552636970E+04  0.31657984369E+04  0.00000000000E+00 0. -1.
          1    1    1    2  503    0 -0.36292920435E+02  0.15129092217E+02 -0.39973268714E+03  0.40166190593E+03  0.00000000000E+00 0. -1.
<mgrwt>
<rscale>  0 0.84054334E+02</rscale>
<asrwt>0</asrwt>
<pdfrwt beam="1">  1        2 0.61083454E+00 0.17968271E+03</pdfrwt>
<pdfrwt beam="2">  1        2 0.83235667E-01 0.39320039E+02</pdfrwt>
<totfact> 0.46968691E+00</totfact>
</mgrwt>
</event>
<event>
13    1  0.1589573E-008  0.3159480E+03  0.7546771E-02  0.1166214E+00
          2   -1    0    0  503    0  0.00000000000E+00  0.00000000000E+00  0.36297099055E+04  0.36297099055E+04  0.00000000000E+00 0. -1.
          2   -1    0    0  502    0 -0.00000000000E+00 -0.00000000000E+00 -0.53505665859E+03  0.53505665859E+03  0.00000000000E+00 0. -1.
         24    2    1    2    0    0 -0.11301518849E+02  0.54363061751E+02 -0.25587811254E+03  0.27418200702E+03  0.81357837293E+02 0.  0.
         25    2    1    2    0    0 -0.26370954173E+03  0.25514815262E+03  0.59551577449E+03  0.71056344105E+03  0.12497225257E+03 0.  0.
         24    2    1    2    0    0  0.63390863202E+01 -0.13078469738E+03  0.28522247465E+03  0.32447873788E+03  0.82400061934E+02 0.  0.
        -13    1    3    3    0    0  0.19230060332E+02 -0.11778209893E+02 -0.35321805212E+02  0.41906459790E+02  0.00000000000E+00 0.  1.
         14    1    3    3    0    0 -0.30531579181E+02  0.66141271644E+02 -0.22055630732E+03  0.23227554723E+03  0.00000000000E+00 0. -1.
        -13    1    5    5    0    0  0.69929291033E+01 -0.40338605638E+02  0.18500487012E+03  0.18948062204E+03  0.00000000000E+00 0.  1.
         14    1    5    5    0    0 -0.65384278310E+00 -0.90446091742E+02  0.10021760453E+03  0.13499811584E+03  0.00000000000E+00 0. -1.
          5    1    4    4  501    0 -0.20082964165E+03  0.24662607214E+03  0.53689542170E+03  0.62404787337E+03  0.47000000000E+01 0. -1.
         -5    1    4    4    0  501 -0.62879900075E+02  0.85220804824E+01  0.58620352793E+02  0.86515567679E+02  0.47000000000E+01 0. -1.
          1    1    1    2  502    0 -0.45515843230E+02 -0.13403410201E+03 -0.15599588236E+03  0.21064555015E+03  0.00000000000E+00 0. -1.
          1    1    1    2  503    0  0.31418781749E+03 -0.44692414983E+02  0.26257889927E+04  0.26448968280E+04  0.00000000000E+00 0. -1.
<mgrwt>
<rscale>  0 0.18165174E+03</rscale>
<asrwt>0</asrwt>
<pdfrwt beam="1">  1        2 0.53378086E+00 0.31594801E+03</pdfrwt>
<pdfrwt beam="2">  1        2 0.78684805E-01 0.10443919E+03</pdfrwt>
<totfact> 0.99744832E+00</totfact>
</mgrwt>
</event>
<event>
13    1  0.1589573E-008  0.7246247E+02  0.7546771E-02  0.1386529E+00
          2   -1    0    0  503    0  0.00000000000E+00  0.00000000000E+00  0.32500153155E+04  0.32500153155E+04  0.00000000000E+00 0. -1.
          2   -1    0    0  502    0 -0.00000000000E+00 -0.00000000000E+00 -0.49864713361E+03  0.49864713361E+03  0.00000000000E+00 0. -1.
         24    2    1    2    0    0 -0.22125435990E+02 -0.48348799856E+02 -0.11936479332E+03  0.16003735950E+03  0.92395136171E+02 0.  0.
         25    2    1    2    0    0  0.11829472043E+03  0.84156043165E+02  0.29238657649E+03  0.34955876254E+03  0.12500215148E+03 0.  0.
         24    2    1    2    0    0  0.11564728721E+02  0.25161697478E+02 -0.17088523892E+02  0.87165042329E+02  0.80863298134E+02 0.  0.
        -11    1    3    3    0    0  0.20303822827E+02 -0.48707222445E+02 -0.10068771374E+03  0.11367785377E+03  0.00000000000E+00 0.  1.
         12    1    3    3    0    0 -0.42429258816E+02  0.35842258926E+00 -0.18677079580E+02  0.46359505736E+02  0.00000000000E+00 0. -1.
        -13    1    5    5    0    0  0.11213600180E+01 -0.18853971130E+02  0.20844097743E+02  0.28128385776E+02  0.00000000000E+00 0.  1.
         14    1    5    5    0    0  0.10443368703E+02  0.44015668608E+02 -0.37932621635E+02  0.59036656553E+02  0.00000000000E+00 0. -1.
          5    1    4    4  501    0  0.10377424988E+03  0.40904519146E+02  0.94021463572E+02  0.14596026938E+03  0.47000000000E+01 0.  1.
         -5    1    4    4    0  501  0.14520470546E+02  0.43251524020E+02  0.19836511292E+03  0.20359849316E+03  0.47000000000E+01 0.  1.
          1    1    1    2  502    0 -0.52493956805E+02 -0.14229072302E+02 -0.27511495742E+03  0.28043951539E+03  0.00000000000E+00 0. -1.
          1    1    1    2  503    0 -0.55240056354E+02 -0.46739868486E+02  0.28705498800E+04  0.28714617693E+04  0.00000000000E+00 0. -1.
<mgrwt>
<rscale>  0 0.62778238E+02</rscale>
<asrwt>0</asrwt>
<pdfrwt beam="1">  1        2 0.47794342E+00 0.72462470E+02</pdfrwt>
<pdfrwt beam="2">  1        2 0.73330463E-01 0.54388252E+02</pdfrwt>
<totfact> 0.23258796E+01</totfact>
</mgrwt>
</event>
<event>
13    1  0.1589573E-008  0.4338394E+03  0.7546771E-02  0.1231141E+00
          2   -1    0    0  503    0  0.00000000000E+00  0.00000000000E+00  0.78487844499E+03  0.78487844499E+03  0.00000000000E+00 0. -1.
          2   -1    0    0  502    0 -0.00000000000E+00 -0.00000000000E+00 -0.33984981899E+04  0.33984981899E+04  0.00000000000E+00 0. -1.
         24    2    1    2    0    0  0.20542629699E+03 -0.20451427609E+03 -0.90230279475E+03  0.95104176465E+03  0.79398060913E+02 0.  0.
         25    2    1    2    0    0 -0.77113673559E+02  0.67479526169E+03 -0.35541445037E+03  0.77668497367E+03  0.12499981179E+03 0.  0.
         24    2    1    2    0    0 -0.37353875018E+02  0.36078862053E+02  0.31241295057E+03  0.32704688100E+03  0.81613812715E+02 0.  0.
        -13    1    5    5    0    0 -0.41600330368E+02 -0.12004442770E+02  0.20126695808E+03  0.20587151951E+03  0.00000000000E+00 0.  1.
         14    1    5    5    0    0  0.42464553500E+01  0.48083304822E+02  0.11114599249E+03  0.12117536149E+03  0.00000000000E+00 0. -1.
        -13    1    3    3    0    0  0.12522595951E+03 -0.17021531003E+03 -0.58622175028E+03  0.62314583623E+03  0.00000000000E+00 0.  1.
         14    1    3    3    0    0  0.80200337475E+02 -0.34298966061E+02 -0.31608104447E+03  0.32789592843E+03  0.00000000000E+00 0. -1.
          5    1    4    4  501    0 -0.54787241052E+02  0.26962259083E+03 -0.81173996162E+02  0.28689595835E+03  0.47000000000E+01 0. -1.
         -5    1    4    4    0  501 -0.22326432507E+02  0.40517267086E+03 -0.27424045421E+03  0.48978901532E+03  0.47000000000E+01 0. -1.
          1    1    1    2  502    0 -0.71026164322E+02 -0.47459782853E+03 -0.18663459661E+04  0.19270534710E+04  0.00000000000E+00 0. -1.
          1    1    1    2  503    0 -0.19932584086E+02 -0.31762019118E+02  0.19803051573E+03  0.20154954460E+03  0.00000000000E+00 0. -1.
<mgrwt>
<rscale>  0 0.12754727E+03</rscale>
<asrwt>0</asrwt>
<pdfrwt beam="1">  1        2 0.11542330E+00 0.37498450E+02</pdfrwt>
<pdfrwt beam="2">  1        2 0.49977914E+00 0.43383945E+03</pdfrwt>
<totfact> 0.88322150E+00</totfact>
</mgrwt>
</event>
<event>
13    1  0.1589573E-008  0.1152376E+03  0.7546771E-02  0.1305352E+00
          2   -1    0    0  503    0  0.00000000000E+00  0.00000000000E+00  0.89504305918E+03  0.89504305918E+03  0.00000000000E+00 0. -1.
          2   -1    0    0  502    0 -0.00000000000E+00 -0.00000000000E+00 -0.37871978589E+04  0.37871978589E+04  0.00000000000E+00 0. -1.
         24    2    1    2    0    0  0.76062377600E+03  0.26157603558E+03 -0.11168441772E+04  0.13794143305E+04  0.92045793089E+02 0.  0.
         25    2    1    2    0    0 -0.73040425892E+03  0.17410680115E+03 -0.52625461099E+03  0.92540347727E+03  0.12499648190E+03 0.  0.
         24    2    1    2    0    0  0.11580677070E+03 -0.32625926885E+03 -0.15127584262E+03  0.38642323954E+03  0.81130887119E+02 0.  0.
        -13    1    3    3    0    0  0.34042957598E+03  0.77037132976E+02 -0.52605988140E+03  0.63132084939E+03  0.00000000000E+00 0.  1.
         14    1    3    3    0    0  0.42019420003E+03  0.18453890261E+03 -0.59078429579E+03  0.74809348110E+03  0.00000000000E+00 0. -1.
        -13    1    5    5    0    0 -0.28734020715E+01 -0.95188719688E+02 -0.30887850936E+02  0.10011597341E+03  0.00000000000E+00 0.  1.
         14    1    5    5    0    0  0.11868017278E+03 -0.23107054916E+03 -0.12038799168E+03  0.28630726613E+03  0.00000000000E+00 0. -1.
          5    1    4    4  501    0 -0.66688410821E+03  0.19337603466E+03 -0.47289812877E+03  0.84010918026E+03  0.47000000000E+01 0.  1.
         -5    1    4    4    0  501 -0.63520150715E+02 -0.19269233512E+02 -0.53356482215E+02  0.85294297004E+02  0.47000000000E+01 0.  1.
          1    1    1    2  502    0 -0.97555833095E+02 -0.60740460079E+02 -0.15395939771E+04  0.15438769894E+04  0.00000000000E+00 0. -1.
          1    1    1    2  503    0 -0.48470454689E+02 -0.48683107808E+02  0.44181380818E+03  0.44712288139E+03  0.00000000000E+00 0. -1.
<mgrwt>
<rscale>  0 0.88975311E+02</rscale>
<asrwt>0</asrwt>
<pdfrwt beam="1">  1        2 0.13162398E+00 0.68698107E+02</pdfrwt>
<pdfrwt beam="2">  1        2 0.55694085E+00 0.11523761E+03</pdfrwt>
<totfact> 0.52988809E+00</totfact>
</mgrwt>
</event>
<event>
13    1  0.1589573E-008  0.1144285E+03  0.7546771E-02  0.1304405E+00
          2   -1    0    0  502    0  0.00000000000E+00  0.00000000000E+00  0.82893923968E+03  0.82893923968E+03  0.00000000000E+00 0. -1.
          2   -1    0    0  503    0 -0.00000000000E+00 -0.00000000000E+00 -0.10053017953E+04  0.10053017953E+04  0.00000000000E+00 0. -1.
         24    2    1    2    0    0 -0.53215994527E+02 -0.30615586086E+02  0.98724817645E+02  0.14160122059E+03  0.80839717157E+02 0.  0.
         25    2    1    2    0    0 -0.41330124881E+02  0.11666702922E+03 -0.45034768872E+03  0.48348477032E+03  0.12500042983E+03 0.  0.
         24    2    1    2    0    0  0.41340111404E+02  0.26367476649E+01  0.76654844346E+02  0.11902963538E+03  0.81093351681E+02 0.  0.
        -13    1    3    3    0    0 -0.99516256363E+01  0.15494052272E+01 -0.13650203463E+02  0.16963595254E+02  0.00000000000E+00 0.  1.
         14    1    3    3    0    0 -0.43264368890E+02 -0.32164991313E+02  0.11237502111E+03  0.12463762534E+03  0.00000000000E+00 0. -1.
        -13    1    5    5    0    0  0.64191960498E+02  0.20390313208E+01  0.70475133576E+02  0.95349409510E+02  0.00000000000E+00 0.  1.
         14    1    5    5    0    0 -0.22851849094E+02  0.59771634400E+00  0.61797107691E+01  0.23680225865E+02  0.00000000000E+00 0. -1.
          5    1    4    4  501    0 -0.29346786075E+02  0.87846605250E+02 -0.12012801558E+03  0.15175997507E+03  0.47000000000E+01 0.  1.
         -5    1    4    4    0  501 -0.11983338806E+02  0.28820423974E+02 -0.33021967315E+03  0.33172479524E+03  0.47000000000E+01 0.  1.
          1    1    1    2  502    0  0.65234992392E+02  0.24788371580E+02  0.58569997831E+03  0.58984280295E+03  0.00000000000E+00 0. -1.
          1    1    1    2  503    0 -0.12028984388E+02 -0.11347656238E+03 -0.48709450718E+03  0.50028260574E+03  0.00000000000E+00 0. -1.
<mgrwt>
<rscale>  0 0.89361592E+02</rscale>
<asrwt>0</asrwt>
<pdfrwt beam="1">  1        2 0.12190283E+00 0.69785870E+02</pdfrwt>
<pdfrwt beam="2">  1        2 0.14783850E+00 0.11442853E+03</pdfrwt>
<totfact> 0.17044095E+02</totfact>
</mgrwt>
</event>
<event>
13    1  0.1589573E-008  0.8958780E+02  0.7546771E-02  0.1431194E+00
          2   -1    0    0  503    0  0.00000000000E+00  0.00000000000E+00  0.21880156081E+04  0.21880156081E+04  0.00000000000E+00 0. -1.
          2   -1    0    0  502    0 -0.00000000000E+00 -0.00000000000E+00 -0.24539503158E+04  0.24539503158E+04  0.00000000000E+00 0. -1.
         24    2    1    2    0    0  0.60182494863E+02  0.12451365743E+02 -0.29176223825E+03  0.30900373107E+03  0.81124182246E+02 0.  0.
         25    2    1    2    0    0 -0.11355667486E+03 -0.64090014486E+02  0.71536758533E+02  0.19428140021E+03  0.12500042513E+03 0.  0.
         24    2    1    2    0    0  0.86976373088E+01  0.10525633823E+02 -0.82132319580E+02  0.13285471120E+03  0.10352882935E+03 0.  0.
        -11    1    5    5    0    0  0.45486325897E+02  0.25487631687E+02 -0.76737150413E+02  0.92775079985E+02  0.00000000000E+00 0.  1.
         12    1    5    5    0    0 -0.36788688589E+02 -0.14961997864E+02 -0.53951691675E+01  0.40079631217E+02  0.00000000000E+00 0. -1.
        -11    1    3    3    0    0  0.35005331316E+02  0.46731027654E+02 -0.18815337493E+03  0.19700470721E+03  0.00000000000E+00 0.  1.
         12    1    3    3    0    0  0.25177163547E+02 -0.34279661911E+02 -0.10360886333E+03  0.11199902386E+03  0.00000000000E+00 0. -1.
          5    1    4    4  501    0  0.27371411510E+02 -0.11696796998E+02  0.13993110782E+02  0.33225086568E+02  0.47000000000E+01 0.  1.
         -5    1    4    4    0  501 -0.14092808637E+03 -0.52393217488E+02  0.57543647751E+02  0.16105631364E+03  0.47000000000E+01 0.  1.
          1    1    1    2  502    0  0.56396768730E+02  0.69839765961E+02 -0.19835672702E+04  0.19855974677E+04  0.00000000000E+00 0. -1.
          1    1    1    2  503    0 -0.11720226041E+02 -0.28726751041E+02  0.20199903618E+04  0.20202286137E+04  0.00000000000E+00 0. -1.
<mgrwt>
<rscale>  0 0.52721135E+02</rscale>
<asrwt>0</asrwt>
<pdfrwt beam="1">  1        2 0.32176700E+00 0.31025633E+02</pdfrwt>
<pdfrwt beam="2">  1        2 0.36087504E+00 0.89587796E+02</pdfrwt>
<totfact> 0.74636906E+00</totfact>
</mgrwt>
</event>
<event>
13    1  0.1589573E-008  0.1059913E+03  0.7546771E-02  0.1457008E+00
          2   -1    0    0  502    0  0.00000000000E+00  0.00000000000E+00  0.16468208626E+04  0.16468208626E+04  0.00000000000E+00 0. -1.
          2   -1    0    0  503    0 -0.00000000000E+00 -0.00000000000E+00 -0.97158166066E+03  0.97158166066E+03  0.00000000000E+00 0. -1.
         24    2    1    2    0    0  0.35280745992E+03 -0.33447947119E+03 -0.34390974285E+03  0.59778480554E+03  0.52183733926E+02 0.  0.
         25    2    1    2    0    0 -0.49050459448E+03  0.21743754137E+03  0.78679643289E+02  0.55649833762E+03  0.12500428751E+03 0.  0.
         24    2    1    2    0    0  0.19394638841E+03  0.22270000058E+02  0.30305485707E+03  0.36930061428E+03  0.80184430119E+02 0.  0.
        -11    1    3    3    0    0  0.21389883222E+03 -0.16816750742E+03 -0.19923604986E+03  0.33723585892E+03  0.00000000000E+00 0.  1.
         12    1    3    3    0    0  0.13890862770E+03 -0.16631196377E+03 -0.14467369299E+03  0.26054894662E+03  0.00000000000E+00 0. -1.
        -11    1    5    5    0    0  0.58490998114E+02 -0.28499623063E+02  0.11387091554E+03  0.13114881159E+03  0.00000000000E+00 0.  1.
         12    1    5    5    0    0  0.13545539030E+03  0.50769623120E+02  0.18918394153E+03  0.23815180269E+03  0.00000000000E+00 0. -1.
          5    1    4    4  501    0 -0.33169275074E+03  0.80977150878E+02  0.49586934012E+02  0.34504830659E+03  0.47000000000E+01 0. -1.
         -5    1    4    4    0  501 -0.15881184374E+03  0.13646039050E+03  0.29092709277E+02  0.21145003102E+03  0.47000000000E+01 0. -1.
          1    1    1    2  502    0  0.14599031148E+02  0.15983594582E+02  0.85369943092E+03  0.85397384349E+03  0.00000000000E+00 0. -1.
          1    1    1    2  503    0 -0.70848285002E+02  0.78788335178E+02 -0.21628498647E+03  0.24084492235E+03  0.00000000000E+00 0. -1.
<mgrwt>
<rscale>  0 0.47900205E+02</rscale>
<asrwt>0</asrwt>
<pdfrwt beam="1">  1        2 0.24217954E+00 0.21647333E+02</pdfrwt>
<pdfrwt beam="2">  1        2 0.14287966E+00 0.10599133E+03</pdfrwt>
<totfact> 0.74089273E+01</totfact>
</mgrwt>
</event>
<event>
13    1  0.1589573E-008  0.6937795E+02  0.7546771E-02  0.1457266E+00
          2   -1    0    0  503    0  0.00000000000E+00  0.00000000000E+00  0.22020279178E+04  0.22020279178E+04  0.00000000000E+00 0. -1.
          2   -1    0    0  502    0 -0.00000000000E+00 -0.00000000000E+00 -0.38513257536E+04  0.38513257536E+04  0.00000000000E+00 0. -1.
         24    2    1    2    0    0  0.11638552250E+03  0.47034582002E+03 -0.17867804929E+04  0.18523508393E+04  0.62034842472E+02 0.  0.
         25    2    1    2    0    0 -0.29173024606E+03 -0.10663581829E+03 -0.28448959415E+03  0.43937833746E+03  0.12506502326E+03 0.  0.
         24    2    1    2    0    0  0.95277475578E+02 -0.40136449140E+03  0.20078802288E+03  0.46689817078E+03  0.86641903432E+02 0.  0.
        -11    1    5    5    0    0  0.57606613345E+02 -0.18530507318E+03  0.14008686373E+03  0.23933412093E+03  0.00000000000E+00 0.  1.
         12    1    5    5    0    0  0.37670862234E+02 -0.21605941822E+03  0.60701159150E+02  0.22756404985E+03  0.00000000000E+00 0. -1.
        -13    1    3    3    0    0  0.12090833114E+02  0.14775219945E+03 -0.60520864934E+03  0.62310064189E+03  0.00000000000E+00 0.  1.
         14    1    3    3    0    0  0.10429468938E+03  0.32259362057E+03 -0.11815718435E+04  0.12292501974E+04  0.00000000000E+00 0. -1.
          5    1    4    4  501    0 -0.14995168947E+03 -0.49626790613E+02 -0.62707838439E+02  0.17000791312E+03  0.47000000000E+01 0. -1.
         -5    1    4    4    0  501 -0.14177855659E+03 -0.57009027680E+02 -0.22178175571E+03  0.26937042434E+03  0.47000000000E+01 0. -1.
          1    1    1    2  502    0  0.30987369161E+02 -0.11375053424E+02 -0.15359092219E+04  0.15362638923E+04  0.00000000000E+00 0. -1.
          1    1    1    2  503    0  0.49079878823E+02  0.49029543098E+02  0.17570934502E+04  0.17584624316E+04  0.00000000000E+00 0. -1.
<mgrwt>
<rscale>  0 0.47855119E+02</rscale>
<asrwt>0</asrwt>
<pdfrwt beam="1">  1        2 0.32382764E+00 0.69377952E+02</pdfrwt>
<pdfrwt beam="2">  1        2 0.56637142E+00 0.33009224E+02</pdfrwt>
<totfact> 0.13962979E+00</totfact>
</mgrwt>
</event>
<event>
13    1  0.1589573E-008  0.8034618E+02  0.7546771E-02  0.1355268E+00
          2   -1    0    0  502    0  0.00000000000E+00  0.00000000000E+00  0.99389464009E+03  0.99389464009E+03  0.00000000000E+00 0. -1.
          2   -1    0    0  503    0 -0.00000000000E+00 -0.00000000000E+00 -0.29598603641E+04  0.29598603641E+04  0.00000000000E+00 0. -1.
         24    2    1    2    0    0 -0.22996121165E+03 -0.15255389334E+03 -0.74796559759E+03  0.80104800091E+03  0.77913512017E+02 0.  0.
         25    2    1    2    0    0  0.49780842860E+03 -0.41403775942E+03  0.18333168212E+03  0.68445284404E+03  0.12499876892E+03 0.  0.
         24    2    1    2    0    0 -0.24381846358E+03  0.56898883339E+03 -0.40727314721E+03  0.74870221341E+03  0.10718139872E+03 0.  0.
        -11    1    3    3    0    0 -0.13198231459E+03 -0.40840260513E+02 -0.35981361188E+03  0.38542585997E+03  0.00000000000E+00 0.  1.
         12    1    3    3    0    0 -0.97978897056E+02 -0.11171363283E+03 -0.38815198571E+03  0.41562214094E+03  0.00000000000E+00 0. -1.
        -13    1    5    5    0    0 -0.19484340484E+03  0.33523439128E+03 -0.27822869780E+03  0.47723920395E+03  0.00000000000E+00 0.  1.
         14    1    5    5    0    0 -0.48975058734E+02  0.23375444211E+03 -0.12904444940E+03  0.27146300946E+03  0.00000000000E+00 0. -1.
          5    1    4    4  501    0  0.16616979936E+03 -0.11554650914E+03  0.11560923191E+03  0.23313297171E+03  0.47000000000E+01 0. -1.
         -5    1    4    4    0  501  0.33163862924E+03 -0.29849125028E+03  0.67722450209E+02  0.45131987233E+03  0.47000000000E+01 0. -1.
          1    1    1    2  502    0  0.43270083516E+02 -0.46500747231E+02  0.35876146340E+03  0.36434105895E+03  0.00000000000E+00 0. -1.
          1    1    1    2  503    0 -0.67298836892E+02  0.44103566600E+02 -0.13528201247E+04  0.13552108869E+04  0.00000000000E+00 0. -1.
<mgrwt>
<rscale>  0 0.71438655E+02</rscale>
<asrwt>0</asrwt>
<pdfrwt beam="1">  1        2 0.14616098E+00 0.63518656E+02</pdfrwt>
<pdfrwt beam="2">  1        2 0.43527357E+00 0.80346181E+02</pdfrwt>
<totfact> 0.14815348E+01</totfact>
</mgrwt>
</event>
<event>
13    1  0.1589573E-008  0.1075710E+03  0.7546771E-02  0.1277265E+00
          2   -1    0    0  503    0  0.00000000000E+00  0.00000000000E+00  0.25910717004E+04  0.25910717004E+04  0.00000000000E+00 0. -1.
         -1   -1    0    0    0  501 -0.00000000000E+00 -0.00000000000E+00 -0.10819245185E+04  0.10819245185E+04  0.00000000000E+00 0.  1.
         24    2    1    2    0    0 -0.58239347844E+01 -0.24905449023E+02 -0.18977542593E+03  0.20760334909E+03  0.80188768915E+02 0.  0.
         25    2    1    2    0    0 -0.13061186310E+03 -0.22011547166E+02  0.80387953518E+03  0.82425255953E+03  0.12500403120E+03 0.  0.
         24    2    1    2    0    0 -0.25575991184E+02  0.19240569577E+02 -0.14576931052E+03  0.16989039313E+03  0.81177108502E+02 0.  0.
        -11    1    3    3    0    0  0.36885797860E+02 -0.11544353394E+02 -0.74118453685E+02  0.83590545852E+02  0.00000000000E+00 0.  1.
         12    1    3    3    0    0 -0.42709732644E+02 -0.13361095629E+02 -0.11565697224E+03  0.12401280324E+03  0.00000000000E+00 0. -1.
        -13    1    5    5    0    0 -0.25166131282E+02  0.50042945774E+02 -0.10198166945E+03  0.11635244513E+03  0.00000000000E+00 0.  1.
         14    1    5    5    0    0 -0.40985990153E+00 -0.30802376198E+02 -0.43787641074E+02  0.53537947994E+02  0.00000000000E+00 0. -1.
          5    1    4    4  502    0 -0.10234612988E+03  0.38404174413E+02  0.59353131216E+03  0.60353220248E+03  0.47000000000E+01 0.  1.
         -5    1    4    4    0  502 -0.28265733224E+02 -0.60415721578E+02  0.21034822302E+03  0.22072035705E+03  0.47000000000E+01 0.  1.
          1    1    1    2  503    0  0.47394548777E+02  0.91461157563E+02  0.17484883623E+04  0.17515201797E+04  0.00000000000E+00 0. -1.
         -2    1    1    2    0  501  0.11461724029E+03 -0.63784730951E+02 -0.70767597912E+03  0.71972973753E+03  0.00000000000E+00 0.  1.
<mgrwt>
<rscale>  0 0.10145528E+03</rscale>
<asrwt>0</asrwt>
<pdfrwt beam="1">  1        2 0.38103996E+00 0.95687285E+02</pdfrwt>
<pdfrwt beam="2">  1       -1 0.15910655E+00 0.10757096E+03</pdfrwt>
<totfact> 0.18828137E+00</totfact>
</mgrwt>
</event>
<event>
13    1  0.1589573E-008  0.1441450E+03  0.7546771E-02  0.1223101E+00
          2   -1    0    0  503    0  0.00000000000E+00  0.00000000000E+00  0.12616470858E+04  0.12616470858E+04  0.00000000000E+00 0. -1.
         -1   -1    0    0    0  501 -0.00000000000E+00 -0.00000000000E+00 -0.88602537539E+03  0.88602537539E+03  0.00000000000E+00 0.  1.
         24    2    1    2    0    0  0.75824343829E+02 -0.72416691280E+02  0.34739557265E+03  0.36764352542E+03  0.59030243016E+02 0.  0.
         25    2    1    2    0    0  0.81703072051E+02  0.52637665066E+02 -0.22804055238E+03  0.27761934927E+03  0.12499557510E+03 0.  0.
         24    2    1    2    0    0 -0.55345682613E+02 -0.24464333823E+02  0.32197297504E+03  0.33778830985E+03  0.82296399690E+02 0.  0.
        -13    1    3    3    0    0  0.17595351012E+02  0.65245152488E+01  0.29548942448E+02  0.35004366532E+02  0.00000000000E+00 0.  1.
         14    1    3    3    0    0  0.58228992816E+02 -0.78941206529E+02  0.31784663021E+03  0.33263915889E+03  0.00000000000E+00 0. -1.
        -13    1    5    5    0    0  0.17671007301E+01  0.25554187400E+02  0.98280053290E+02  0.10156332022E+03  0.00000000000E+00 0.  1.
         14    1    5    5    0    0 -0.57112783343E+02 -0.50018521223E+02  0.22369292175E+03  0.23622498963E+03  0.00000000000E+00 0. -1.
          5    1    4    4  502    0  0.25122160364E+02 -0.29604121747E+02 -0.14251837179E+02  0.41626095526E+02  0.47000000000E+01 0. -1.
         -5    1    4    4    0  502  0.56580911686E+02  0.82241786813E+02 -0.21378871520E+03  0.23599325374E+03  0.47000000000E+01 0. -1.
          1    1    1    2  503    0 -0.13118014023E+03 -0.12563572451E+03  0.52172115993E+03  0.55243599918E+03  0.00000000000E+00 0. -1.
         -2    1    1    2    0  501  0.28998406965E+02  0.16987908454E+03 -0.58742744485E+03  0.61218527746E+03  0.00000000000E+00 0.  1.
<mgrwt>
<rscale>  0 0.13297943E+03</rscale>
<asrwt>0</asrwt>
<pdfrwt beam="1">  1        2 0.18553634E+00 0.14414504E+03</pdfrwt>
<pdfrwt beam="2">  1       -1 0.13029785E+00 0.12267872E+03</pdfrwt>
<totfact> 0.13516242E+01</totfact>
</mgrwt>
</event>
<event>
13    1  0.1589573E-008  0.7289131E+02  0.7546771E-02  0.1412949E+00
          2   -1    0    0  502    0  0.00000000000E+00  0.00000000000E+00  0.36455471131E+04  0.36455471131E+04  0.00000000000E+00 0. -1.
          4   -1    0    0  503    0 -0.00000000000E+00 -0.00000000000E+00 -0.43671632986E+03  0.43671632986E+03  0.00000000000E+00 0. -1.
         24    2    1    2    0    0 -0.37485380943E+03 -0.40269518363E+03  0.45771289195E+03  0.72029256127E+03  0.81495355709E+02 0.  0.
         25    2    1    2    0    0 -0.13404768815E+03  0.28174836379E+03  0.59222923595E+03  0.68096460039E+03  0.12500558336E+03 0.  0.
         24    2    1    2    0    0  0.47857948973E+03  0.76040213056E+02  0.71220655579E+03  0.86476241606E+03  0.75864458956E+02 0.  0.
        -11    1    5    5    0    0  0.21517072978E+03  0.54216150056E+02  0.38234646438E+03  0.44207086841E+03  0.00000000000E+00 0.  1.
         12    1    5    5    0    0  0.26340875996E+03  0.21824063000E+02  0.32986009141E+03  0.42269154765E+03  0.00000000000E+00 0. -1.
        -13    1    3    3    0    0 -0.20482674670E+02 -0.57109139822E+02  0.59947547269E+02  0.85291865007E+02  0.00000000000E+00 0.  1.
         14    1    3    3    0    0 -0.35437113476E+03 -0.34558604381E+03  0.39776534468E+03  0.63500069627E+03  0.00000000000E+00 0. -1.
          5    1    4    4  501    0 -0.33056627509E+02 -0.16739506223E+01  0.82877711849E+02  0.89366368698E+02  0.47000000000E+01 0. -1.
         -5    1    4    4    0  501 -0.10099106064E+03  0.28342231441E+03  0.50935152410E+03  0.59159823169E+03  0.47000000000E+01 0. -1.
          1    1    1    2  502    0 -0.38592231497E+02  0.20836625664E+02  0.16239460841E+04  0.16245382142E+04  0.00000000000E+00 0. -1.
          3    1    1    2  503    0  0.68914239350E+02  0.24069981124E+02 -0.17726398461E+03  0.19170565098E+03  0.00000000000E+00 0. -1.
<mgrwt>
<rscale>  0 0.56540851E+02</rscale>
<asrwt>0</asrwt>
<pdfrwt beam="1">  1        2 0.53610985E+00 0.43858013E+02</pdfrwt>
<pdfrwt beam="2">  1        4 0.64222992E-01 0.72891306E+02</pdfrwt>
<totfact> 0.16647187E+00</totfact>
</mgrwt>
</event>
<event>
13    1  0.1589573E-008  0.1280546E+03  0.7546771E-02  0.1240896E+00
          2   -1    0    0  503    0  0.00000000000E+00  0.00000000000E+00  0.27315823060E+04  0.27315823060E+04  0.00000000000E+00 0. -1.
         -1   -1    0    0    0  501 -0.00000000000E+00 -0.00000000000E+00 -0.33788283984E+03  0.33788283984E+03  0.00000000000E+00 0.  1.
         24    2    1    2    0    0  0.65993383458E+02  0.18233513413E+02 -0.53338003635E+02  0.12695764596E+03  0.92659125641E+02 0.  0.
         25    2    1    2    0    0  0.45884480353E+02  0.63913192368E+02  0.19210412286E+03  0.24232195678E+03  0.12500262006E+03 0.  0.
         24    2    1    2    0    0  0.42039987003E+02  0.38568169047E+02  0.38841973753E+02  0.10663894172E+03  0.81291455851E+02 0.  0.
        -13    1    5    5    0    0 -0.13429348755E+02 -0.13659571294E+02  0.20932763071E+02  0.28374493224E+02  0.00000000000E+00 0.  1.
         14    1    5    5    0    0  0.55469335758E+02  0.52227740341E+02  0.17909210682E+02  0.78264448492E+02  0.00000000000E+00 0. -1.
        -13    1    3    3    0    0 -0.21436387816E+02 -0.41220484574E+01 -0.23103304482E+02  0.31784786991E+02  0.00000000000E+00 0.  1.
         14    1    3    3    0    0  0.87429771275E+02  0.22355561871E+02 -0.30234699153E+02  0.95172858970E+02  0.00000000000E+00 0. -1.
          5    1    4    4  502    0 -0.33126705132E+02  0.59578531093E+02  0.84450590014E+02  0.10863227934E+03  0.47000000000E+01 0. -1.
         -5    1    4    4    0  502  0.79011185485E+02  0.43346612747E+01  0.10765353285E+03  0.13368967744E+03  0.47000000000E+01 0. -1.
          1    1    1    2  503    0  0.79390705639E+02 -0.83171340403E+02  0.23288683298E+04  0.23317049671E+04  0.00000000000E+00 0. -1.
         -2    1    1    2    0  501 -0.23330855645E+03 -0.37543534425E+02 -0.11277695664E+03  0.26184163427E+03  0.00000000000E+00 0.  1.
<mgrwt>
<rscale>  0 0.12134419E+03</rscale>
<asrwt>0</asrwt>
<pdfrwt beam="1">  1        2 0.40170327E+00 0.11498538E+03</pdfrwt>
<pdfrwt beam="2">  1       -1 0.49688654E-01 0.12805465E+03</pdfrwt>
<totfact> 0.18853148E+01</totfact>
</mgrwt>
</event>
<event>
13    1  0.1589573E-008  0.1589438E+03  0.7546771E-02  0.1227961E+00
          2   -1    0    0  502    0  0.00000000000E+00  0.00000000000E+00  0.20927732806E+04  0.20927732806E+04  0.00000000000E+00 0. -1.
          2   -1    0    0  503    0 -0.00000000000E+00 -0.00000000000E+00 -0.19021058161E+04  0.19021058161E+04  0.00000000000E+00 0. -1.
         24    2    1    2    0    0  0.85633324088E+02 -0.38389623617E+02 -0.15702398242E+03  0.20017769064E+03  0.81288051884E+02 0.  0.
         25    2    1    2    0    0 -0.22697026825E+03 -0.13940490352E+02  0.86413394965E+03  0.90225552835E+03  0.12501086171E+03 0.  0.
         24    2    1    2    0    0  0.18624468080E+02  0.11229210822E+03 -0.28229957971E+02  0.14409927152E+03  0.83733393260E+02 0.  0.
        -11    1    3    3    0    0 -0.69432711730E+01 -0.24841144996E+02 -0.60405337840E+02  0.65681780875E+02  0.00000000000E+00 0.  1.
         12    1    3    3    0    0  0.92576595261E+02 -0.13548478621E+02 -0.96618644578E+02  0.13449590976E+03  0.00000000000E+00 0. -1.
        -11    1    5    5    0    0 -0.15769924644E+02  0.64888961238E+02  0.18366754814E+02  0.69257530249E+02  0.00000000000E+00 0.  1.
         12    1    5    5    0    0  0.34394392724E+02  0.47403146983E+02 -0.46596712785E+02  0.74841741275E+02  0.00000000000E+00 0. -1.
          5    1    4    4  501    0 -0.30597331867E+02 -0.34744855221E+02  0.70972736807E+02  0.84868257032E+02  0.47000000000E+01 0. -1.
         -5    1    4    4    0  501 -0.19637293639E+03  0.20804364869E+02  0.79316121285E+03  0.81738727131E+03  0.47000000000E+01 0. -1.
          1    1    1    2  502    0  0.80860308252E+02  0.68184529561E+02  0.11247741004E+04  0.11297363836E+04  0.00000000000E+00 0. -1.
          1    1    1    2  503    0  0.41852167833E+02 -0.12814652381E+03 -0.16129866451E+04  0.16186102227E+04  0.00000000000E+00 0. -1.
<mgrwt>
<rscale>  0 0.12965975E+03</rscale>
<asrwt>0</asrwt>
<pdfrwt beam="1">  1        2 0.30776078E+00 0.10577107E+03</pdfrwt>
<pdfrwt beam="2">  1        2 0.27972144E+00 0.15894375E+03</pdfrwt>
<totfact> 0.12496505E+01</totfact>
</mgrwt>
</event>
<event>
13    1  0.1589573E-008  0.2113074E+03  0.7546771E-02  0.1260934E+00
          2   -1    0    0  502    0  0.00000000000E+00  0.00000000000E+00  0.31398983727E+04  0.31398983727E+04  0.00000000000E+00 0. -1.
          2   -1    0    0  503    0 -0.00000000000E+00 -0.00000000000E+00 -0.16061122218E+04  0.16061122218E+04  0.00000000000E+00 0. -1.
         24    2    1    2    0    0 -0.16935802752E+03 -0.55748447169E+02  0.15015809960E+02  0.19611859330E+03  0.80293195493E+02 0.  0.
         25    2    1    2    0    0  0.36090180416E+03 -0.14309798901E+03  0.30342974651E+03  0.50835166521E+03  0.12499863100E+03 0.  0.
         24    2    1    2    0    0  0.13824377224E+03  0.94568800578E+02 -0.53610809384E+03  0.56749336588E+03  0.81130964660E+02 0.  0.
        -11    1    5    5    0    0  0.46776625492E+02  0.75577709438E+02 -0.31875573739E+03  0.33091579438E+03  0.00000000000E+00 0.  1.
         12    1    5    5    0    0  0.91467146749E+02  0.18991091140E+02 -0.21735235646E+03  0.23657757150E+03  0.00000000000E+00 0. -1.
        -13    1    3    3    0    0 -0.42851553130E+02  0.20616841266E+02 -0.33876873219E+00  0.47554437371E+02  0.00000000000E+00 0.  1.
         14    1    3    3    0    0 -0.12650647439E+03 -0.76365288435E+02  0.15354578692E+02  0.14856415593E+03  0.00000000000E+00 0. -1.
          5    1    4    4  501    0  0.10587461231E+03 -0.41137938175E+02  0.23364566625E+02  0.11605927995E+03  0.47000000000E+01 0. -1.
         -5    1    4    4    0  501  0.25502719185E+03 -0.10196005083E+03  0.28006517989E+03  0.39229238526E+03  0.47000000000E+01 0. -1.
          1    1    1    2  502    0 -0.32360563028E+02  0.46993715934E+02  0.25857937583E+04  0.25864232012E+04  0.00000000000E+00 0. -1.
          1    1    1    2  503    0 -0.29742698586E+03  0.57283919663E+02 -0.83434506994E+03  0.88762376890E+03  0.00000000000E+00 0. -1.
<mgrwt>
<rscale>  0 0.10980335E+03</rscale>
<asrwt>0</asrwt>
<pdfrwt beam="1">  1        2 0.46174976E+00 0.57058000E+02</pdfrwt>
<pdfrwt beam="2">  1        2 0.23619297E+00 0.21130736E+03</pdfrwt>
<totfact> 0.55668218E+00</totfact>
</mgrwt>
</event>
<event>
13    1  0.1589573E-008  0.1160287E+03  0.7546771E-02  0.1257047E+00
          2   -1    0    0  503    0  0.00000000000E+00  0.00000000000E+00  0.52041291016E+03  0.52041291016E+03  0.00000000000E+00 0. -1.
          2   -1    0    0  502    0 -0.00000000000E+00 -0.00000000000E+00 -0.16990774903E+04  0.16990774903E+04  0.00000000000E+00 0. -1.
         24    2    1    2    0    0 -0.15170689249E+02 -0.18718583649E+03 -0.64878806241E+03  0.68006456010E+03  0.79329495038E+02 0.  0.
         25    2    1    2    0    0  0.11019133926E+03  0.20430940995E+03 -0.20642413220E+03  0.33484297504E+03  0.12499771733E+03 0.  0.
         24    2    1    2    0    0  0.62915320848E+02 -0.82644653707E+02 -0.10029428714E+03  0.16535242454E+03  0.80585382582E+02 0.  0.
        -11    1    5    5    0    0  0.56133835666E+01  0.18096941748E+01  0.12145222238E+02  0.13501536626E+02  0.00000000000E+00 0.  1.
         12    1    5    5    0    0  0.57301937281E+02 -0.84454347882E+02 -0.11243950938E+03  0.15185088792E+03  0.00000000000E+00 0. -1.
        -13    1    3    3    0    0  0.23311001726E+02 -0.48906105984E+02 -0.11196777315E+03  0.12438646320E+03  0.00000000000E+00 0.  1.
         14    1    3    3    0    0 -0.38481690974E+02 -0.13827973050E+03 -0.53682028927E+03  0.55567809690E+03  0.00000000000E+00 0. -1.
          5    1    4    4  501    0 -0.24373971019E+02  0.27386889293E+02 -0.53380657446E+02  0.64928551175E+02  0.47000000000E+01 0.  1.
         -5    1    4    4    0  501  0.13456531028E+03  0.17692252066E+03 -0.15304347476E+03  0.26991442387E+03  0.47000000000E+01 0.  1.
          1    1    1    2  502    0 -0.11280448701E+03 -0.32558910475E+02 -0.61843120462E+03  0.62947763248E+03  0.00000000000E+00 0. -1.
          1    1    1    2  503    0 -0.45131483844E+02  0.98079990717E+02  0.39527310623E+03  0.40975280831E+03  0.00000000000E+00 0. -1.
<mgrwt>
<rscale>  0 0.11192447E+03</rscale>
<asrwt>0</asrwt>
<pdfrwt beam="1">  1        2 0.76531310E-01 0.10796544E+03</pdfrwt>
<pdfrwt beam="2">  1        2 0.24986434E+00 0.11602867E+03</pdfrwt>
<totfact> 0.12464664E+02</totfact>
</mgrwt>
</event>
<event>
13    1  0.1589573E-008  0.8732555E+02  0.7546771E-02  0.1315510E+00
          2   -1    0    0  503    0  0.00000000000E+00  0.00000000000E+00  0.29794917076E+04  0.29794917076E+04  0.00000000000E+00 0. -1.
          2   -1    0    0  502    0 -0.00000000000E+00 -0.00000000000E+00 -0.11313907842E+04  0.11313907842E+04  0.00000000000E+00 0. -1.
         24    2    1    2    0    0 -0.47331707315E+03  0.27392718659E+03 -0.32514004329E+03  0.64122877635E+03  0.79957117150E+02 0.  0.
         25    2    1    2    0    0  0.47476972327E+03 -0.15488582721E+03 -0.23736798330E+03  0.56688899254E+03  0.12499464294E+03 0.  0.
         24    2    1    2    0    0  0.61577293031E+02 -0.26571297148E+03  0.89666767867E+02  0.29327590275E+03  0.59795314553E+02 0.  0.
        -11    1    3    3    0    0 -0.23921841986E+03  0.10402777948E+03 -0.12341417394E+03  0.28857978037E+03  0.00000000000E+00 0.  1.
         12    1    3    3    0    0 -0.23409865328E+03  0.16989940711E+03 -0.20172586934E+03  0.35264899598E+03  0.00000000000E+00 0. -1.
        -13    1    5    5    0    0  0.40280751905E+02 -0.72691171273E+02  0.42925295646E+02  0.93536764758E+02  0.00000000000E+00 0.  1.
         14    1    5    5    0    0  0.21296541126E+02 -0.19302180021E+03  0.46741472221E+02  0.19973913799E+03  0.00000000000E+00 0. -1.
          5    1    4    4  501    0  0.35340360863E+03 -0.15300922243E+03 -0.22176764757E+03  0.44441974782E+03  0.47000000000E+01 0.  1.
         -5    1    4    4    0  501  0.12136611464E+03 -0.18766047828E+01 -0.15600335727E+02  0.12246924472E+03  0.47000000000E+01 0.  1.
          1    1    1    2  502    0 -0.75344799693E+01  0.85385124896E+02 -0.13078297026E+03  0.15636998834E+03  0.00000000000E+00 0. -1.
          1    1    1    2  503    0 -0.55495463185E+02  0.61286487209E+02  0.24517251524E+04  0.24531188318E+04  0.00000000000E+00 0. -1.
<mgrwt>
<rscale>  0 0.84970404E+02</rscale>
<asrwt>0</asrwt>
<pdfrwt beam="1">  1        2 0.43816055E+00 0.82678776E+02</pdfrwt>
<pdfrwt beam="2">  1        2 0.16638100E+00 0.87325550E+02</pdfrwt>
<totfact> 0.11895068E+01</totfact>
</mgrwt>
</event>
<event>
13    1  0.1589573E-008  0.5309870E+02  0.7546771E-02  0.1450163E+00
          2   -1    0    0  503    0  0.00000000000E+00  0.00000000000E+00  0.15794201129E+04  0.15794201129E+04  0.00000000000E+00 0. -1.
          2   -1    0    0  502    0 -0.00000000000E+00 -0.00000000000E+00 -0.98906333714E+03  0.98906333714E+03  0.00000000000E+00 0. -1.
         24    2    1    2    0    0  0.42089824748E+02 -0.20305321440E+02 -0.68950333083E+03  0.69585273574E+03  0.81316217214E+02 0.  0.
         25    2    1    2    0    0 -0.18579711837E+02  0.68895144949E+02  0.97908865975E+03  0.98961186169E+03  0.12500114584E+03 0.  0.
         24    2    1    2    0    0 -0.10194491110E+02 -0.42255652170E+02  0.48229287799E+02  0.10285275795E+03  0.79769404073E+02 0.  0.
        -13    1    5    5    0    0 -0.64928317084E+01  0.18731846191E+02 -0.64610487033E+01  0.20851476582E+02  0.00000000000E+00 0.  1.
         14    1    5    5    0    0 -0.37016594015E+01 -0.60987498360E+02  0.54690336502E+02  0.82001281364E+02  0.00000000000E+00 0. -1.
        -13    1    3    3    0    0  0.43524192378E+02  0.37335634749E+01 -0.16159598905E+03  0.16739641124E+03  0.00000000000E+00 0.  1.
         14    1    3    3    0    0 -0.14343676301E+01 -0.24038884915E+02 -0.52790734178E+03  0.52845632450E+03  0.00000000000E+00 0. -1.
          5    1    4    4  501    0 -0.21587886240E+01 -0.34917851168E+02  0.16361497723E+03  0.16737941174E+03  0.47000000000E+01 0. -1.
         -5    1    4    4    0  501 -0.16420923213E+02  0.10381299612E+03  0.81547368252E+03  0.82223244996E+03  0.47000000000E+01 0. -1.
          1    1    1    2  502    0  0.34557249941E+02 -0.29496567899E+02 -0.26047094568E+03  0.26440379079E+03  0.00000000000E+00 0. -1.
          1    1    1    2  503    0 -0.47872871741E+02  0.23162396560E+02  0.51301310470E+03  0.51576230384E+03  0.00000000000E+00 0. -1.
<mgrwt>
<rscale>  0 0.49117082E+02</rscale>
<asrwt>0</asrwt>
<pdfrwt beam="1">  1        2 0.23226767E+00 0.53098697E+02</pdfrwt>
<pdfrwt beam="2">  1        2 0.14545049E+00 0.45434030E+02</pdfrwt>
<totfact> 0.74418167E+01</totfact>
</mgrwt>
</event>
<event>
13    1  0.1589573E-008  0.8150450E+02  0.7546771E-02  0.1420121E+00
          2   -1    0    0  502    0  0.00000000000E+00  0.00000000000E+00  0.26113042583E+04  0.26113042583E+04  0.00000000000E+00 0. -1.
          2   -1    0    0  503    0 -0.00000000000E+00 -0.00000000000E+00 -0.36285867270E+04  0.36285867270E+04  0.00000000000E+00 0. -1.
         24    2    1    2    0    0  0.86787629469E+03  0.73084173066E+03 -0.11992926586E+04  0.16528758076E+04  0.79728641948E+02 0.  0.
         25    2    1    2    0    0 -0.74025755200E+03 -0.10546730459E+04  0.99867263863E+03  0.16350193224E+04  0.12499867379E+03 0.  0.
         24    2    1    2    0    0 -0.16691167505E+03  0.30201540420E+03 -0.19996058870E+03  0.40608744533E+03  0.76485061189E+02 0.  0.
        -11    1    5    5    0    0 -0.10958137864E+03  0.23008392054E+03 -0.11048809683E+03  0.27776664411E+03  0.00000000000E+00 0.  1.
         12    1    5    5    0    0 -0.57330296408E+02  0.71931483658E+02 -0.89472491863E+02  0.12832080123E+03  0.00000000000E+00 0. -1.
        -13    1    3    3    0    0  0.31060246615E+03  0.23612891622E+03 -0.36560249607E+03  0.53469238089E+03  0.00000000000E+00 0.  1.
         14    1    3    3    0    0  0.55727382854E+03  0.49471281444E+03 -0.83369016251E+03  0.11181834267E+04  0.00000000000E+00 0. -1.
          5    1    4    4  501    0 -0.13989354043E+03 -0.25321226788E+03  0.27817264306E+03  0.40135864835E+03  0.47000000000E+01 0.  1.
         -5    1    4    4    0  501 -0.60036401157E+03 -0.80146077805E+03  0.72049999557E+03  0.12336606741E+04  0.47000000000E+01 0.  1.
          1    1    1    2  502    0  0.66889551969E+02  0.46624259079E+02  0.96266194685E+03  0.96610871936E+03  0.00000000000E+00 0. -1.
          1    1    1    2  503    0 -0.27596619609E+02 -0.24808348006E+02 -0.15793638070E+04  0.15797996906E+04  0.00000000000E+00 0. -1.
<mgrwt>
<rscale>  0 0.54995411E+02</rscale>
<asrwt>0</asrwt>
<pdfrwt beam="1">  1        2 0.38401533E+00 0.81504502E+02</pdfrwt>
<pdfrwt beam="2">  1        2 0.53361569E+00 0.37108322E+02</pdfrwt>
<totfact> 0.11438035E+00</totfact>
</mgrwt>
</event>
<event>
13    1  0.1589573E-008  0.1604502E+03  0.7546771E-02  0.1272502E+00
          2   -1    0    0  503    0  0.00000000000E+00  0.00000000000E+00  0.43933054723E+04  0.43933054723E+04  0.00000000000E+00 0. -1.
         -1   -1    0    0    0  501 -0.00000000000E+00 -0.00000000000E+00 -0.65730420273E+03  0.65730420273E+03  0.00000000000E+00 0.  1.
         24    2    1    2    0    0 -0.10080556028E+02  0.13087934857E+02  0.92853848977E+02  0.12455197746E+03  0.81353833162E+02 0.  0.
         25    2    1    2    0    0 -0.26356710155E+03 -0.19866313001E+02  0.60792615283E+03  0.67458252804E+03  0.12500036974E+03 0.  0.
         24    2    1    2    0    0  0.74185247213E+02  0.57432937707E+02  0.10314381077E+04  0.10388599853E+04  0.81015465995E+02 0.  0.
        -11    1    5    5    0    0  0.68355131394E+02  0.17396700799E+02  0.85212357807E+03  0.85503781290E+03  0.00000000000E+00 0.  1.
         12    1    5    5    0    0  0.58301158187E+01  0.40036236908E+02  0.17931452962E+03  0.18382217236E+03  0.00000000000E+00 0. -1.
        -11    1    3    3    0    0 -0.26118136447E+02 -0.26457248359E+02  0.26479345373E+02  0.45643167874E+02  0.00000000000E+00 0.  1.
         12    1    3    3    0    0  0.16037580419E+02  0.39545183216E+02  0.66374503604E+02  0.78908809584E+02  0.00000000000E+00 0. -1.
          5    1    4    4  502    0 -0.19019920420E+03  0.42236509187E+02  0.43547384248E+03  0.47709455821E+03  0.47000000000E+01 0. -1.
         -5    1    4    4    0  502 -0.73367897353E+02 -0.62102822187E+02  0.17245231035E+03  0.19748796984E+03  0.47000000000E+01 0. -1.
          1    1    1    2  503    0  0.13394931832E+03 -0.35911723754E+02  0.26044835602E+04  0.26081730554E+04  0.00000000000E+00 0. -1.
         -2    1    1    2    0  501  0.65513092052E+02 -0.14742835809E+02 -0.60070040011E+03  0.60444212885E+03  0.00000000000E+00 0.  1.
<mgrwt>
<rscale>  0 0.10380009E+03</rscale>
<asrwt>0</asrwt>
<pdfrwt beam="1">  1        2 0.64607432E+00 0.16045016E+03</pdfrwt>
<pdfrwt beam="2">  1       -1 0.96662385E-01 0.67151444E+02</pdfrwt>
<totfact> 0.46231051E-01</totfact>
</mgrwt>
</event>
<event>
13    1  0.1589573E-008  0.8296360E+02  0.7546771E-02  0.1369046E+00
          2   -1    0    0  503    0  0.00000000000E+00  0.00000000000E+00  0.25576849062E+04  0.25576849062E+04  0.00000000000E+00 0. -1.
          2   -1    0    0  502    0 -0.00000000000E+00 -0.00000000000E+00 -0.53822964185E+03  0.53822964185E+03  0.00000000000E+00 0. -1.
         24    2    1    2    0    0 -0.75523829502E+01  0.67855588701E+02 -0.12392124865E+03  0.16256088783E+03  0.80050902425E+02 0.  0.
         25    2    1    2    0    0  0.11206647858E+03 -0.81309443709E+02  0.11907414936E+04  0.12052631586E+04  0.12499542314E+03 0.  0.
         24    2    1    2    0    0 -0.39088941566E+02  0.11073511460E+03  0.25647096356E+03  0.29359243531E+03  0.81418376082E+02 0.  0.
        -11    1    5    5    0    0  0.50773899776E+01  0.93784652075E+02  0.14845009391E+03  0.17566664805E+03  0.00000000000E+00 0.  1.
         12    1    5    5    0    0 -0.44166331543E+02  0.16950462520E+02  0.10802086964E+03  0.11792578726E+03  0.00000000000E+00 0. -1.
        -13    1    3    3    0    0  0.27020512647E+02  0.30448768036E+01 -0.57167218247E+02  0.63304582935E+02  0.00000000000E+00 0.  1.
         14    1    3    3    0    0 -0.34572895597E+02  0.64810711897E+02 -0.66754030404E+02  0.99256304896E+02  0.00000000000E+00 0. -1.
          5    1    4    4  501    0  0.31451676486E+02 -0.91812850391E+02  0.47016771001E+03  0.48010266921E+03  0.47000000000E+01 0.  1.
         -5    1    4    4    0  501  0.80614802092E+02  0.10503406682E+02  0.72057378357E+03  0.72516048944E+03  0.47000000000E+01 0.  1.
          1    1    1    2  502    0 -0.71012190699E+02 -0.42756870938E+02 -0.36379702802E+03  0.37312083678E+03  0.00000000000E+00 0. -1.
          1    1    1    2  503    0  0.55870366372E+01 -0.54524388650E+02  0.10599610838E+04  0.10613772294E+04  0.00000000000E+00 0. -1.
<mgrwt>
<rscale>  0 0.67433121E+02</rscale>
<asrwt>0</asrwt>
<pdfrwt beam="1">  1        2 0.37613013E+00 0.54809889E+02</pdfrwt>
<pdfrwt beam="2">  1        2 0.79151419E-01 0.82963602E+02</pdfrwt>
<totfact> 0.50740397E+01</totfact>
</mgrwt>
</event>
<event>
13    1  0.1589573E-008  0.8563214E+02  0.7546771E-02  0.1378903E+00
          2   -1    0    0  503    0  0.00000000000E+00  0.00000000000E+00  0.25787869994E+04  0.25787869994E+04  0.00000000000E+00 0. -1.
         -3   -1    0    0    0  501 -0.00000000000E+00 -0.00000000000E+00 -0.14765242574E+04  0.14765242574E+04  0.00000000000E+00 0.  1.
         24    2    1    2    0    0 -0.91955792411E+02 -0.22152298395E+03 -0.49502597328E+03  0.55578652291E+03  0.79496192692E+02 0.  0.
         25    2    1    2    0    0  0.14734667170E+03  0.18600967821E+03  0.63661447413E+03  0.69080736993E+03  0.12500476643E+03 0.  0.
         24    2    1    2    0    0 -0.30039105839E+02  0.64763707441E+02 -0.29251681919E+03  0.31185306308E+03  0.81176091087E+02 0.  0.
        -11    1    5    5    0    0 -0.47181506903E+02  0.91986527663E+01 -0.10400280808E+03  0.11457440332E+03  0.00000000000E+00 0.  1.
         12    1    5    5    0    0  0.17142401065E+02  0.55565054674E+02 -0.18851401111E+03  0.19727865976E+03  0.00000000000E+00 0. -1.
        -13    1    3    3    0    0 -0.59812406993E+02 -0.95998675108E+02 -0.30925976684E+03  0.32929450806E+03  0.00000000000E+00 0.  1.
         14    1    3    3    0    0 -0.32143385418E+02 -0.12552430884E+03 -0.18576620644E+03  0.22649201485E+03  0.00000000000E+00 0. -1.
          5    1    4    4  502    0 -0.50812633721E+01  0.74534805775E+01 -0.20212157558E+01  0.10370579700E+02  0.47000000000E+01 0. -1.
         -5    1    4    4    0  502  0.15242793507E+03  0.17855619763E+03  0.63863568989E+03  0.68043679023E+03  0.47000000000E+01 0. -1.
          1    1    1    2  503    0 -0.69915522043E+02 -0.49539009303E+02  0.18730827968E+04  0.18750417215E+04  0.00000000000E+00 0. -1.
         -4    1    1    2    0  501  0.44563748590E+02  0.20288607605E+02 -0.61989173644E+03  0.62182257935E+03  0.00000000000E+00 0.  1.
<mgrwt>
<rscale>  0 0.64753098E+02</rscale>
<asrwt>0</asrwt>
<pdfrwt beam="1">  1        2 0.37923338E+00 0.85632137E+02</pdfrwt>
<pdfrwt beam="2">  1       -3 0.21713592E+00 0.48964837E+02</pdfrwt>
<totfact> 0.40432052E-01</totfact>
</mgrwt>
</event>
<event>
13    1  0.1589573E-008  0.1668008E+03  0.7546771E-02  0.1241706E+00
          2   -1    0    0  503    0  0.00000000000E+00  0.00000000000E+00  0.26801424847E+04  0.26801424847E+04  0.00000000000E+00 0. -1.
          2   -1    0    0  502    0 -0.00000000000E+00 -0.00000000000E+00 -0.98926136664E+03  0.98926136664E+03  0.00000000000E+00 0. -1.
         24    2    1    2    0    0  0.11584087321E+03 -0.11071860166E+03  0.11699445549E+04  0.11836562369E+04  0.81204118739E+02 0.  0.
         25    2    1    2    0    0 -0.10069465468E+02  0.11581377320E+03  0.28859678022E+03  0.33529965569E+03  0.12499413326E+03 0.  0.
         24    2    1    2    0    0  0.46289332979E+02  0.44792519470E+02  0.53860589983E+02  0.11860803734E+03  0.83772496797E+02 0.  0.
        -11    1    5    5    0    0 -0.10373764884E+02 -0.92092326972E+01  0.35634948763E+02  0.38239698457E+02  0.00000000000E+00 0.  1.
         12    1    5    5    0    0  0.56663097863E+02  0.54001752167E+02  0.18225641220E+02  0.80368338881E+02  0.00000000000E+00 0. -1.
        -13    1    3    3    0    0 -0.34656376644E+01 -0.14240187322E+01  0.21992058592E+03  0.21995250075E+03  0.00000000000E+00 0.  1.
         14    1    3    3    0    0  0.11930651088E+03 -0.10929458293E+03  0.95002396899E+03  0.96370373614E+03  0.00000000000E+00 0. -1.
          5    1    4    4  501    0 -0.57397859530E+01  0.23605052846E+01 -0.11795531150E+02  0.14132999791E+02  0.47000000000E+01 0.  1.
         -5    1    4    4    0  501 -0.43296795155E+01  0.11345326792E+03  0.30039231137E+03  0.32116665589E+03  0.47000000000E+01 0.  1.
          1    1    1    2  502    0  0.86063038554E+02 -0.16086761873E+02 -0.91147245359E+03  0.91566787875E+03  0.00000000000E+00 0. -1.
          1    1    1    2  503    0 -0.23812377928E+03 -0.33800929135E+02  0.10899516465E+04  0.11161720426E+04  0.00000000000E+00 0. -1.
<mgrwt>
<rscale>  0 0.12084703E+03</rscale>
<asrwt>0</asrwt>
<pdfrwt beam="1">  1        2 0.39413860E+00 0.16680075E+03</pdfrwt>
<pdfrwt beam="2">  1        2 0.14547961E+00 0.87553587E+02</pdfrwt>
<totfact> 0.18498639E+01</totfact>
</mgrwt>
</event>
<event>
13    1  0.1589573E-008  0.1077208E+03  0.7546771E-02  0.1381905E+00
          2   -1    0    0  502    0  0.00000000000E+00  0.00000000000E+00  0.23190210665E+04  0.23190210665E+04  0.00000000000E+00 0. -1.
          2   -1    0    0  503    0 -0.00000000000E+00 -0.00000000000E+00 -0.35640174261E+03  0.35640174261E+03  0.00000000000E+00 0. -1.
         24    2    1    2    0    0 -0.37413338258E+02  0.21098737772E+02 -0.15005157604E+03  0.17569248735E+03  0.80668829315E+02 0.  0.
         25    2    1    2    0    0  0.80622152803E+02 -0.14519118546E+03  0.48425292030E+03  0.52697815329E+03  0.12499868548E+03 0.  0.
         24    2    1    2    0    0  0.30316049583E+02  0.33468511382E+01  0.65508260915E+02  0.10847911573E+03  0.80908108537E+02 0.  0.
        -11    1    5    5    0    0  0.60404274368E+01 -0.18330418492E+02 -0.13149755894E+02  0.23353952252E+02  0.00000000000E+00 0.  1.
         12    1    5    5    0    0  0.24275622146E+02  0.21677269631E+02  0.78658016808E+02  0.85125163480E+02  0.00000000000E+00 0. -1.
        -13    1    3    3    0    0 -0.25194691280E+02 -0.20567698449E+02 -0.11611158362E+03  0.12058068891E+03  0.00000000000E+00 0.  1.
         14    1    3    3    0    0 -0.12218646978E+02  0.41666436221E+02 -0.33939992428E+02  0.55111798441E+02  0.00000000000E+00 0. -1.
          5    1    4    4  501    0  0.23393773395E+02 -0.12500045108E+02  0.25174817536E+03  0.25318521592E+03  0.47000000000E+01 0. -1.
         -5    1    4    4    0  501  0.57228379408E+02 -0.13269114035E+03  0.23250474494E+03  0.27379293738E+03  0.47000000000E+01 0. -1.
          1    1    1    2  502    0 -0.52159777530E+02  0.89340607123E+02  0.17096089930E+04  0.17127362013E+04  0.00000000000E+00 0. -1.
          1    1    1    2  503    0 -0.21365086598E+02  0.31404989426E+02 -0.14669927423E+03  0.15153685144E+03  0.00000000000E+00 0. -1.
<mgrwt>
<rscale>  0 0.63965665E+02</rscale>
<asrwt>0</asrwt>
<pdfrwt beam="1">  1        2 0.34103250E+00 0.10772085E+03</pdfrwt>
<pdfrwt beam="2">  1        2 0.52412022E-01 0.37983421E+02</pdfrwt>
<totfact> 0.93508664E+01</totfact>
</mgrwt>
</event>
<event>
13    1  0.1589573E-008  0.4746478E+02  0.7546771E-02  0.1477727E+00
          2   -1    0    0  503    0  0.00000000000E+00  0.00000000000E+00  0.12230884078E+04  0.12230884078E+04  0.00000000000E+00 0. -1.
         -1   -1    0    0    0  501 -0.00000000000E+00 -0.00000000000E+00 -0.13197546765E+04  0.13197546765E+04  0.00000000000E+00 0.  1.
         24    2    1    2    0    0  0.24066483005E+02 -0.43280255599E+03  0.77549205308E+02  0.44718798767E+03  0.77884330888E+02 0.  0.
         25    2    1    2    0    0 -0.13892194064E+03  0.20382180609E+03 -0.72811553918E+02  0.28596216451E+03  0.12502080993E+03 0.  0.
         24    2    1    2    0    0  0.12548314432E+03  0.22828639164E+03 -0.19745815760E+03  0.33955531728E+03  0.91909702286E+02 0.  0.
        -11    1    3    3    0    0  0.20051408624E+02 -0.37254485427E+03  0.38034305010E+02  0.37501778063E+03  0.00000000000E+00 0.  1.
         12    1    3    3    0    0  0.40150743814E+01 -0.60257701719E+02  0.39514900298E+02  0.72170207040E+02  0.00000000000E+00 0. -1.
        -13    1    5    5    0    0  0.25460004508E+02  0.13623461421E+03 -0.80804119747E+02  0.16042876209E+03  0.00000000000E+00 0.  1.
         14    1    5    5    0    0  0.10002313981E+03  0.92051777432E+02 -0.11665403785E+03  0.17912655519E+03  0.00000000000E+00 0. -1.
          5    1    4    4  502    0 -0.15643452582E+03  0.16002459650E+03 -0.37733703309E+02  0.22699241115E+03  0.47000000000E+01 0.  1.
         -5    1    4    4    0  502  0.17512585179E+02  0.43797209593E+02 -0.35077850609E+02  0.58969753358E+02  0.47000000000E+01 0.  1.
          1    1    1    2  503    0 -0.27388374922E+02  0.38822620791E+02  0.78174282622E+03  0.78318526883E+03  0.00000000000E+00 0. -1.
         -2    1    1    2    0  501  0.16760688238E+02 -0.38128262542E+02 -0.68568858870E+03  0.68695234605E+03  0.00000000000E+00 0.  1.
<mgrwt>
<rscale>  0 0.44462194E+02</rscale>
<asrwt>0</asrwt>
<pdfrwt beam="1">  1        2 0.17986594E+00 0.47464778E+02</pdfrwt>
<pdfrwt beam="2">  1       -1 0.19408157E+00 0.41649551E+02</pdfrwt>
<totfact> 0.57520247E+00</totfact>
</mgrwt>
</event>
<event>
13    1  0.1589573E-008  0.6836986E+02  0.7546771E-02  0.1431394E+00
          2   -1    0    0  502    0  0.00000000000E+00  0.00000000000E+00  0.12551766263E+04  0.12551766263E+04  0.00000000000E+00 0. -1.
          2   -1    0    0  503    0 -0.00000000000E+00 -0.00000000000E+00 -0.50696051478E+03  0.50696051478E+03  0.00000000000E+00 0. -1.
         24    2    1    2    0    0 -0.31409782452E+02  0.14782007243E+02 -0.30282206926E+03  0.31555135116E+03  0.81647825526E+02 0.  0.
         25    2    1    2    0    0  0.20976545069E+02 -0.88120376413E+02  0.40191717748E+03  0.43054402515E+03  0.12500209542E+03 0.  0.
         24    2    1    2    0    0 -0.48060131364E+02  0.28936289208E+02 -0.57326201701E+02  0.11424166736E+03  0.81349739393E+02 0.  0.
        -11    1    5    5    0    0 -0.59876911447E+02  0.12497972369E+02 -0.89737877639E+01  0.61822105307E+02  0.00000000000E+00 0.  1.
         12    1    5    5    0    0  0.11816780082E+02  0.16438316840E+02 -0.48352413937E+02  0.52419562051E+02  0.00000000000E+00 0. -1.
        -13    1    3    3    0    0 -0.44895727977E+01 -0.84157149771E+01  0.10612827279E+01  0.95972310335E+01  0.00000000000E+00 0.  1.
         14    1    3    3    0    0 -0.26920209654E+02  0.23197722220E+02 -0.30388335199E+03  0.30595412012E+03  0.00000000000E+00 0. -1.
          5    1    4    4  501    0  0.11597261566E+02  0.99770465795E+01  0.24277869453E+03  0.24330561533E+03  0.47000000000E+01 0. -1.
         -5    1    4    4    0  501  0.93792835031E+01 -0.98097422992E+02  0.15913848294E+03  0.18723840982E+03  0.47000000000E+01 0. -1.
          1    1    1    2  502    0  0.35273289999E+02 -0.20088361279E+02  0.79151430250E+03  0.79255450179E+03  0.00000000000E+00 0. -1.
          1    1    1    2  503    0  0.23220078748E+02  0.64490441241E+02 -0.85067097536E+02  0.10924559557E+03  0.00000000000E+00 0. -1.
<mgrwt>
<rscale>  0 0.52681120E+02</rscale>
<asrwt>0</asrwt>
<pdfrwt beam="1">  1        2 0.18458480E+00 0.40592453E+02</pdfrwt>
<pdfrwt beam="2">  1        2 0.74553017E-01 0.68369862E+02</pdfrwt>
<totfact> 0.23086133E+02</totfact>
</mgrwt>
</event>
<event>
13    1  0.1589573E-008  0.7559179E+02  0.7546771E-02  0.1353730E+00
          2   -1    0    0  503    0  0.00000000000E+00  0.00000000000E+00  0.15142411513E+04  0.15142411513E+04  0.00000000000E+00 0. -1.
          2   -1    0    0  502    0 -0.00000000000E+00 -0.00000000000E+00 -0.37428244703E+04  0.37428244703E+04  0.00000000000E+00 0. -1.
         24    2    1    2    0    0 -0.25491990136E+02  0.56172098727E+02 -0.10141288704E+03  0.14348172022E+03  0.80605732691E+02 0.  0.
         25    2    1    2    0    0 -0.17557386815E+02  0.13976211197E+03  0.34318533318E+03  0.39145836392E+03  0.12498707134E+03 0.  0.
         24    2    1    2    0    0 -0.34518724105E+02 -0.99231049476E+02  0.12568406642E+01  0.12837425292E+03  0.73756529676E+02 0.  0.
        -11    1    3    3    0    0  0.23680792264E+02  0.33201728636E+02 -0.69329579104E+02  0.80434602289E+02  0.00000000000E+00 0.  1.
         12    1    3    3    0    0 -0.49172782400E+02  0.22970370091E+02 -0.32083307932E+02  0.63047117928E+02  0.00000000000E+00 0. -1.
        -11    1    5    5    0    0 -0.13949479180E+02  0.93109665337E+01  0.59636933870E+01  0.17800216459E+02  0.00000000000E+00 0.  1.
         12    1    5    5    0    0 -0.20569244926E+02 -0.10854201601E+03 -0.47068527228E+01  0.11057403646E+03  0.00000000000E+00 0. -1.
          5    1    4    4  501    0  0.49670239873E+02  0.89504350796E+02  0.16149503486E+03  0.19126133385E+03  0.47000000000E+01 0.  1.
         -5    1    4    4    0  501 -0.67227626689E+02  0.50257761176E+02  0.18169029831E+03  0.20019703007E+03  0.47000000000E+01 0.  1.
          1    1    1    2  502    0  0.78898069834E+01 -0.67942853512E+02 -0.35310115203E+04  0.35316739426E+04  0.00000000000E+00 0. -1.
          1    1    1    2  503    0  0.69678294073E+02 -0.28760307711E+02  0.10593989145E+04  0.10620773419E+04  0.00000000000E+00 0. -1.
<mgrwt>
<rscale>  0 0.71905732E+02</rscale>
<asrwt>0</asrwt>
<pdfrwt beam="1">  1        2 0.22268252E+00 0.75591788E+02</pdfrwt>
<pdfrwt beam="2">  1        2 0.55041536E+00 0.68399418E+02</pdfrwt>
<totfact> 0.29297603E+00</totfact>
</mgrwt>
</event>
<event>
13    1  0.1589573E-008  0.7934208E+02  0.7546771E-02  0.1368278E+00
          2   -1    0    0  503    0  0.00000000000E+00  0.00000000000E+00  0.15469293660E+04  0.15469293660E+04  0.00000000000E+00 0. -1.
          2   -1    0    0  502    0 -0.00000000000E+00 -0.00000000000E+00 -0.38910726562E+03  0.38910726562E+03  0.00000000000E+00 0. -1.
         24    2    1    2    0    0 -0.98707078143E+02  0.31534639019E+02  0.43689504345E+03  0.45575720199E+03  0.78101392056E+02 0.  0.
         25    2    1    2    0    0  0.18264928662E+03 -0.72597884796E+02  0.62781369225E+01  0.23301546990E+03  0.12500231771E+03 0.  0.
         24    2    1    2    0    0  0.30812066490E+02 -0.25663531624E+02  0.16363781038E+03  0.18684654380E+03  0.80785503950E+02 0.  0.
        -11    1    3    3    0    0 -0.53901430723E+02  0.44132227657E+02  0.15353483492E+03  0.16860000974E+03  0.00000000000E+00 0.  1.
         12    1    3    3    0    0 -0.44805647421E+02 -0.12597588638E+02  0.28336020853E+03  0.28715719225E+03  0.00000000000E+00 0. -1.
        -13    1    5    5    0    0  0.99437093518E+01  0.29382355336E+02  0.63906696293E+02  0.71037074770E+02  0.00000000000E+00 0.  1.
         14    1    5    5    0    0  0.20868357138E+02 -0.55045886959E+02  0.99731114086E+02  0.11580946903E+03  0.00000000000E+00 0. -1.
          5    1    4    4  501    0 -0.17978986211E+02 -0.12115699220E+02 -0.62335091384E+01  0.23043019528E+02  0.47000000000E+01 0.  1.
         -5    1    4    4    0  501  0.20062827283E+03 -0.60482185576E+02  0.12511646061E+02  0.20997245038E+03  0.47000000000E+01 0.  1.
          1    1    1    2  502    0 -0.27222991804E+02  0.50849338350E+02 -0.24894029839E+03  0.25553476995E+03  0.00000000000E+00 0. -1.
          1    1    1    2  503    0 -0.87531283158E+02  0.15877439051E+02  0.79995140806E+03  0.80488264601E+03  0.00000000000E+00 0. -1.
<mgrwt>
<rscale>  0 0.67648275E+02</rscale>
<asrwt>0</asrwt>
<pdfrwt beam="1">  1        2 0.22748961E+00 0.79342082E+02</pdfrwt>
<pdfrwt beam="2">  1        2 0.57221657E-01 0.57677955E+02</pdfrwt>
<totfact> 0.20831878E+02</totfact>
</mgrwt>
</event>
<event>
13    1  0.1589573E-008  0.1984849E+03  0.7546771E-02  0.1186392E+00
          2   -1    0    0  503    0  0.00000000000E+00  0.00000000000E+00  0.33143233003E+04  0.33143233003E+04  0.00000000000E+00 0. -1.
         -3   -1    0    0    0  501 -0.00000000000E+00 -0.00000000000E+00 -0.51331929077E+03  0.51331929077E+03  0.00000000000E+00 0.  1.
         24    2    1    2    0    0  0.22011987827E+03 -0.16401266522E+03  0.10295599663E+03  0.30456602539E+03  0.82508250625E+02 0.  0.
         25    2    1    2    0    0 -0.24173270066E+03  0.21479207296E+03  0.10388011010E+04  0.10951257017E+04  0.12498896717E+03 0.  0.
         24    2    1    2    0    0 -0.16837503663E+03  0.88674185020E+02 -0.23906033652E+03  0.31585487864E+03  0.80007473475E+02 0.  0.
        -11    1    3    3    0    0  0.77995528136E+02 -0.10922670382E+03  0.52301449744E+02  0.14404588464E+03  0.00000000000E+00 0.  1.
         12    1    3    3    0    0  0.14212435013E+03 -0.54785961397E+02  0.50654546882E+02  0.16052014075E+03  0.00000000000E+00 0. -1.
        -11    1    5    5    0    0 -0.11402636274E+03  0.22067724776E+02 -0.16844686957E+03  0.20460533655E+03  0.00000000000E+00 0.  1.
         12    1    5    5    0    0 -0.54348673890E+02  0.66606460244E+02 -0.70613466952E+02  0.11124954209E+03  0.00000000000E+00 0. -1.
          5    1    4    4  502    0 -0.11356463660E+03  0.17861903388E+03  0.68933415824E+03  0.72111396996E+03  0.47000000000E+01 0.  1.
         -5    1    4    4    0  502 -0.12816806405E+03  0.36173039079E+02  0.34946694274E+03  0.37401173172E+03  0.47000000000E+01 0.  1.
          1    1    1    2  503    0 -0.81935726182E+02 -0.10389535747E+03  0.18228768539E+04  0.18276727642E+04  0.00000000000E+00 0. -1.
         -4    1    1    2    0  501  0.27192358520E+03 -0.35558235291E+02  0.75430394481E+02  0.28442322109E+03  0.00000000000E+00 0.  1.
<mgrwt>
<rscale>  0 0.16205823E+03</rscale>
<asrwt>0</asrwt>
<pdfrwt beam="1">  1        2 0.48740047E+00 0.13231670E+03</pdfrwt>
<pdfrwt beam="2">  1       -3 0.75488133E-01 0.19848492E+03</pdfrwt>
<totfact> 0.19368591E+00</totfact>
</mgrwt>
</event>
<event>
13    1  0.1909042E-008  0.1405111E+03  0.7546771E-02  0.1404073E+00
          2   -1    0    0  502    0  0.00000000000E+00  0.00000000000E+00  0.26264999505E+04  0.26264999505E+04  0.00000000000E+00 0. -1.
          2   -1    0    0  503    0 -0.00000000000E+00 -0.00000000000E+00 -0.63227375765E+03  0.63227375765E+03  0.00000000000E+00 0. -1.
         24    2    1    2    0    0 -0.65438118742E+02 -0.90331507430E+01 -0.15370596108E+02  0.10554911727E+03  0.80874073320E+02 0.  0.
         25    2    1    2    0    0 -0.33458080484E+02 -0.97244627608E+02  0.94886665242E+03  0.96257617650E+03  0.12501604191E+03 0.  0.
         24    2    1    2    0    0 -0.74281692346E+02 -0.64806557284E+02  0.42805622180E+03  0.44658124404E+03  0.80529614581E+02 0.  0.
        -11    1    5    5    0    0 -0.83800326934E+02 -0.65993409887E+02  0.42191953097E+03  0.43519388272E+03  0.00000000000E+00 0.  1.
         12    1    5    5    0    0  0.95186345884E+01  0.11868526025E+01  0.61366908261E+01  0.11387361320E+02  0.00000000000E+00 0. -1.
        -11    1    3    3    0    0 -0.23989927000E+02 -0.44044526334E+02 -0.82310271328E+01  0.50825059814E+02  0.00000000000E+00 0.  1.
         12    1    3    3    0    0 -0.41448191742E+02  0.35011375591E+02 -0.71395689751E+01  0.54724057458E+02  0.00000000000E+00 0. -1.
          5    1    4    4  501    0 -0.45036581356E+02 -0.11198168145E+03  0.54400528235E+03  0.55725400660E+03  0.47000000000E+01 0. -1.
         -5    1    4    4    0  501  0.11578500872E+02  0.14737053845E+02  0.40486137007E+03  0.40532216990E+03  0.47000000000E+01 0. -1.
          1    1    1    2  502    0  0.21238368448E+02 -0.11985810459E+02  0.11627731605E+04  0.11630288693E+04  0.00000000000E+00 0. -1.
          1    1    1    2  503    0  0.15193952312E+03  0.18307014609E+03 -0.53009924571E+03  0.58103830113E+03  0.00000000000E+00 0. -1.
<mgrwt>
<rscale>  0 0.58537608E+02</rscale>
<asrwt>0</asrwt>
<pdfrwt beam="1">  1        2 0.38624999E+00 0.24387045E+02</pdfrwt>
<pdfrwt beam="2">  1        2 0.92981436E-01 0.14051114E+03</pdfrwt>
<totfact> 0.44097400E+01</totfact>
</mgrwt>
</event>
<event>
13    1  0.1589573E-008  0.7511470E+02  0.7546771E-02  0.1349584E+00
          2   -1    0    0  502    0  0.00000000000E+00  0.00000000000E+00  0.20117857096E+04  0.20117857096E+04  0.00000000000E+00 0. -1.
          2   -1    0    0  503    0 -0.00000000000E+00 -0.00000000000E+00 -0.26394118263E+03  0.26394118263E+03  0.00000000000E+00 0. -1.
         24    2    1    2    0    0 -0.27298631996E+02 -0.66492727319E+02  0.27305943177E+02  0.11109485777E+03  0.80186998921E+02 0.  0.
         25    2    1    2    0    0  0.13330949603E+03 -0.12220766866E+02  0.44974510655E+03  0.48560928359E+03  0.12499978628E+03 0.  0.
         24    2    1    2    0    0  0.23497244852E+02  0.14771234571E+02  0.17447170662E+02  0.87288514296E+02  0.80898523333E+02 0.  0.
        -13    1    5    5    0    0  0.45807567496E+02  0.32422633006E+02  0.53522757929E+01  0.56375590703E+02  0.00000000000E+00 0.  1.
         14    1    5    5    0    0 -0.22310322643E+02 -0.17651398435E+02  0.12094894869E+02  0.30912923593E+02  0.00000000000E+00 0. -1.
        -13    1    3    3    0    0 -0.21567109104E+01  0.14597179706E+02  0.21396752021E+02  0.25991345759E+02  0.00000000000E+00 0.  1.
         14    1    3    3    0    0 -0.25141921086E+02 -0.81089907025E+02  0.59091911564E+01  0.85103512016E+02  0.00000000000E+00 0. -1.
          5    1    4    4  501    0  0.53402039171E+02 -0.61541756017E+02  0.27896095878E+03  0.29065524603E+03  0.47000000000E+01 0.  1.
         -5    1    4    4    0  501  0.79907456855E+02  0.49320989151E+02  0.17078414777E+03  0.19495403756E+03  0.47000000000E+01 0.  1.
          1    1    1    2  502    0 -0.67303931637E+02  0.23552156008E+02  0.14134703096E+04  0.14152677624E+04  0.00000000000E+00 0. -1.
          1    1    1    2  503    0 -0.62204177245E+02  0.40390103606E+02 -0.16012400304E+03  0.17646647411E+03  0.00000000000E+00 0. -1.
<mgrwt>
<rscale>  0 0.73185499E+02</rscale>
<asrwt>0</asrwt>
<pdfrwt beam="1">  1        2 0.29585083E+00 0.71305843E+02</pdfrwt>
<pdfrwt beam="2">  1        2 0.38814881E-01 0.75114703E+02</pdfrwt>
<totfact> 0.18898567E+02</totfact>
</mgrwt>
</event>
<event>
13    1  0.1589573E-008  0.6763503E+02  0.7546771E-02  0.1411065E+00
         -3   -1    0    0    0  501 -0.00000000000E+00  0.00000000000E+00  0.80299173572E+03  0.80299173572E+03  0.00000000000E+00 0.  1.
          2   -1    0    0  503    0  0.00000000000E+00 -0.00000000000E+00 -0.32205758123E+04  0.32205758123E+04  0.00000000000E+00 0. -1.
         24    2    1    2    0    0 -0.37439925899E+02 -0.15246008898E+02  0.35891861280E+03  0.37024816947E+03  0.81406065757E+02 0.  0.
         25    2    1    2    0    0 -0.15806495068E+02  0.11274339348E+03 -0.30544136228E+03  0.34911526173E+03  0.12500448842E+03 0.  0.
         24    2    1    2    0    0  0.59104826113E+00  0.45337480769E+01  0.12037756367E+03  0.14489391561E+03  0.80514500161E+02 0.  0.
        -13    1    5    5    0    0 -0.91226720105E+01  0.14967348486E+02 -0.53765056473E+01  0.18334434223E+02  0.00000000000E+00 0.  1.
         14    1    5    5    0    0  0.97137202716E+01 -0.10433600409E+02  0.12575406932E+03  0.12655948139E+03  0.00000000000E+00 0. -1.
        -13    1    3    3    0    0  0.69132657428E+01  0.27118696085E+02  0.82882007226E+02  0.87479392102E+02  0.00000000000E+00 0.  1.
         14    1    3    3    0    0 -0.44353191642E+02 -0.42364704983E+02  0.27603660557E+03  0.28276877736E+03  0.00000000000E+00 0. -1.
          5    1    4    4  502    0  0.15636688318E+01  0.11913910708E+03 -0.14587261157E+03  0.18840775118E+03  0.47000000000E+01 0. -1.
         -5    1    4    4    0  502 -0.17370163900E+02 -0.63957136034E+01 -0.15956875071E+03  0.16070751056E+03  0.47000000000E+01 0. -1.
          1    1    1    2  503    0  0.36601869349E+02 -0.56832801702E+02 -0.28729484761E+04  0.28737436577E+04  0.00000000000E+00 0. -1.
         -4    1    1    2    0  501  0.16053503357E+02 -0.45198330959E+02  0.28150958534E+03  0.28556654343E+03  0.00000000000E+00 0.  1.
<mgrwt>
<rscale>  0 0.56956896E+02</rscale>
<asrwt>0</asrwt>
<pdfrwt beam="2">  1        2 0.47361409E+00 0.67635030E+02</pdfrwt>
<pdfrwt beam="1">  1       -3 0.11808702E+00 0.47964613E+02</pdfrwt>
<totfact> 0.87933389E-01</totfact>
</mgrwt>
</event>
<event>
13    1  0.1589573E-008  0.3028370E+03  0.7546771E-02  0.1185579E+00
         -1   -1    0    0    0  501 -0.00000000000E+00  0.00000000000E+00  0.50779256655E+03  0.50779256655E+03  0.00000000000E+00 0.  1.
          2   -1    0    0  503    0  0.00000000000E+00 -0.00000000000E+00 -0.38022758431E+04  0.38022758431E+04  0.00000000000E+00 0. -1.
         24    2    1    2    0    0 -0.76362332231E+02  0.10880687948E+03 -0.10755846258E+03  0.18856485378E+03  0.79484202206E+02 0.  0.
         25    2    1    2    0    0 -0.13961087177E+03 -0.63105645504E+03 -0.13669433004E+03  0.67233375237E+03  0.12499555891E+03 0.  0.
         24    2    1    2    0    0  0.34251726865E+02  0.14661112067E+03 -0.99805034189E+03  0.10132848840E+04  0.89295966360E+02 0.  0.
        -11    1    5    5    0    0  0.33303229777E+02  0.63348700088E+01 -0.23728503725E+03  0.23969444006E+03  0.00000000000E+00 0.  1.
         12    1    5    5    0    0  0.94849708766E+00  0.14027625066E+03 -0.76076530464E+03  0.77359044390E+03  0.00000000000E+00 0. -1.
        -13    1    3    3    0    0 -0.60392611519E+02  0.11547353964E+03 -0.11068977352E+03  0.17097845433E+03  0.00000000000E+00 0.  1.
         14    1    3    3    0    0 -0.15969720713E+02 -0.66666601546E+01  0.31313109426E+01  0.17586399446E+02  0.00000000000E+00 0. -1.
          5    1    4    4  502    0 -0.45363433526E+02 -0.43226587489E+03 -0.57431358167E+02  0.43844278828E+03  0.47000000000E+01 0. -1.
         -5    1    4    4    0  502 -0.94247438245E+02 -0.19879058015E+03 -0.79262971878E+02  0.23389096409E+03  0.47000000000E+01 0. -1.
          1    1    1    2  503    0  0.23915159481E+03  0.30960865586E+03 -0.22159400841E+04  0.22502092039E+04  0.00000000000E+00 0. -1.
         -2    1    1    2    0  501 -0.57430117675E+02  0.66029799030E+02  0.16375994202E+03  0.18567571566E+03  0.00000000000E+00 0.  1.
<mgrwt>
<rscale>  0 0.16279292E+03</rscale>
<asrwt>0</asrwt>
<pdfrwt beam="2">  1        2 0.55915820E+00 0.30283704E+03</pdfrwt>
<pdfrwt beam="1">  1       -1 0.74675379E-01 0.87510872E+02</pdfrwt>
<totfact> 0.18150694E+00</totfact>
</mgrwt>
</event>
<event>
13    1  0.1589573E-008  0.9610920E+02  0.7546771E-02  0.1313756E+00
         -1   -1    0    0    0  501 -0.00000000000E+00  0.00000000000E+00  0.29471671791E+03  0.29471671791E+03  0.00000000000E+00 0.  1.
          2   -1    0    0  503    0  0.00000000000E+00 -0.00000000000E+00 -0.44531887903E+04  0.44531887903E+04  0.00000000000E+00 0. -1.
         24    2    1    2    0    0  0.13700394167E+02  0.69721678989E+02  0.14748574452E+03  0.19654376119E+03  0.10875933019E+03 0.  0.
         25    2    1    2    0    0 -0.46294494135E+02 -0.73203054741E+02 -0.77467124516E+02  0.17067041804E+03  0.12500147520E+03 0.  0.
         24    2    1    2    0    0 -0.13041142168E+03  0.26358101156E+02 -0.11059188583E+04  0.11173070184E+04  0.87272926692E+02 0.  0.
        -13    1    5    5    0    0 -0.10088651216E+02  0.28072934558E+02 -0.40808402815E+03  0.40917287858E+03  0.00000000000E+00 0.  1.
         14    1    5    5    0    0 -0.12032277047E+03 -0.17148334023E+01 -0.69783483016E+03  0.70813413979E+03  0.00000000000E+00 0. -1.
        -13    1    3    3    0    0  0.59545104504E+02  0.54896420608E+02  0.10240525778E+03  0.13056061154E+03  0.00000000000E+00 0.  1.
         14    1    3    3    0    0 -0.45844710337E+02  0.14825258381E+02  0.45080486741E+02  0.65983149643E+02  0.00000000000E+00 0. -1.
          5    1    4    4  502    0 -0.22299343174E+02 -0.55025454707E+02  0.24386680127E+02  0.64357295930E+02  0.47000000000E+01 0. -1.
         -5    1    4    4    0  502 -0.23995150961E+02 -0.18177600034E+02 -0.10185380464E+03  0.10631312211E+03  0.47000000000E+01 0. -1.
          1    1    1    2  503    0  0.95146650652E+02  0.12047664716E+02 -0.31713560888E+04  0.31728059306E+04  0.00000000000E+00 0. -1.
         -2    1    1    2    0  501  0.67858871000E+02 -0.34924390120E+02  0.48784254777E+02  0.90578379941E+02  0.00000000000E+00 0.  1.
<mgrwt>
<rscale>  0 0.85644185E+02</rscale>
<asrwt>0</asrwt>
<pdfrwt beam="2">  1        2 0.65488070E+00 0.96109202E+02</pdfrwt>
<pdfrwt beam="1">  1       -1 0.43340694E-01 0.76318670E+02</pdfrwt>
<totfact> 0.21605044E+00</totfact>
</mgrwt>
</event>
<event>
13    1  0.1589573E-008  0.8633458E+02  0.7546771E-02  0.1395613E+00
          2   -1    0    0  502    0  0.00000000000E+00  0.00000000000E+00  0.28632164330E+04  0.28632164330E+04  0.00000000000E+00 0. -1.
          2   -1    0    0  503    0 -0.00000000000E+00 -0.00000000000E+00 -0.13593425190E+04  0.13593425190E+04  0.00000000000E+00 0. -1.
         24    2    1    2    0    0  0.24872214988E+03  0.31840607095E+03 -0.10057996253E+04  0.10866106530E+04  0.76450579371E+02 0.  0.
         25    2    1    2    0    0 -0.21041571341E+03 -0.17378758679E+03  0.37991584384E+03  0.48419302343E+03  0.12501974949E+03 0.  0.
         24    2    1    2    0    0 -0.34981178038E+01 -0.20874263314E+02 -0.63817455760E+02  0.10288050662E+03  0.77870143742E+02 0.  0.
        -11    1    3    3    0    0  0.31445157999E+01  0.38118891777E+02 -0.82050786305E+02  0.90527727372E+02  0.00000000000E+00 0.  1.
         12    1    3    3    0    0  0.24557763408E+03  0.28028717917E+03 -0.92374883895E+03  0.99608292558E+03  0.00000000000E+00 0. -1.
        -11    1    5    5    0    0 -0.35260313607E+02  0.39827504132E+01 -0.47690023562E+02  0.59443169194E+02  0.00000000000E+00 0.  1.
         12    1    5    5    0    0  0.31762195803E+02 -0.24857013727E+02 -0.16127432199E+02  0.43437337430E+02  0.00000000000E+00 0. -1.
          5    1    4    4  501    0 -0.10702170050E+03 -0.13091990514E+03  0.14063616462E+03  0.21998701493E+03  0.47000000000E+01 0.  1.
         -5    1    4    4    0  501 -0.10339401291E+03 -0.42867681651E+02  0.23927967922E+03  0.26420600850E+03  0.47000000000E+01 0.  1.
          1    1    1    2  502    0 -0.20606350580E+02 -0.37102532997E+02  0.23601746647E+04  0.23605562200E+04  0.00000000000E+00 0. -1.
          1    1    1    2  503    0 -0.14201968083E+02 -0.86641687843E+02 -0.16659951354E+03  0.18831854896E+03  0.00000000000E+00 0. -1.
<mgrwt>
<rscale>  0 0.60531865E+02</rscale>
<asrwt>0</asrwt>
<pdfrwt beam="1">  1        2 0.42106124E+00 0.42440778E+02</pdfrwt>
<pdfrwt beam="2">  1        2 0.19990331E+00 0.86334578E+02</pdfrwt>
<totfact> 0.11576034E+01</totfact>
</mgrwt>
</event>
<event>
13    1  0.1589573E-008  0.3316197E+03  0.7546771E-02  0.1212114E+00
          2   -1    0    0  503    0  0.00000000000E+00  0.00000000000E+00  0.15974329546E+04  0.15974329546E+04  0.00000000000E+00 0. -1.
         -3   -1    0    0    0  501 -0.00000000000E+00 -0.00000000000E+00 -0.24028748181E+04  0.24028748181E+04  0.00000000000E+00 0.  1.
         24    2    1    2    0    0 -0.73888865277E+03 -0.25242739249E+03 -0.48109914123E+03  0.92046630602E+03  0.78267535730E+02 0.  0.
         25    2    1    2    0    0 -0.10986488266E+03  0.26432047584E+02  0.55406292431E+02  0.17737772763E+03  0.12499622168E+03 0.  0.
         24    2    1    2    0    0  0.69644024960E+03 -0.47766979554E+02  0.27693559153E+03  0.75878339529E+03  0.10838917615E+03 0.  0.
        -11    1    5    5    0    0  0.38449812349E+03  0.14550870550E+02  0.11358982447E+03  0.40118970952E+03  0.00000000000E+00 0.  1.
         12    1    5    5    0    0  0.31194212611E+03 -0.62317850103E+02  0.16334576706E+03  0.35759368577E+03  0.00000000000E+00 0. -1.
        -13    1    3    3    0    0 -0.27132815841E+03 -0.53213967154E+02 -0.17055077433E+03  0.32486653024E+03  0.00000000000E+00 0.  1.
         14    1    3    3    0    0 -0.46756049436E+03 -0.19921342533E+03 -0.31054836690E+03  0.59559977578E+03  0.00000000000E+00 0. -1.
          5    1    4    4  502    0 -0.11228156999E+03  0.37438573772E+01 -0.50836199114E+01  0.11255709937E+03  0.47000000000E+01 0.  1.
         -5    1    4    4    0  502  0.24166873276E+01  0.22688190206E+02  0.60489912343E+02  0.64820628257E+02  0.47000000000E+01 0.  1.
          1    1    1    2  503    0  0.10865395800E+03  0.31473206535E+03  0.70553015609E+03  0.78015047055E+03  0.00000000000E+00 0. -1.
         -4    1    1    2    0  501  0.43659327836E+02 -0.40969740896E+02 -0.13622147623E+04  0.13635298732E+04  0.00000000000E+00 0.  1.
<mgrwt>
<rscale>  0 0.14090682E+03</rscale>
<asrwt>0</asrwt>
<pdfrwt beam="1">  1        2 0.23491662E+00 0.33161966E+03</pdfrwt>
<pdfrwt beam="2">  1       -3 0.35336394E+00 0.59872002E+02</pdfrwt>
<totfact> 0.21376926E-01</totfact>
</mgrwt>
</event>
<event>
13    1  0.1589573E-008  0.1024519E+03  0.7546771E-02  0.1465491E+00
          2   -1    0    0  503    0  0.00000000000E+00  0.00000000000E+00  0.42911627178E+04  0.42911627178E+04  0.00000000000E+00 0. -1.
          2   -1    0    0  502    0 -0.00000000000E+00 -0.00000000000E+00 -0.12083828464E+04  0.12083828464E+04  0.00000000000E+00 0. -1.
         24    2    1    2    0    0 -0.73205876813E+03 -0.90220416201E+02  0.28261807431E+03  0.79738664683E+03  0.10909961105E+03 0.  0.
         25    2    1    2    0    0 -0.30620934902E+03  0.32405613590E+03  0.17931684658E+04  0.18519867022E+04  0.12500021577E+03 0.  0.
         24    2    1    2    0    0  0.94453472352E+03 -0.30922462919E+03 -0.23695209792E+03  0.10249215590E+04  0.80945599822E+02 0.  0.
        -11    1    5    5    0    0  0.53590958435E+03 -0.21084863676E+03 -0.15913498899E+03  0.59747817947E+03  0.00000000000E+00 0.  1.
         12    1    5    5    0    0  0.40862513917E+03 -0.98375992429E+02 -0.77817108922E+02  0.42744337951E+03  0.00000000000E+00 0. -1.
        -13    1    3    3    0    0 -0.20958041639E+03 -0.68993864036E+02  0.11130988364E+03  0.24713153260E+03  0.00000000000E+00 0.  1.
         14    1    3    3    0    0 -0.52247835174E+03 -0.21226552166E+02  0.17130819067E+03  0.55025511424E+03  0.00000000000E+00 0. -1.
          5    1    4    4  501    0 -0.15011137353E+03  0.72903372127E+02  0.61310211713E+03  0.63542475728E+03  0.47000000000E+01 0.  1.
         -5    1    4    4    0  501 -0.15609797549E+03  0.25115276377E+03  0.11800663486E+04  0.12165619449E+04  0.47000000000E+01 0.  1.
          1    1    1    2  502    0  0.78901951405E+01  0.19525074916E+02 -0.28855958665E+03  0.28932701010E+03  0.00000000000E+00 0. -1.
          1    1    1    2  503    0  0.85843198485E+02  0.55863834583E+02  0.15325050159E+04  0.15359236461E+04  0.00000000000E+00 0. -1.
<mgrwt>
<rscale>  0 0.46449335E+02</rscale>
<asrwt>0</asrwt>
<pdfrwt beam="1">  1        2 0.63105334E+00 0.10245193E+03</pdfrwt>
<pdfrwt beam="2">  1        2 0.17770336E+00 0.21059053E+02</pdfrwt>
<totfact> 0.17831705E+00</totfact>
</mgrwt>
</event>
<event>
13    1  0.1589573E-008  0.1463693E+03  0.7546771E-02  0.1226795E+00
          4   -1    0    0  503    0 -0.00000000000E+00  0.00000000000E+00  0.38333766937E+03  0.38333766937E+03  0.00000000000E+00 0. -1.
          2   -1    0    0  502    0  0.00000000000E+00 -0.00000000000E+00 -0.71272124214E+03  0.71272124214E+03  0.00000000000E+00 0. -1.
         24    2    1    2    0    0  0.40744434218E+01 -0.12088442182E+03 -0.75605251320E+02  0.16345078610E+03  0.79814540777E+02 0.  0.
         25    2    1    2    0    0 -0.28516569641E+01 -0.30609240007E+02 -0.36779969536E+03  0.38967224082E+03  0.12499112702E+03 0.  0.
         24    2    1    2    0    0  0.12625376787E+02  0.11040016904E+03 -0.26960959191E+02  0.14307107745E+03  0.85993269625E+02 0.  0.
        -11    1    5    5    0    0 -0.63508351452E+01 -0.13437583895E+02 -0.60864641425E+01  0.16060722702E+02  0.00000000000E+00 0.  1.
         12    1    5    5    0    0  0.18976211932E+02  0.12383775293E+03 -0.20874495048E+02  0.12701035475E+03  0.00000000000E+00 0. -1.
        -13    1    3    3    0    0  0.35421374893E+02 -0.86569571684E+02 -0.69594828624E+02  0.11658646882E+03  0.00000000000E+00 0.  1.
         14    1    3    3    0    0 -0.31346931471E+02 -0.34314850139E+02 -0.60104226962E+01  0.46864317276E+02  0.00000000000E+00 0. -1.
          5    1    4    4  501    0  0.59979401892E+02 -0.53661034515E+01 -0.18930598939E+03  0.19870876009E+03  0.47000000000E+01 0. -1.
         -5    1    4    4    0  501 -0.62831058856E+02 -0.25243136556E+02 -0.17849370597E+03  0.19096348073E+03  0.47000000000E+01 0. -1.
          1    1    1    2  502    0  0.14386958740E+03  0.62618362677E+02 -0.36871917266E+02  0.16118019670E+03  0.00000000000E+00 0. -1.
          3    1    1    2  503    0 -0.15771775065E+03 -0.21524869884E+02  0.17785425036E+03  0.23868461045E+03  0.00000000000E+00 0. -1.
<mgrwt>
<rscale>  0 0.13044618E+03</rscale>
<asrwt>0</asrwt>
<pdfrwt beam="2">  1        2 0.10481195E+00 0.11625527E+03</pdfrwt>
<pdfrwt beam="1">  1        4 0.56373188E-01 0.14636933E+03</pdfrwt>
<totfact> 0.69466075E+01</totfact>
</mgrwt>
</event>
<event>
13    1  0.1589573E-008  0.7066661E+02  0.7546771E-02  0.1444306E+00
          2   -1    0    0  503    0  0.00000000000E+00  0.00000000000E+00  0.41589879222E+04  0.41589879222E+04  0.00000000000E+00 0. -1.
          2   -1    0    0  502    0 -0.00000000000E+00 -0.00000000000E+00 -0.24872821485E+04  0.24872821485E+04  0.00000000000E+00 0. -1.
         24    2    1    2    0    0 -0.55032792086E+03  0.54041182314E+03  0.54435915601E+03  0.94745037834E+03  0.80184597054E+02 0.  0.
         25    2    1    2    0    0  0.45589313449E+03  0.27494698221E+03  0.86541351166E+03  0.10237187742E+04  0.12500075717E+03 0.  0.
         24    2    1    2    0    0  0.18212508691E+03 -0.76665571673E+03  0.35167492346E+03  0.86800375543E+03  0.93940046698E+02 0.  0.
        -11    1    3    3    0    0 -0.15155466633E+03  0.20006648749E+03  0.18643144319E+03  0.31265332129E+03  0.00000000000E+00 0.  1.
         12    1    3    3    0    0 -0.39877325453E+03  0.34034533565E+03  0.35792771282E+03  0.63479705705E+03  0.00000000000E+00 0. -1.
        -13    1    5    5    0    0  0.96553454908E+02 -0.28283234839E+03  0.17218900694E+03  0.34491413578E+03  0.00000000000E+00 0.  1.
         14    1    5    5    0    0  0.85571632000E+02 -0.48382336834E+03  0.17948591652E+03  0.52308961965E+03  0.00000000000E+00 0. -1.
          5    1    4    4  501    0  0.23458950080E+03  0.79112009652E+02  0.45425315743E+03  0.51735767607E+03  0.47000000000E+01 0. -1.
         -5    1    4    4    0  501  0.22130363369E+03  0.19583497255E+03  0.41116035423E+03  0.50636109808E+03  0.47000000000E+01 0. -1.
          1    1    1    2  502    0 -0.68074982187E+02 -0.18934348277E+02 -0.19476078177E+04  0.19488891514E+04  0.00000000000E+00 0. -1.
          1    1    1    2  503    0 -0.19615318352E+02 -0.29768740340E+02  0.18578660003E+04  0.18582080114E+04  0.00000000000E+00 0. -1.
<mgrwt>
<rscale>  0 0.50192437E+02</rscale>
<asrwt>0</asrwt>
<pdfrwt beam="1">  1        2 0.61161587E+00 0.35650226E+02</pdfrwt>
<pdfrwt beam="2">  1        2 0.36577679E+00 0.70666614E+02</pdfrwt>
<totfact> 0.63107524E-01</totfact>
</mgrwt>
</event>
<event>
13    1  0.1589573E-008  0.2072211E+03  0.7546771E-02  0.1245323E+00
          2   -1    0    0  502    0  0.00000000000E+00  0.00000000000E+00  0.14638814273E+04  0.14638814273E+04  0.00000000000E+00 0. -1.
          2   -1    0    0  503    0 -0.00000000000E+00 -0.00000000000E+00 -0.34074993490E+04  0.34074993490E+04  0.00000000000E+00 0. -1.
         24    2    1    2    0    0  0.13747464222E+03 -0.67286262344E+03  0.20416707667E+03  0.72188779641E+03  0.88285945265E+02 0.  0.
         25    2    1    2    0    0 -0.17601629731E+03  0.31163326341E+03 -0.34057994844E+03  0.50962342882E+03  0.12499724053E+03 0.  0.
         24    2    1    2    0    0  0.22769853623E+03  0.32838279517E+03 -0.37029037401E+03  0.55085057719E+03  0.81483211387E+02 0.  0.
        -11    1    5    5    0    0  0.88435037374E+02  0.19878362084E+03 -0.19482016821E+03  0.29204551305E+03  0.00000000000E+00 0.  1.
         12    1    5    5    0    0  0.13926349886E+03  0.12959917433E+03 -0.17547020579E+03  0.25880506414E+03  0.00000000000E+00 0. -1.
        -11    1    3    3    0    0  0.10998006668E+03 -0.38665812974E+03  0.15142003207E+03  0.42956739922E+03  0.00000000000E+00 0.  1.
         12    1    3    3    0    0  0.27494575543E+02 -0.28620449370E+03  0.52747044599E+02  0.29232039719E+03  0.00000000000E+00 0. -1.
          5    1    4    4  501    0 -0.15557723291E+03  0.28590430669E+03 -0.34702608785E+03  0.47580956656E+03  0.47000000000E+01 0.  1.
         -5    1    4    4    0  501 -0.20439064405E+02  0.25728956717E+02  0.64461394084E+01  0.33813862257E+02  0.47000000000E+01 0.  1.
          1    1    1    2  502    0 -0.18162195673E+03  0.10037601673E+03  0.81249859931E+03  0.83857966454E+03  0.00000000000E+00 0. -1.
          1    1    1    2  503    0 -0.75349244145E+01 -0.67529451867E+02 -0.22494132753E+04  0.22504393093E+04  0.00000000000E+00 0. -1.
<mgrwt>
<rscale>  0 0.11866072E+03</rscale>
<asrwt>0</asrwt>
<pdfrwt beam="1">  1        2 0.21527668E+00 0.20722108E+03</pdfrwt>
<pdfrwt beam="2">  1        2 0.50110284E+00 0.67948524E+02</pdfrwt>
<totfact> 0.45485339E+00</totfact>
</mgrwt>
</event>
<event>
13    1  0.1589573E-008  0.4750052E+02  0.7546771E-02  0.1536677E+00
          2   -1    0    0  503    0  0.00000000000E+00  0.00000000000E+00  0.92769417438E+03  0.92769417438E+03  0.00000000000E+00 0. -1.
          2   -1    0    0  502    0 -0.00000000000E+00 -0.00000000000E+00 -0.16961996408E+04  0.16961996408E+04  0.00000000000E+00 0. -1.
         24    2    1    2    0    0 -0.35752993223E+03  0.31490178285E+03  0.10348784044E+03  0.49827901587E+03  0.10286622020E+03 0.  0.
         25    2    1    2    0    0  0.40341298522E+03 -0.16550816303E+03 -0.30641799699E+03  0.54740430964E+03  0.12499800264E+03 0.  0.
         24    2    1    2    0    0 -0.88955568433E+02 -0.15416318106E+03  0.61101873753E+02  0.20484493576E+03  0.80923600878E+02 0.  0.
        -11    1    5    5    0    0 -0.72976700467E+02 -0.15949867446E+03  0.43991383392E+02  0.18083325960E+03  0.00000000000E+00 0.  1.
         12    1    5    5    0    0 -0.15978867965E+02  0.53354934009E+01  0.17110490361E+02  0.24011676153E+02  0.00000000000E+00 0. -1.
        -13    1    3    3    0    0 -0.16780332394E+03  0.21566972714E+03  0.61305875955E+02  0.28005320415E+03  0.00000000000E+00 0.  1.
         14    1    3    3    0    0 -0.18972660829E+03  0.99232055712E+02  0.42181964481E+02  0.21822581172E+03  0.00000000000E+00 0. -1.
          5    1    4    4  501    0  0.39461580637E+03 -0.16104558372E+03 -0.25903346464E+03  0.49877624289E+03  0.47000000000E+01 0.  1.
         -5    1    4    4    0  501  0.87971788510E+01 -0.44625793135E+01 -0.47384532351E+02  0.48628066752E+02  0.47000000000E+01 0.  1.
          1    1    1    2  502    0  0.75609844522E+01 -0.26817410777E+02 -0.99831365626E+03  0.99870240727E+03  0.00000000000E+00 0. -1.
          1    1    1    2  503    0  0.35511530988E+02  0.31586972017E+02  0.37163647266E+03  0.37466314663E+03  0.00000000000E+00 0. -1.
<mgrwt>
<rscale>  0 0.36379980E+02</rscale>
<asrwt>0</asrwt>
<pdfrwt beam="1">  1        2 0.13642562E+00 0.47500519E+02</pdfrwt>
<pdfrwt beam="2">  1        2 0.24944112E+00 0.27862915E+02</pdfrwt>
<totfact> 0.75482272E+01</totfact>
</mgrwt>
</event>
<event>
13    1  0.1589573E-008  0.2474810E+03  0.7546771E-02  0.1229824E+00
          2   -1    0    0  503    0  0.00000000000E+00  0.00000000000E+00  0.27579031368E+04  0.27579031368E+04  0.00000000000E+00 0. -1.
          2   -1    0    0  502    0 -0.00000000000E+00 -0.00000000000E+00 -0.23367973650E+04  0.23367973650E+04  0.00000000000E+00 0. -1.
         24    2    1    2    0    0 -0.11302476526E+03 -0.41106630400E+03 -0.20529426107E+03  0.48579758107E+03  0.11001569113E+03 0.  0.
         25    2    1    2    0    0 -0.23466941415E+03  0.59728667583E+03  0.32918436631E+03  0.73198984268E+03  0.12500270279E+03 0.  0.
         24    2    1    2    0    0  0.16579917824E+03  0.53782494845E+02 -0.20349537756E+03  0.27977277997E+03  0.80501648854E+02 0.  0.
        -13    1    5    5    0    0  0.56985373547E+02  0.60290481839E+02 -0.90321027094E+02  0.12263834202E+03  0.00000000000E+00 0.  1.
         14    1    5    5    0    0  0.10881380469E+03 -0.65079869940E+01 -0.11317435046E+03  0.15713443795E+03  0.00000000000E+00 0. -1.
        -13    1    3    3    0    0 -0.53354762927E+02 -0.99558435638E+02 -0.10210326613E+03  0.15226191181E+03  0.00000000000E+00 0.  1.
         14    1    3    3    0    0 -0.59670002331E+02 -0.31150786836E+03 -0.10319099494E+03  0.33353566926E+03  0.00000000000E+00 0. -1.
          5    1    4    4  501    0 -0.12376724145E+03  0.23052934263E+03  0.19359968175E+03  0.32552270988E+03  0.47000000000E+01 0.  1.
         -5    1    4    4    0  501 -0.11090217270E+03  0.36675733320E+03  0.13558468455E+03  0.40646713280E+03  0.47000000000E+01 0.  1.
          1    1    1    2  502    0  0.11526066363E+03 -0.23972593358E+03 -0.15362407712E+04  0.15590988586E+04  0.00000000000E+00 0. -1.
          1    1    1    2  503    0  0.66634337546E+02 -0.27693310087E+00  0.20369518153E+04  0.20380414396E+04  0.00000000000E+00 0. -1.
<mgrwt>
<rscale>  0 0.12841681E+03</rscale>
<asrwt>0</asrwt>
<pdfrwt beam="1">  1        2 0.40557399E+00 0.66634913E+02</pdfrwt>
<pdfrwt beam="2">  1        2 0.34364667E+00 0.24748104E+03</pdfrwt>
<totfact> 0.36283577E+00</totfact>
</mgrwt>
</event>
<event>
13    1  0.1589573E-008  0.1084272E+03  0.7546771E-02  0.1408656E+00
          2   -1    0    0  503    0  0.00000000000E+00  0.00000000000E+00  0.10579868067E+04  0.10579868067E+04  0.00000000000E+00 0. -1.
          2   -1    0    0  502    0 -0.00000000000E+00 -0.00000000000E+00 -0.45811652893E+04  0.45811652893E+04  0.00000000000E+00 0. -1.
         24    2    1    2    0    0 -0.82338978754E+03  0.34031268598E+03 -0.14803268852E+04  0.17311825468E+04  0.10882029624E+03 0.  0.
         25    2    1    2    0    0  0.41046876873E+03 -0.84823247331E+02  0.29876954428E+02  0.43840385044E+03  0.12500284110E+03 0.  0.
         24    2    1    2    0    0  0.47504395284E+03 -0.33256272730E+03 -0.91404550071E+03  0.10854457013E+04  0.80302356120E+02 0.  0.
        -11    1    5    5    0    0  0.66132219153E+02 -0.63278591003E+02 -0.10052467366E+03  0.13595168444E+03  0.00000000000E+00 0.  1.
         12    1    5    5    0    0  0.40891173369E+03 -0.26928413630E+03 -0.81352082706E+03  0.94949401687E+03  0.00000000000E+00 0. -1.
        -13    1    3    3    0    0 -0.25883525496E+03  0.56781886387E+02 -0.40416678544E+03  0.48329148791E+03  0.00000000000E+00 0.  1.
         14    1    3    3    0    0 -0.56455453258E+03  0.28353079960E+03 -0.10761600997E+04  0.12478910589E+04  0.00000000000E+00 0. -1.
          5    1    4    4  501    0  0.37444828246E+03 -0.60024161374E+02 -0.94888377798E+01  0.37937652040E+03  0.47000000000E+01 0.  1.
         -5    1    4    4    0  501  0.36020486263E+02 -0.24799085957E+02  0.39365792208E+02  0.59027330035E+02  0.47000000000E+01 0.  1.
          1    1    1    2  502    0 -0.20114538159E+02 -0.22910148490E+02 -0.17664701035E+04  0.17667331706E+04  0.00000000000E+00 0. -1.
          1    1    1    2  503    0 -0.42008395871E+02  0.99983437138E+02  0.60778705231E+03  0.61738682687E+03  0.00000000000E+00 0. -1.
<mgrwt>
<rscale>  0 0.57494722E+02</rscale>
<asrwt>0</asrwt>
<pdfrwt beam="1">  1        2 0.15558630E+00 0.10842723E+03</pdfrwt>
<pdfrwt beam="2">  1        2 0.67370076E+00 0.30487203E+02</pdfrwt>
<totfact> 0.15894200E+00</totfact>
</mgrwt>
</event>
<event>
13    1  0.1589573E-008  0.1031724E+03  0.7546771E-02  0.1300343E+00
          2   -1    0    0  503    0  0.00000000000E+00  0.00000000000E+00  0.98439269549E+03  0.98439269549E+03  0.00000000000E+00 0. -1.
          2   -1    0    0  502    0 -0.00000000000E+00 -0.00000000000E+00 -0.32160713854E+04  0.32160713854E+04  0.00000000000E+00 0. -1.
         24    2    1    2    0    0  0.60048750292E+01  0.20776493848E+02 -0.35787736574E+02  0.10244232337E+03  0.93519764266E+02 0.  0.
         25    2    1    2    0    0  0.19743790617E+03 -0.58962789867E+02 -0.24972931417E+03  0.34705645555E+03  0.12500046238E+03 0.  0.
         24    2    1    2    0    0 -0.39198162932E+02  0.58582590182E+01  0.54559034215E+03  0.55237818480E+03  0.76694344164E+02 0.  0.
        -11    1    3    3    0    0 -0.25048882390E+02  0.47431746422E+02 -0.11518280664E+02  0.54862444961E+02  0.00000000000E+00 0.  1.
         12    1    3    3    0    0  0.31053757419E+02 -0.26655252574E+02 -0.24269455910E+02  0.47579878413E+02  0.00000000000E+00 0. -1.
        -11    1    5    5    0    0  0.23126721129E+02  0.54560467415E+01  0.16976616149E+03  0.17142101173E+03  0.00000000000E+00 0.  1.
         12    1    5    5    0    0 -0.62324884062E+02  0.40221227677E+00  0.37582418066E+03  0.38095717307E+03  0.00000000000E+00 0. -1.
          5    1    4    4  501    0  0.14655113578E+03 -0.57294929088E+02 -0.25057133219E+03  0.29591895312E+03  0.47000000000E+01 0.  1.
         -5    1    4    4    0  501  0.50886770390E+02 -0.16678607796E+01  0.84201801751E+00  0.51137502429E+02  0.47000000000E+01 0.  1.
          1    1    1    2  502    0 -0.78850541549E+02  0.15404763283E+02 -0.28392317788E+04  0.28403682522E+04  0.00000000000E+00 0. -1.
          1    1    1    2  503    0 -0.85394076723E+02  0.16923273717E+02  0.34747979749E+03  0.35821886493E+03  0.00000000000E+00 0. -1.
<mgrwt>
<rscale>  0 0.91043955E+02</rscale>
<asrwt>0</asrwt>
<pdfrwt beam="1">  1        2 0.14476363E+00 0.10317244E+03</pdfrwt>
<pdfrwt beam="2">  1        2 0.47295167E+00 0.80341239E+02</pdfrwt>
<totfact> 0.10680599E+01</totfact>
</mgrwt>
</event>
<event>
13    1  0.1589573E-008  0.1019003E+03  0.7546771E-02  0.1449104E+00
          2   -1    0    0  503    0  0.00000000000E+00  0.00000000000E+00  0.12357887800E+04  0.12357887800E+04  0.00000000000E+00 0. -1.
          2   -1    0    0  502    0 -0.00000000000E+00 -0.00000000000E+00 -0.25878387262E+03  0.25878387262E+03  0.00000000000E+00 0. -1.
         24    2    1    2    0    0 -0.13959882353E+02  0.47290216299E+01 -0.25627484791E+02  0.80912354459E+02  0.75317987005E+02 0.  0.
         25    2    1    2    0    0 -0.49146134219E+02 -0.10061219130E+03  0.46076172355E+03  0.49037219005E+03  0.12500145335E+03 0.  0.
         24    2    1    2    0    0 -0.16239148133E+02  0.79392188749E+01  0.15349500617E+03  0.17629192934E+03  0.84802041861E+02 0.  0.
        -11    1    5    5    0    0  0.22562535296E+02 -0.22519716686E+02  0.92544207227E+02  0.97880722974E+02  0.00000000000E+00 0.  1.
         12    1    5    5    0    0 -0.38801683429E+02  0.30458935561E+02  0.60950798944E+02  0.78411206370E+02  0.00000000000E+00 0. -1.
        -13    1    3    3    0    0  0.28172910219E+02  0.15787691405E+02 -0.17037426693E+02  0.36513531443E+02  0.00000000000E+00 0.  1.
         14    1    3    3    0    0 -0.42132792572E+02 -0.11058669775E+02 -0.85900580978E+01  0.44398823016E+02  0.00000000000E+00 0. -1.
          5    1    4    4  501    0 -0.14524146073E+02  0.28274426742E+02  0.61789518986E+02  0.69645019085E+02  0.47000000000E+01 0. -1.
         -5    1    4    4    0  501 -0.34621988146E+02 -0.12888661804E+03  0.39897220457E+03  0.42072717097E+03  0.47000000000E+01 0. -1.
          1    1    1    2  502    0  0.94888029252E+02  0.10604747960E+03 -0.15077187405E+03  0.20732092039E+03  0.00000000000E+00 0. -1.
          1    1    1    2  503    0 -0.15542864548E+02 -0.18103528805E+02  0.53914753655E+03  0.53967525843E+03  0.00000000000E+00 0. -1.
<mgrwt>
<rscale>  0 0.49309041E+02</rscale>
<asrwt>0</asrwt>
<pdfrwt beam="1">  1        2 0.18173364E+00 0.23860394E+02</pdfrwt>
<pdfrwt beam="2">  1        2 0.38056452E-01 0.10190031E+03</pdfrwt>
<totfact> 0.49567509E+02</totfact>
</mgrwt>
</event>
<event>
13    1  0.1589573E-008  0.1528653E+03  0.7546771E-02  0.1204388E+00
          2   -1    0    0  502    0  0.00000000000E+00  0.00000000000E+00  0.10285726130E+04  0.10285726130E+04  0.00000000000E+00 0. -1.
          2   -1    0    0  503    0 -0.00000000000E+00 -0.00000000000E+00 -0.12409940940E+04  0.12409940940E+04  0.00000000000E+00 0. -1.
         24    2    1    2    0    0  0.42698078929E+02  0.79028655371E+02 -0.22998185062E+03  0.26005085282E+03  0.81646433635E+02 0.  0.
         25    2    1    2    0    0 -0.22821886335E+02 -0.26894789267E+02  0.29243855450E+03  0.31998467269E+03  0.12500285763E+03 0.  0.
         24    2    1    2    0    0 -0.13682863890E+03 -0.12627345404E+03  0.55330796283E+02  0.20978670797E+03  0.79258464571E+02 0.  0.
        -11    1    5    5    0    0 -0.68178090708E+01  0.11167007561E+02  0.50982506885E+01  0.14041963484E+02  0.00000000000E+00 0.  1.
         12    1    5    5    0    0 -0.13001082983E+03 -0.13744046160E+03  0.50232545594E+02  0.19574474449E+03  0.00000000000E+00 0. -1.
        -11    1    3    3    0    0  0.58416277210E+02  0.23452233236E+02 -0.13363700259E+03  0.14772040194E+03  0.00000000000E+00 0.  1.
         12    1    3    3    0    0 -0.15718198281E+02  0.55576422136E+02 -0.96344848029E+02  0.11233045089E+03  0.00000000000E+00 0. -1.
          5    1    4    4  501    0 -0.37155026777E+02 -0.50774824314E+02  0.64227826000E+02  0.90032674244E+02  0.47000000000E+01 0. -1.
         -5    1    4    4    0  501  0.14333140442E+02  0.23880035046E+02  0.22821072850E+03  0.22995199845E+03  0.47000000000E+01 0. -1.
          1    1    1    2  502    0 -0.46305253464E+02  0.13270880145E+03  0.55765607106E+03  0.57509659717E+03  0.00000000000E+00 0. -1.
          1    1    1    2  503    0  0.16325769977E+03 -0.58569213518E+02 -0.88786505215E+03  0.90464787632E+03  0.00000000000E+00 0. -1.
<mgrwt>
<rscale>  0 0.14685795E+03</rscale>
<asrwt>0</asrwt>
<pdfrwt beam="1">  1        2 0.15126068E+00 0.14108668E+03</pdfrwt>
<pdfrwt beam="2">  1        2 0.18249913E+00 0.15286530E+03</pdfrwt>
<totfact> 0.91475060E+01</totfact>
</mgrwt>
</event>
<event>
13    1  0.1589573E-008  0.5538096E+02  0.7546771E-02  0.1464617E+00
         -3   -1    0    0    0  501 -0.00000000000E+00  0.00000000000E+00  0.16905985039E+04  0.16905985039E+04  0.00000000000E+00 0.  1.
          2   -1    0    0  503    0  0.00000000000E+00 -0.00000000000E+00 -0.20095635328E+04  0.20095635328E+04  0.00000000000E+00 0. -1.
         24    2    1    2    0    0 -0.28383077701E+03 -0.44632234352E+02  0.52862919340E+03  0.60893985164E+03  0.93845471316E+02 0.  0.
         25    2    1    2    0    0 -0.18356318067E+03  0.19874360828E+03 -0.38246989450E+03  0.48487475355E+03  0.12500337318E+03 0.  0.
         24    2    1    2    0    0  0.48143333607E+03 -0.14490841728E+03 -0.10039831364E+03  0.52014393632E+03  0.87711952590E+02 0.  0.
        -11    1    3    3    0    0 -0.17514980633E+03  0.17582323680E+02  0.33295850872E+03  0.37662708518E+03  0.00000000000E+00 0.  1.
         12    1    3    3    0    0 -0.10868097068E+03 -0.62214558032E+02  0.19567068468E+03  0.23231276646E+03  0.00000000000E+00 0. -1.
        -13    1    5    5    0    0  0.47770458879E+02 -0.43000950161E+02 -0.42752281292E+01  0.64415650519E+02  0.00000000000E+00 0.  1.
         14    1    5    5    0    0  0.43366287719E+03 -0.10190746712E+03 -0.96123085506E+02  0.45572828580E+03  0.00000000000E+00 0. -1.
          5    1    4    4  502    0 -0.56510777168E+02  0.10291852758E+03 -0.77241499309E+02  0.14062016381E+03  0.47000000000E+01 0. -1.
         -5    1    4    4    0  502 -0.12705240350E+03  0.95825080701E+02 -0.30522839519E+03  0.34425458974E+03  0.47000000000E+01 0. -1.
          1    1    1    2  503    0 -0.51871814639E+02 -0.19484038384E+02 -0.12243914271E+04  0.12256445976E+04  0.00000000000E+00 0. -1.
         -4    1    1    2    0  501  0.37832436241E+02  0.10281081738E+02  0.85966541298E+03  0.86055889755E+03  0.00000000000E+00 0.  1.
<mgrwt>
<rscale>  0 0.46595959E+02</rscale>
<asrwt>0</asrwt>
<pdfrwt beam="2">  1        2 0.29552405E+00 0.55380956E+02</pdfrwt>
<pdfrwt beam="1">  1       -3 0.24861743E+00 0.39204513E+02</pdfrwt>
<totfact> 0.55043897E-01</totfact>
</mgrwt>
</event>
<event>
13    1  0.1589573E-008  0.1871020E+03  0.7546771E-02  0.1301728E+00
          2   -1    0    0  502    0  0.00000000000E+00  0.00000000000E+00  0.10790279072E+04  0.10790279072E+04  0.00000000000E+00 0. -1.
          2   -1    0    0  503    0 -0.00000000000E+00 -0.00000000000E+00 -0.18152592988E+04  0.18152592988E+04  0.00000000000E+00 0. -1.
         24    2    1    2    0    0 -0.34612303387E+02  0.94802251167E+02 -0.11413688855E+04  0.11486175565E+04  0.80086702686E+02 0.  0.
         25    2    1    2    0    0 -0.22529798780E+03 -0.42281452112E+03  0.45693590802E+03  0.67374964286E+03  0.12496741429E+03 0.  0.
         24    2    1    2    0    0  0.11504611616E+03  0.17186193638E+03  0.10302151917E+03  0.24555984051E+03  0.83150873964E+02 0.  0.
        -11    1    5    5    0    0  0.10568081539E+03  0.91186282650E+02  0.81112734652E+02  0.16143930317E+03  0.00000000000E+00 0.  1.
         12    1    5    5    0    0  0.93653007634E+01  0.80675653732E+02  0.21908784513E+02  0.84120537340E+02  0.00000000000E+00 0. -1.
        -13    1    3    3    0    0 -0.88830866967E+01 -0.18282297540E+01 -0.44632418364E+03  0.44641631753E+03  0.00000000000E+00 0.  1.
         14    1    3    3    0    0 -0.25729216691E+02  0.96630480921E+02 -0.69504470189E+03  0.70220123900E+03  0.00000000000E+00 0. -1.
          5    1    4    4  501    0 -0.66798356311E+01 -0.18898124720E+02 -0.61762571734E+01  0.21494079991E+02  0.47000000000E+01 0.  1.
         -5    1    4    4    0  501 -0.21861815217E+03 -0.40391639640E+03  0.46311216519E+03  0.65225556287E+03  0.47000000000E+01 0.  1.
          1    1    1    2  502    0  0.38981916635E+02 -0.19841602414E+02  0.31268422187E+03  0.31572884192E+03  0.00000000000E+00 0. -1.
          1    1    1    2  503    0  0.10588225840E+03  0.17599193599E+03 -0.46750415508E+03  0.51063132414E+03  0.00000000000E+00 0. -1.
<mgrwt>
<rscale>  0 0.90465668E+02</rscale>
<asrwt>0</asrwt>
<pdfrwt beam="1">  1        2 0.15868058E+00 0.43741045E+02</pdfrwt>
<pdfrwt beam="2">  1        2 0.26694989E+00 0.18710200E+03</pdfrwt>
<totfact> 0.45842567E+01</totfact>
</mgrwt>
</event>
<event>
13    1  0.1589573E-008  0.4139821E+02  0.7546771E-02  0.1550513E+00
         -1   -1    0    0    0  501 -0.00000000000E+00  0.00000000000E+00  0.54431082173E+03  0.54431082173E+03  0.00000000000E+00 0.  1.
          2   -1    0    0  503    0  0.00000000000E+00 -0.00000000000E+00 -0.15109341939E+04  0.15109341939E+04  0.00000000000E+00 0. -1.
         24    2    1    2    0    0 -0.19736219965E+02 -0.16981561181E+03  0.24627950565E+03  0.31051852223E+03  0.80878287303E+02 0.  0.
         25    2    1    2    0    0  0.10297818448E+03  0.31291517758E+03 -0.83967466221E+03  0.91060355702E+03  0.12499953945E+03 0.  0.
         24    2    1    2    0    0 -0.27054191331E+02 -0.10479363381E+03 -0.16714150462E+03  0.21414028089E+03  0.78779073225E+02 0.  0.
        -13    1    3    3    0    0 -0.49533310194E+02 -0.79302411341E+02  0.13117245611E+03  0.16108579858E+03  0.00000000000E+00 0.  1.
         14    1    3    3    0    0  0.29797090229E+02 -0.90513200467E+02  0.11510704953E+03  0.14943272365E+03  0.00000000000E+00 0. -1.
        -13    1    5    5    0    0  0.22168851676E+02 -0.69939296035E+02 -0.97271750357E+02  0.12183905996E+03  0.00000000000E+00 0.  1.
         14    1    5    5    0    0 -0.49223043007E+02 -0.34854337772E+02 -0.69869754263E+02  0.92301220930E+02  0.00000000000E+00 0. -1.
          5    1    4    4  502    0  0.55318499929E+02  0.83162605962E+02 -0.39890598747E+03  0.41124716692E+03  0.47000000000E+01 0.  1.
         -5    1    4    4    0  502  0.47659684554E+02  0.22975257162E+03 -0.44076867475E+03  0.49935639010E+03  0.47000000000E+01 0.  1.
          1    1    1    2  503    0 -0.17658314433E+02 -0.23292239075E+02 -0.41044411037E+03  0.41148355035E+03  0.00000000000E+00 0. -1.
         -2    1    1    2    0  501 -0.38529458754E+02 -0.15013692892E+02  0.20435739937E+03  0.20849910514E+03  0.00000000000E+00 0.  1.
<mgrwt>
<rscale>  0 0.34785562E+02</rscale>
<asrwt>0</asrwt>
<pdfrwt beam="2">  1        2 0.22219620E+00 0.29229172E+02</pdfrwt>
<pdfrwt beam="1">  1       -1 0.80045710E-01 0.41398209E+02</pdfrwt>
<totfact> 0.34800755E+01</totfact>
</mgrwt>
</event>
<event>
13    1  0.1589573E-008  0.1963469E+03  0.7546771E-02  0.1267539E+00
          2   -1    0    0  502    0  0.00000000000E+00  0.00000000000E+00  0.19370957634E+04  0.19370957634E+04  0.00000000000E+00 0. -1.
          2   -1    0    0  503    0 -0.00000000000E+00 -0.00000000000E+00 -0.81054701899E+03  0.81054701899E+03  0.00000000000E+00 0. -1.
         24    2    1    2    0    0  0.86677521913E+01  0.50615823670E+02 -0.26071045469E+03  0.27709964741E+03  0.78595049951E+02 0.  0.
         25    2    1    2    0    0 -0.10847696643E+03 -0.22841703509E+03  0.73586638721E+03  0.78807780871E+03  0.12500279438E+03 0.  0.
         24    2    1    2    0    0  0.21394913904E+03 -0.19292884773E+03 -0.34505745758E+02  0.29872643387E+03  0.71070819754E+02 0.  0.
        -11    1    3    3    0    0  0.14835134396E+02 -0.18780813269E+02 -0.76395132191E+02  0.80056332554E+02  0.00000000000E+00 0.  1.
         12    1    3    3    0    0 -0.61673822044E+01  0.69396636939E+02 -0.18431532250E+03  0.19704331486E+03  0.00000000000E+00 0. -1.
        -13    1    5    5    0    0  0.17389687876E+03 -0.17597004296E+03 -0.50288196199E+02  0.25245689363E+03  0.00000000000E+00 0.  1.
         14    1    5    5    0    0  0.40052260274E+02 -0.16958804771E+02  0.15782450441E+02  0.46269540242E+02  0.00000000000E+00 0. -1.
          5    1    4    4  501    0 -0.10611781261E+03 -0.16602956543E+03  0.39428006028E+03  0.44080116004E+03  0.47000000000E+01 0. -1.
         -5    1    4    4    0  501 -0.23591538190E+01 -0.62387469658E+02  0.34158632692E+03  0.34727664868E+03  0.47000000000E+01 0. -1.
          1    1    1    2  502    0 -0.37804171603E+02 -0.43420846394E+02  0.90650284889E+03  0.90832920263E+03  0.00000000000E+00 0. -1.
          1    1    1    2  503    0 -0.76335753196E+02  0.41415090555E+03 -0.22060429127E+03  0.47540968975E+03  0.00000000000E+00 0. -1.
<mgrwt>
<rscale>  0 0.10632059E+03</rscale>
<asrwt>0</asrwt>
<pdfrwt beam="1">  1        2 0.28486702E+00 0.57571914E+02</pdfrwt>
<pdfrwt beam="2">  1        2 0.11919809E+00 0.19634693E+03</pdfrwt>
<totfact> 0.60611710E+01</totfact>
</mgrwt>
</event>
<event>
13    1  0.1589573E-008  0.7886850E+02  0.7546771E-02  0.1470730E+00
          2   -1    0    0  503    0  0.00000000000E+00  0.00000000000E+00  0.19591916535E+04  0.19591916535E+04  0.00000000000E+00 0. -1.
         -3   -1    0    0    0  501 -0.00000000000E+00 -0.00000000000E+00 -0.80871929203E+03  0.80871929203E+03  0.00000000000E+00 0.  1.
         24    2    1    2    0    0  0.12669810421E+02 -0.40239754062E+03 -0.23622046826E+03  0.47720337269E+03  0.99189941451E+02 0.  0.
         25    2    1    2    0    0  0.13123497704E+03  0.45479005953E+03  0.11729420122E+04  0.12710125897E+04  0.12499368663E+03 0.  0.
         24    2    1    2    0    0 -0.12806061948E+03 -0.15322267510E+03  0.28425350034E+03  0.35681123171E+03  0.81470805760E+02 0.  0.
        -11    1    5    5    0    0 -0.44065723401E+02 -0.93650700619E+02  0.19399779810E+03  0.21988039333E+03  0.00000000000E+00 0.  1.
         12    1    5    5    0    0 -0.83994896082E+02 -0.59571974485E+02  0.90255702242E+02  0.13693083838E+03  0.00000000000E+00 0. -1.
        -13    1    3    3    0    0  0.27921040607E+02 -0.13859742731E+03 -0.36616557167E+02  0.14604658032E+03  0.00000000000E+00 0.  1.
         14    1    3    3    0    0 -0.15251230186E+02 -0.26380011331E+03 -0.19960391109E+03  0.33115679237E+03  0.00000000000E+00 0. -1.
          5    1    4    4  502    0  0.14694910811E+03  0.31695100060E+03  0.79515331439E+03  0.86852913626E+03  0.47000000000E+01 0.  1.
         -5    1    4    4    0  502 -0.15714131061E+02  0.13783905893E+03  0.37778869782E+03  0.40248345343E+03  0.47000000000E+01 0.  1.
          1    1    1    2  503    0 -0.22459342725E+02  0.75328086018E+02  0.29048682682E+03  0.30093411102E+03  0.00000000000E+00 0. -1.
         -4    1    1    2    0  501  0.66151747428E+01  0.25502070183E+02 -0.36098950965E+03  0.36194964042E+03  0.00000000000E+00 0.  1.
<mgrwt>
<rscale>  0 0.45583725E+02</rscale>
<asrwt>0</asrwt>
<pdfrwt beam="1">  1        2 0.28811642E+00 0.78868497E+02</pdfrwt>
<pdfrwt beam="2">  1       -3 0.11892931E+00 0.26346084E+02</pdfrwt>
<totfact> 0.35477602E+00</totfact>
</mgrwt>
</event>
<event>
13    1  0.1589573E-008  0.1857752E+03  0.7546771E-02  0.1219964E+00
          2   -1    0    0  502    0  0.00000000000E+00  0.00000000000E+00  0.16990428123E+04  0.16990428123E+04  0.00000000000E+00 0. -1.
          2   -1    0    0  503    0 -0.00000000000E+00 -0.00000000000E+00 -0.35087373307E+03  0.35087373307E+03  0.00000000000E+00 0. -1.
         24    2    1    2    0    0  0.12850688960E+03 -0.90465494320E+02 -0.14231073829E+03  0.22644981120E+03  0.79555920086E+02 0.  0.
         25    2    1    2    0    0  0.69634163189E+02  0.15381332554E+03  0.26703999702E+03  0.33975178772E+03  0.12495383730E+03 0.  0.
         24    2    1    2    0    0 -0.64923924464E+01 -0.77735082666E+02  0.19741279120E+03  0.22590700703E+03  0.77312815619E+02 0.  0.
        -13    1    3    3    0    0  0.40800570628E+02  0.10720614569E+02 -0.36486175657E+02  0.55775076463E+02  0.00000000000E+00 0.  1.
         14    1    3    3    0    0  0.87706318969E+02 -0.10118610889E+03 -0.10582456263E+03  0.17067473473E+03  0.00000000000E+00 0. -1.
        -13    1    5    5    0    0  0.31708995074E+01  0.13004968076E+02  0.56225381316E+02  0.57796862393E+02  0.00000000000E+00 0.  1.
         14    1    5    5    0    0 -0.96632919538E+01 -0.90740050741E+02  0.14118740988E+03  0.16811014463E+03  0.00000000000E+00 0. -1.
          5    1    4    4  501    0 -0.15151291020E+02  0.55575408628E+02  0.16430813988E+03  0.17417646940E+03  0.47000000000E+01 0.  1.
         -5    1    4    4    0  501  0.84785454209E+02  0.98237916913E+02  0.10273185714E+03  0.16557531832E+03  0.47000000000E+01 0.  1.
          1    1    1    2  502    0  0.60232988000E+02  0.77768010514E+02  0.99082970599E+03  0.99570044821E+03  0.00000000000E+00 0. -1.
          1    1    1    2  503    0 -0.25188164834E+03 -0.63380759068E+02  0.35197323347E+02  0.26210749123E+03  0.00000000000E+00 0. -1.
<mgrwt>
<rscale>  0 0.13518124E+03</rscale>
<asrwt>0</asrwt>
<pdfrwt beam="1">  1        2 0.24985923E+00 0.98366032E+02</pdfrwt>
<pdfrwt beam="2">  1        2 0.51599079E-01 0.18577519E+03</pdfrwt>
<totfact> 0.19246785E+02</totfact>
</mgrwt>
</event>
<event>
13    1  0.1589573E-008  0.1033758E+03  0.7546771E-02  0.1297311E+00
          2   -1    0    0  502    0  0.00000000000E+00  0.00000000000E+00  0.74551143863E+03  0.74551143863E+03  0.00000000000E+00 0. -1.
          2   -1    0    0  503    0 -0.00000000000E+00 -0.00000000000E+00 -0.35111354548E+04  0.35111354548E+04  0.00000000000E+00 0. -1.
         24    2    1    2    0    0 -0.35768567913E+03 -0.81331441611E+02 -0.31362499146E+03  0.48597840489E+03  0.57101018417E+02 0.  0.
         25    2    1    2    0    0  0.65878747846E+02 -0.62726225717E+02  0.17978271911E+03  0.23711033301E+03  0.12499958047E+03 0.  0.
         24    2    1    2    0    0  0.15370273882E+03  0.21653513512E+03  0.29652989273E+03  0.40616777697E+03  0.80810204200E+02 0.  0.
        -11    1    3    3    0    0 -0.27405927746E+03 -0.40938074087E+02 -0.25175253456E+03  0.37438449771E+03  0.00000000000E+00 0.  1.
         12    1    3    3    0    0 -0.83626401673E+02 -0.40393367524E+02 -0.61872456896E+02  0.11159390718E+03  0.00000000000E+00 0. -1.
        -13    1    5    5    0    0  0.11348177593E+03  0.90435120738E+02  0.16042992636E+03  0.21632010032E+03  0.00000000000E+00 0.  1.
         14    1    5    5    0    0  0.40220962894E+02  0.12610001438E+03  0.13609996637E+03  0.18984767665E+03  0.00000000000E+00 0. -1.
          5    1    4    4  501    0 -0.12948169489E+02 -0.12130893972E+02  0.12930976567E+03  0.13060596915E+03  0.47000000000E+01 0.  1.
         -5    1    4    4    0  501  0.78826917335E+02 -0.50595331744E+02  0.50472953445E+02  0.10650436386E+03  0.47000000000E+01 0.  1.
          1    1    1    2  502    0  0.34798999587E+02 -0.74757755649E+02  0.81421364520E+02  0.11588412748E+03  0.00000000000E+00 0. -1.
          1    1    1    2  503    0  0.10330519288E+03  0.22802878599E+01 -0.30097330010E+04  0.30115062510E+04  0.00000000000E+00 0. -1.
<mgrwt>
<rscale>  0 0.92327660E+02</rscale>
<asrwt>0</asrwt>
<pdfrwt beam="1">  1        2 0.10963404E+00 0.82460247E+02</pdfrwt>
<pdfrwt beam="2">  1        2 0.51634344E+00 0.10337583E+03</pdfrwt>
<totfact> 0.98725443E+00</totfact>
</mgrwt>
</event>
<event>
13    1  0.1589573E-008  0.6412531E+02  0.7546771E-02  0.1398632E+00
         -1   -1    0    0    0  501 -0.00000000000E+00  0.00000000000E+00  0.36356027146E+04  0.36356027146E+04  0.00000000000E+00 0.  1.
          2   -1    0    0  503    0  0.00000000000E+00 -0.00000000000E+00 -0.12588482579E+04  0.12588482579E+04  0.00000000000E+00 0. -1.
         24    2    1    2    0    0  0.86764187808E+03  0.60410196052E+03  0.19677882462E+03  0.10784735163E+04  0.81496087837E+02 0.  0.
         25    2    1    2    0    0  0.58271643341E+03 -0.50635895165E+03  0.39352842441E+02  0.78302416459E+03  0.12498146436E+03 0.  0.
         24    2    1    2    0    0 -0.14488311267E+04  0.21980273713E+02  0.13548398891E+04  0.19847149420E+04  0.62510077396E+02 0.  0.
        -11    1    5    5    0    0 -0.78481790413E+03 -0.56340852854E+01  0.76877445885E+03  0.10986287153E+04  0.00000000000E+00 0.  1.
         12    1    5    5    0    0 -0.66401322252E+03  0.27614358998E+02  0.58606543030E+03  0.88608622668E+03  0.00000000000E+00 0. -1.
        -13    1    3    3    0    0  0.32536676450E+03  0.26133738165E+03  0.49386909333E+02  0.42023781994E+03  0.00000000000E+00 0.  1.
         14    1    3    3    0    0  0.54227511358E+03  0.34276457887E+03  0.14739191528E+03  0.65823569640E+03  0.00000000000E+00 0. -1.
          5    1    4    4  502    0  0.70089818206E+02 -0.11896953349E+03  0.24366273571E+02  0.14029304261E+03  0.47000000000E+01 0.  1.
         -5    1    4    4    0  502  0.51262661520E+03 -0.38738941816E+03  0.14986568870E+02  0.64273112198E+03  0.47000000000E+01 0.  1.
          1    1    1    2  503    0  0.17673496740E+00 -0.63964620257E+02 -0.12252618802E+03  0.13821783760E+03  0.00000000000E+00 0. -1.
         -2    1    1    2    0  501 -0.17039198048E+01 -0.55758662320E+02  0.90830908855E+03  0.91002051191E+03  0.00000000000E+00 0.  1.
<mgrwt>
<rscale>  0 0.59809785E+02</rscale>
<asrwt>0</asrwt>
<pdfrwt beam="2">  1        2 0.18512474E+00 0.64125306E+02</pdfrwt>
<pdfrwt beam="1">  1       -1 0.53464746E+00 0.55784691E+02</pdfrwt>
<totfact> 0.36478034E-02</totfact>
</mgrwt>
</event>
<event>
13    1  0.1589573E-008  0.1530668E+03  0.7546771E-02  0.1280671E+00
          2   -1    0    0  502    0  0.00000000000E+00  0.00000000000E+00  0.27620549767E+04  0.27620549767E+04  0.00000000000E+00 0. -1.
          2   -1    0    0  503    0 -0.00000000000E+00 -0.00000000000E+00 -0.12184790459E+04  0.12184790459E+04  0.00000000000E+00 0. -1.
         24    2    1    2    0    0 -0.19502721138E+03  0.12798918040E+03  0.10199901007E+03  0.26028029480E+03  0.54085028706E+02 0.  0.
         25    2    1    2    0    0  0.46356030372E+03  0.26901578871E+03  0.48118993680E+03  0.73104430036E+03  0.12499745618E+03 0.  0.
         24    2    1    2    0    0 -0.21978794350E+03 -0.20952647589E+03  0.12997519498E+04  0.13370353459E+04  0.78104422308E+02 0.  0.
        -11    1    5    5    0    0 -0.13707507649E+03 -0.13547571055E+03  0.65385075649E+03  0.68166271462E+03  0.00000000000E+00 0.  1.
         12    1    5    5    0    0 -0.82712867010E+02 -0.74050765340E+02  0.64590119334E+03  0.65537263124E+03  0.00000000000E+00 0. -1.
        -13    1    3    3    0    0 -0.80882570069E+02  0.22468871624E+02  0.38784648883E+02  0.92472100236E+02  0.00000000000E+00 0.  1.
         14    1    3    3    0    0 -0.11414464131E+03  0.10552030877E+03  0.63214361183E+02  0.16780819456E+03  0.00000000000E+00 0. -1.
          5    1    4    4  501    0  0.36368221472E+03  0.22559324544E+03  0.31147370659E+03  0.52933451199E+03  0.47000000000E+01 0.  1.
         -5    1    4    4    0  501  0.99878088999E+02  0.43422543277E+02  0.16971623021E+03  0.20170978837E+03  0.47000000000E+01 0.  1.
          1    1    1    2  502    0  0.31269627390E+02 -0.57096323265E+02  0.64889099538E+03  0.65214822211E+03  0.00000000000E+00 0. -1.
          1    1    1    2  503    0 -0.80014776236E+02 -0.13038216995E+03 -0.98825596129E+03  0.10000258595E+04  0.00000000000E+00 0. -1.
<mgrwt>
<rscale>  0 0.99821743E+02</rscale>
<asrwt>0</asrwt>
<pdfrwt beam="1">  1        2 0.40618455E+00 0.65098231E+02</pdfrwt>
<pdfrwt beam="2">  1        2 0.17918810E+00 0.15306684E+03</pdfrwt>
<totfact> 0.13878982E+01</totfact>
</mgrwt>
</event>
<event>
13    1  0.1589573E-008  0.1899699E+03  0.7546771E-02  0.1200658E+00
          2   -1    0    0  503    0  0.00000000000E+00  0.00000000000E+00  0.11628809473E+04  0.11628809473E+04  0.00000000000E+00 0. -1.
          2   -1    0    0  502    0 -0.00000000000E+00 -0.00000000000E+00 -0.20277675437E+04  0.20277675437E+04  0.00000000000E+00 0. -1.
         24    2    1    2    0    0  0.22151850441E+03  0.65738289337E+02 -0.84671782332E+03  0.88150307465E+03  0.82003827961E+02 0.  0.
         25    2    1    2    0    0 -0.18676529307E+03  0.59598240454E+02  0.20919445921E+03  0.31276488573E+03  0.12500530796E+03 0.  0.
         24    2    1    2    0    0  0.43303076667E+02 -0.25864636438E+02  0.88557496726E+02  0.12438139554E+03  0.71303334171E+02 0.  0.
        -11    1    5    5    0    0  0.50530673246E+02 -0.26537363887E+02  0.28332579978E+02  0.63720606627E+02  0.00000000000E+00 0.  1.
         12    1    5    5    0    0 -0.72275965790E+01  0.67272744910E+00  0.60224916748E+02  0.60660788915E+02  0.00000000000E+00 0. -1.
        -13    1    3    3    0    0  0.13661702915E+03  0.53638224462E+02 -0.38787561791E+03  0.41471528396E+03  0.00000000000E+00 0.  1.
         14    1    3    3    0    0  0.84901475259E+02  0.12100064875E+02 -0.45884220541E+03  0.46678779069E+03  0.00000000000E+00 0. -1.
          5    1    4    4  501    0 -0.17172179979E+03  0.92621478608E+02  0.18488926646E+03  0.26883683839E+03  0.47000000000E+01 0. -1.
         -5    1    4    4    0  501 -0.15043493275E+02 -0.33023238154E+02  0.24305192745E+02  0.43928047332E+02  0.47000000000E+01 0. -1.
          1    1    1    2  502    0 -0.17312399100E+03 -0.20654587486E+02 -0.10820369903E+04  0.10959938762E+04  0.00000000000E+00 0. -1.
          1    1    1    2  503    0  0.95067702986E+02 -0.78817305867E+02  0.76611626138E+03  0.77600525888E+03  0.00000000000E+00 0. -1.
<mgrwt>
<rscale>  0 0.14984981E+03</rscale>
<asrwt>0</asrwt>
<pdfrwt beam="1">  1        2 0.17101190E+00 0.11820277E+03</pdfrwt>
<pdfrwt beam="2">  1        2 0.29820111E+00 0.18996988E+03</pdfrwt>
<totfact> 0.30619294E+01</totfact>
</mgrwt>
</event>
<event>
13    1  0.1589573E-008  0.8744914E+02  0.7546771E-02  0.1433396E+00
          2   -1    0    0  502    0  0.00000000000E+00  0.00000000000E+00  0.36186502014E+03  0.36186502014E+03  0.00000000000E+00 0. -1.
          2   -1    0    0  503    0 -0.00000000000E+00 -0.00000000000E+00 -0.66372780089E+03  0.66372780089E+03  0.00000000000E+00 0. -1.
         24    2    1    2    0    0  0.37731426772E+02 -0.62413998957E+02 -0.16396371995E+03  0.19618087903E+03  0.79269590672E+02 0.  0.
         25    2    1    2    0    0 -0.30915228227E+02  0.42646052711E+02  0.12002007243E+03  0.18111693459E+03  0.12499635620E+03 0.  0.
         24    2    1    2    0    0 -0.45823405787E+02  0.11692375960E+03 -0.12807865932E+03  0.19633012178E+03  0.79814933879E+02 0.  0.
        -11    1    3    3    0    0  0.47454212986E+02 -0.75082338543E+01 -0.10245068098E+03  0.11315660802E+03  0.00000000000E+00 0.  1.
         12    1    3    3    0    0 -0.97227862134E+01 -0.54905765103E+02 -0.61513038970E+02  0.83024271009E+02  0.00000000000E+00 0. -1.
        -13    1    5    5    0    0 -0.66401032770E+02  0.87290554701E+02 -0.77888522882E+02  0.13451899527E+03  0.00000000000E+00 0.  1.
         14    1    5    5    0    0  0.20577626983E+02  0.29633204896E+02 -0.50190136438E+02  0.61811126509E+02  0.00000000000E+00 0. -1.
          5    1    4    4  501    0 -0.67453595855E+02  0.53746272885E+02  0.46401010347E+02  0.98049952595E+02  0.47000000000E+01 0. -1.
         -5    1    4    4    0  501  0.36538367628E+02 -0.11100220174E+02  0.73619062081E+02  0.83066981999E+02  0.47000000000E+01 0. -1.
          1    1    1    2  502    0 -0.13833733855E+02 -0.28032181655E+02  0.15293985885E+03  0.15610181237E+03  0.00000000000E+00 0. -1.
          1    1    1    2  503    0  0.52840941097E+02 -0.69123631696E+02 -0.28278033276E+03  0.29586307325E+03  0.00000000000E+00 0. -1.
<mgrwt>
<rscale>  0 0.52284254E+02</rscale>
<asrwt>0</asrwt>
<pdfrwt beam="1">  1        2 0.53215445E-01 0.31259805E+02</pdfrwt>
<pdfrwt beam="2">  1        2 0.97607028E-01 0.87449144E+02</pdfrwt>
<totfact> 0.70218633E+02</totfact>
</mgrwt>
</event>
<event>
13    1  0.1589573E-008  0.1299000E+03  0.7546771E-02  0.1306481E+00
          2   -1    0    0  503    0  0.00000000000E+00  0.00000000000E+00  0.35272063102E+04  0.35272063102E+04  0.00000000000E+00 0. -1.
          2   -1    0    0  502    0 -0.00000000000E+00 -0.00000000000E+00 -0.13345486984E+04  0.13345486984E+04  0.00000000000E+00 0. -1.
         24    2    1    2    0    0  0.22427599283E+02 -0.12314762857E+03 -0.21546601480E+03  0.26195566962E+03  0.80788821516E+02 0.  0.
         25    2    1    2    0    0 -0.15615622536E+03  0.52830209951E+02  0.21652810833E+04  0.21751420536E+04  0.12499994345E+03 0.  0.
         24    2    1    2    0    0  0.98233749731E+02 -0.89392548095E+02  0.13578197140E+03  0.20628223286E+03  0.80465636114E+02 0.  0.
        -11    1    5    5    0    0  0.49597554980E+02 -0.10864856246E+02  0.12597473314E+02  0.52313085315E+02  0.00000000000E+00 0.  1.
         12    1    5    5    0    0  0.48636194751E+02 -0.78527691848E+02  0.12318449809E+03  0.15396914755E+03  0.00000000000E+00 0. -1.
        -11    1    3    3    0    0  0.19942216413E+01 -0.12475885872E+03 -0.16052016291E+03  0.20331126985E+03  0.00000000000E+00 0.  1.
         12    1    3    3    0    0  0.20433377641E+02  0.16112301497E+01 -0.54945851890E+02  0.58644399770E+02  0.00000000000E+00 0. -1.
          5    1    4    4  501    0 -0.12309731590E+02  0.56549839981E+02  0.85653582331E+03  0.85850167181E+03  0.47000000000E+01 0. -1.
         -5    1    4    4    0  501 -0.14384649377E+03 -0.37196300300E+01  0.13087452600E+04  0.13166403818E+04  0.47000000000E+01 0. -1.
          1    1    1    2  502    0  0.69352041238E+02  0.10978941244E+03 -0.10508756884E+04  0.10588687989E+04  0.00000000000E+00 0. -1.
          1    1    1    2  503    0 -0.33857164889E+02  0.49920554267E+02  0.11579362603E+04  0.11595062536E+04  0.00000000000E+00 0. -1.
<mgrwt>
<rscale>  0 0.88517926E+02</rscale>
<asrwt>0</asrwt>
<pdfrwt beam="1">  1        2 0.51870681E+00 0.60318897E+02</pdfrwt>
<pdfrwt beam="2">  1        2 0.19625716E+00 0.12989997E+03</pdfrwt>
<totfact> 0.47801797E+00</totfact>
</mgrwt>
</event>
<event>
13    1  0.1589573E-008  0.1079059E+03  0.7546771E-02  0.1315760E+00
         -1   -1    0    0    0  501 -0.00000000000E+00  0.00000000000E+00  0.24297053946E+04  0.24297053946E+04  0.00000000000E+00 0.  1.
          2   -1    0    0  503    0  0.00000000000E+00 -0.00000000000E+00 -0.10155900688E+04  0.10155900688E+04  0.00000000000E+00 0. -1.
         24    2    1    2    0    0  0.10797700674E+02 -0.17393835840E+01  0.21087316368E+03  0.22608396951E+03  0.80788949198E+02 0.  0.
         25    2    1    2    0    0  0.21294869860E+03 -0.52285750031E+02 -0.35415368099E+03  0.43489147905E+03  0.12499928358E+03 0.  0.
         24    2    1    2    0    0 -0.11164583860E+02  0.11026653255E+02  0.47829300849E+03  0.48360563829E+03  0.69742213883E+02 0.  0.
        -13    1    5    5    0    0 -0.37775547639E+02  0.18768021870E+02  0.23678999285E+03  0.24051763211E+03  0.00000000000E+00 0.  1.
         14    1    5    5    0    0  0.26610963778E+02 -0.77413686145E+01  0.24150301564E+03  0.24308800618E+03  0.00000000000E+00 0. -1.
        -13    1    3    3    0    0  0.21156380137E+02 -0.30148241023E+02  0.17650585141E+03  0.18030758287E+03  0.00000000000E+00 0.  1.
         14    1    3    3    0    0 -0.10358679463E+02  0.28408857439E+02  0.34367312271E+02  0.45776386641E+02  0.00000000000E+00 0. -1.
          5    1    4    4  502    0  0.46286613864E+02  0.18105693336E+02 -0.16801265761E+03  0.17527295819E+03  0.47000000000E+01 0.  1.
         -5    1    4    4    0  502  0.16666208473E+03 -0.70391443368E+02 -0.18614102338E+03  0.25961852086E+03  0.47000000000E+01 0.  1.
          1    1    1    2  503    0 -0.65811650510E+02  0.11208898571E+02 -0.60563167971E+03  0.60930004449E+03  0.00000000000E+00 0. -1.
         -2    1    1    2    0  501 -0.14677016490E+03  0.31789581789E+02  0.16847345144E+04  0.16914143321E+04  0.00000000000E+00 0.  1.
<mgrwt>
<rscale>  0 0.84874783E+02</rscale>
<asrwt>0</asrwt>
<pdfrwt beam="2">  1        2 0.14935148E+00 0.66759365E+02</pdfrwt>
<pdfrwt beam="1">  1       -1 0.35730962E+00 0.10790589E+03</pdfrwt>
<totfact> 0.64716935E-01</totfact>
</mgrwt>
</event>
<event>
13    1  0.1589573E-008  0.1824837E+03  0.7546771E-02  0.1282049E+00
          2   -1    0    0  503    0  0.00000000000E+00  0.00000000000E+00  0.63072135314E+03  0.63072135314E+03  0.00000000000E+00 0. -1.
          2   -1    0    0  502    0 -0.00000000000E+00 -0.00000000000E+00 -0.13405750994E+04  0.13405750994E+04  0.00000000000E+00 0. -1.
         24    2    1    2    0    0 -0.40525857232E+02 -0.70732449108E+02 -0.24252141374E+03  0.26801752296E+03  0.79820624095E+02 0.  0.
         25    2    1    2    0    0 -0.19023682846E+03  0.11482229727E+03  0.14157048069E+03  0.29161637786E+03  0.12499479983E+03 0.  0.
         24    2    1    2    0    0  0.84944918994E+00 -0.12886978069E+03  0.19704551687E+02  0.15330676905E+03  0.80663214302E+02 0.  0.
        -13    1    5    5    0    0  0.39199351778E+02 -0.44353613036E+02  0.61406797925E+01  0.59510840335E+02  0.00000000000E+00 0.  1.
         14    1    5    5    0    0 -0.38349902588E+02 -0.84516167650E+02  0.13563871894E+02  0.93795928715E+02  0.00000000000E+00 0. -1.
        -13    1    3    3    0    0 -0.50425306091E+02 -0.83502227262E+02 -0.19974369019E+03  0.22229007001E+03  0.00000000000E+00 0.  1.
         14    1    3    3    0    0  0.98994488590E+01  0.12769778154E+02 -0.42777723550E+02  0.45727452957E+02  0.00000000000E+00 0. -1.
          5    1    4    4  501    0 -0.88253359363E+02  0.11952576693E+03  0.57879946749E+02  0.15952191898E+03  0.47000000000E+01 0.  1.
         -5    1    4    4    0  501 -0.10198346910E+03 -0.47034696676E+01  0.83690533944E+02  0.13209445888E+03  0.47000000000E+01 0.  1.
          1    1    1    2  502    0  0.53818820151E+02 -0.28554531357E+01 -0.91189015036E+03  0.91348139846E+03  0.00000000000E+00 0. -1.
          1    1    1    2  503    0  0.17609441635E+03  0.87635385663E+02  0.28328278551E+03  0.34487438416E+03  0.00000000000E+00 0. -1.
<mgrwt>
<rscale>  0 0.99170907E+02</rscale>
<asrwt>0</asrwt>
<pdfrwt beam="1">  1        2 0.92753141E-01 0.18248366E+03</pdfrwt>
<pdfrwt beam="2">  1        2 0.19714339E+00 0.53894517E+02</pdfrwt>
<totfact> 0.15849767E+02</totfact>
</mgrwt>
</event>
<event>
13    1  0.1589573E-008  0.1547233E+03  0.7546771E-02  0.1226307E+00
         -1   -1    0    0    0  501  0.00000000000E+00  0.00000000000E+00  0.13701194498E+04  0.13701194498E+04  0.00000000000E+00 0.  1.
         -1   -1    0    0    0  502 -0.00000000000E+00 -0.00000000000E+00 -0.82376986511E+03  0.82376986511E+03  0.00000000000E+00 0.  1.
         24    2    1    2    0    0  0.34030660634E+02 -0.12163611309E+03 -0.90867534226E+02  0.17594878410E+03  0.82143995397E+02 0.  0.
         25    2    1    2    0    0  0.96569442557E+02  0.17682053248E+03  0.33702811805E+02  0.23948334584E+03  0.12500094187E+03 0.  0.
         24    2    1    2    0    0 -0.53578866678E+02  0.69908202189E+01 -0.11019306604E+03  0.14686745586E+03  0.80671998026E+02 0.  0.
        -11    1    3    3    0    0  0.48469096180E+02 -0.10666522961E+03 -0.99225715429E+02  0.15353327683E+03  0.00000000000E+00 0.  1.
         12    1    3    3    0    0 -0.14438435546E+02 -0.14970883482E+02  0.83581812027E+01  0.22415507272E+02  0.00000000000E+00 0. -1.
        -13    1    5    5    0    0 -0.59995963611E+02  0.30193934038E+02 -0.55566115365E+02  0.87170995630E+02  0.00000000000E+00 0.  1.
         14    1    5    5    0    0  0.64170969324E+01 -0.23203113819E+02 -0.54626950675E+02  0.59696460230E+02  0.00000000000E+00 0. -1.
          5    1    4    4  503    0 -0.85664868313E+01 -0.10603626627E+02  0.19245354508E+02  0.24047770467E+02  0.47000000000E+01 0.  1.
         -5    1    4    4    0  503  0.10513592939E+03  0.18742415911E+03  0.14457457297E+02  0.21543557537E+03  0.47000000000E+01 0.  1.
         -2    1    1    2    0  501 -0.80664030931E+01  0.18510310898E+03  0.11285955973E+04  0.11437028679E+04  0.00000000000E+00 0.  1.
         -2    1    1    2    0  502 -0.68954833420E+02 -0.24727834859E+03 -0.41488822419E+03  0.48788686117E+03  0.00000000000E+00 0.  1.
<mgrwt>
<rscale>  0 0.13077706E+03</rscale>
<asrwt>0</asrwt>
<pdfrwt beam="1">  1       -1 0.20148815E+00 0.11053694E+03</pdfrwt>
<pdfrwt beam="2">  1       -1 0.12114263E+00 0.15472330E+03</pdfrwt>
<totfact> 0.10048026E+00</totfact>
</mgrwt>
</event>
<event>
13    1  0.1589573E-008  0.6408864E+02  0.7546771E-02  0.1433623E+00
          2   -1    0    0  502    0  0.00000000000E+00  0.00000000000E+00  0.16261084413E+04  0.16261084413E+04  0.00000000000E+00 0. -1.
          2   -1    0    0  503    0 -0.00000000000E+00 -0.00000000000E+00 -0.56800323483E+03  0.56800323483E+03  0.00000000000E+00 0. -1.
         24    2    1    2    0    0 -0.84079663936E+02 -0.16217319341E+02 -0.16784195081E+03  0.20309240985E+03  0.75784003298E+02 0.  0.
         25    2    1    2    0    0  0.47651181704E+02  0.10261995437E+03  0.88477686845E+03  0.90069542001E+03  0.12498256896E+03 0.  0.
         24    2    1    2    0    0  0.26078319298E+02 -0.63537701380E+02  0.54030882528E+02  0.11953576430E+03  0.81561905608E+02 0.  0.
        -11    1    5    5    0    0  0.34613926768E+01 -0.68907763788E+02  0.99597777940E+01  0.69709815114E+02  0.00000000000E+00 0.  1.
         12    1    5    5    0    0  0.22616926621E+02  0.53700624079E+01  0.44071104734E+02  0.49825949188E+02  0.00000000000E+00 0. -1.
        -11    1    3    3    0    0 -0.13974739365E+02  0.94923773792E+01  0.25237598508E+01  0.17081215777E+02  0.00000000000E+00 0.  1.
         12    1    3    3    0    0 -0.70104924571E+02 -0.25709696720E+02 -0.17036571066E+03  0.18601119408E+03  0.00000000000E+00 0. -1.
          5    1    4    4  501    0  0.74959980793E+02  0.17322998575E+02  0.47555696440E+03  0.48176301372E+03  0.47000000000E+01 0. -1.
         -5    1    4    4    0  501 -0.27308799088E+02  0.85296955791E+02  0.40921990404E+03  0.41893240629E+03  0.47000000000E+01 0. -1.
          1    1    1    2  502    0 -0.37780415714E+02  0.19641757462E+02  0.62521745996E+03  0.62666580462E+03  0.00000000000E+00 0. -1.
          1    1    1    2  503    0  0.48130578648E+02 -0.42506691107E+02 -0.33807805366E+03  0.34412227733E+03  0.00000000000E+00 0. -1.
<mgrwt>
<rscale>  0 0.52239554E+02</rscale>
<asrwt>0</asrwt>
<pdfrwt beam="1">  1        2 0.23913359E+00 0.42581198E+02</pdfrwt>
<pdfrwt beam="2">  1        2 0.83529888E-01 0.64088638E+02</pdfrwt>
<totfact> 0.13542422E+02</totfact>
</mgrwt>
</event>
<event>
13    1  0.1589573E-008  0.1083697E+03  0.7546771E-02  0.1369123E+00
          2   -1    0    0  503    0  0.00000000000E+00  0.00000000000E+00  0.33825024855E+04  0.33825024855E+04  0.00000000000E+00 0. -1.
         -1   -1    0    0    0  501 -0.00000000000E+00 -0.00000000000E+00 -0.91229860085E+03  0.91229860085E+03  0.00000000000E+00 0.  1.
         24    2    1    2    0    0 -0.13919851827E+03 -0.45544088928E+02 -0.54416627619E+03  0.56829382225E+03  0.73419620933E+02 0.  0.
         25    2    1    2    0    0  0.21601748706E+03  0.86662003464E+02  0.41385251106E+03  0.49099263025E+03  0.12500401790E+03 0.  0.
         24    2    1    2    0    0 -0.15562415179E+03  0.37334246384E+02  0.20081054544E+04  0.20161816997E+04  0.82996431222E+02 0.  0.
        -11    1    3    3    0    0 -0.70501995206E+02 -0.24314924586E+02 -0.14880128231E+03  0.16644388995E+03  0.00000000000E+00 0.  1.
         12    1    3    3    0    0 -0.68696523066E+02 -0.21229164342E+02 -0.39536499388E+03  0.40184993230E+03  0.00000000000E+00 0. -1.
        -11    1    5    5    0    0 -0.39201399562E+02 -0.12654129769E+01  0.98017194619E+03  0.98095636758E+03  0.00000000000E+00 0.  1.
         12    1    5    5    0    0 -0.11642275223E+03  0.38599659361E+02  0.10279335082E+04  0.10352253321E+04  0.00000000000E+00 0. -1.
          5    1    4    4  502    0  0.35319008910E+02 -0.29906905401E+02  0.49781563951E+02  0.68133321440E+02  0.47000000000E+01 0. -1.
         -5    1    4    4    0  502  0.18069847815E+03  0.11656890886E+03  0.36407094711E+03  0.42285930881E+03  0.47000000000E+01 0. -1.
          1    1    1    2  503    0 -0.21040528866E+02 -0.36272680951E+02  0.89599769846E+03  0.89697842052E+03  0.00000000000E+00 0. -1.
         -2    1    1    2    0  501  0.99845711866E+02 -0.42179479970E+02 -0.30358550314E+03  0.32235451358E+03  0.00000000000E+00 0.  1.
<mgrwt>
<rscale>  0 0.67411506E+02</rscale>
<asrwt>0</asrwt>
<pdfrwt beam="1">  1        2 0.49742683E+00 0.41933414E+02</pdfrwt>
<pdfrwt beam="2">  1       -1 0.13416156E+00 0.10836969E+03</pdfrwt>
<totfact> 0.12810758E+00</totfact>
</mgrwt>
</event>
<event>
13    1  0.1589573E-008  0.7717761E+02  0.7546771E-02  0.1429545E+00
          2   -1    0    0  503    0  0.00000000000E+00  0.00000000000E+00  0.74977836971E+03  0.74977836971E+03  0.00000000000E+00 0. -1.
          2   -1    0    0  502    0 -0.00000000000E+00 -0.00000000000E+00 -0.13789531495E+04  0.13789531495E+04  0.00000000000E+00 0. -1.
         24    2    1    2    0    0  0.10094436865E+02 -0.41967709486E+01 -0.10376068571E+04  0.10407616937E+04  0.80233425659E+02 0.  0.
         25    2    1    2    0    0  0.37239590433E+02  0.97074304171E+02  0.43151778774E+03  0.46113212692E+03  0.12500011887E+03 0.  0.
         24    2    1    2    0    0  0.44848711463E+02 -0.26985730624E+02 -0.13793173923E+03  0.16841694293E+03  0.81237093752E+02 0.  0.
        -11    1    3    3    0    0  0.15410538565E+02  0.36597497976E+02 -0.53865684775E+03  0.54011856216E+03  0.00000000000E+00 0.  1.
         12    1    3    3    0    0 -0.53161016995E+01 -0.40794268925E+02 -0.49895000939E+03  0.50064313157E+03  0.00000000000E+00 0. -1.
        -13    1    5    5    0    0  0.15838682282E+02  0.15378637985E+02 -0.91459455608E+00  0.22095312759E+02  0.00000000000E+00 0.  1.
         14    1    5    5    0    0  0.29010029181E+02 -0.42364368609E+02 -0.13701714468E+03  0.14632163017E+03  0.00000000000E+00 0. -1.
          5    1    4    4  501    0  0.31082749381E+02  0.38130392678E+02  0.37776564400E+03  0.38098429881E+03  0.47000000000E+01 0.  1.
         -5    1    4    4    0  501  0.61568410520E+01  0.58943911493E+02  0.53752143738E+02  0.80147828107E+02  0.47000000000E+01 0.  1.
          1    1    1    2  502    0 -0.27843062366E+02 -0.23550383337E+02 -0.16458102581E+03  0.16857274612E+03  0.00000000000E+00 0. -1.
          1    1    1    2  503    0 -0.64339676395E+02 -0.42341419261E+02  0.27942705466E+03  0.28984800952E+03  0.00000000000E+00 0. -1.
<mgrwt>
<rscale>  0 0.53051403E+02</rscale>
<asrwt>0</asrwt>
<pdfrwt beam="1">  1        2 0.11026153E+00 0.77177609E+02</pdfrwt>
<pdfrwt beam="2">  1        2 0.20278723E+00 0.36467200E+02</pdfrwt>
<totfact> 0.13095588E+02</totfact>
</mgrwt>
</event>
<event>
13    1  0.1589573E-008  0.2639995E+03  0.7546771E-02  0.1269034E+00
          2   -1    0    0  502    0  0.00000000000E+00  0.00000000000E+00  0.68079468841E+03  0.68079468841E+03  0.00000000000E+00 0. -1.
          2   -1    0    0  503    0 -0.00000000000E+00 -0.00000000000E+00 -0.11238547563E+04  0.11238547563E+04  0.00000000000E+00 0. -1.
         24    2    1    2    0    0  0.22854163302E+03  0.51119830011E+02 -0.51179703348E+03  0.56835911494E+03  0.79065574118E+02 0.  0.
         25    2    1    2    0    0 -0.70349008135E+02  0.13713319343E+03  0.31564313740E+03  0.37284094831E+03  0.12500114745E+03 0.  0.
         24    2    1    2    0    0  0.34555312632E+02 -0.20273247257E+02  0.21523352009E+02  0.91997186720E+02  0.79969703621E+02 0.  0.
        -11    1    5    5    0    0  0.11473855170E+02  0.22896724233E+02 -0.16104839830E+02  0.30253515481E+02  0.00000000000E+00 0.  1.
         12    1    5    5    0    0  0.23081457463E+02 -0.43169971490E+02  0.37628191839E+02  0.61743671239E+02  0.00000000000E+00 0. -1.
        -11    1    3    3    0    0 -0.13584070107E+01  0.55834458910E+01 -0.33376585559E+00  0.57560001104E+01  0.00000000000E+00 0.  1.
         12    1    3    3    0    0  0.22990004003E+03  0.45536384120E+02 -0.51146326763E+03  0.56260311483E+03  0.00000000000E+00 0. -1.
          5    1    4    4  501    0 -0.14777232438E+02  0.15986867040E+01 -0.80276933979E+01  0.17534430672E+02  0.47000000000E+01 0.  1.
         -5    1    4    4    0  501 -0.55571775697E+02  0.13553450673E+03  0.32367083080E+03  0.35530651764E+03  0.47000000000E+01 0.  1.
          1    1    1    2  502    0  0.42124755951E+02  0.25567155524E+01  0.20872588533E+03  0.21294958809E+03  0.00000000000E+00 0. -1.
          1    1    1    2  503    0 -0.23487269347E+03 -0.17053649174E+03 -0.47715540912E+03  0.55850260662E+03  0.00000000000E+00 0. -1.
<mgrwt>
<rscale>  0 0.10555273E+03</rscale>
<asrwt>0</asrwt>
<pdfrwt beam="1">  1        2 0.10011687E+00 0.42202273E+02</pdfrwt>
<pdfrwt beam="2">  1        2 0.16527276E+00 0.26399950E+03</pdfrwt>
<totfact> 0.17807222E+02</totfact>
</mgrwt>
</event>
<event>
13    1  0.1589573E-008  0.1403067E+03  0.7546771E-02  0.1315425E+00
          2   -1    0    0  502    0  0.00000000000E+00  0.00000000000E+00  0.51321965219E+04  0.51321965219E+04  0.00000000000E+00 0. -1.
          2   -1    0    0  503    0 -0.00000000000E+00 -0.00000000000E+00 -0.26295811560E+04  0.26295811560E+04  0.00000000000E+00 0. -1.
         24    2    1    2    0    0 -0.49729681718E+02 -0.66252610238E+02 -0.62372308201E+03  0.63433433695E+03  0.80542649536E+02 0.  0.
         25    2    1    2    0    0 -0.20500535130E+03  0.94569590994E+02  0.17224528521E+04  0.17416769645E+04  0.12499687700E+03 0.  0.
         24    2    1    2    0    0  0.34529663655E+02 -0.31903069587E+01 -0.97374322105E+02  0.13072678473E+03  0.80032855195E+02 0.  0.
        -11    1    5    5    0    0  0.48946392892E+02 -0.26281480669E+02 -0.44216012795E+02  0.71003671671E+02  0.00000000000E+00 0.  1.
         12    1    5    5    0    0 -0.14416729237E+02  0.23091173710E+02 -0.53158309309E+02  0.59723113062E+02  0.00000000000E+00 0. -1.
        -11    1    3    3    0    0 -0.50312993301E+02 -0.30707871540E+01 -0.22029673844E+03  0.22598999977E+03  0.00000000000E+00 0.  1.
         12    1    3    3    0    0  0.58331158275E+00 -0.63181823084E+02 -0.40342634358E+03  0.40834433719E+03  0.00000000000E+00 0. -1.
          5    1    4    4  501    0 -0.97239716288E+02  0.39385385750E+02  0.12324400723E+04  0.12369063799E+04  0.47000000000E+01 0. -1.
         -5    1    4    4    0  501 -0.10776563501E+03  0.55184205243E+02  0.49001277987E+03  0.50477058456E+03  0.47000000000E+01 0. -1.
          1    1    1    2  502    0  0.21034519045E+02 -0.47006010829E+02  0.33726049799E+04  0.33729981273E+04  0.00000000000E+00 0. -1.
          1    1    1    2  503    0  0.19917085032E+03  0.21879337031E+02 -0.18713450619E+04  0.18820414644E+04  0.00000000000E+00 0. -1.
<mgrwt>
<rscale>  0 0.85002806E+02</rscale>
<asrwt>0</asrwt>
<pdfrwt beam="1">  1        2 0.75473478E+00 0.51497729E+02</pdfrwt>
<pdfrwt beam="2">  1        2 0.38670311E+00 0.14030671E+03</pdfrwt>
<totfact> 0.69374607E-02</totfact>
</mgrwt>
</event>
<event>
13    1  0.1589573E-008  0.8098163E+02  0.7546771E-02  0.1479773E+00
          2   -1    0    0  502    0  0.00000000000E+00  0.00000000000E+00  0.16726575294E+04  0.16726575294E+04  0.00000000000E+00 0. -1.
          2   -1    0    0  503    0 -0.00000000000E+00 -0.00000000000E+00 -0.16099750331E+04  0.16099750331E+04  0.00000000000E+00 0. -1.
         24    2    1    2    0    0  0.14517377708E+02  0.31532267711E+02 -0.20142012035E+03  0.21864908254E+03  0.77668000160E+02 0.  0.
         25    2    1    2    0    0 -0.90190341272E+02 -0.78335072422E+02  0.62266746703E+03  0.64622570475E+03  0.12498882254E+03 0.  0.
         24    2    1    2    0    0  0.13448434787E+03 -0.26270932020E+02  0.43949112630E+02  0.16610776563E+03  0.82970257372E+02 0.  0.
        -13    1    5    5    0    0  0.49216256690E+02  0.30185574017E+02  0.19739989773E+02  0.61017014000E+02  0.00000000000E+00 0.  1.
         14    1    5    5    0    0  0.85268091183E+02 -0.56456506037E+02  0.24209122857E+02  0.10509075163E+03  0.00000000000E+00 0. -1.
        -13    1    3    3    0    0 -0.18948176042E+02 -0.80173795503E+01 -0.15819522640E+02  0.25953208794E+02  0.00000000000E+00 0.  1.
         14    1    3    3    0    0  0.33465553749E+02  0.39549647261E+02 -0.18560059771E+03  0.19269587374E+03  0.00000000000E+00 0. -1.
          5    1    4    4  501    0 -0.90190483754E+01  0.13239572300E+02  0.30973736185E+03  0.31018696432E+03  0.47000000000E+01 0. -1.
         -5    1    4    4    0  501 -0.81171292896E+02 -0.91574644722E+02  0.31293010518E+03  0.33603874043E+03  0.47000000000E+01 0. -1.
          1    1    1    2  502    0 -0.24060730483E+02 -0.54042953383E-01  0.92317622473E+03  0.92348972035E+03  0.00000000000E+00 0. -1.
          1    1    1    2  503    0 -0.34750653825E+02  0.73127779685E+02 -0.13256901877E+04  0.13281602892E+04  0.00000000000E+00 0. -1.
<mgrwt>
<rscale>  0 0.44141615E+02</rscale>
<asrwt>0</asrwt>
<pdfrwt beam="1">  1        2 0.24597905E+00 0.24060791E+02</pdfrwt>
<pdfrwt beam="2">  1        2 0.23676103E+00 0.80981633E+02</pdfrwt>
<totfact> 0.33770659E+01</totfact>
</mgrwt>
</event>
<event>
13    1  0.1589573E-008  0.4995273E+02  0.7546771E-02  0.1459033E+00
          2   -1    0    0  503    0  0.00000000000E+00  0.00000000000E+00  0.22328761073E+04  0.22328761073E+04  0.00000000000E+00 0. -1.
          2   -1    0    0  502    0 -0.00000000000E+00 -0.00000000000E+00 -0.23096862743E+04  0.23096862743E+04  0.00000000000E+00 0. -1.
         24    2    1    2    0    0 -0.15808317996E+03 -0.66653568506E+02  0.33647756957E+02  0.19257746686E+03  0.80752208719E+02 0.  0.
         25    2    1    2    0    0  0.82839606029E+02 -0.25782152321E+01  0.99234976870E+03  0.10036188822E+04  0.12499499854E+03 0.  0.
         24    2    1    2    0    0  0.12561017704E+03  0.37113540031E+02  0.53326551889E+02  0.16330208664E+03  0.81661000092E+02 0.  0.
        -11    1    5    5    0    0  0.56997299336E+02 -0.23946366889E+02  0.29001174606E+02  0.68287544599E+02  0.00000000000E+00 0.  1.
         12    1    5    5    0    0  0.68612877702E+02  0.61059906920E+02  0.24325377283E+02  0.95014542043E+02  0.00000000000E+00 0. -1.
        -13    1    3    3    0    0 -0.83991493270E+02 -0.75149939941E+02  0.54100895982E+01  0.11283329954E+03  0.00000000000E+00 0.  1.
         14    1    3    3    0    0 -0.74091686694E+02  0.84963714352E+01  0.28237667358E+02  0.79744167327E+02  0.00000000000E+00 0. -1.
          5    1    4    4  501    0 -0.17770773276E+02  0.37059083773E+02  0.30700236851E+03  0.30977688801E+03  0.47000000000E+01 0. -1.
         -5    1    4    4    0  501  0.10061037931E+03 -0.39637299005E+02  0.68534740019E+03  0.69384199415E+03  0.47000000000E+01 0. -1.
          1    1    1    2  502    0 -0.21158107977E+01  0.45209867666E+02 -0.21687462688E+04  0.21692184738E+04  0.00000000000E+00 0. -1.
          1    1    1    2  503    0 -0.48250792305E+02 -0.13091623959E+02  0.10126120243E+04  0.10138454721E+04  0.00000000000E+00 0. -1.
<mgrwt>
<rscale>  0 0.47548167E+02</rscale>
<asrwt>0</asrwt>
<pdfrwt beam="1">  1        2 0.32836414E+00 0.49952731E+02</pdfrwt>
<pdfrwt beam="2">  1        2 0.33965974E+00 0.45259350E+02</pdfrwt>
<totfact> 0.85831855E+00</totfact>
</mgrwt>
</event>
<event>
13    1  0.1589573E-008  0.1582462E+03  0.7546771E-02  0.1212900E+00
          2   -1    0    0  503    0  0.00000000000E+00  0.00000000000E+00  0.11001579000E+04  0.11001579000E+04  0.00000000000E+00 0. -1.
          2   -1    0    0  502    0 -0.00000000000E+00 -0.00000000000E+00 -0.14886667276E+04  0.14886667276E+04  0.00000000000E+00 0. -1.
         24    2    1    2    0    0 -0.12305608229E+03  0.33926021082E+02 -0.50235651024E+03  0.52467016641E+03  0.81381483454E+02 0.  0.
         25    2    1    2    0    0  0.18183481548E+03  0.82617078925E+01  0.14142217956E+03  0.26221630314E+03  0.12500000330E+03 0.  0.
         24    2    1    2    0    0  0.57785040327E+02  0.25460806587E+02  0.31304582231E+03  0.32907597679E+03  0.79409999856E+02 0.  0.
        -11    1    3    3    0    0 -0.46665620358E+02  0.54879646179E+02 -0.25025513335E+03  0.26041714125E+03  0.00000000000E+00 0.  1.
         12    1    3    3    0    0 -0.76390461936E+02 -0.20953625097E+02 -0.25210137689E+03  0.26425302517E+03  0.00000000000E+00 0. -1.
        -13    1    5    5    0    0 -0.46104338368E+01  0.40510193197E+01 -0.25600003058E+01  0.66498465590E+01  0.00000000000E+00 0.  1.
         14    1    5    5    0    0  0.62395474164E+02  0.21409787267E+02  0.31560582261E+03  0.32242613023E+03  0.00000000000E+00 0. -1.
          5    1    4    4  501    0  0.18375677843E+03  0.12301071580E+02  0.80665441862E+02  0.20111408079E+03  0.47000000000E+01 0.  1.
         -5    1    4    4    0  501 -0.19219629516E+01 -0.40393636876E+01  0.60756737699E+02  0.61102222353E+02  0.47000000000E+01 0.  1.
          1    1    1    2  502    0  0.13513020213E+02 -0.17144649281E+03 -0.88606250401E+03  0.90259806261E+03  0.00000000000E+00 0. -1.
          1    1    1    2  503    0 -0.13007679372E+03  0.10379795724E+03  0.54544218473E+03  0.57026411870E+03  0.00000000000E+00 0. -1.
<mgrwt>
<rscale>  0 0.14031953E+03</rscale>
<asrwt>0</asrwt>
<pdfrwt beam="1">  1        2 0.16178793E+00 0.12442365E+03</pdfrwt>
<pdfrwt beam="2">  1        2 0.21892158E+00 0.15824620E+03</pdfrwt>
<totfact> 0.62240763E+01</totfact>
</mgrwt>
</event>
<event>
13    1  0.1589573E-008  0.1419806E+03  0.7546771E-02  0.1299761E+00
          2   -1    0    0  503    0  0.00000000000E+00  0.00000000000E+00  0.40646380347E+03  0.40646380347E+03  0.00000000000E+00 0. -1.
         -3   -1    0    0    0  501 -0.00000000000E+00 -0.00000000000E+00 -0.12757948194E+04  0.12757948194E+04  0.00000000000E+00 0.  1.
         24    2    1    2    0    0  0.65245284963E+02  0.63812272177E+02 -0.57364969531E+03  0.58634732209E+03  0.80001599381E+02 0.  0.
         25    2    1    2    0    0  0.24010608641E+02  0.18085018964E+03  0.16086056393E+03  0.27347074541E+03  0.12500730838E+03 0.  0.
         24    2    1    2    0    0  0.26207292518E+02 -0.50652445430E+02 -0.16582641573E+03  0.19619064505E+03  0.87976568705E+02 0.  0.
        -11    1    5    5    0    0 -0.78799809862E+01 -0.58563271877E+02 -0.14214307843E+03  0.15393636887E+03  0.00000000000E+00 0.  1.
         12    1    5    5    0    0  0.34087273504E+02  0.79108264471E+01 -0.23683337295E+02  0.42254276180E+02  0.00000000000E+00 0. -1.
        -11    1    3    3    0    0  0.19482934912E+02  0.59259290929E+01 -0.35496513311E+03  0.35554879709E+03  0.00000000000E+00 0.  1.
         12    1    3    3    0    0  0.45762350051E+02  0.57886343085E+02 -0.21868456220E+03  0.23079852500E+03  0.00000000000E+00 0. -1.
          5    1    4    4  502    0  0.54895638665E+02  0.59011913221E+02  0.11303326469E+03  0.13890480903E+03  0.47000000000E+01 0.  1.
         -5    1    4    4    0  502 -0.30885030024E+02  0.12183827642E+03  0.47827299238E+02  0.13456593638E+03  0.47000000000E+01 0.  1.
          1    1    1    2  503    0  0.70519460269E+01 -0.58270141562E+02  0.14353473971E+03  0.15507211498E+03  0.00000000000E+00 0. -1.
         -4    1    1    2    0  501 -0.12251513215E+03 -0.13573987483E+03 -0.43425020855E+03  0.47117779537E+03  0.00000000000E+00 0.  1.
<mgrwt>
<rscale>  0 0.91288521E+02</rscale>
<asrwt>0</asrwt>
<pdfrwt beam="1">  1        2 0.59774088E-01 0.58695309E+02</pdfrwt>
<pdfrwt beam="2">  1       -3 0.18761689E+00 0.14198058E+03</pdfrwt>
<totfact> 0.98508270E+00</totfact>
</mgrwt>
</event>
<event>
13    1  0.1589573E-008  0.1777034E+03  0.7546771E-02  0.1251859E+00
          2   -1    0    0  503    0  0.00000000000E+00  0.00000000000E+00  0.19037198536E+04  0.19037198536E+04  0.00000000000E+00 0. -1.
          2   -1    0    0  502    0 -0.00000000000E+00 -0.00000000000E+00 -0.64552714110E+03  0.64552714110E+03  0.00000000000E+00 0. -1.
         24    2    1    2    0    0  0.52005533845E+02  0.35755762508E+02 -0.23531070666E+02  0.10350664921E+03  0.78593034299E+02 0.  0.
         25    2    1    2    0    0 -0.37265884764E+01 -0.11742520718E+03  0.87180424320E+03  0.88852335186E+03  0.12501416555E+03 0.  0.
         24    2    1    2    0    0 -0.60083628963E+00 -0.20841896676E+03  0.27290904859E+03  0.35160285878E+03  0.75540683016E+02 0.  0.
        -11    1    3    3    0    0  0.64913077585E+02  0.76520421492E+01 -0.12223808083E+01  0.65373967338E+02  0.00000000000E+00 0.  1.
         12    1    3    3    0    0 -0.12907543740E+02  0.28103720359E+02 -0.22308689858E+02  0.38132681870E+02  0.00000000000E+00 0. -1.
        -13    1    5    5    0    0 -0.31267921379E+02 -0.16632324995E+03  0.21704882530E+03  0.27522953865E+03  0.00000000000E+00 0.  1.
         14    1    5    5    0    0  0.30667085089E+02 -0.42095716806E+02  0.55860223284E+02  0.76373320123E+02  0.00000000000E+00 0. -1.
          5    1    4    4  501    0  0.10201030610E+02 -0.13917781720E+03  0.62943733365E+03  0.64473868568E+03  0.47000000000E+01 0. -1.
         -5    1    4    4    0  501 -0.13927619087E+02  0.21752610016E+02  0.24236690956E+03  0.24378466618E+03  0.47000000000E+01 0. -1.
          1    1    1    2  502    0  0.23316115506E+02  0.31171895903E+03 -0.48619119207E+03  0.57800884587E+03  0.00000000000E+00 0. -1.
          1    1    1    2  503    0 -0.70994224586E+02 -0.21630547604E+02  0.62320168349E+03  0.62760528903E+03  0.00000000000E+00 0. -1.
<mgrwt>
<rscale>  0 0.11484115E+03</rscale>
<asrwt>0</asrwt>
<pdfrwt beam="1">  1        2 0.27995880E+00 0.74216309E+02</pdfrwt>
<pdfrwt beam="2">  1        2 0.94930462E-01 0.17770339E+03</pdfrwt>
<totfact> 0.80645004E+01</totfact>
</mgrwt>
</event>
<event>
13    1  0.1589573E-008  0.1450435E+03  0.7546771E-02  0.1281281E+00
          2   -1    0    0  502    0  0.00000000000E+00  0.00000000000E+00  0.99142182037E+03  0.99142182037E+03  0.00000000000E+00 0. -1.
          4   -1    0    0  503    0 -0.00000000000E+00 -0.00000000000E+00 -0.19412129961E+03  0.19412129961E+03  0.00000000000E+00 0. -1.
         24    2    1    2    0    0 -0.29588273795E+02 -0.38634120027E+02  0.10237071523E+03  0.13900091750E+03  0.80457632024E+02 0.  0.
         25    2    1    2    0    0 -0.11708857647E+03 -0.87503249513E+02  0.12907088126E+03  0.23162661756E+03  0.12500017663E+03 0.  0.
         24    2    1    2    0    0  0.19919550931E+02  0.32488820620E+02  0.15864613786E+03  0.18336195285E+03  0.83670166247E+02 0.  0.
        -11    1    5    5    0    0  0.41869993821E+02  0.24475134376E+01  0.12942925773E+03  0.13605520740E+03  0.00000000000E+00 0.  1.
         12    1    5    5    0    0 -0.21950442890E+02  0.30041307182E+02  0.29216880131E+02  0.47306745448E+02  0.00000000000E+00 0. -1.
        -13    1    3    3    0    0  0.27312932594E+02 -0.59475791789E+01  0.24523313945E+02  0.37185520191E+02  0.00000000000E+00 0.  1.
         14    1    3    3    0    0 -0.56901206389E+02 -0.32686540848E+02  0.77847401287E+02  0.10181539730E+03  0.00000000000E+00 0. -1.
          5    1    4    4  501    0 -0.22605384480E+02 -0.79888161514E+01  0.10230578410E+03  0.10518264140E+03  0.47000000000E+01 0.  1.
         -5    1    4    4    0  501 -0.94483191989E+02 -0.79514433362E+02  0.26765097161E+02  0.12644397616E+03  0.47000000000E+01 0.  1.
          1    1    1    2  502    0 -0.18534261492E+02  0.65739841860E+02  0.46701005187E+03  0.47197842558E+03  0.00000000000E+00 0. -1.
          3    1    1    2  503    0  0.14529156082E+03  0.27908707060E+02 -0.59797265466E+02  0.15957520651E+03  0.00000000000E+00 0. -1.
<mgrwt>
<rscale>  0 0.99533152E+02</rscale>
<asrwt>0</asrwt>
<pdfrwt beam="1">  1        2 0.14579732E+00 0.68302604E+02</pdfrwt>
<pdfrwt beam="2">  1        4 0.28547250E-01 0.14504350E+03</pdfrwt>
<totfact> 0.18115617E+02</totfact>
</mgrwt>
</event>
<event>
13    1  0.1589573E-008  0.1345033E+03  0.7546771E-02  0.1311599E+00
          2   -1    0    0  502    0  0.00000000000E+00  0.00000000000E+00  0.19006847904E+04  0.19006847904E+04  0.00000000000E+00 0. -1.
          2   -1    0    0  503    0 -0.00000000000E+00 -0.00000000000E+00 -0.20523450804E+04  0.20523450804E+04  0.00000000000E+00 0. -1.
         24    2    1    2    0    0 -0.27568670412E+02  0.16004150307E+02 -0.12767094980E+03  0.15407398279E+03  0.80142100878E+02 0.  0.
         25    2    1    2    0    0 -0.51609230916E+02 -0.19284318204E+03  0.43071620957E+03  0.49091159448E+03  0.12500293930E+03 0.  0.
         24    2    1    2    0    0  0.87072364859E+00 -0.28849924116E+02 -0.21058942501E+03  0.22817993040E+03  0.82976493254E+02 0.  0.
        -11    1    3    3    0    0 -0.26117338518E+02 -0.30154713836E+02 -0.54300116517E+02  0.67378964013E+02  0.00000000000E+00 0.  1.
         12    1    3    3    0    0 -0.14513318939E+01  0.46158864142E+02 -0.73370833288E+02  0.86695018776E+02  0.00000000000E+00 0. -1.
        -13    1    5    5    0    0  0.36907836850E+02 -0.17975514655E+02 -0.15963714822E+03  0.16483120651E+03  0.00000000000E+00 0.  1.
         14    1    5    5    0    0 -0.36037113201E+02 -0.10874409461E+02 -0.50952276789E+02  0.63348723894E+02  0.00000000000E+00 0. -1.
          5    1    4    4  501    0 -0.51792612818E+02 -0.12060988073E+03  0.14272771788E+03  0.19396522761E+03  0.47000000000E+01 0. -1.
         -5    1    4    4    0  501  0.18338190263E+00 -0.72233301304E+02  0.28798849169E+03  0.29694636686E+03  0.47000000000E+01 0. -1.
          1    1    1    2  502    0 -0.43305678764E+02  0.34882363578E+02  0.14107109297E+04  0.14118064628E+04  0.00000000000E+00 0. -1.
          1    1    1    2  503    0  0.12161285644E+03  0.17080659227E+03 -0.16548270544E+04  0.16680579003E+04  0.00000000000E+00 0. -1.
<mgrwt>
<rscale>  0 0.86483255E+02</rscale>
<asrwt>0</asrwt>
<pdfrwt beam="1">  1        2 0.27951247E+00 0.55607204E+02</pdfrwt>
<pdfrwt beam="2">  1        2 0.30181545E+00 0.13450332E+03</pdfrwt>
<totfact> 0.14175046E+01</totfact>
</mgrwt>
</event>
<event>
13    1  0.1589573E-008  0.8175244E+02  0.7546771E-02  0.1333370E+00
          2   -1    0    0  502    0  0.00000000000E+00  0.00000000000E+00  0.18258962645E+04  0.18258962645E+04  0.00000000000E+00 0. -1.
          2   -1    0    0  503    0 -0.00000000000E+00 -0.00000000000E+00 -0.80787816812E+03  0.80787816812E+03  0.00000000000E+00 0. -1.
         24    2    1    2    0    0  0.26596477778E+02  0.66518856442E+02  0.32461024187E+03  0.34219564261E+03  0.81202942073E+02 0.  0.
         25    2    1    2    0    0 -0.24947798504E+03 -0.23069765343E+03  0.52169022601E+02  0.36579503810E+03  0.12499492255E+03 0.  0.
         24    2    1    2    0    0  0.22560419306E+03  0.17028557687E+03  0.15199646367E+03  0.33015078943E+03  0.77473796723E+02 0.  0.
        -13    1    3    3    0    0 -0.45659694520E+01 -0.96798660098E+00 -0.34596324244E+01  0.58098306006E+01  0.00000000000E+00 0.  1.
         14    1    3    3    0    0  0.31162447230E+02  0.67486843043E+02  0.32806987430E+03  0.33638581201E+03  0.00000000000E+00 0. -1.
        -13    1    5    5    0    0  0.22524048174E+03  0.14532019658E+03  0.14092115601E+03  0.30283660010E+03  0.00000000000E+00 0.  1.
         14    1    5    5    0    0  0.36371131710E+00  0.24965380295E+02  0.11075307660E+02  0.27314189334E+02  0.00000000000E+00 0. -1.
          5    1    4    4  501    0 -0.23137596422E+03 -0.20487699177E+03  0.53210978022E+01  0.30912751844E+03  0.47000000000E+01 0.  1.
         -5    1    4    4    0  501 -0.18102020813E+02 -0.25820661662E+02  0.46847924799E+02  0.56667519658E+02  0.47000000000E+01 0.  1.
          1    1    1    2  502    0  0.26039788995E+02  0.70731036795E+02  0.10380216934E+04  0.10407545274E+04  0.00000000000E+00 0. -1.
          1    1    1    2  503    0 -0.28762474795E+02 -0.76837816679E+02 -0.54877932519E+03  0.55487843514E+03  0.00000000000E+00 0. -1.
<mgrwt>
<rscale>  0 0.78497463E+02</rscale>
<asrwt>0</asrwt>
<pdfrwt beam="1">  1        2 0.26851416E+00 0.75372078E+02</pdfrwt>
<pdfrwt beam="2">  1        2 0.11880561E+00 0.81752445E+02</pdfrwt>
<totfact> 0.68886074E+01</totfact>
</mgrwt>
</event>
<event>
13    1  0.1589573E-008  0.2062178E+03  0.7546771E-02  0.1250830E+00
         -1   -1    0    0    0  501 -0.00000000000E+00  0.00000000000E+00  0.68027381022E+03  0.68027381022E+03  0.00000000000E+00 0.  1.
          2   -1    0    0  503    0  0.00000000000E+00 -0.00000000000E+00 -0.20221983902E+04  0.20221983902E+04  0.00000000000E+00 0. -1.
         24    2    1    2    0    0  0.16779068454E+01  0.16841311321E+03 -0.86615794092E+01  0.18678939085E+03  0.80308539426E+02 0.  0.
         25    2    1    2    0    0  0.18908098616E+03 -0.39367646775E+02 -0.49508329170E+03  0.54592534134E+03  0.12500232658E+03 0.  0.
         24    2    1    2    0    0 -0.49444617711E+02  0.40262706988E+02 -0.15360259210E+03  0.18450301613E+03  0.79885861495E+02 0.  0.
        -11    1    3    3    0    0  0.19361884132E+02  0.12482271884E+03 -0.37311328311E+02  0.13171077753E+03  0.00000000000E+00 0.  1.
         12    1    3    3    0    0 -0.17683977287E+02  0.43590394367E+02  0.28649748901E+02  0.55078613326E+02  0.00000000000E+00 0. -1.
        -11    1    5    5    0    0 -0.61998411065E+02  0.51187229455E+02 -0.14493125131E+03  0.16573775381E+03  0.00000000000E+00 0.  1.
         12    1    5    5    0    0  0.12553793354E+02 -0.10924522467E+02 -0.86713407967E+01  0.18765262320E+02  0.00000000000E+00 0. -1.
          5    1    4    4  502    0  0.17138698402E+03 -0.75265862908E+02 -0.37294331081E+03  0.41730953918E+03  0.47000000000E+01 0. -1.
         -5    1    4    4    0  502  0.17694002148E+02  0.35898216133E+02 -0.12213998089E+03  0.12861580216E+03  0.47000000000E+01 0. -1.
          1    1    1    2  503    0 -0.56970221794E+02  0.30483419336E+02 -0.12126578831E+04  0.12143780245E+04  0.00000000000E+00 0. -1.
         -2    1    1    2    0  501 -0.84344053504E+02 -0.19979159276E+03  0.52808076628E+03  0.57087642762E+03  0.00000000000E+00 0.  1.
<mgrwt>
<rscale>  0 0.11543118E+03</rscale>
<asrwt>0</asrwt>
<pdfrwt beam="2">  1        2 0.29738211E+00 0.64613041E+02</pdfrwt>
<pdfrwt beam="1">  1       -1 0.10004027E+00 0.20621777E+03</pdfrwt>
<totfact> 0.11022023E+01</totfact>
</mgrwt>
</event>
<event>
13    1  0.1589573E-008  0.6971521E+02  0.7546771E-02  0.1390721E+00
          2   -1    0    0  503    0  0.00000000000E+00  0.00000000000E+00  0.80132311447E+03  0.80132311447E+03  0.00000000000E+00 0. -1.
          2   -1    0    0  502    0 -0.00000000000E+00 -0.00000000000E+00 -0.19136661447E+04  0.19136661447E+04  0.00000000000E+00 0. -1.
         24    2    1    2    0    0 -0.72387213785E+02  0.78057068913E+02 -0.12226442371E+04  0.12298576583E+04  0.79737784607E+02 0.  0.
         25    2    1    2    0    0  0.29016940527E+02 -0.71653616224E+02  0.49128469376E+03  0.51279847593E+03  0.12500161212E+03 0.  0.
         24    2    1    2    0    0 -0.70955068702E+02 -0.41881810456E+02  0.12649365830E+03  0.17113094176E+03  0.80600532355E+02 0.  0.
        -11    1    3    3    0    0  0.17363549943E+02  0.12916801753E+02 -0.16432245901E+03  0.16574138641E+03  0.00000000000E+00 0.  1.
         12    1    3    3    0    0 -0.89750763728E+02  0.65140267160E+02 -0.10583217781E+04  0.10641162719E+04  0.00000000000E+00 0. -1.
        -11    1    5    5    0    0  0.11218539007E+02 -0.10699587872E+02 -0.18123629593E+01  0.15608377801E+02  0.00000000000E+00 0.  1.
         12    1    5    5    0    0 -0.82173607709E+02 -0.31182222583E+02  0.12830602125E+03  0.15552256396E+03  0.00000000000E+00 0. -1.
          5    1    4    4  501    0 -0.39311189391E+02 -0.40966328414E+02  0.10667634036E+03  0.12093610407E+03  0.47000000000E+01 0.  1.
         -5    1    4    4    0  501  0.68328129918E+02 -0.30687287810E+02  0.38460835340E+03  0.39186237186E+03  0.47000000000E+01 0.  1.
          1    1    1    2  502    0  0.54655348320E+02  0.23726740209E-01 -0.64491793531E+03  0.64722975129E+03  0.00000000000E+00 0. -1.
          1    1    1    2  503    0  0.59669993641E+02  0.35454631026E+02  0.13744079014E+03  0.15397243194E+03  0.00000000000E+00 0. -1.
<mgrwt>
<rscale>  0 0.61727702E+02</rscale>
<asrwt>0</asrwt>
<pdfrwt beam="1">  1        2 0.11784163E+00 0.69715206E+02</pdfrwt>
<pdfrwt beam="2">  1        2 0.28142149E+00 0.54655353E+02</pdfrwt>
<totfact> 0.65726856E+01</totfact>
</mgrwt>
</event>
<event>
13    1  0.1589573E-008  0.4961358E+02  0.7546771E-02  0.1518684E+00
          2   -1    0    0  502    0  0.00000000000E+00  0.00000000000E+00  0.15628538886E+04  0.15628538886E+04  0.00000000000E+00 0. -1.
          2   -1    0    0  503    0 -0.00000000000E+00 -0.00000000000E+00 -0.63806117955E+03  0.63806117955E+03  0.00000000000E+00 0. -1.
         24    2    1    2    0    0  0.33448008007E+02  0.78111374871E+02 -0.30164796174E+03  0.32302467814E+03  0.78315348066E+02 0.  0.
         25    2    1    2    0    0 -0.12803482260E+03 -0.82835476551E+01  0.11221350885E+04  0.11363425990E+04  0.12500325016E+03 0.  0.
         24    2    1    2    0    0  0.31383038732E+02 -0.11705551736E+03  0.14761396457E+03  0.20737369810E+03  0.80790338936E+02 0.  0.
        -13    1    3    3    0    0 -0.16483832677E+01  0.24154772676E+02 -0.13388485738E+02  0.27666256718E+02  0.00000000000E+00 0.  1.
         14    1    3    3    0    0  0.35096391274E+02  0.53956602195E+02 -0.28825947600E+03  0.29535842142E+03  0.00000000000E+00 0. -1.
        -13    1    5    5    0    0  0.29573033617E+02 -0.12004087500E+03  0.15555440925E+03  0.19869964827E+03  0.00000000000E+00 0.  1.
         14    1    5    5    0    0  0.18100051150E+01  0.29853576375E+01 -0.79404446803E+01  0.86740498304E+01  0.00000000000E+00 0. -1.
          5    1    4    4  501    0 -0.17750000045E+02  0.36627415877E+02  0.11306474001E+03  0.12025953405E+03  0.47000000000E+01 0. -1.
         -5    1    4    4    0  501 -0.11028482255E+03 -0.44910963532E+02  0.10090703485E+04  0.10160830650E+04  0.47000000000E+01 0. -1.
          1    1    1    2  502    0  0.20622981300E+02  0.21855517981E+02  0.24237093011E+03  0.24422661359E+03  0.00000000000E+00 0. -1.
          1    1    1    2  503    0  0.42580794556E+02  0.25372172164E+02 -0.28567931242E+03  0.28994747926E+03  0.00000000000E+00 0. -1.
<mgrwt>
<rscale>  0 0.38611684E+02</rscale>
<asrwt>0</asrwt>
<pdfrwt beam="1">  1        2 0.22983145E+00 0.30049476E+02</pdfrwt>
<pdfrwt beam="2">  1        2 0.93832526E-01 0.49613583E+02</pdfrwt>
<totfact> 0.13251175E+02</totfact>
</mgrwt>
</event>
<event>
13    1  0.1589573E-008  0.8030427E+02  0.7546771E-02  0.1428157E+00
         -1   -1    0    0    0  501 -0.00000000000E+00  0.00000000000E+00  0.13907446762E+04  0.13907446762E+04  0.00000000000E+00 0.  1.
          2   -1    0    0  503    0  0.00000000000E+00 -0.00000000000E+00 -0.14309074319E+04  0.14309074319E+04  0.00000000000E+00 0. -1.
         24    2    1    2    0    0  0.32145286369E+02 -0.31376469643E+01  0.20302807558E+03  0.22065799973E+03  0.80164762247E+02 0.  0.
         25    2    1    2    0    0  0.11040593949E+03 -0.47852740709E+02 -0.85320048562E+03  0.87066472194E+03  0.12500653222E+03 0.  0.
         24    2    1    2    0    0 -0.94941211460E+02  0.11584214623E+02  0.43401886957E+02  0.13241747729E+03  0.80638928801E+02 0.  0.
        -11    1    5    5    0    0  0.87688765246E+01 -0.18271390142E+01 -0.11284988686E+02  0.14407727167E+02  0.00000000000E+00 0.  1.
         12    1    5    5    0    0 -0.10371008798E+03  0.13411353637E+02  0.54686875643E+02  0.11800975012E+03  0.00000000000E+00 0. -1.
        -13    1    3    3    0    0  0.28682278404E+01 -0.35837537807E+02  0.50843051850E+02  0.62270151505E+02  0.00000000000E+00 0.  1.
         14    1    3    3    0    0  0.29277058529E+02  0.32699890842E+02  0.15218502373E+03  0.15838784822E+03  0.00000000000E+00 0. -1.
          5    1    4    4  502    0  0.98699041600E+02 -0.77009596392E+02 -0.79060543620E+03  0.80046925268E+03  0.47000000000E+01 0.  1.
         -5    1    4    4    0  502  0.11706897893E+02  0.29156855683E+02 -0.62595049422E+02  0.70195469253E+02  0.47000000000E+01 0.  1.
          1    1    1    2  503    0  0.26175663641E+02 -0.23860591816E+02 -0.51285780344E+03  0.51407939052E+03  0.00000000000E+00 0. -1.
         -2    1    1    2    0  501 -0.73785678044E+02  0.63266764867E+02  0.10794655709E+04  0.10838325187E+04  0.00000000000E+00 0.  1.
<mgrwt>
<rscale>  0 0.53331819E+02</rscale>
<asrwt>0</asrwt>
<pdfrwt beam="2">  1        2 0.21042756E+00 0.35418826E+02</pdfrwt>
<pdfrwt beam="1">  1       -1 0.20452128E+00 0.80304269E+02</pdfrwt>
<totfact> 0.37572627E+00</totfact>
</mgrwt>
</event>
<event>
13    1  0.1589573E-008  0.1411554E+03  0.7546771E-02  0.1298217E+00
         -1   -1    0    0    0  501 -0.00000000000E+00  0.00000000000E+00  0.27156129501E+04  0.27156129501E+04  0.00000000000E+00 0.  1.
          4   -1    0    0  503    0  0.00000000000E+00 -0.00000000000E+00 -0.12606733172E+04  0.12606733172E+04  0.00000000000E+00 0. -1.
         24    2    1    2    0    0  0.26246108730E+02  0.25901951786E+03  0.49981457078E+03  0.56966551663E+03  0.83211939127E+02 0.  0.
         25    2    1    2    0    0 -0.12926708493E+03 -0.14541450927E+03 -0.18649178339E+03  0.29707365176E+03  0.12497283925E+03 0.  0.
         24    2    1    2    0    0  0.18220088944E+02  0.63918501165E+02  0.41054879680E+02  0.11386407792E+03  0.82837060925E+02 0.  0.
        -11    1    5    5    0    0  0.10105398952E+02  0.81298271018E+02  0.18008138759E+02  0.83879801025E+02  0.00000000000E+00 0.  1.
         12    1    5    5    0    0  0.81146899920E+01 -0.17379769853E+02  0.23046740921E+02  0.29984276895E+02  0.00000000000E+00 0. -1.
        -13    1    3    3    0    0 -0.14514125892E+02  0.78650911926E+02  0.22171253030E+03  0.23569699168E+03  0.00000000000E+00 0.  1.
         14    1    3    3    0    0  0.40760234622E+02  0.18036860593E+03  0.27810204049E+03  0.33396852495E+03  0.00000000000E+00 0. -1.
          5    1    4    4  502    0 -0.60256244621E+02  0.15273597006E+01 -0.18066513277E+02  0.63100211928E+02  0.47000000000E+01 0. -1.
         -5    1    4    4    0  502 -0.69010840307E+02 -0.14694186897E+03 -0.16842527011E+03  0.23397343983E+03  0.47000000000E+01 0. -1.
          3    1    1    2  503    0  0.77083317137E+01 -0.59387742837E+02 -0.94418179931E+03  0.94607906251E+03  0.00000000000E+00 0. -1.
         -2    1    1    2    0  501  0.77092555540E+02 -0.11813576692E+03  0.20447437651E+04  0.20496039585E+04  0.00000000000E+00 0.  1.
<mgrwt>
<rscale>  0 0.91941406E+02</rscale>
<asrwt>0</asrwt>
<pdfrwt beam="2">  1        4 0.18539313E+00 0.59885911E+02</pdfrwt>
<pdfrwt beam="1">  1       -1 0.39935485E+00 0.14115544E+03</pdfrwt>
<totfact> 0.69390615E-03</totfact>
</mgrwt>
</event>
<event>
13    1  0.1589573E-008  0.1015342E+03  0.7546771E-02  0.1441980E+00
          2   -1    0    0  502    0  0.00000000000E+00  0.00000000000E+00  0.18607363119E+04  0.18607363119E+04  0.00000000000E+00 0. -1.
          2   -1    0    0  503    0 -0.00000000000E+00 -0.00000000000E+00 -0.97927081997E+03  0.97927081997E+03  0.00000000000E+00 0. -1.
         24    2    1    2    0    0 -0.62173395677E+02  0.12035787710E+02 -0.26391915887E+03  0.28264569538E+03  0.78897879484E+02 0.  0.
         25    2    1    2    0    0  0.93186470033E+02 -0.14913913454E+03  0.70227253797E+03  0.73466876944E+03  0.12500113422E+03 0.  0.
         24    2    1    2    0    0  0.18862208422E+02  0.40985681841E+01 -0.27329744270E+02  0.88326448308E+02  0.81743901186E+02 0.  0.
        -11    1    5    5    0    0 -0.10707943577E+02  0.35774895870E+02 -0.47427158129E+00  0.37346059547E+02  0.00000000000E+00 0.  1.
         12    1    5    5    0    0  0.29570151999E+02 -0.31676327686E+02 -0.26855472689E+02  0.50980388761E+02  0.00000000000E+00 0. -1.
        -11    1    3    3    0    0  0.10038211945E+02  0.23217745561E+02 -0.10048458593E+03  0.10361940657E+03  0.00000000000E+00 0.  1.
         12    1    3    3    0    0 -0.72211607621E+02 -0.11181957851E+02 -0.16343457294E+03  0.17902628882E+03  0.00000000000E+00 0. -1.
          5    1    4    4  501    0  0.41548744573E+02 -0.44361139865E+02  0.47689035028E+03  0.48077094868E+03  0.47000000000E+01 0. -1.
         -5    1    4    4    0  501  0.51637725460E+02 -0.10477799467E+03  0.22538218770E+03  0.25389782076E+03  0.47000000000E+01 0. -1.
          1    1    1    2  502    0 -0.19922373904E+02  0.15505567119E+02  0.10964408994E+04  0.10967314938E+04  0.00000000000E+00 0. -1.
          1    1    1    2  503    0 -0.29952908874E+02  0.11749921152E+03 -0.62599904232E+03  0.63763472493E+03  0.00000000000E+00 0. -1.
<mgrwt>
<rscale>  0 0.50628621E+02</rscale>
<asrwt>0</asrwt>
<pdfrwt beam="1">  1        2 0.27363769E+00 0.25245269E+02</pdfrwt>
<pdfrwt beam="2">  1        2 0.14401041E+00 0.10153416E+03</pdfrwt>
<totfact> 0.58030482E+01</totfact>
</mgrwt>
</event>
<event>
13    1  0.1589573E-008  0.4385477E+02  0.7546771E-02  0.1522908E+00
          2   -1    0    0  502    0  0.00000000000E+00  0.00000000000E+00  0.42010159000E+04  0.42010159000E+04  0.00000000000E+00 0. -1.
          2   -1    0    0  503    0 -0.00000000000E+00 -0.00000000000E+00 -0.36357158074E+04  0.36357158074E+04  0.00000000000E+00 0. -1.
         24    2    1    2    0    0  0.13204906857E+04  0.16214936753E+03 -0.61913642003E+03  0.14695585869E+04  0.79274620656E+02 0.  0.
         25    2    1    2    0    0 -0.13658293338E+04 -0.94336326067E+03  0.66961893295E+03  0.17942790998E+04  0.12499584807E+03 0.  0.
         24    2    1    2    0    0  0.55739105657E+02  0.72809900524E+03 -0.60283429186E+02  0.73704728132E+03  0.79809734611E+02 0.  0.
        -11    1    3    3    0    0  0.10669779754E+04  0.15284681673E+03 -0.47617822575E+03  0.11783674521E+04  0.00000000000E+00 0.  1.
         12    1    3    3    0    0  0.25351271025E+03  0.93025508007E+01 -0.14295819429E+03  0.29119113486E+03  0.00000000000E+00 0. -1.
        -13    1    5    5    0    0  0.19697306022E+02  0.33769386780E+03 -0.67400911729E+02  0.34491740332E+03  0.00000000000E+00 0.  1.
         14    1    5    5    0    0  0.36041799635E+02  0.39040513744E+03  0.71174825430E+01  0.39212987800E+03  0.00000000000E+00 0. -1.
          5    1    4    4  501    0 -0.49122652900E+02 -0.48198121676E+02  0.52475751573E+02  0.86671151280E+02  0.47000000000E+01 0. -1.
         -5    1    4    4    0  501 -0.13167066809E+04 -0.89516513900E+03  0.61714318137E+03  0.17076079486E+04  0.47000000000E+01 0. -1.
          1    1    1    2  502    0  0.19593287277E+02  0.39234594243E+02  0.22050883360E+04  0.22055243866E+04  0.00000000000E+00 0. -1.
          1    1    1    2  503    0 -0.29993744784E+02  0.13880293658E+02 -0.16299873271E+04  0.16303223527E+04  0.00000000000E+00 0. -1.
<mgrwt>
<rscale>  0 0.38070856E+02</rscale>
<asrwt>0</asrwt>
<pdfrwt beam="1">  1        2 0.61779645E+00 0.43854771E+02</pdfrwt>
<pdfrwt beam="2">  1        2 0.53466409E+00 0.33049770E+02</pdfrwt>
<totfact> 0.15949275E-01</totfact>
</mgrwt>
</event>
<event>
13    1  0.1589573E-008  0.2171637E+03  0.7546771E-02  0.1136944E+00
          2   -1    0    0  503    0  0.00000000000E+00  0.00000000000E+00  0.23973725824E+04  0.23973725824E+04  0.00000000000E+00 0. -1.
          2   -1    0    0  502    0 -0.00000000000E+00 -0.00000000000E+00 -0.17476090216E+04  0.17476090216E+04  0.00000000000E+00 0. -1.
         24    2    1    2    0    0  0.58276988773E+03  0.47651080689E+03  0.10408941452E+04  0.12893026521E+04  0.11026067345E+03 0.  0.
         25    2    1    2    0    0  0.11198682962E+03 -0.26849023236E+03 -0.26537024084E+03  0.41312696427E+03  0.12499787598E+03 0.  0.
         24    2    1    2    0    0 -0.44943581327E+03 -0.78168684875E+02 -0.42251566978E+02  0.46516197920E+03  0.80545505392E+02 0.  0.
        -11    1    5    5    0    0 -0.16663142777E+03  0.32588412167E+01  0.68317041795E+01  0.16680325222E+03  0.00000000000E+00 0.  1.
         12    1    5    5    0    0 -0.28280438550E+03 -0.81427526091E+02 -0.49083271157E+02  0.29835872699E+03  0.00000000000E+00 0. -1.
        -11    1    3    3    0    0  0.16362235374E+03  0.13213953578E+03  0.21160449938E+03  0.29834475983E+03  0.00000000000E+00 0.  1.
         12    1    3    3    0    0  0.41914753399E+03  0.34437127111E+03  0.82928964583E+03  0.99095789229E+03  0.00000000000E+00 0. -1.
          5    1    4    4  501    0  0.11743724236E+03 -0.14549069397E+03 -0.11846638309E+03  0.22139426787E+03  0.47000000000E+01 0. -1.
         -5    1    4    4    0  501 -0.54504127415E+01 -0.12299953840E+03 -0.14690385776E+03  0.19173269640E+03  0.47000000000E+01 0. -1.
          1    1    1    2  502    0 -0.20201966719E+03  0.80468065999E+02 -0.10065136860E+04  0.10297363039E+04  0.00000000000E+00 0. -1.
          1    1    1    2  503    0 -0.43301236885E+02 -0.21031995565E+03  0.92300490940E+03  0.94765370449E+03  0.00000000000E+00 0. -1.
<mgrwt>
<rscale>  0 0.21594404E+03</rscale>
<asrwt>0</asrwt>
<pdfrwt beam="1">  1        2 0.35255479E+00 0.21473118E+03</pdfrwt>
<pdfrwt beam="2">  1        2 0.25700133E+00 0.21716375E+03</pdfrwt>
<totfact> 0.94700016E+00</totfact>
</mgrwt>
</event>
<event>
13    1  0.1589573E-008  0.1843090E+03  0.7546771E-02  0.1268221E+00
          2   -1    0    0  502    0  0.00000000000E+00  0.00000000000E+00  0.94857180009E+03  0.94857180009E+03  0.00000000000E+00 0. -1.
          2   -1    0    0  503    0 -0.00000000000E+00 -0.00000000000E+00 -0.35817874670E+04  0.35817874670E+04  0.00000000000E+00 0. -1.
         24    2    1    2    0    0 -0.56026659002E+02  0.66798080101E+02 -0.23166848630E+03  0.26012170345E+03  0.79950253525E+02 0.  0.
         25    2    1    2    0    0  0.25872978357E+03  0.20413249123E+03  0.45078645454E+03  0.57222726486E+03  0.12499776067E+03 0.  0.
         24    2    1    2    0    0  0.69697269850E+01  0.10284719213E+02  0.67927845221E+02  0.10592235749E+03  0.80318124459E+02 0.  0.
        -11    1    5    5    0    0 -0.13477857141E+02 -0.26915549597E+02  0.52949584321E+02  0.60907782121E+02  0.00000000000E+00 0.  1.
         12    1    5    5    0    0  0.20447584126E+02  0.37200268810E+02  0.14978260900E+02  0.45014575369E+02  0.00000000000E+00 0. -1.
        -11    1    3    3    0    0 -0.12290524116E+02  0.34953068591E+02 -0.20939342070E+02  0.42558548299E+02  0.00000000000E+00 0.  1.
         12    1    3    3    0    0 -0.43736134887E+02  0.31845011510E+02 -0.21072914423E+03  0.21756315515E+03  0.00000000000E+00 0. -1.
          5    1    4    4  501    0  0.25351836961E+03  0.14725140782E+03  0.39769321068E+03  0.49410173108E+03  0.47000000000E+01 0. -1.
         -5    1    4    4    0  501  0.52114139624E+01  0.56881083409E+02  0.53093243866E+02  0.78125533787E+02  0.47000000000E+01 0. -1.
          1    1    1    2  502    0 -0.28039274673E+02 -0.54092778800E+02  0.32659684820E+03  0.33223144176E+03  0.00000000000E+00 0. -1.
          1    1    1    2  503    0 -0.18163357688E+03 -0.22712251174E+03 -0.32468583286E+04  0.32598564995E+04  0.00000000000E+00 0. -1.
<mgrwt>
<rscale>  0 0.10596977E+03</rscale>
<asrwt>0</asrwt>
<pdfrwt beam="1">  1        2 0.13949586E+00 0.60928069E+02</pdfrwt>
<pdfrwt beam="2">  1        2 0.52673344E+00 0.18430900E+03</pdfrwt>
<totfact> 0.61139944E+00</totfact>
</mgrwt>
</event>
<event>
13    1  0.1589573E-008  0.5740134E+02  0.7546771E-02  0.1442993E+00
          2   -1    0    0  502    0  0.00000000000E+00  0.00000000000E+00  0.36957663605E+04  0.36957663605E+04  0.00000000000E+00 0. -1.
          2   -1    0    0  503    0 -0.00000000000E+00 -0.00000000000E+00 -0.13812722240E+04  0.13812722240E+04  0.00000000000E+00 0. -1.
         24    2    1    2    0    0  0.51014270966E+03  0.45398948915E+03 -0.30782913633E+03  0.75580368681E+03  0.10063992917E+03 0.  0.
         25    2    1    2    0    0 -0.50795081159E+03 -0.42327640202E+03  0.10099084061E+04  0.12135554547E+04  0.12499965399E+03 0.  0.
         24    2    1    2    0    0  0.15472000156E+02  0.45033675212E+02 -0.30237361813E+01  0.95332087781E+02  0.82532716472E+02 0.  0.
        -11    1    5    5    0    0 -0.26421950907E+02  0.46243388912E+02  0.61499608149E+00  0.53263014635E+02  0.00000000000E+00 0.  1.
         12    1    5    5    0    0  0.41893951064E+02 -0.12097136996E+01 -0.36387322628E+01  0.42069073147E+02  0.00000000000E+00 0. -1.
        -13    1    3    3    0    0  0.45616785143E+03  0.38065176395E+03 -0.23388778644E+03  0.63850479302E+03  0.00000000000E+00 0.  1.
         14    1    3    3    0    0  0.53974858235E+02  0.73337725205E+02 -0.73941349889E+02  0.11729889378E+03  0.00000000000E+00 0. -1.
          5    1    4    4  501    0 -0.11385925264E+02 -0.49226161597E+02  0.64919164098E+02  0.82398071257E+02  0.47000000000E+01 0. -1.
         -5    1    4    4    0  501 -0.49656488633E+03 -0.37405024042E+03  0.94498924196E+03  0.11311573834E+04  0.47000000000E+01 0. -1.
          1    1    1    2  502    0 -0.38352949112E+02 -0.22209845442E+02  0.23125011741E+04  0.23129258324E+04  0.00000000000E+00 0. -1.
          1    1    1    2  503    0  0.20689050887E+02 -0.53536916902E+02 -0.69706257118E+03  0.69942152271E+03  0.00000000000E+00 0. -1.
<mgrwt>
<rscale>  0 0.50438120E+02</rscale>
<asrwt>0</asrwt>
<pdfrwt beam="1">  1        2 0.54349505E+00 0.44319589E+02</pdfrwt>
<pdfrwt beam="2">  1        2 0.20312827E+00 0.57401345E+02</pdfrwt>
<totfact> 0.40629118E+00</totfact>
</mgrwt>
</event>
<event>
13    1  0.1589573E-008  0.9005089E+02  0.7546771E-02  0.1347977E+00
          2   -1    0    0  503    0  0.00000000000E+00  0.00000000000E+00  0.13792795764E+04  0.13792795764E+04  0.00000000000E+00 0. -1.
          2   -1    0    0  502    0 -0.00000000000E+00 -0.00000000000E+00 -0.10058119161E+04  0.10058119161E+04  0.00000000000E+00 0. -1.
         24    2    1    2    0    0  0.44120162533E+02 -0.24991806008E+03 -0.15077881242E+03  0.30625011072E+03  0.81542961363E+02 0.  0.
         25    2    1    2    0    0 -0.10666846811E+03  0.10286787086E+03  0.19720658624E+03  0.27654332452E+03  0.12500324690E+03 0.  0.
         24    2    1    2    0    0  0.15663021332E+03  0.31724688648E+02 -0.92712797613E+02  0.20197097295E+03  0.81591246337E+02 0.  0.
        -11    1    5    5    0    0  0.12211964166E+03  0.57991164613E+02 -0.78521418372E+02  0.15633871944E+03  0.00000000000E+00 0.  1.
         12    1    5    5    0    0  0.34510571665E+02 -0.26266475964E+02 -0.14191379242E+02  0.45632253517E+02  0.00000000000E+00 0. -1.
        -11    1    3    3    0    0  0.18510834379E+01 -0.10005507402E+02  0.10081746128E+02  0.14324045981E+02  0.00000000000E+00 0.  1.
         12    1    3    3    0    0  0.42269079095E+02 -0.23991255268E+03 -0.16086055855E+03  0.29192606474E+03  0.00000000000E+00 0. -1.
          5    1    4    4  501    0  0.15811642444E+02  0.62569444338E+02  0.60988439935E+02  0.88919194819E+02  0.47000000000E+01 0. -1.
         -5    1    4    4    0  501 -0.12248011056E+03  0.40298426518E+02  0.13621814630E+03  0.18762412970E+03  0.47000000000E+01 0. -1.
          1    1    1    2  502    0 -0.49824283183E+02  0.74368064684E+02 -0.58598521934E+03  0.59278305097E+03  0.00000000000E+00 0. -1.
          1    1    1    2  503    0 -0.44257624560E+02  0.40957435888E+02  0.10057379034E+04  0.10075440333E+04  0.00000000000E+00 0. -1.
<mgrwt>
<rscale>  0 0.73689803E+02</rscale>
<asrwt>0</asrwt>
<pdfrwt beam="1">  1        2 0.20283523E+00 0.60301317E+02</pdfrwt>
<pdfrwt beam="2">  1        2 0.14791352E+00 0.90050887E+02</pdfrwt>
<totfact> 0.87069460E+01</totfact>
</mgrwt>
</event>
<event>
13    1  0.1589573E-008  0.1767082E+03  0.7546771E-02  0.1190124E+00
          2   -1    0    0  502    0  0.00000000000E+00  0.00000000000E+00  0.28121368190E+04  0.28121368190E+04  0.00000000000E+00 0. -1.
          2   -1    0    0  503    0 -0.00000000000E+00 -0.00000000000E+00 -0.22568780022E+04  0.22568780022E+04  0.00000000000E+00 0. -1.
         24    2    1    2    0    0  0.73296359412E+02 -0.67003083137E+02 -0.12454160053E+04  0.12519340321E+04  0.80100092707E+02 0.  0.
         25    2    1    2    0    0  0.13842186119E+01 -0.91789200203E+02  0.43405951201E+03  0.46093250320E+03  0.12499575674E+03 0.  0.
         24    2    1    2    0    0  0.57801389076E+02 -0.81670129475E+02  0.18571184376E+03  0.22626626071E+03  0.81832274785E+02 0.  0.
        -11    1    3    3    0    0  0.66173607116E+01  0.15342190460E+02 -0.32691992405E+03  0.32734661906E+03  0.00000000000E+00 0.  1.
         12    1    3    3    0    0  0.66678998701E+02 -0.82345273597E+02 -0.91849608130E+03  0.92458741302E+03  0.00000000000E+00 0. -1.
        -13    1    5    5    0    0  0.90801950055E+01  0.13577013110E+02  0.54891083115E+02  0.57269679865E+02  0.00000000000E+00 0.  1.
         14    1    5    5    0    0  0.48721194070E+02 -0.95247142585E+02  0.13082076064E+03  0.16899658085E+03  0.00000000000E+00 0. -1.
          5    1    4    4  501    0 -0.43499288022E+02 -0.48080773623E+02  0.35001880726E+03  0.35600450037E+03  0.47000000000E+01 0.  1.
         -5    1    4    4    0  501  0.44883506634E+02 -0.43708426580E+02  0.84040704753E+02  0.10492800283E+03  0.47000000000E+01 0.  1.
          1    1    1    2  502    0 -0.12197510952E+03 -0.69051590085E+02  0.21284243016E+04  0.21330344716E+04  0.00000000000E+00 0. -1.
          1    1    1    2  503    0 -0.10506857583E+02  0.30951400290E+03 -0.94752083516E+03  0.99684755360E+03  0.00000000000E+00 0. -1.
<mgrwt>
<rscale>  0 0.15874228E+03</rscale>
<asrwt>0</asrwt>
<pdfrwt beam="1">  1        2 0.41354953E+00 0.14260297E+03</pdfrwt>
<pdfrwt beam="2">  1        2 0.33189382E+00 0.17670817E+03</pdfrwt>
<totfact> 0.34710614E+00</totfact>
</mgrwt>
</event>
<event>
13    1  0.1589573E-008  0.2384537E+03  0.7546771E-02  0.1211785E+00
          2   -1    0    0  502    0  0.00000000000E+00  0.00000000000E+00  0.14853555567E+04  0.14853555567E+04  0.00000000000E+00 0. -1.
          2   -1    0    0  503    0 -0.00000000000E+00 -0.00000000000E+00 -0.31976457907E+04  0.31976457907E+04  0.00000000000E+00 0. -1.
         24    2    1    2    0    0 -0.13813712429E+03  0.75734635763E+02  0.39578326552E+02  0.18115086799E+03  0.80197212422E+02 0.  0.
         25    2    1    2    0    0 -0.13760890436E+03 -0.80594771867E+02 -0.78371175066E+02  0.21725280760E+03  0.12500005407E+03 0.  0.
         24    2    1    2    0    0 -0.12485509467E+03 -0.46609666367E+01 -0.94752994453E+03  0.95814189665E+03  0.67914498139E+02 0.  0.
        -13    1    5    5    0    0 -0.10764876825E+03 -0.14809490689E+01 -0.56222612999E+03  0.57244097666E+03  0.00000000000E+00 0.  1.
         14    1    5    5    0    0 -0.17206326415E+02 -0.31800175678E+01 -0.38530381454E+03  0.38570091999E+03  0.00000000000E+00 0. -1.
        -13    1    3    3    0    0 -0.73233489527E+02 -0.37193519443E+01  0.77638437657E+01  0.73737743641E+02  0.00000000000E+00 0.  1.
         14    1    3    3    0    0 -0.64903634765E+02  0.79453987707E+02  0.31814482786E+02  0.10741312435E+03  0.00000000000E+00 0. -1.
          5    1    4    4  501    0 -0.11450732258E+03 -0.87064687206E+02 -0.10719528106E+03  0.17945780831E+03  0.47000000000E+01 0. -1.
         -5    1    4    4    0  501 -0.23101581778E+02  0.64699153390E+01  0.28824105992E+02  0.37794999290E+02  0.47000000000E+01 0. -1.
          1    1    1    2  502    0  0.24427940022E+03  0.26559558175E+02  0.12855392774E+04  0.13088120832E+04  0.00000000000E+00 0. -1.
          1    1    1    2  503    0  0.15632172309E+03 -0.17038455434E+02 -0.20115067183E+04  0.20176436920E+04  0.00000000000E+00 0. -1.
<mgrwt>
<rscale>  0 0.14115392E+03</rscale>
<asrwt>0</asrwt>
<pdfrwt beam="1">  1        2 0.21843464E+00 0.23845370E+03</pdfrwt>
<pdfrwt beam="2">  1        2 0.47024202E+00 0.83556801E+02</pdfrwt>
<totfact> 0.55429769E+00</totfact>
</mgrwt>
</event>
<event>
13    1  0.1589573E-008  0.4396336E+02  0.7546771E-02  0.1546766E+00
          2   -1    0    0  503    0  0.00000000000E+00  0.00000000000E+00  0.18131713778E+04  0.18131713778E+04  0.00000000000E+00 0. -1.
         -1   -1    0    0    0  501 -0.00000000000E+00 -0.00000000000E+00 -0.49396070396E+03  0.49396070396E+03  0.00000000000E+00 0.  1.
         24    2    1    2    0    0  0.12196573365E+03 -0.11312885263E+03 -0.17386442782E+03  0.25367224700E+03  0.80293163824E+02 0.  0.
         25    2    1    2    0    0 -0.83533250820E+02  0.14531274298E+03  0.79091415445E+03  0.81808465029E+03  0.12499479215E+03 0.  0.
         24    2    1    2    0    0 -0.10779929882E+02 -0.30166213055E+01 -0.19421464284E+02  0.94212605847E+02  0.91506911943E+02 0.  0.
        -11    1    5    5    0    0 -0.37526807278E+02 -0.31770243274E+02 -0.23931816838E+02  0.54684014842E+02  0.00000000000E+00 0.  1.
         12    1    5    5    0    0  0.26746877395E+02  0.28753621968E+02  0.45103525542E+01  0.39528591005E+02  0.00000000000E+00 0. -1.
        -11    1    3    3    0    0  0.90568180629E+02 -0.92682329727E+02 -0.17305429828E+03  0.21619528149E+03  0.00000000000E+00 0.  1.
         12    1    3    3    0    0  0.31397553021E+02 -0.20446522901E+02 -0.81012954627E+00  0.37476965516E+02  0.00000000000E+00 0. -1.
          5    1    4    4  502    0 -0.10835785057E+03  0.68645090495E+02  0.48850894534E+03  0.50509073631E+03  0.47000000000E+01 0. -1.
         -5    1    4    4    0  502  0.24824599753E+02  0.76667652487E+02  0.30240520911E+03  0.31299391398E+03  0.47000000000E+01 0. -1.
          1    1    1    2  503    0 -0.24070547174E+02  0.14683088533E+02  0.92884952744E+03  0.92927736923E+03  0.00000000000E+00 0. -1.
         -2    1    1    2    0  501 -0.35820057733E+01 -0.43850357583E+02 -0.20726711592E+03  0.21188520941E+03  0.00000000000E+00 0.  1.
<mgrwt>
<rscale>  0 0.35207492E+02</rscale>
<asrwt>0</asrwt>
<pdfrwt beam="1">  1        2 0.26664285E+00 0.28195466E+02</pdfrwt>
<pdfrwt beam="2">  1       -1 0.72641281E-01 0.43963363E+02</pdfrwt>
<totfact> 0.30737548E+01</totfact>
</mgrwt>
</event>
<event>
13    1  0.1589573E-008  0.5711568E+02  0.7546771E-02  0.1433769E+00
          2   -1    0    0  502    0  0.00000000000E+00  0.00000000000E+00  0.64322281913E+03  0.64322281913E+03  0.00000000000E+00 0. -1.
          2   -1    0    0  503    0 -0.00000000000E+00 -0.00000000000E+00 -0.20207891972E+04  0.20207891972E+04  0.00000000000E+00 0. -1.
         24    2    1    2    0    0  0.80615148565E+02  0.30529216505E+02 -0.10945697649E+04  0.11010795496E+04  0.82839417671E+02 0.  0.
         25    2    1    2    0    0 -0.24115957565E+03 -0.56733189686E+02 -0.16957119080E+03  0.32519131346E+03  0.12497362066E+03 0.  0.
         24    2    1    2    0    0  0.18894827757E+03  0.54290270883E+02  0.26027281075E+03  0.33594447552E+03  0.80423065802E+02 0.  0.
        -13    1    5    5    0    0 -0.21023829542E+01  0.91048596080E+01  0.39135014315E+02  0.40235156617E+02  0.00000000000E+00 0.  1.
         14    1    5    5    0    0  0.19105066052E+03  0.45185411275E+02  0.22113779643E+03  0.29570931891E+03  0.00000000000E+00 0. -1.
        -13    1    3    3    0    0  0.14567700572E+02 -0.22372308895E+02 -0.12473585573E+03  0.12756085532E+03  0.00000000000E+00 0.  1.
         14    1    3    3    0    0  0.66047447992E+02  0.52901525400E+02 -0.96983390916E+03  0.97351869429E+03  0.00000000000E+00 0. -1.
          5    1    4    4  501    0 -0.93193765198E+02 -0.18714282932E+02 -0.14035654210E+03  0.16957992560E+03  0.47000000000E+01 0. -1.
         -5    1    4    4    0  501 -0.14796581045E+03 -0.38018906754E+02 -0.29214648708E+02  0.15561138786E+03  0.47000000000E+01 0. -1.
          1    1    1    2  502    0  0.10094836153E+02 -0.56295173778E+02  0.26004433611E+03  0.26625947692E+03  0.00000000000E+00 0. -1.
          1    1    1    2  503    0 -0.38498686635E+02  0.28208876076E+02 -0.63374256921E+03  0.63553720079E+03  0.00000000000E+00 0. -1.
<mgrwt>
<rscale>  0 0.52210859E+02</rscale>
<asrwt>0</asrwt>
<pdfrwt beam="1">  1        2 0.94591592E-01 0.57115680E+02</pdfrwt>
<pdfrwt beam="2">  1        2 0.29717488E+00 0.47727241E+02</pdfrwt>
<totfact> 0.76890630E+01</totfact>
</mgrwt>
</event>
<event>
13    1  0.1589573E-008  0.1347952E+03  0.7546771E-02  0.1302052E+00
          2   -1    0    0  503    0  0.00000000000E+00  0.00000000000E+00  0.15671587922E+04  0.15671587922E+04  0.00000000000E+00 0. -1.
          2   -1    0    0  502    0 -0.00000000000E+00 -0.00000000000E+00 -0.30748361899E+04  0.30748361899E+04  0.00000000000E+00 0. -1.
         24    2    1    2    0    0  0.95623043344E+02  0.46835376335E+03 -0.75279884489E+03  0.89376690046E+03  0.60117862830E+02 0.  0.
         25    2    1    2    0    0  0.62620989966E+03 -0.25025166429E+03 -0.21648515657E+03  0.71920435819E+03  0.12499740762E+03 0.  0.
         24    2    1    2    0    0 -0.52778574768E+03 -0.23404754830E+03 -0.86079442669E+03  0.10395701850E+04  0.80019211977E+02 0.  0.
        -11    1    5    5    0    0 -0.26186600123E+03 -0.13234722763E+03 -0.50304082696E+03  0.58235699090E+03  0.00000000000E+00 0.  1.
         12    1    5    5    0    0 -0.26591974645E+03 -0.10170032068E+03 -0.35775359973E+03  0.45721319415E+03  0.00000000000E+00 0. -1.
        -11    1    3    3    0    0  0.31716527204E+02  0.11545642678E+03 -0.23716756599E+03  0.26567758456E+03  0.00000000000E+00 0.  1.
         12    1    3    3    0    0  0.63906516140E+02  0.35289733657E+03 -0.51563127890E+03  0.62808931590E+03  0.00000000000E+00 0. -1.
          5    1    4    4  501    0  0.22540771653E+03 -0.42241599352E+02 -0.32909570707E+02  0.23172855075E+03  0.47000000000E+01 0.  1.
         -5    1    4    4    0  501  0.40080218312E+03 -0.20801006494E+03 -0.18357558586E+03  0.48747580744E+03  0.47000000000E+01 0.  1.
          1    1    1    2  502    0 -0.60511499407E+02 -0.16553517086E+01 -0.82849464227E+03  0.83070316842E+03  0.00000000000E+00 0. -1.
          1    1    1    2  503    0 -0.13353569591E+03  0.17600800953E+02  0.11508956727E+04  0.11587503699E+04  0.00000000000E+00 0. -1.
<mgrwt>
<rscale>  0 0.90331122E+02</rscale>
<asrwt>0</asrwt>
<pdfrwt beam="1">  1        2 0.23046453E+00 0.13479521E+03</pdfrwt>
<pdfrwt beam="2">  1        2 0.45218179E+00 0.60534137E+02</pdfrwt>
<totfact> 0.64627962E+00</totfact>
</mgrwt>
</event>
<event>
13    1  0.1589573E-008  0.1220013E+03  0.7546771E-02  0.1292658E+00
          2   -1    0    0  503    0  0.00000000000E+00  0.00000000000E+00  0.15735002229E+04  0.15735002229E+04  0.00000000000E+00 0. -1.
          2   -1    0    0  502    0 -0.00000000000E+00 -0.00000000000E+00 -0.22997299254E+03  0.22997299254E+03  0.00000000000E+00 0. -1.
         24    2    1    2    0    0 -0.15225451236E+03  0.77682294363E+01  0.70354516331E+02  0.18658865132E+03  0.81386638389E+02 0.  0.
         25    2    1    2    0    0  0.28374633757E+03  0.87929044138E+02  0.18581714673E+03  0.37201700336E+03  0.12500055150E+03 0.  0.
         24    2    1    2    0    0 -0.13500397044E+02  0.49361312740E+02  0.17736221185E+02  0.98336975552E+02  0.82077934325E+02 0.  0.
        -11    1    3    3    0    0 -0.56745618771E+02  0.10330745673E+02  0.70444767602E+02  0.91045344957E+02  0.00000000000E+00 0.  1.
         12    1    3    3    0    0 -0.95508893594E+02 -0.25625162371E+01 -0.90251270288E-01  0.95543306361E+02  0.00000000000E+00 0. -1.
        -11    1    5    5    0    0 -0.12111253104E+02  0.86609685532E+00 -0.28710739258E+02  0.31172730459E+02  0.00000000000E+00 0.  1.
         12    1    5    5    0    0 -0.13891439401E+01  0.48495215885E+02  0.46446960443E+02  0.67164245094E+02  0.00000000000E+00 0. -1.
          5    1    4    4  501    0  0.24016954917E+03  0.87593040469E+02  0.97917397175E+02  0.27379528804E+03  0.47000000000E+01 0. -1.
         -5    1    4    4    0  501  0.43576788406E+02  0.33600366866E+00  0.87899749557E+02  0.98221715310E+02  0.47000000000E+01 0. -1.
          1    1    1    2  502    0 -0.23801880731E+02 -0.68966228426E+02  0.29573898452E+01  0.73017917968E+02  0.00000000000E+00 0. -1.
          1    1    1    2  503    0 -0.94189547435E+02 -0.76092357889E+02  0.10666619563E+04  0.10735126672E+04  0.00000000000E+00 0. -1.
<mgrwt>
<rscale>  0 0.94344970E+02</rscale>
<asrwt>0</asrwt>
<pdfrwt beam="1">  1        2 0.23139709E+00 0.12200133E+03</pdfrwt>
<pdfrwt beam="2">  1        2 0.33819558E-01 0.72958003E+02</pdfrwt>
<totfact> 0.33750105E+02</totfact>
</mgrwt>
</event>
<event>
13    1  0.1589573E-008  0.1238782E+03  0.7546771E-02  0.1369857E+00
          2   -1    0    0  503    0  0.00000000000E+00  0.00000000000E+00  0.17430857024E+04  0.17430857024E+04  0.00000000000E+00 0. -1.
         -1   -1    0    0    0  501 -0.00000000000E+00 -0.00000000000E+00 -0.75906643891E+03  0.75906643891E+03  0.00000000000E+00 0.  1.
         24    2    1    2    0    0  0.76533927717E+02  0.86510604343E+02 -0.21234905284E+03  0.25467383729E+03  0.80156823795E+02 0.  0.
         25    2    1    2    0    0 -0.41503564742E+02 -0.23639866633E+03  0.52277718829E+03  0.58866606439E+03  0.12499948574E+03 0.  0.
         24    2    1    2    0    0 -0.18056973596E+03  0.13285630210E+03  0.33689156626E+03  0.41269556101E+03  0.81027600912E+02 0.  0.
        -11    1    5    5    0    0  0.63023075940E+01  0.16784484337E+02  0.32722939337E+02  0.37312581716E+02  0.00000000000E+00 0.  1.
         12    1    5    5    0    0 -0.18687204355E+03  0.11607181776E+03  0.30416862692E+03  0.37538297930E+03  0.00000000000E+00 0. -1.
        -13    1    3    3    0    0  0.36131173476E+02 -0.65480702045E+01 -0.37236667460E+02  0.52296350959E+02  0.00000000000E+00 0.  1.
         14    1    3    3    0    0  0.40402754241E+02  0.93058674547E+02 -0.17511238538E+03  0.20237748633E+03  0.00000000000E+00 0. -1.
          5    1    4    4  502    0 -0.36791099131E+02 -0.25025087887E+03  0.50715625886E+03  0.56675272232E+03  0.47000000000E+01 0. -1.
         -5    1    4    4    0  502 -0.47124656116E+01  0.13852212542E+02  0.15620929431E+02  0.21913342071E+02  0.47000000000E+01 0. -1.
          1    1    1    2  503    0  0.22391741082E+02  0.28775886096E+02  0.78256200465E+03  0.78341096036E+03  0.00000000000E+00 0. -1.
         -2    1    1    2    0  501  0.12314763190E+03 -0.11744126206E+02 -0.44586244288E+03  0.46270571826E+03  0.00000000000E+00 0.  1.
<mgrwt>
<rscale>  0 0.67207044E+02</rscale>
<asrwt>0</asrwt>
<pdfrwt beam="1">  1        2 0.25633613E+00 0.36461510E+02</pdfrwt>
<pdfrwt beam="2">  1       -1 0.11162742E+00 0.12387822E+03</pdfrwt>
<totfact> 0.12614954E+01</totfact>
</mgrwt>
</event>
<event>
13    1  0.1589573E-008  0.2265084E+03  0.7546771E-02  0.1189267E+00
          2   -1    0    0  503    0  0.00000000000E+00  0.00000000000E+00  0.21233069548E+04  0.21233069548E+04  0.00000000000E+00 0. -1.
          2   -1    0    0  502    0 -0.00000000000E+00 -0.00000000000E+00 -0.28574886767E+04  0.28574886767E+04  0.00000000000E+00 0. -1.
         24    2    1    2    0    0  0.52121803575E+03  0.23399378478E+03 -0.54693276808E+03  0.79533885225E+03  0.83708452349E+02 0.  0.
         25    2    1    2    0    0 -0.30701851219E+03 -0.73171580358E+02  0.89766285983E+02  0.35113780414E+03  0.12500129757E+03 0.  0.
         24    2    1    2    0    0 -0.46128516873E+02  0.77429572685E+02 -0.23784651236E+03  0.26732456344E+03  0.82269556813E+02 0.  0.
        -11    1    5    5    0    0  0.17056866278E+02  0.29245858249E+02 -0.31647027256E+02  0.46344268751E+02  0.00000000000E+00 0.  1.
         12    1    5    5    0    0 -0.63185383151E+02  0.48183714436E+02 -0.20619948511E+03  0.22098029469E+03  0.00000000000E+00 0. -1.
        -11    1    3    3    0    0  0.48889932106E+02  0.42087643962E+02 -0.37516974903E+02  0.74626527733E+02  0.00000000000E+00 0.  1.
         12    1    3    3    0    0  0.47232810364E+03  0.19190614082E+03 -0.50941579318E+03  0.72071232452E+03  0.00000000000E+00 0. -1.
          5    1    4    4  501    0  0.65302941514E+01  0.11830819486E+02  0.10669176026E+01  0.14347172006E+02  0.47000000000E+01 0. -1.
         -5    1    4    4    0  501 -0.31354880635E+03 -0.85002399844E+02  0.88699368380E+02  0.33679063213E+03  0.47000000000E+01 0. -1.
          1    1    1    2  502    0 -0.26025578848E+03 -0.30240235521E+03 -0.17791784361E+04  0.18233639701E+04  0.00000000000E+00 0. -1.
          1    1    1    2  503    0  0.92184781803E+02  0.64150578099E+02  0.17400097086E+04  0.17436304416E+04  0.00000000000E+00 0. -1.
<mgrwt>
<rscale>  0 0.15949592E+03</rscale>
<asrwt>0</asrwt>
<pdfrwt beam="1">  1        2 0.31225103E+00 0.11230909E+03</pdfrwt>
<pdfrwt beam="2">  1        2 0.42021892E+00 0.22650838E+03</pdfrwt>
<totfact> 0.37689722E+00</totfact>
</mgrwt>
</event>
<event>
13    1  0.1589573E-008  0.9232760E+02  0.7546771E-02  0.1305747E+00
          2   -1    0    0  502    0  0.00000000000E+00  0.00000000000E+00  0.93880496992E+03  0.93880496992E+03  0.00000000000E+00 0. -1.
          2   -1    0    0  503    0 -0.00000000000E+00 -0.00000000000E+00 -0.31018699633E+04  0.31018699633E+04  0.00000000000E+00 0. -1.
         24    2    1    2    0    0 -0.49708963740E+02  0.41188886766E+02  0.17857487769E+02  0.11238960521E+03  0.90249808975E+02 0.  0.
         25    2    1    2    0    0  0.61999648922E+02 -0.21339026615E+03  0.72148227810E+02  0.26497307461E+03  0.12500400529E+03 0.  0.
         24    2    1    2    0    0 -0.26649413769E+01 -0.14927070612E+02 -0.44236689272E+03  0.45034800435E+03  0.83035762765E+02 0.  0.
        -11    1    5    5    0    0 -0.39206265461E+02 -0.24161344524E+02 -0.21484298773E+03  0.21972348804E+03  0.00000000000E+00 0.  1.
         12    1    5    5    0    0  0.36541324084E+02  0.92342739117E+01 -0.22752390499E+03  0.23062451631E+03  0.00000000000E+00 0. -1.
        -13    1    3    3    0    0 -0.26644997309E+02 -0.27386727087E+02  0.10737568576E+02  0.39689848590E+02  0.00000000000E+00 0.  1.
         14    1    3    3    0    0 -0.23063966431E+02  0.68575613853E+02  0.71199191927E+01  0.72699756617E+02  0.00000000000E+00 0. -1.
          5    1    4    4  501    0  0.99301676477E+02 -0.14410698652E+03  0.60830090419E+02  0.18533762817E+03  0.47000000000E+01 0. -1.
         -5    1    4    4    0  501 -0.37302027555E+02 -0.69283279633E+02  0.11318137392E+02  0.79635446445E+02  0.47000000000E+01 0. -1.
          1    1    1    2  502    0 -0.37721252476E+02  0.76671107292E+02  0.69722773763E+03  0.70244421109E+03  0.00000000000E+00 0. -1.
          1    1    1    2  503    0  0.28095508671E+02  0.11045734270E+03 -0.25079315539E+04  0.25105200380E+04  0.00000000000E+00 0. -1.
<mgrwt>
<rscale>  0 0.88814953E+02</rscale>
<asrwt>0</asrwt>
<pdfrwt beam="1">  1        2 0.13805956E+00 0.85435947E+02</pdfrwt>
<pdfrwt beam="2">  1        2 0.45615735E+00 0.92327599E+02</pdfrwt>
<totfact> 0.12919641E+01</totfact>
</mgrwt>
</event>
<event>
13    1  0.1589573E-008  0.2679816E+03  0.7546771E-02  0.1108803E+00
          2   -1    0    0  502    0  0.00000000000E+00  0.00000000000E+00  0.18230898551E+04  0.18230898551E+04  0.00000000000E+00 0. -1.
          2   -1    0    0  503    0 -0.00000000000E+00 -0.00000000000E+00 -0.27134709228E+04  0.27134709228E+04  0.00000000000E+00 0. -1.
         24    2    1    2    0    0  0.27488978730E+03 -0.29450829177E+03 -0.36663635377E+03  0.55408406341E+03  0.10142684228E+03 0.  0.
         25    2    1    2    0    0 -0.92706532426E+02  0.11882565359E+03  0.32703463451E+03  0.38117047381E+03  0.12500096333E+03 0.  0.
         24    2    1    2    0    0 -0.28942456807E+03 -0.22902366565E+03 -0.27276666242E+03  0.46585142511E+03  0.79984236657E+02 0.  0.
        -11    1    3    3    0    0  0.12235382677E+03 -0.20371852139E+03 -0.19963484225E+03  0.31036392368E+03  0.00000000000E+00 0.  1.
         12    1    3    3    0    0  0.15253596052E+03 -0.90789770388E+02 -0.16700151152E+03  0.24372013973E+03  0.00000000000E+00 0. -1.
        -11    1    5    5    0    0 -0.98022160555E+02 -0.12156411829E+03 -0.13710704188E+03  0.20780885388E+03  0.00000000000E+00 0.  1.
         12    1    5    5    0    0 -0.19140240752E+03 -0.10745954736E+03 -0.13565962054E+03  0.25804257123E+03  0.00000000000E+00 0. -1.
          5    1    4    4  501    0 -0.13831375259E+02  0.16943797966E+02  0.19624235567E+03  0.19751342079E+03  0.47000000000E+01 0. -1.
         -5    1    4    4    0  501 -0.78875157167E+02  0.10188185562E+03  0.13079227884E+03  0.18365705303E+03  0.47000000000E+01 0. -1.
          1    1    1    2  502    0  0.18779889492E+03  0.16037910004E+03  0.12577433004E+04  0.12817597631E+04  0.00000000000E+00 0. -1.
          1    1    1    2  503    0 -0.80557581718E+02  0.24432720379E+03 -0.18357559863E+04  0.18536950526E+04  0.00000000000E+00 0. -1.
<mgrwt>
<rscale>  0 0.25725684E+03</rscale>
<asrwt>0</asrwt>
<pdfrwt beam="1">  1        2 0.26810145E+00 0.24696129E+03</pdfrwt>
<pdfrwt beam="2">  1        2 0.39903983E+00 0.26798160E+03</pdfrwt>
<totfact> 0.57332108E+00</totfact>
</mgrwt>
</event>
<event>
13    1  0.1589573E-008  0.2638478E+02  0.7546771E-02  0.1669828E+00
         -3   -1    0    0    0  502 -0.00000000000E+00  0.00000000000E+00  0.88863000079E+03  0.88863000079E+03  0.00000000000E+00 0.  1.
         -1   -1    0    0    0  501  0.00000000000E+00 -0.00000000000E+00 -0.11332888355E+04  0.11332888355E+04  0.00000000000E+00 0.  1.
         24    2    1    2    0    0 -0.42100568031E+02  0.75855250653E+02  0.22631039995E+03  0.25483478444E+03  0.78726700422E+02 0.  0.
         25    2    1    2    0    0  0.90051249111E+02 -0.16287101833E+03 -0.29019063260E+02  0.22606258502E+03  0.12500396088E+03 0.  0.
         24    2    1    2    0    0 -0.35738484357E+01  0.73206839398E+02  0.15825339049E+03  0.19250541541E+03  0.81499605090E+02 0.  0.
        -11    1    5    5    0    0 -0.21001126851E+02  0.21320819884E+02  0.12484227754E+03  0.12837919984E+03  0.00000000000E+00 0.  1.
         12    1    5    5    0    0  0.17427278416E+02  0.51886019514E+02  0.33411112952E+02  0.64126215565E+02  0.00000000000E+00 0. -1.
        -13    1    3    3    0    0 -0.69873892038E+01 -0.16641988941E+02  0.40009947752E+02  0.43892770736E+02  0.00000000000E+00 0.  1.
         14    1    3    3    0    0 -0.35113178827E+02  0.92497239594E+02  0.18630045219E+03  0.21094201371E+03  0.00000000000E+00 0. -1.
          5    1    4    4  503    0 -0.27293295046E+02 -0.28165906034E+02  0.14588742446E+02  0.42108949445E+02  0.47000000000E+01 0. -1.
         -5    1    4    4    0  503  0.11734454416E+03 -0.13470511229E+03 -0.43607805706E+02  0.18395363557E+03  0.47000000000E+01 0. -1.
         -2    1    1    2    0  501 -0.22539458739E+02 -0.90490097345E+00 -0.97376573615E+03  0.97402697855E+03  0.00000000000E+00 0.  1.
         -4    1    1    2    0  502 -0.21837373905E+02  0.14713829249E+02  0.37356217425E+03  0.37448907287E+03  0.00000000000E+00 0.  1.
<mgrwt>
<rscale>  0 0.24396266E+02</rscale>
<asrwt>0</asrwt>
<pdfrwt beam="2">  1       -1 0.16666012E+00 0.22557616E+02</pdfrwt>
<pdfrwt beam="1">  1       -3 0.13068088E+00 0.26384783E+02</pdfrwt>
<totfact> 0.74016524E-01</totfact>
</mgrwt>
</event>
<event>
13    1  0.1589573E-008  0.7156960E+02  0.7546771E-02  0.1493646E+00
          2   -1    0    0  502    0  0.00000000000E+00  0.00000000000E+00  0.24828250556E+03  0.24828250556E+03  0.00000000000E+00 0. -1.
          2   -1    0    0  503    0 -0.00000000000E+00 -0.00000000000E+00 -0.12035175589E+04  0.12035175589E+04  0.00000000000E+00 0. -1.
         24    2    1    2    0    0  0.36370592060E+02 -0.96846211831E+02 -0.65542264344E+02  0.14357723808E+03  0.74944153646E+02 0.  0.
         25    2    1    2    0    0 -0.14877999604E+03  0.17629678093E+03 -0.45173518173E+03  0.52240680214E+03  0.12501260066E+03 0.  0.
         24    2    1    2    0    0  0.57470318706E+02 -0.60434622135E+02  0.38464395975E+02  0.12250878105E+03  0.81078422487E+02 0.  0.
        -11    1    5    5    0    0  0.20117836975E+02  0.15058418014E+02 -0.79266635247E+01  0.26349863611E+02  0.00000000000E+00 0.  1.
         12    1    5    5    0    0  0.37352481731E+02 -0.75493040149E+02  0.46391059500E+02  0.96158917444E+02  0.00000000000E+00 0. -1.
        -11    1    3    3    0    0 -0.83089110825E+01  0.84689505569E+01 -0.13268595509E+02  0.17799347002E+02  0.00000000000E+00 0.  1.
         12    1    3    3    0    0  0.44679503143E+02 -0.10531516239E+03 -0.52273668835E+02  0.12577789108E+03  0.00000000000E+00 0. -1.
          5    1    4    4  501    0 -0.83845124665E+02  0.17760783360E+03 -0.35626889690E+03  0.40684661038E+03  0.47000000000E+01 0.  1.
         -5    1    4    4    0  501 -0.64934871371E+02 -0.13110526663E+01 -0.95466284832E+02  0.11556019176E+03  0.47000000000E+01 0.  1.
          1    1    1    2  502    0  0.57191275302E+02 -0.43619051854E+02  0.79286098051E+02  0.10705021719E+03  0.00000000000E+00 0. -1.
          1    1    1    2  503    0 -0.22521900326E+01  0.24603104890E+02 -0.55570810129E+03  0.55625702600E+03  0.00000000000E+00 0. -1.
<mgrwt>
<rscale>  0 0.42049931E+02</rscale>
<asrwt>0</asrwt>
<pdfrwt beam="1">  1        2 0.36512134E-01 0.71569601E+02</pdfrwt>
<pdfrwt beam="2">  1        2 0.17698787E+00 0.24705974E+02</pdfrwt>
<totfact> 0.53255436E+02</totfact>
</mgrwt>
</event>
<event>
13    1  0.1589573E-008  0.9969339E+02  0.7546771E-02  0.1392671E+00
          2   -1    0    0  502    0  0.00000000000E+00  0.00000000000E+00  0.29634532320E+04  0.29634532320E+04  0.00000000000E+00 0. -1.
          2   -1    0    0  503    0 -0.00000000000E+00 -0.00000000000E+00 -0.27087658638E+03  0.27087658638E+03  0.00000000000E+00 0. -1.
         24    2    1    2    0    0  0.43750369382E+02 -0.60050506606E+01 -0.41751909640E+02  0.10272920631E+03  0.82824588235E+02 0.  0.
         25    2    1    2    0    0  0.15462605175E+03 -0.87461696246E+01  0.16359846667E+04  0.16480462055E+04  0.12499901782E+03 0.  0.
         24    2    1    2    0    0 -0.10716864928E+03 -0.10700572995E+03 -0.17342187623E+02  0.17225058041E+03  0.80213249219E+02 0.  0.
        -11    1    3    3    0    0  0.65484084210E+02 -0.50247606724E+01 -0.13463479698E+02  0.67042365638E+02  0.00000000000E+00 0.  1.
         12    1    3    3    0    0 -0.21733714829E+02 -0.98028998820E+00 -0.28288429942E+02  0.35686840674E+02  0.00000000000E+00 0. -1.
        -11    1    5    5    0    0 -0.43382255474E+02 -0.12045838103E+02 -0.34307451990E+02  0.56604978293E+02  0.00000000000E+00 0.  1.
         12    1    5    5    0    0 -0.63786393806E+02 -0.94959891846E+02  0.16965264367E+02  0.11564560212E+03  0.00000000000E+00 0. -1.
          5    1    4    4  501    0 -0.12643696188E+02 -0.70133014352E+01  0.45609343641E+03  0.45634675652E+03  0.47000000000E+01 0. -1.
         -5    1    4    4    0  501  0.16726974793E+03 -0.17328681894E+01  0.11798912303E+04  0.11916994490E+04  0.47000000000E+01 0. -1.
          1    1    1    2  502    0 -0.29909635388E+01  0.37508482645E+02  0.11750429495E+04  0.11756452549E+04  0.00000000000E+00 0. -1.
          1    1    1    2  503    0 -0.88216808309E+02  0.84248467589E+02 -0.59356873289E+02  0.13565857130E+03  0.00000000000E+00 0. -1.
<mgrwt>
<rscale>  0 0.61247184E+02</rscale>
<asrwt>0</asrwt>
<pdfrwt beam="1">  1        2 0.43580193E+00 0.37627545E+02</pdfrwt>
<pdfrwt beam="2">  1        2 0.39834794E-01 0.99693390E+02</pdfrwt>
<totfact> 0.69885912E+01</totfact>
</mgrwt>
</event>
<event>
13    1  0.1589573E-008  0.5556596E+02  0.7546771E-02  0.1419225E+00
          2   -1    0    0  503    0  0.00000000000E+00  0.00000000000E+00  0.22659611944E+04  0.22659611944E+04  0.00000000000E+00 0. -1.
          2   -1    0    0  502    0 -0.00000000000E+00 -0.00000000000E+00 -0.20758046339E+04  0.20758046339E+04  0.00000000000E+00 0. -1.
         24    2    1    2    0    0 -0.69671327866E+02 -0.10171556586E+02  0.51561838089E+03  0.52686087124E+03  0.82234472305E+02 0.  0.
         25    2    1    2    0    0  0.13789369828E+03  0.95654638950E+02  0.51632587350E+03  0.55711978594E+03  0.12500226503E+03 0.  0.
         24    2    1    2    0    0 -0.28212624117E+02 -0.28916232206E+02  0.71251324246E+02  0.11373588420E+03  0.78911339517E+02 0.  0.
        -11    1    3    3    0    0 -0.56883859597E+02 -0.41486632567E+02  0.40868630893E+03  0.41470641817E+03  0.00000000000E+00 0.  1.
         12    1    3    3    0    0 -0.12787468269E+02  0.31315075981E+02  0.10693207197E+03  0.11215445307E+03  0.00000000000E+00 0. -1.
        -11    1    5    5    0    0 -0.42445471959E+02  0.10808265541E+02  0.50059704496E+02  0.66516243941E+02  0.00000000000E+00 0.  1.
         12    1    5    5    0    0  0.14232847841E+02 -0.39724497747E+02  0.21191619750E+02  0.47219640263E+02  0.00000000000E+00 0. -1.
          5    1    4    4  501    0  0.54521162759E+02  0.10968354543E+03  0.34233877479E+03  0.36362200710E+03  0.47000000000E+01 0. -1.
         -5    1    4    4    0  501  0.83372535525E+02 -0.14028906482E+02  0.17398709871E+03  0.19349777884E+03  0.47000000000E+01 0. -1.
          1    1    1    2  502    0  0.14716274983E+02 -0.53585760413E+02 -0.20274900293E+04  0.20282514197E+04  0.00000000000E+00 0. -1.
          1    1    1    2  503    0 -0.54726021284E+02 -0.29810897443E+01  0.11144510111E+04  0.11157978672E+04  0.00000000000E+00 0. -1.
<mgrwt>
<rscale>  0 0.55185252E+02</rscale>
<asrwt>0</asrwt>
<pdfrwt beam="1">  1        2 0.33322959E+00 0.54807156E+02</pdfrwt>
<pdfrwt beam="2">  1        2 0.30526539E+00 0.55565958E+02</pdfrwt>
<totfact> 0.10270381E+01</totfact>
</mgrwt>
</event>
<event>
13    1  0.1589573E-008  0.1079418E+03  0.7546771E-02  0.1446237E+00
         -1   -1    0    0    0  501 -0.00000000000E+00  0.00000000000E+00  0.78374490436E+03  0.78374490436E+03  0.00000000000E+00 0.  1.
          2   -1    0    0  503    0  0.00000000000E+00 -0.00000000000E+00 -0.17188859473E+04  0.17188859473E+04  0.00000000000E+00 0. -1.
         24    2    1    2    0    0 -0.21968855381E+02 -0.70869177202E+02  0.71345869690E+02  0.12651920674E+03  0.73564975831E+02 0.  0.
         25    2    1    2    0    0  0.41505529814E+02 -0.62196300184E+02 -0.33172926654E+03  0.36231085218E+03  0.12503502935E+03 0.  0.
         24    2    1    2    0    0 -0.29961380408E+01  0.36480763892E+02  0.10392491361E+03  0.13399457286E+03  0.76251786273E+02 0.  0.
        -11    1    3    3    0    0 -0.48168087103E+02 -0.41858616065E+02  0.54633339997E+02  0.84006608034E+02  0.00000000000E+00 0.  1.
         12    1    3    3    0    0  0.26199231722E+02 -0.29010561137E+02  0.16712529693E+02  0.42512598710E+02  0.00000000000E+00 0. -1.
        -13    1    5    5    0    0 -0.38467765392E+02  0.28418005334E+02  0.52683437717E+02  0.71154034398E+02  0.00000000000E+00 0.  1.
         14    1    5    5    0    0  0.35471627351E+02  0.80627585571E+01  0.51241475894E+02  0.62840538463E+02  0.00000000000E+00 0. -1.
          5    1    4    4  502    0  0.24910260479E+02 -0.24901786411E+02 -0.31650157836E+03  0.31849012410E+03  0.47000000000E+01 0.  1.
         -5    1    4    4    0  502  0.16595269336E+02 -0.37294513773E+02 -0.15227688174E+02  0.43820728074E+02  0.47000000000E+01 0.  1.
          1    1    1    2  503    0 -0.16441999539E+02 -0.16093461098E+02 -0.13233781595E+04  0.13235781397E+04  0.00000000000E+00 0. -1.
         -2    1    1    2    0  501 -0.98536854140E-01  0.11267817459E+03  0.54469559980E+03  0.55622808018E+03  0.00000000000E+00 0.  1.
<mgrwt>
<rscale>  0 0.49834282E+02</rscale>
<asrwt>0</asrwt>
<pdfrwt beam="2">  1        2 0.25277735E+00 0.23007365E+02</pdfrwt>
<pdfrwt beam="1">  1       -1 0.11525660E+00 0.10794177E+03</pdfrwt>
<totfact> 0.12695700E+01</totfact>
</mgrwt>
</event>
<event>
13    1  0.1589573E-008  0.4148784E+02  0.7546771E-02  0.1554641E+00
          2   -1    0    0  502    0  0.00000000000E+00  0.00000000000E+00  0.22725644389E+04  0.22725644389E+04  0.00000000000E+00 0. -1.
          4   -1    0    0  503    0 -0.00000000000E+00 -0.00000000000E+00 -0.16899945179E+04  0.16899945179E+04  0.00000000000E+00 0. -1.
         24    2    1    2    0    0 -0.83805681668E+02  0.20982088132E+02 -0.54111398987E+03  0.55412838587E+03  0.82403141235E+02 0.  0.
         25    2    1    2    0    0  0.17317975998E+03  0.17924740121E+02  0.16232859497E+04  0.16373739890E+04  0.12499511957E+03 0.  0.
         24    2    1    2    0    0 -0.19792951570E+02 -0.35703050394E+02 -0.42646825428E+03  0.43616082067E+03  0.81820662669E+02 0.  0.
        -11    1    3    3    0    0 -0.17305477568E+02 -0.25474113512E+02 -0.25115058074E+03  0.25303166644E+03  0.00000000000E+00 0.  1.
         12    1    3    3    0    0 -0.66500204100E+02  0.46456201644E+02 -0.28996340913E+03  0.30109671943E+03  0.00000000000E+00 0. -1.
        -13    1    5    5    0    0 -0.47281504264E+02 -0.27261660723E+02 -0.35422653259E+03  0.35840643853E+03  0.00000000000E+00 0.  1.
         14    1    5    5    0    0  0.27488552695E+02 -0.84413896713E+01 -0.72241721687E+02  0.77754382135E+02  0.00000000000E+00 0. -1.
          5    1    4    4  501    0 -0.47863451801E+01 -0.20170061656E+01  0.48725004294E+03  0.48730039171E+03  0.47000000000E+01 0. -1.
         -5    1    4    4    0  501  0.17796610516E+03  0.19941746287E+02  0.11360359067E+04  0.11500735973E+04  0.47000000000E+01 0. -1.
          1    1    1    2  502    0 -0.28112701908E+02 -0.40673789224E+01  0.62994974585E+03  0.63058984283E+03  0.00000000000E+00 0. -1.
          3    1    1    2  503    0 -0.41468424839E+02  0.86360106403E+00 -0.70308353038E+03  0.70430591844E+03  0.00000000000E+00 0. -1.
<mgrwt>
<rscale>  0 0.34328988E+02</rscale>
<asrwt>0</asrwt>
<pdfrwt beam="1">  1        2 0.33420065E+00 0.28405415E+02</pdfrwt>
<pdfrwt beam="2">  1        4 0.24852861E+00 0.41487845E+02</pdfrwt>
<totfact> 0.32850652E-01</totfact>
</mgrwt>
</event>
<event>
13    1  0.1589573E-008  0.1040636E+03  0.7546771E-02  0.1294311E+00
          2   -1    0    0  503    0  0.00000000000E+00  0.00000000000E+00  0.49300562856E+03  0.49300562856E+03  0.00000000000E+00 0. -1.
         -3   -1    0    0    0  501 -0.00000000000E+00 -0.00000000000E+00 -0.15710196783E+04  0.15710196783E+04  0.00000000000E+00 0.  1.
         24    2    1    2    0    0  0.28383592141E+02  0.13285083730E+01 -0.29872821070E+03  0.31060655939E+03  0.80190383664E+02 0.  0.
         25    2    1    2    0    0 -0.11271583414E+03 -0.81943686690E+01  0.21442193245E+03  0.27271620912E+03  0.12500143464E+03 0.  0.
         24    2    1    2    0    0 -0.18075822066E+02  0.38651503343E+02 -0.18920456336E+03  0.21004440588E+03  0.80620168639E+02 0.  0.
        -11    1    5    5    0    0  0.27822747575E+02  0.35629088687E+02 -0.92068236008E+02  0.10256752568E+03  0.00000000000E+00 0.  1.
         12    1    5    5    0    0 -0.45898569640E+02  0.30224146559E+01 -0.97136327355E+02  0.10747688020E+03  0.00000000000E+00 0. -1.
        -13    1    3    3    0    0  0.87997195074E+01  0.38651667120E+02 -0.18785728402E+03  0.19199412906E+03  0.00000000000E+00 0.  1.
         14    1    3    3    0    0  0.19583872633E+02 -0.37323158747E+02 -0.11087092668E+03  0.11861243033E+03  0.00000000000E+00 0. -1.
          5    1    4    4  502    0 -0.42357161891E+02  0.57335567914E+02  0.78265142914E+02  0.10596706614E+03  0.47000000000E+01 0.  1.
         -5    1    4    4    0  502 -0.70358672252E+02 -0.65529936584E+02  0.13615678953E+03  0.16674914298E+03  0.47000000000E+01 0.  1.
          1    1    1    2  503    0  0.15290415617E+02 -0.96439954318E+02  0.21985907998E+03  0.24056698993E+03  0.00000000000E+00 0. -1.
         -4    1    1    2    0  501  0.87117648450E+02  0.64654311271E+02 -0.10243622881E+04  0.10300911426E+04  0.00000000000E+00 0.  1.
<mgrwt>
<rscale>  0 0.93621677E+02</rscale>
<asrwt>0</asrwt>
<pdfrwt beam="1">  1        2 0.72500829E-01 0.84227484E+02</pdfrwt>
<pdfrwt beam="2">  1       -3 0.23103230E+00 0.10406364E+03</pdfrwt>
<totfact> 0.45372278E+00</totfact>
</mgrwt>
</event>
<event>
13    1  0.1589573E-008  0.2371735E+03  0.7546771E-02  0.1265190E+00
          2   -1    0    0  503    0  0.00000000000E+00  0.00000000000E+00  0.34432543386E+04  0.34432543386E+04  0.00000000000E+00 0. -1.
          2   -1    0    0  502    0 -0.00000000000E+00 -0.00000000000E+00 -0.27315880188E+04  0.27315880188E+04  0.00000000000E+00 0. -1.
         24    2    1    2    0    0  0.15977260118E+03  0.85672483068E+03  0.13198696465E+04  0.15836222229E+04  0.79364611159E+02 0.  0.
         25    2    1    2    0    0 -0.41140359039E+03 -0.20201484003E+04 -0.88514652263E+03  0.22470784784E+04  0.12499939192E+03 0.  0.
         24    2    1    2    0    0  0.18583790355E+02  0.10658874853E+04  0.49609217855E+03  0.11771744805E+04  0.56310029160E+02 0.  0.
        -11    1    3    3    0    0  0.43815182123E+02  0.37423800782E+03  0.62416441233E+03  0.72907823332E+03  0.00000000000E+00 0.  1.
         12    1    3    3    0    0  0.11595741905E+03  0.48248682286E+03  0.69570523416E+03  0.85454398957E+03  0.00000000000E+00 0. -1.
        -13    1    5    5    0    0  0.34896546011E+02  0.42198190701E+03  0.19758705342E+03  0.46725490093E+03  0.00000000000E+00 0.  1.
         14    1    5    5    0    0 -0.16312755656E+02  0.64390557831E+03  0.29850512513E+03  0.70991957960E+03  0.00000000000E+00 0. -1.
          5    1    4    4  501    0 -0.49004111816E+02 -0.10229857371E+03 -0.53125544829E+02  0.12534278867E+03  0.47000000000E+01 0. -1.
         -5    1    4    4    0  501 -0.36239947857E+03 -0.19178498266E+04 -0.83202097780E+03  0.21217356897E+04  0.47000000000E+01 0. -1.
          1    1    1    2  502    0  0.11095856901E+01  0.48750423022E+02 -0.66247191674E+03  0.66426416085E+03  0.00000000000E+00 0. -1.
          1    1    1    2  503    0  0.23193761316E+03  0.48785661267E+02  0.44332293412E+03  0.50270301477E+03  0.00000000000E+00 0. -1.
<mgrwt>
<rscale>  0 0.10754209E+03</rscale>
<asrwt>0</asrwt>
<pdfrwt beam="1">  1        2 0.50636093E+00 0.23717348E+03</pdfrwt>
<pdfrwt beam="2">  1        2 0.40170412E+00 0.48763049E+02</pdfrwt>
<totfact> 0.98238812E-01</totfact>
</mgrwt>
</event>
<event>
13    1  0.1589573E-008  0.6289024E+02  0.7546771E-02  0.1451534E+00
          4   -1    0    0  503    0 -0.00000000000E+00  0.00000000000E+00  0.19460586046E+02  0.19460586046E+02  0.00000000000E+00 0. -1.
          2   -1    0    0  502    0  0.00000000000E+00 -0.00000000000E+00 -0.33064505920E+04  0.33064505920E+04  0.00000000000E+00 0. -1.
         24    2    1    2    0    0 -0.10541590118E+02  0.14434528479E+02 -0.48261504738E+03  0.48964943969E+03  0.80745334846E+02 0.  0.
         25    2    1    2    0    0 -0.28646831566E+02  0.17042632861E+02 -0.80974699253E+03  0.82001604885E+03  0.12500014471E+03 0.  0.
         24    2    1    2    0    0  0.66650039868E+02 -0.56738748888E+02 -0.61152987976E+03  0.62287430501E+03  0.79637256084E+02 0.  0.
        -11    1    5    5    0    0 -0.72279912974E+01 -0.42439682966E+02 -0.23008318027E+03  0.23407614230E+03  0.00000000000E+00 0.  1.
         12    1    5    5    0    0  0.73878031165E+02 -0.14299065922E+02 -0.38144669949E+03  0.38879816271E+03  0.00000000000E+00 0. -1.
        -13    1    3    3    0    0 -0.94182535382E+01 -0.22209680802E+02 -0.37850471363E+03  0.37927271410E+03  0.00000000000E+00 0.  1.
         14    1    3    3    0    0 -0.11233365802E+01  0.36644209281E+02 -0.10411033375E+03  0.11037672559E+03  0.00000000000E+00 0. -1.
          5    1    4    4  501    0 -0.55784010199E+02  0.54704680590E+02 -0.60366511360E+03  0.60871842197E+03  0.47000000000E+01 0.  1.
         -5    1    4    4    0  501  0.27137178633E+02 -0.37662047728E+02 -0.20608187893E+03  0.21129762688E+03  0.47000000000E+01 0.  1.
          1    1    1    2  502    0 -0.63331364312E+02  0.12792478969E+02 -0.13043063405E+04  0.13059056394E+04  0.00000000000E+00 0. -1.
          3    1    1    2  503    0  0.35869746129E+02  0.12469108579E+02 -0.78791745824E+02  0.87465745101E+02  0.00000000000E+00 0. -1.
<mgrwt>
<rscale>  0 0.48869936E+02</rscale>
<asrwt>0</asrwt>
<pdfrwt beam="2">  1        2 0.48624313E+00 0.62890237E+02</pdfrwt>
<pdfrwt beam="1">  1        4 0.28618486E-02 0.37975220E+02</pdfrwt>
<totfact> 0.46938123E+02</totfact>
</mgrwt>
</event>
<event>
13    1  0.1589573E-008  0.3902509E+02  0.7546771E-02  0.1554634E+00
          2   -1    0    0  502    0  0.00000000000E+00  0.00000000000E+00  0.51689097168E+03  0.51689097168E+03  0.00000000000E+00 0. -1.
          2   -1    0    0  503    0 -0.00000000000E+00 -0.00000000000E+00 -0.14851121779E+04  0.14851121779E+04  0.00000000000E+00 0. -1.
         24    2    1    2    0    0 -0.70896123892E+02 -0.42200657751E+02 -0.46667721176E+03  0.48043557270E+03  0.78889566126E+02 0.  0.
         25    2    1    2    0    0  0.79622010258E+02  0.18442923078E+03 -0.31724273908E+02  0.23871294448E+03  0.12499453837E+03 0.  0.
         24    2    1    2    0    0  0.95183608836E+01 -0.14258878563E+03 -0.22421227272E+03  0.27761297155E+03  0.79847716028E+02 0.  0.
        -11    1    5    5    0    0 -0.99054426739E+01 -0.35395222183E+01 -0.62836479950E+02  0.63710825019E+02  0.00000000000E+00 0.  1.
         12    1    5    5    0    0  0.19423803558E+02 -0.13904926341E+03 -0.16137579277E+03  0.21390214654E+03  0.00000000000E+00 0. -1.
        -11    1    3    3    0    0 -0.40980207077E+02  0.15716816429E+02 -0.12216136002E+03  0.12980675472E+03  0.00000000000E+00 0.  1.
         12    1    3    3    0    0 -0.29915916814E+02 -0.57917474180E+02 -0.34451585174E+03  0.35062881797E+03  0.00000000000E+00 0. -1.
          5    1    4    4  501    0  0.86370856671E+02  0.18918947644E+03 -0.25618836883E+01  0.20804142886E+03  0.47000000000E+01 0.  1.
         -5    1    4    4    0  501 -0.67488464133E+01 -0.47602456533E+01 -0.29162390220E+02  0.30671515612E+02  0.47000000000E+01 0.  1.
          1    1    1    2  502    0  0.72965407091E+01 -0.29304744570E+02  0.37860273207E+03  0.37980526101E+03  0.00000000000E+00 0. -1.
          1    1    1    2  503    0 -0.25540787959E+02  0.29664957165E+02 -0.62421017988E+03  0.62543639980E+03  0.00000000000E+00 0. -1.
<mgrwt>
<rscale>  0 0.34329824E+02</rscale>
<asrwt>0</asrwt>
<pdfrwt beam="1">  1        2 0.76013380E-01 0.30199463E+02</pdfrwt>
<pdfrwt beam="2">  1        2 0.21839885E+00 0.39025093E+02</pdfrwt>
<totfact> 0.17717764E+02</totfact>
</mgrwt>
</event>
<event>
13    1  0.1589573E-008  0.4378776E+02  0.7546771E-02  0.1504368E+00
          2   -1    0    0  502    0  0.00000000000E+00  0.00000000000E+00  0.16391463869E+04  0.16391463869E+04  0.00000000000E+00 0. -1.
          2   -1    0    0  503    0 -0.00000000000E+00 -0.00000000000E+00 -0.23791193204E+04  0.23791193204E+04  0.00000000000E+00 0. -1.
         24    2    1    2    0    0  0.27859082661E+03 -0.10964471883E+04 -0.89084485714E+03  0.14436586919E+04  0.10361744032E+03 0.  0.
         25    2    1    2    0    0 -0.32776197502E+03  0.10616744560E+04  0.95529086635E+03  0.14706414621E+04  0.12500043104E+03 0.  0.
         24    2    1    2    0    0  0.14466653952E+02 -0.13876535629E+02 -0.65350397919E+03  0.65843549282E+03  0.77897400960E+02 0.  0.
        -13    1    5    5    0    0 -0.17358966355E+02  0.18200835187E+02 -0.10091653448E+03  0.10400361073E+03  0.00000000000E+00 0.  1.
         14    1    5    5    0    0  0.31825620307E+02 -0.32077370816E+02 -0.55258744471E+03  0.55443188209E+03  0.00000000000E+00 0. -1.
        -13    1    3    3    0    0  0.75376594727E+02 -0.40548765143E+03 -0.27165910864E+03  0.49386287348E+03  0.00000000000E+00 0.  1.
         14    1    3    3    0    0  0.20321423188E+03 -0.69095953685E+03 -0.61918574850E+03  0.94979581845E+03  0.00000000000E+00 0. -1.
          5    1    4    4  501    0 -0.28440670493E+03  0.73687661883E+03  0.69583044808E+03  0.10526520924E+04  0.47000000000E+01 0. -1.
         -5    1    4    4    0  501 -0.43355270092E+02  0.32479783719E+03  0.25946041827E+03  0.41798936965E+03  0.47000000000E+01 0. -1.
          1    1    1    2  502    0  0.37183243170E+02  0.49348055414E+01  0.14327300325E+03  0.14810165204E+03  0.00000000000E+00 0. -1.
          1    1    1    2  503    0 -0.24787487090E+01  0.43714462338E+02 -0.29418796668E+03  0.29742840845E+03  0.00000000000E+00 0. -1.
<mgrwt>
<rscale>  0 0.40527118E+02</rscale>
<asrwt>0</asrwt>
<pdfrwt beam="1">  1        2 0.24105094E+00 0.37509277E+02</pdfrwt>
<pdfrwt beam="2">  1        2 0.34987049E+00 0.43787763E+02</pdfrwt>
<totfact> 0.15533740E+01</totfact>
</mgrwt>
</event>
<event>
13    1  0.1589573E-008  0.2209909E+03  0.7546771E-02  0.1313038E+00
          2   -1    0    0  503    0  0.00000000000E+00  0.00000000000E+00  0.28641644885E+04  0.28641644885E+04  0.00000000000E+00 0. -1.
          2   -1    0    0  502    0 -0.00000000000E+00 -0.00000000000E+00 -0.39190546697E+03  0.39190546697E+03  0.00000000000E+00 0. -1.
         24    2    1    2    0    0  0.21767630745E+03  0.77877704641E+01 -0.93000337810E+01  0.23218359342E+03  0.79869307210E+02 0.  0.
         25    2    1    2    0    0 -0.24123091211E+03 -0.16737456113E+03  0.83775411907E+03  0.89647126502E+03  0.12498867276E+03 0.  0.
         24    2    1    2    0    0 -0.23223926567E+02 -0.31723122212E+02  0.20051215818E+03  0.22044451053E+03  0.82734209357E+02 0.  0.
        -11    1    5    5    0    0 -0.16195242437E+02  0.31784287117E+01 -0.29388392954E+00  0.16506806306E+02  0.00000000000E+00 0.  1.
         12    1    5    5    0    0 -0.70286841305E+01 -0.34901550924E+02  0.20080604211E+03  0.20393770423E+03  0.00000000000E+00 0. -1.
        -13    1    3    3    0    0  0.11180929200E+03 -0.31500920407E+02  0.13623112092E+02  0.11695817606E+03  0.00000000000E+00 0.  1.
         14    1    3    3    0    0  0.10586701545E+03  0.39288690871E+02 -0.22923145873E+02  0.11522541736E+03  0.00000000000E+00 0. -1.
          5    1    4    4  501    0 -0.18412299784E+03 -0.10136330656E+03  0.42010149386E+03  0.46976925548E+03  0.47000000000E+01 0. -1.
         -5    1    4    4    0  501 -0.57107914275E+02 -0.66011254571E+02  0.41765262521E+03  0.42670200955E+03  0.47000000000E+01 0. -1.
          1    1    1    2  502    0  0.72736588031E+02  0.21233843802E+03 -0.17730179306E+03  0.28603172783E+03  0.00000000000E+00 0. -1.
          1    1    1    2  503    0 -0.25958056797E+02 -0.21028525146E+02  0.16205945712E+04  0.16209388587E+04  0.00000000000E+00 0. -1.
<mgrwt>
<rscale>  0 0.85922152E+02</rscale>
<asrwt>0</asrwt>
<pdfrwt beam="1">  1        2 0.42120065E+00 0.33406879E+02</pdfrwt>
<pdfrwt beam="2">  1        2 0.57633158E-01 0.22099089E+03</pdfrwt>
<totfact> 0.54130990E+01</totfact>
</mgrwt>
</event>
<event>
13    1  0.1589573E-008  0.1544112E+03  0.7546771E-02  0.1395741E+00
          2   -1    0    0  503    0  0.00000000000E+00  0.00000000000E+00  0.19667416415E+04  0.19667416415E+04  0.00000000000E+00 0. -1.
          2   -1    0    0  502    0 -0.00000000000E+00 -0.00000000000E+00 -0.12962882936E+04  0.12962882936E+04  0.00000000000E+00 0. -1.
         24    2    1    2    0    0  0.13058136377E+02  0.10328080555E+02 -0.66553950142E+02  0.10682325340E+03  0.81881591426E+02 0.  0.
         25    2    1    2    0    0 -0.24193058429E+03 -0.34263254424E+02  0.13361699274E+04  0.13640660547E+04  0.12498699383E+03 0.  0.
         24    2    1    2    0    0 -0.24473696291E+02  0.11676392567E+01  0.11387206621E+03  0.14376706245E+03  0.84272151929E+02 0.  0.
        -11    1    3    3    0    0  0.10026898018E+02 -0.21522266194E+02  0.85123319698E+01  0.25223132667E+02  0.00000000000E+00 0.  1.
         12    1    3    3    0    0  0.30312383590E+01  0.31850346749E+02 -0.75066282112E+02  0.81600120736E+02  0.00000000000E+00 0. -1.
        -11    1    5    5    0    0  0.39624937385E+01  0.39585149367E+02  0.47139230578E+02  0.61682999818E+02  0.00000000000E+00 0.  1.
         12    1    5    5    0    0 -0.28436190029E+02 -0.38417510111E+02  0.66732835631E+02  0.82084062630E+02  0.00000000000E+00 0. -1.
          5    1    4    4  501    0 -0.21308471650E+03 -0.39048342802E+02  0.12969196332E+04  0.13148963816E+04  0.47000000000E+01 0. -1.
         -5    1    4    4    0  501 -0.28845867787E+02  0.47850883777E+01  0.39250294213E+02  0.49169673122E+02  0.47000000000E+01 0. -1.
          1    1    1    2  502    0  0.27313392410E+03  0.97141666266E+01 -0.11645729561E+04  0.11962134741E+04  0.00000000000E+00 0. -1.
          1    1    1    2  503    0 -0.19787779890E+02  0.13053367985E+02  0.45153826058E+03  0.45216009047E+03  0.00000000000E+00 0. -1.
<mgrwt>
<rscale>  0 0.60501084E+02</rscale>
<asrwt>0</asrwt>
<pdfrwt beam="1">  1        2 0.28922671E+00 0.23705414E+02</pdfrwt>
<pdfrwt beam="2">  1        2 0.19063063E+00 0.15441119E+03</pdfrwt>
<totfact> 0.34302785E+01</totfact>
</mgrwt>
</event>
<event>
13    1  0.2151054E-008  0.2350741E+03  0.7546771E-02  0.1233206E+00
          2   -1    0    0  503    0  0.00000000000E+00  0.00000000000E+00  0.22655933533E+04  0.22655933533E+04  0.00000000000E+00 0. -1.
          2   -1    0    0  502    0 -0.00000000000E+00 -0.00000000000E+00 -0.97494271228E+03  0.97494271228E+03  0.00000000000E+00 0. -1.
         24    2    1    2    0    0 -0.16702715421E+03 -0.82727280067E+02 -0.12846344117E+03  0.23986424932E+03  0.79310335225E+02 0.  0.
         25    2    1    2    0    0  0.61770050693E+03  0.32281462335E+03  0.64811384297E+03  0.95991537197E+03  0.12499108203E+03 0.  0.
         24    2    1    2    0    0  0.34572458195E+02 -0.35103563582E+01  0.46623568323E+03  0.47481597611E+03  0.82866889574E+02 0.  0.
        -13    1    3    3    0    0 -0.12113307702E+03 -0.41484292105E+02 -0.44260775865E+02  0.13547392782E+03  0.00000000000E+00 0.  1.
         14    1    3    3    0    0 -0.45894077187E+02 -0.41242987962E+02 -0.84202665307E+02  0.10439032149E+03  0.00000000000E+00 0. -1.
        -13    1    5    5    0    0  0.49383258144E+02  0.25052634955E+02  0.34341950151E+03  0.34785527841E+03  0.00000000000E+00 0.  1.
         14    1    5    5    0    0 -0.14810799949E+02 -0.28562991313E+02  0.12281618172E+03  0.12696069770E+03  0.00000000000E+00 0. -1.
          5    1    4    4  501    0  0.52107703903E+02 -0.44260050008E+01  0.69506868009E+02  0.87109683886E+02  0.47000000000E+01 0. -1.
         -5    1    4    4    0  501  0.56559280303E+03  0.32724062835E+03  0.57860697496E+03  0.87280568809E+03  0.47000000000E+01 0. -1.
          1    1    1    2  502    0  0.57588698014E+02 -0.35688049498E+02 -0.53871732749E+03  0.54296082175E+03  0.00000000000E+00 0. -1.
          1    1    1    2  503    0 -0.54283450893E+03 -0.20088893743E+03  0.84348188348E+03  0.10229796464E+04  0.00000000000E+00 0. -1.
<mgrwt>
<rscale>  0 0.12619954E+03</rscale>
<asrwt>0</asrwt>
<pdfrwt beam="1">  1        2 0.33317549E+00 0.23507407E+03</pdfrwt>
<pdfrwt beam="2">  1        2 0.14337393E+00 0.67750240E+02</pdfrwt>
<totfact> 0.29830828E+01</totfact>
</mgrwt>
</event>
<event>
13    1  0.1589573E-008  0.1277394E+03  0.7546771E-02  0.1349341E+00
          2   -1    0    0  503    0  0.00000000000E+00  0.00000000000E+00  0.23228527954E+04  0.23228527954E+04  0.00000000000E+00 0. -1.
          2   -1    0    0  502    0 -0.00000000000E+00 -0.00000000000E+00 -0.28986815631E+04  0.28986815631E+04  0.00000000000E+00 0. -1.
         24    2    1    2    0    0  0.17214637315E+01 -0.72098369029E+02 -0.58138155495E+03  0.59147043209E+03  0.81434767460E+02 0.  0.
         25    2    1    2    0    0 -0.72590613075E+02 -0.52099418303E+02 -0.30747504350E+03  0.34373753184E+03  0.12502336551E+03 0.  0.
         24    2    1    2    0    0  0.20602282781E+01 -0.42180887221E+02  0.16451451206E+03  0.18797776950E+03  0.80542816927E+02 0.  0.
        -11    1    3    3    0    0 -0.54381884149E+01 -0.89433109963E+02 -0.45944583403E+03  0.46810076849E+03  0.00000000000E+00 0.  1.
         12    1    3    3    0    0  0.71596521464E+01  0.17334740934E+02 -0.12193572091E+03  0.12336966360E+03  0.00000000000E+00 0. -1.
        -13    1    5    5    0    0 -0.31104471543E+02  0.67277173312E+01  0.59763454476E+02  0.67708351194E+02  0.00000000000E+00 0.  1.
         14    1    5    5    0    0  0.33164699821E+02 -0.48908604552E+02  0.10475105759E+03  0.12026941830E+03  0.00000000000E+00 0. -1.
          5    1    4    4  501    0 -0.76499049896E+02 -0.41983290238E+02 -0.88259522260E+02  0.12420360125E+03  0.47000000000E+01 0. -1.
         -5    1    4    4    0  501  0.39084368208E+01 -0.10116128065E+02 -0.21921552124E+03  0.21953393059E+03  0.47000000000E+01 0. -1.
          1    1    1    2  502    0 -0.31396150348E+02 -0.27923639538E+02 -0.19690659060E+04  0.19695141508E+04  0.00000000000E+00 0. -1.
          1    1    1    2  503    0  0.10020507141E+03  0.19430231409E+03  0.21175792248E+04  0.21288344743E+04  0.00000000000E+00 0. -1.
<mgrwt>
<rscale>  0 0.73261562E+02</rscale>
<asrwt>0</asrwt>
<pdfrwt beam="1">  1        2 0.34159600E+00 0.12773941E+03</pdfrwt>
<pdfrwt beam="2">  1        2 0.42627670E+00 0.42017233E+02</pdfrwt>
<totfact> 0.36304086E+00</totfact>
</mgrwt>
</event>
<event>
13    1  0.1589573E-008  0.1198503E+03  0.7546771E-02  0.1310868E+00
          2   -1    0    0  503    0  0.00000000000E+00  0.00000000000E+00  0.95511264134E+03  0.95511264134E+03  0.00000000000E+00 0. -1.
         -1   -1    0    0    0  501 -0.00000000000E+00 -0.00000000000E+00 -0.14096811057E+04  0.14096811057E+04  0.00000000000E+00 0.  1.
         24    2    1    2    0    0 -0.88653490142E+02  0.46027515764E+02  0.12565759437E+03  0.17932925571E+03  0.79944839794E+02 0.  0.
         25    2    1    2    0    0 -0.60245150218E+02 -0.18114179859E+03 -0.75914446504E+02  0.24047856277E+03  0.12500042656E+03 0.  0.
         24    2    1    2    0    0 -0.35261099391E+02  0.37058789774E+02 -0.13919781113E+03  0.16622478287E+03  0.75086275617E+02 0.  0.
        -11    1    5    5    0    0 -0.17663470056E+02 -0.16607198512E+02 -0.11998969931E+02  0.27051293799E+02  0.00000000000E+00 0.  1.
         12    1    5    5    0    0 -0.17597629335E+02  0.53665988286E+02 -0.12719884120E+03  0.13917348907E+03  0.00000000000E+00 0. -1.
        -13    1    3    3    0    0 -0.19139382976E+02  0.25015093293E+01 -0.92833731408E+01  0.21418556125E+02  0.00000000000E+00 0.  1.
         14    1    3    3    0    0 -0.69514107166E+02  0.43526006434E+02  0.13494096751E+03  0.15791069959E+03  0.00000000000E+00 0. -1.
          5    1    4    4  502    0 -0.57007042631E+02 -0.40748284288E+02  0.16704312314E+02  0.72189678153E+02  0.47000000000E+01 0.  1.
         -5    1    4    4    0  502 -0.32381075879E+01 -0.14039351430E+03 -0.92618758818E+02  0.16828888461E+03  0.47000000000E+01 0.  1.
          1    1    1    2  503    0  0.10527416400E+02  0.61931819178E+02  0.69806796286E+03  0.70088890525E+03  0.00000000000E+00 0. -1.
         -2    1    1    2    0  501  0.17363232335E+03  0.36123673876E+02 -0.10631817639E+04  0.10778722404E+04  0.00000000000E+00 0.  1.
<mgrwt>
<rscale>  0 0.86769935E+02</rscale>
<asrwt>0</asrwt>
<pdfrwt beam="1">  1        2 0.14045774E+00 0.62820194E+02</pdfrwt>
<pdfrwt beam="2">  1       -1 0.20730604E+00 0.11985034E+03</pdfrwt>
<totfact> 0.59008852E+00</totfact>
</mgrwt>
</event>
<event>
13    1  0.1589573E-008  0.3145532E+03  0.7546771E-02  0.1318780E+00
          2   -1    0    0  503    0  0.00000000000E+00  0.00000000000E+00  0.16742048560E+04  0.16742048560E+04  0.00000000000E+00 0. -1.
          2   -1    0    0  502    0 -0.00000000000E+00 -0.00000000000E+00 -0.16030641014E+04  0.16030641014E+04  0.00000000000E+00 0. -1.
         24    2    1    2    0    0  0.20389216285E+03  0.11142635563E+02 -0.84525056610E+02  0.23473450236E+03  0.79117817235E+02 0.  0.
         25    2    1    2    0    0  0.78661705102E+02  0.14698247532E+02  0.64855890697E+03  0.66532560805E+03  0.12500322631E+03 0.  0.
         24    2    1    2    0    0  0.82311332081E+02 -0.92532297388E+02 -0.33408302725E+02  0.15135679137E+03  0.80345392862E+02 0.  0.
        -11    1    3    3    0    0  0.19773093503E+03  0.25111777648E+02 -0.89755450325E+02  0.21859589408E+03  0.00000000000E+00 0.  1.
         12    1    3    3    0    0  0.61612278200E+01 -0.13969142085E+02  0.52303937150E+01  0.16138608282E+02  0.00000000000E+00 0. -1.
        -13    1    5    5    0    0  0.36362883960E+02 -0.21197633651E+02 -0.49517374761E+02  0.64988994495E+02  0.00000000000E+00 0.  1.
         14    1    5    5    0    0  0.45948448122E+02 -0.71334663737E+02  0.16109072036E+02  0.86367796875E+02  0.00000000000E+00 0. -1.
          5    1    4    4  501    0  0.97573297810E+01 -0.13296481137E+02  0.55677731317E+01  0.18030307616E+02  0.47000000000E+01 0. -1.
         -5    1    4    4    0  501  0.68904375321E+02  0.27994728668E+02  0.64299113384E+03  0.64729530044E+03  0.47000000000E+01 0. -1.
          1    1    1    2  502    0 -0.34274846550E+03  0.69460009311E+02 -0.13197495801E+04  0.13652985599E+04  0.00000000000E+00 0. -1.
          1    1    1    2  503    0 -0.22116734541E+02 -0.27685950180E+01  0.86026478709E+03  0.86055349571E+03  0.00000000000E+00 0. -1.
<mgrwt>
<rscale>  0 0.83732819E+02</rscale>
<asrwt>0</asrwt>
<pdfrwt beam="1">  1        2 0.24620660E+00 0.22289349E+02</pdfrwt>
<pdfrwt beam="2">  1        2 0.23574472E+00 0.31455316E+03</pdfrwt>
<totfact> 0.30755590E+01</totfact>
</mgrwt>
</event>
<event>
13    1  0.1589573E-008  0.6156241E+02  0.7546771E-02  0.1393594E+00
          2   -1    0    0  503    0  0.00000000000E+00  0.00000000000E+00  0.73794251354E+03  0.73794251354E+03  0.00000000000E+00 0. -1.
          2   -1    0    0  502    0 -0.00000000000E+00 -0.00000000000E+00 -0.19289312098E+04  0.19289312098E+04  0.00000000000E+00 0. -1.
         24    2    1    2    0    0  0.10595476107E+03  0.16271046513E+03 -0.54855727101E+03  0.58752854003E+03  0.81077733760E+02 0.  0.
         25    2    1    2    0    0 -0.50473151580E+02 -0.17160658108E+03 -0.18455217242E+03  0.28579782224E+03  0.12499813261E+03 0.  0.
         24    2    1    2    0    0 -0.51122832001E+02  0.12844561766E+02  0.91926862961E+02  0.13290360911E+03  0.80214054022E+02 0.  0.
        -11    1    3    3    0    0 -0.12944056324E+02  0.97704520541E+01 -0.32804541797E+02  0.36594375114E+02  0.00000000000E+00 0.  1.
         12    1    3    3    0    0  0.11889881740E+03  0.15294001308E+03 -0.51575272922E+03  0.55093416492E+03  0.00000000000E+00 0. -1.
        -13    1    5    5    0    0  0.11881346909E+02 -0.15560019686E+02  0.45811660788E+02  0.49819563238E+02  0.00000000000E+00 0.  1.
         14    1    5    5    0    0 -0.63004178910E+02  0.28404581452E+02  0.46115202173E+02  0.83084045875E+02  0.00000000000E+00 0. -1.
          5    1    4    4  501    0 -0.14547350105E+02  0.89168313831E+01  0.79637980943E+01  0.19407404697E+02  0.47000000000E+01 0. -1.
         -5    1    4    4    0  501 -0.35925801476E+02 -0.18052341246E+03 -0.19251597051E+03  0.26639041754E+03  0.47000000000E+01 0. -1.
          1    1    1    2  502    0  0.47172458358E+02 -0.37858409475E+02 -0.11026807103E+04  0.11043383761E+04  0.00000000000E+00 0. -1.
          1    1    1    2  503    0 -0.51531235849E+02  0.33909963657E+02  0.55287459455E+03  0.55630537585E+03  0.00000000000E+00 0. -1.
<mgrwt>
<rscale>  0 0.61021597E+02</rscale>
<asrwt>0</asrwt>
<pdfrwt beam="1">  1        2 0.10852096E+00 0.61562409E+02</pdfrwt>
<pdfrwt beam="2">  1        2 0.28366635E+00 0.60485535E+02</pdfrwt>
<totfact> 0.70702788E+01</totfact>
</mgrwt>
</event>
<event>
13    1  0.1589573E-008  0.8571331E+02  0.7546771E-02  0.1331538E+00
          2   -1    0    0  502    0  0.00000000000E+00  0.00000000000E+00  0.32543762726E+04  0.32543762726E+04  0.00000000000E+00 0. -1.
          2   -1    0    0  503    0 -0.00000000000E+00 -0.00000000000E+00 -0.12243463202E+04  0.12243463202E+04  0.00000000000E+00 0. -1.
         24    2    1    2    0    0  0.72689717068E+02 -0.35841368665E+02 -0.70435555402E+03  0.71371655029E+03  0.81891202247E+02 0.  0.
         25    2    1    2    0    0 -0.19490561657E+02  0.14313443636E+03  0.88484682851E+03  0.90523197453E+03  0.12499467561E+03 0.  0.
         24    2    1    2    0    0 -0.20732892585E+02  0.25472943097E+02 -0.13328400640E+03  0.15941289075E+03  0.81050106178E+02 0.  0.
        -11    1    3    3    0    0 -0.51396850472E+01  0.10057150633E+02 -0.26116894060E+03  0.26141304133E+03  0.00000000000E+00 0.  1.
         12    1    3    3    0    0  0.77829402116E+02 -0.45898519297E+02 -0.44318661341E+03  0.45230350896E+03  0.00000000000E+00 0. -1.
        -13    1    5    5    0    0  0.20731178816E+02  0.22151475555E+02 -0.14637243055E+02  0.33685583394E+02  0.00000000000E+00 0.  1.
         14    1    5    5    0    0 -0.41464071401E+02  0.33214675425E+01 -0.11864676334E+03  0.12572730736E+03  0.00000000000E+00 0. -1.
          5    1    4    4  501    0  0.45917588958E+02  0.83732741080E+02  0.33759134601E+03  0.35086978184E+03  0.47000000000E+01 0.  1.
         -5    1    4    4    0  501 -0.65408150615E+02  0.59401695275E+02  0.54725548250E+03  0.55436219270E+03  0.47000000000E+01 0.  1.
          1    1    1    2  502    0  0.21061935467E+02 -0.83052527345E+02  0.23370799754E+04  0.23386500676E+04  0.00000000000E+00 0. -1.
          1    1    1    2  503    0 -0.53528198294E+02 -0.49713483443E+02 -0.35425729115E+03  0.36171110956E+03  0.00000000000E+00 0. -1.
<mgrwt>
<rscale>  0 0.79130206E+02</rscale>
<asrwt>0</asrwt>
<pdfrwt beam="1">  1        2 0.47858475E+00 0.85713308E+02</pdfrwt>
<pdfrwt beam="2">  1        2 0.18005093E+00 0.73052710E+02</pdfrwt>
<totfact> 0.75802988E+00</totfact>
</mgrwt>
</event>
<event>
13    1  0.1589573E-008  0.1631011E+03  0.7546771E-02  0.1213429E+00
          2   -1    0    0  502    0  0.00000000000E+00  0.00000000000E+00  0.24235668220E+04  0.24235668220E+04  0.00000000000E+00 0. -1.
          2   -1    0    0  503    0 -0.00000000000E+00 -0.00000000000E+00 -0.27701049988E+04  0.27701049988E+04  0.00000000000E+00 0. -1.
         24    2    1    2    0    0 -0.12381452921E+03  0.25888066732E+01 -0.64550431630E+03  0.66350384163E+03  0.90690605476E+02 0.  0.
         25    2    1    2    0    0  0.71548827125E+01 -0.92547160284E+02  0.13526858169E+04  0.13616170163E+04  0.12500324236E+03 0.  0.
         24    2    1    2    0    0  0.91500398360E+00 -0.59046525309E+02  0.16053526239E+03  0.18904553871E+03  0.80494197628E+02 0.  0.
        -11    1    3    3    0    0  0.19111589297E+01  0.25510378619E+02 -0.98301476828E+02  0.10157564813E+03  0.00000000000E+00 0.  1.
         12    1    3    3    0    0 -0.12572568814E+03 -0.22921571946E+02 -0.54720283948E+03  0.56192819350E+03  0.00000000000E+00 0. -1.
        -13    1    5    5    0    0 -0.16516018740E+01 -0.75425334590E+02  0.94289884876E+02  0.12075715828E+03  0.00000000000E+00 0.  1.
         14    1    5    5    0    0  0.25666058576E+01  0.16378809281E+02  0.66245377518E+02  0.68288380429E+02  0.00000000000E+00 0. -1.
          5    1    4    4  501    0  0.62347699087E+02 -0.36771307868E+02  0.48740515324E+03  0.49277300866E+03  0.47000000000E+01 0.  1.
         -5    1    4    4    0  501 -0.55192816374E+02 -0.55775852417E+02  0.86528066363E+03  0.86884400760E+03  0.47000000000E+01 0.  1.
          1    1    1    2  502    0 -0.64239549894E+02  0.15251311000E+03  0.87095568030E+03  0.88653864301E+03  0.00000000000E+00 0. -1.
          1    1    1    2  503    0  0.17998419241E+03 -0.35082310814E+01 -0.20852106200E+04  0.20929667812E+04  0.00000000000E+00 0. -1.
<mgrwt>
<rscale>  0 0.13992575E+03</rscale>
<asrwt>0</asrwt>
<pdfrwt beam="1">  1        2 0.35640688E+00 0.12004345E+03</pdfrwt>
<pdfrwt beam="2">  1        2 0.40736838E+00 0.16310107E+03</pdfrwt>
<totfact> 0.30973828E+00</totfact>
</mgrwt>
</event>
<event>
13    1  0.1589573E-008  0.2407041E+03  0.7546771E-02  0.1209969E+00
          2   -1    0    0  502    0  0.00000000000E+00  0.00000000000E+00  0.16172099850E+04  0.16172099850E+04  0.00000000000E+00 0. -1.
          2   -1    0    0  503    0 -0.00000000000E+00 -0.00000000000E+00 -0.86966082309E+03  0.86966082309E+03  0.00000000000E+00 0. -1.
         24    2    1    2    0    0 -0.17605102493E+03  0.29184553202E+02 -0.13997048248E+03  0.24054159575E+03  0.80142509273E+02 0.  0.
         25    2    1    2    0    0 -0.12237943465E+03  0.76167542417E+02  0.49808275535E+02  0.19719444735E+03  0.12500626068E+03 0.  0.
         24    2    1    2    0    0 -0.83491163022E+02  0.11048486043E+02  0.46796075249E+03  0.48257545157E+03  0.82455789585E+02 0.  0.
        -11    1    3    3    0    0 -0.11943753001E+03  0.16410479945E+02 -0.43903948390E+02  0.12830504320E+03  0.00000000000E+00 0.  1.
         12    1    3    3    0    0 -0.56613494927E+02  0.12774073257E+02 -0.96066534094E+02  0.11223655255E+03  0.00000000000E+00 0. -1.
        -13    1    5    5    0    0 -0.94406242786E+02  0.16883063563E+02  0.45355321381E+03  0.46358180969E+03  0.00000000000E+00 0.  1.
         14    1    5    5    0    0  0.10915079765E+02 -0.58345775201E+01  0.14407538680E+02  0.18993641881E+02  0.00000000000E+00 0. -1.
          5    1    4    4  501    0 -0.14090921615E+03  0.35170586139E+02  0.33590081253E+02  0.14914007136E+03  0.47000000000E+01 0. -1.
         -5    1    4    4    0  501  0.18529781497E+02  0.40996956279E+02  0.16218194282E+02  0.48054375995E+02  0.47000000000E+01 0. -1.
          1    1    1    2  502    0 -0.49278961450E+02  0.68511698069E+02  0.87384464197E+03  0.87791043228E+03  0.00000000000E+00 0. -1.
          1    1    1    2  503    0  0.43120058406E+03 -0.18491227973E+03 -0.50409402559E+03  0.68864888116E+03  0.00000000000E+00 0. -1.
<mgrwt>
<rscale>  0 0.14252674E+03</rscale>
<asrwt>0</asrwt>
<pdfrwt beam="1">  1        2 0.23782500E+00 0.84393535E+02</pdfrwt>
<pdfrwt beam="2">  1        2 0.12789130E+00 0.24070410E+03</pdfrwt>
<totfact> 0.75242401E+01</totfact>
</mgrwt>
</event>
<event>
13    1  0.1589573E-008  0.8006808E+02  0.7546771E-02  0.1465491E+00
         -1   -1    0    0    0  501 -0.00000000000E+00  0.00000000000E+00  0.14998383275E+04  0.14998383275E+04  0.00000000000E+00 0.  1.
          2   -1    0    0  503    0  0.00000000000E+00 -0.00000000000E+00 -0.15717895720E+04  0.15717895720E+04  0.00000000000E+00 0. -1.
         24    2    1    2    0    0  0.77142336093E+01  0.38275057345E+01  0.57301076829E+03  0.57852847012E+03  0.79244501181E+02 0.  0.
         25    2    1    2    0    0  0.50787418038E+02  0.51659235395E+02  0.29988708294E+03  0.33287722561E+03  0.12500778528E+03 0.  0.
         24    2    1    2    0    0 -0.38046367471E+01 -0.31626583421E+02 -0.62810725623E+03  0.63403383950E+03  0.80408135506E+02 0.  0.
        -11    1    3    3    0    0  0.51296701189E+01 -0.18458994226E+02  0.52690931986E+03  0.52725750762E+03  0.00000000000E+00 0.  1.
         12    1    3    3    0    0  0.25845634904E+01  0.22286499961E+02  0.46101448421E+02  0.51270962498E+02  0.00000000000E+00 0. -1.
        -11    1    5    5    0    0  0.15393908601E+02 -0.96798641659E+01 -0.55539797158E+03  0.55569558125E+03  0.00000000000E+00 0.  1.
         12    1    5    5    0    0 -0.19198545349E+02 -0.21946719255E+02 -0.72709284654E+02  0.78338258243E+02  0.00000000000E+00 0. -1.
          5    1    4    4  502    0 -0.78544565050E+01  0.47329663486E+02  0.25292310079E+03  0.25747616287E+03  0.47000000000E+01 0. -1.
         -5    1    4    4    0  502  0.58641874543E+02  0.43295719088E+01  0.46963982152E+02  0.75401062740E+02  0.47000000000E+01 0. -1.
          1    1    1    2  503    0  0.21986950071E+02  0.15578335593E+02 -0.91819237707E+03  0.91858769413E+03  0.00000000000E+00 0. -1.
         -2    1    1    2    0  501 -0.76683964971E+02 -0.39438493301E+02  0.60145053758E+03  0.60760067017E+03  0.00000000000E+00 0.  1.
<mgrwt>
<rscale>  0 0.46449431E+02</rscale>
<asrwt>0</asrwt>
<pdfrwt beam="2">  1        2 0.23114553E+00 0.26946438E+02</pdfrwt>
<pdfrwt beam="1">  1       -1 0.22056446E+00 0.80068083E+02</pdfrwt>
<totfact> 0.26186382E+00</totfact>
</mgrwt>
</event>
<event>
13    1  0.1589573E-008  0.1165416E+03  0.7546771E-02  0.1419187E+00
          2   -1    0    0  503    0  0.00000000000E+00  0.00000000000E+00  0.23733977417E+04  0.23733977417E+04  0.00000000000E+00 0. -1.
          2   -1    0    0  502    0 -0.00000000000E+00 -0.00000000000E+00 -0.11915357519E+04  0.11915357519E+04  0.00000000000E+00 0. -1.
         24    2    1    2    0    0  0.86144062336E+00  0.43657913170E+02 -0.46230861880E+02  0.10313500226E+03  0.81195939795E+02 0.  0.
         25    2    1    2    0    0  0.30955787177E+02 -0.10386575158E+02  0.15512966041E+04  0.15566669835E+04  0.12499920819E+03 0.  0.
         24    2    1    2    0    0  0.71901269184E+02 -0.66861303248E+02 -0.13048722130E+02  0.12708068168E+03  0.79617863104E+02 0.  0.
        -13    1    5    5    0    0  0.21697989308E+02 -0.64934451916E+01  0.29959974933E+02  0.37557524791E+02  0.00000000000E+00 0.  1.
         14    1    5    5    0    0  0.50203279876E+02 -0.60367858056E+02 -0.43008697062E+02  0.89523156890E+02  0.00000000000E+00 0. -1.
        -13    1    3    3    0    0 -0.32980083076E+01 -0.23766448777E+02 -0.17642340248E+02  0.29782093877E+02  0.00000000000E+00 0.  1.
         14    1    3    3    0    0  0.41594489310E+01  0.67424361947E+02 -0.28588521632E+02  0.73352908385E+02  0.00000000000E+00 0. -1.
          5    1    4    4  501    0  0.34276089396E+02  0.48698823371E+02  0.10792748684E+04  0.10809268048E+04  0.47000000000E+01 0.  1.
         -5    1    4    4    0  501 -0.33203022195E+01 -0.59085398529E+02  0.47202173567E+03  0.47574017875E+03  0.47000000000E+01 0.  1.
          1    1    1    2  502    0 -0.12980810119E+03  0.35197638635E+02 -0.10395366090E+04  0.10482010201E+04  0.00000000000E+00 0. -1.
          1    1    1    2  503    0  0.26089604209E+02 -0.16076733984E+01  0.72938157877E+03  0.72984980613E+03  0.00000000000E+00 0. -1.
<mgrwt>
<rscale>  0 0.55193230E+02</rscale>
<asrwt>0</asrwt>
<pdfrwt beam="1">  1        2 0.34902908E+00 0.26139091E+02</pdfrwt>
<pdfrwt beam="2">  1        2 0.17522585E+00 0.11654165E+03</pdfrwt>
<totfact> 0.25686822E+01</totfact>
</mgrwt>
</event>
<event>
13    1  0.1589573E-008  0.1658011E+03  0.7546771E-02  0.1273535E+00
          2   -1    0    0  502    0  0.00000000000E+00  0.00000000000E+00  0.16208420196E+04  0.16208420196E+04  0.00000000000E+00 0. -1.
          2   -1    0    0  503    0 -0.00000000000E+00 -0.00000000000E+00 -0.39209824972E+04  0.39209824972E+04  0.00000000000E+00 0. -1.
         24    2    1    2    0    0 -0.76007021090E+02  0.21710534628E+03  0.20823972754E+03  0.31918206609E+03  0.74843894526E+02 0.  0.
         25    2    1    2    0    0  0.15321693778E+03 -0.19515898374E+02 -0.18199296846E+03  0.26944764140E+03  0.12499716226E+03 0.  0.
         24    2    1    2    0    0  0.34613072712E+02 -0.18212740966E+03  0.98033998202E+02  0.22462338448E+03  0.80476965027E+02 0.  0.
        -11    1    3    3    0    0 -0.19588871759E+02  0.88977223012E+01  0.40736333848E+02  0.46068885968E+02  0.00000000000E+00 0.  1.
         12    1    3    3    0    0 -0.56418149330E+02  0.20820762398E+03  0.16750339369E+03  0.27311318012E+03  0.00000000000E+00 0. -1.
        -13    1    5    5    0    0  0.14207664412E+02 -0.17402343772E+03  0.67902761563E+02  0.18734139861E+03  0.00000000000E+00 0.  1.
         14    1    5    5    0    0  0.20405408300E+02 -0.81039719361E+01  0.30131236640E+02  0.37281985871E+02  0.00000000000E+00 0. -1.
          5    1    4    4  501    0  0.26874164975E+02  0.24917322305E+02  0.71578832332E+01  0.37635342251E+02  0.47000000000E+01 0.  1.
         -5    1    4    4    0  501  0.12634277280E+03 -0.44433220679E+02 -0.18915085169E+03  0.23181229915E+03  0.47000000000E+01 0.  1.
          1    1    1    2  502    0 -0.15400647388E+03 -0.64045503782E+02  0.11457468171E+04  0.11578236435E+04  0.00000000000E+00 0. -1.
          1    1    1    2  503    0  0.42183484478E+02  0.48583465535E+02 -0.35701680520E+04  0.35707477814E+04  0.00000000000E+00 0. -1.
<mgrwt>
<rscale>  0 0.10328531E+03</rscale>
<asrwt>0</asrwt>
<pdfrwt beam="1">  1        2 0.23835913E+00 0.16580113E+03</pdfrwt>
<pdfrwt beam="2">  1        2 0.57661506E+00 0.64341274E+02</pdfrwt>
<totfact> 0.19067617E+00</totfact>
</mgrwt>
</event>
<event>
13    1  0.1589573E-008  0.5949305E+02  0.7546771E-02  0.1479002E+00
          2   -1    0    0  502    0  0.00000000000E+00  0.00000000000E+00  0.24981155954E+04  0.24981155954E+04  0.00000000000E+00 0. -1.
          2   -1    0    0  503    0 -0.00000000000E+00 -0.00000000000E+00 -0.24083195711E+04  0.24083195711E+04  0.00000000000E+00 0. -1.
         24    2    1    2    0    0  0.29704158204E+03  0.20033025614E+03 -0.34450069854E+03  0.50810998966E+03  0.10549463171E+03 0.  0.
         25    2    1    2    0    0 -0.91187124249E+02  0.36917947465E+03  0.49118568422E+03  0.63363765624E+03  0.12499890755E+03 0.  0.
         24    2    1    2    0    0 -0.28621619903E+03 -0.56601091441E+03 -0.86954284486E+02  0.64531942906E+03  0.81166804297E+02 0.  0.
        -13    1    5    5    0    0 -0.13399364483E+03 -0.18607609054E+03 -0.15397363540E+02  0.22981663806E+03  0.00000000000E+00 0.  1.
         14    1    5    5    0    0 -0.15222255420E+03 -0.37993482387E+03 -0.71556920947E+02  0.41550279100E+03  0.00000000000E+00 0. -1.
        -13    1    3    3    0    0  0.15742232726E+03  0.43470398803E+02 -0.14291126613E+03  0.21701404258E+03  0.00000000000E+00 0.  1.
         14    1    3    3    0    0  0.13961925478E+03  0.15685985734E+03 -0.20158943240E+03  0.29109594708E+03  0.00000000000E+00 0. -1.
          5    1    4    4  501    0 -0.50346954168E+02  0.14673611266E+03  0.29870201521E+03  0.33661741850E+03  0.47000000000E+01 0. -1.
         -5    1    4    4    0  501 -0.40840170081E+02  0.22244336199E+03  0.19248366901E+03  0.29702023773E+03  0.47000000000E+01 0. -1.
          1    1    1    2  502    0  0.24008092506E+02 -0.22539402808E+02  0.15739717547E+04  0.15743162001E+04  0.00000000000E+00 0. -1.
          1    1    1    2  503    0  0.56353648738E+02  0.19040586428E+02 -0.15439064317E+04  0.15450518915E+04  0.00000000000E+00 0. -1.
<mgrwt>
<rscale>  0 0.44262080E+02</rscale>
<asrwt>0</asrwt>
<pdfrwt beam="1">  1        2 0.36736994E+00 0.32930429E+02</pdfrwt>
<pdfrwt beam="2">  1        2 0.35416464E+00 0.59493053E+02</pdfrwt>
<totfact> 0.59071864E+00</totfact>
</mgrwt>
</event>
<event>
13    1  0.1589573E-008  0.1239354E+03  0.7546771E-02  0.1364842E+00
          2   -1    0    0  502    0  0.00000000000E+00  0.00000000000E+00  0.11867036513E+04  0.11867036513E+04  0.00000000000E+00 0. -1.
          2   -1    0    0  503    0 -0.00000000000E+00 -0.00000000000E+00 -0.22874225098E+04  0.22874225098E+04  0.00000000000E+00 0. -1.
         24    2    1    2    0    0 -0.16567332491E+02  0.10945864553E+03 -0.14538227549E+04  0.14601942659E+04  0.79441927818E+02 0.  0.
         25    2    1    2    0    0  0.70253998126E+02 -0.22925525437E+03  0.12805330903E+03  0.29919172244E+03  0.12499776363E+03 0.  0.
         24    2    1    2    0    0  0.45278504447E+02  0.36660050358E+02 -0.69856828111E+02  0.12142803015E+03  0.80440585627E+02 0.  0.
        -11    1    5    5    0    0  0.42383554064E+02  0.49369315355E+02 -0.17368048546E+02  0.67344963167E+02  0.00000000000E+00 0.  1.
         12    1    5    5    0    0  0.28949503838E+01 -0.12709264997E+02 -0.52488779565E+02  0.54083066987E+02  0.00000000000E+00 0. -1.
        -13    1    3    3    0    0 -0.60732776845E+01  0.43774398286E+02 -0.21028262549E+03  0.21487639524E+03  0.00000000000E+00 0.  1.
         14    1    3    3    0    0 -0.10494054806E+02  0.65684247241E+02 -0.12435401294E+04  0.12453178707E+04  0.00000000000E+00 0. -1.
          5    1    4    4  501    0 -0.31709967558E+02 -0.28929708361E+02  0.36102223959E+02  0.56284195324E+02  0.47000000000E+01 0. -1.
         -5    1    4    4    0  501  0.10196396568E+03 -0.20032554601E+03  0.91951085068E+02  0.24290752711E+03  0.47000000000E+01 0. -1.
          1    1    1    2  502    0  0.15849997936E+02  0.34531802890E+02  0.93773533497E+03  0.93850478225E+03  0.00000000000E+00 0. -1.
          1    1    1    2  503    0 -0.11481516802E+03  0.48604755599E+02 -0.64282791950E+03  0.65480736035E+03  0.00000000000E+00 0. -1.
<mgrwt>
<rscale>  0 0.68622187E+02</rscale>
<asrwt>0</asrwt>
<pdfrwt beam="1">  1        2 0.17451524E+00 0.37995629E+02</pdfrwt>
<pdfrwt beam="2">  1        2 0.33638566E+00 0.12393543E+03</pdfrwt>
<totfact> 0.24831420E+01</totfact>
</mgrwt>
</event>
<event>
13    1  0.1589573E-008  0.1465536E+03  0.7546771E-02  0.1328556E+00
          2   -1    0    0  503    0  0.00000000000E+00  0.00000000000E+00  0.38833807785E+04  0.38833807785E+04  0.00000000000E+00 0. -1.
         -1   -1    0    0    0  501 -0.00000000000E+00 -0.00000000000E+00 -0.29800633446E+03  0.29800633446E+03  0.00000000000E+00 0.  1.
         24    2    1    2    0    0 -0.87228878637E+01  0.22800211985E+02 -0.11591172722E+03  0.14274200985E+03  0.79648066071E+02 0.  0.
         25    2    1    2    0    0 -0.27574554815E+03 -0.29024248476E+02  0.63800365000E+03  0.70679023920E+03  0.12500308192E+03 0.  0.
         24    2    1    2    0    0 -0.21352123327E+02 -0.65673693716E+01  0.91712587256E+03  0.92089295864E+03  0.80155671299E+02 0.  0.
        -13    1    5    5    0    0 -0.40599963081E+02  0.15079184601E+02  0.30247488951E+03  0.30555981018E+03  0.00000000000E+00 0.  1.
         14    1    5    5    0    0  0.19247839754E+02 -0.21646553972E+02  0.61465098304E+03  0.61533314846E+03  0.00000000000E+00 0. -1.
        -13    1    3    3    0    0 -0.14456089263E+02  0.48171489938E+02 -0.10082410782E+03  0.11267196491E+03  0.00000000000E+00 0.  1.
         14    1    3    3    0    0  0.57332013994E+01 -0.25371277952E+02 -0.15087619403E+02  0.30070044936E+02  0.00000000000E+00 0. -1.
          5    1    4    4  502    0 -0.88649776907E+01  0.27177864505E+02  0.38822016381E+02  0.48440304545E+02  0.47000000000E+01 0.  1.
         -5    1    4    4    0  502 -0.26688057046E+03 -0.56202112981E+02  0.59918163362E+03  0.65834993465E+03  0.47000000000E+01 0.  1.
          1    1    1    2  503    0  0.26810693961E+03  0.35185158816E+02  0.22666559034E+04  0.22827282604E+04  0.00000000000E+00 0. -1.
         -2    1    1    2    0  501  0.37713619728E+02 -0.22393752954E+02 -0.12049925471E+03  0.12823364484E+03  0.00000000000E+00 0.  1.
<mgrwt>
<rscale>  0 0.80174847E+02</rscale>
<asrwt>0</asrwt>
<pdfrwt beam="1">  1        2 0.57108538E+00 0.14655365E+03</pdfrwt>
<pdfrwt beam="2">  1       -1 0.43824463E-01 0.43861114E+02</pdfrwt>
<totfact> 0.49218281E+00</totfact>
</mgrwt>
</event>
<event>
13    1  0.1589573E-008  0.1433835E+03  0.7546771E-02  0.1301488E+00
          2   -1    0    0  502    0  0.00000000000E+00  0.00000000000E+00  0.12081061152E+04  0.12081061152E+04  0.00000000000E+00 0. -1.
          2   -1    0    0  503    0 -0.00000000000E+00 -0.00000000000E+00 -0.88059805636E+03  0.88059805636E+03  0.00000000000E+00 0. -1.
         24    2    1    2    0    0  0.35795042259E+03  0.21506551974E+03 -0.75267243406E+02  0.43140614524E+03  0.77874395109E+02 0.  0.
         25    2    1    2    0    0 -0.37491434778E+03 -0.19250722812E+03  0.25863769702E+03  0.51003722813E+03  0.12499885885E+03 0.  0.
         24    2    1    2    0    0  0.55160149580E+02  0.66904600991E+02 -0.57909061083E+02  0.13185476154E+03  0.80705334712E+02 0.  0.
        -13    1    3    3    0    0  0.18597979478E+03  0.12749566635E+03 -0.35051936670E+01  0.22551256148E+03  0.00000000000E+00 0.  1.
         14    1    3    3    0    0  0.17197062781E+03  0.87569853389E+02 -0.71762049739E+02  0.20589358376E+03  0.00000000000E+00 0. -1.
        -13    1    5    5    0    0 -0.41060126400E+01 -0.14146760838E+02  0.21020774317E+01  0.14879815575E+02  0.00000000000E+00 0.  1.
         14    1    5    5    0    0  0.59266162220E+02  0.81051361829E+02 -0.60011138515E+02  0.11697494597E+03  0.00000000000E+00 0. -1.
          5    1    4    4  501    0 -0.55905139887E+02  0.15953357186E+02  0.39059473324E+02  0.70197056403E+02  0.47000000000E+01 0.  1.
         -5    1    4    4    0  501 -0.31900920790E+03 -0.20846058531E+03  0.21957822369E+03  0.43984017173E+03  0.47000000000E+01 0.  1.
          1    1    1    2  502    0 -0.22607989358E+02 -0.14450221309E+03  0.59785483526E+03  0.61548551146E+03  0.00000000000E+00 0. -1.
          1    1    1    2  503    0 -0.15588235029E+02  0.55039320487E+02 -0.39580816894E+03  0.39992052519E+03  0.00000000000E+00 0. -1.
<mgrwt>
<rscale>  0 0.90565649E+02</rscale>
<asrwt>0</asrwt>
<pdfrwt beam="1">  1        2 0.17766266E+00 0.14338349E+03</pdfrwt>
<pdfrwt beam="2">  1        2 0.12949971E+00 0.57204195E+02</pdfrwt>
<totfact> 0.12168087E+02</totfact>
</mgrwt>
</event>
<event>
13    1  0.1589573E-008  0.1729661E+03  0.7546771E-02  0.1211089E+00
          2   -1    0    0  503    0  0.00000000000E+00  0.00000000000E+00  0.85776988006E+03  0.85776988006E+03  0.00000000000E+00 0. -1.
          2   -1    0    0  502    0 -0.00000000000E+00 -0.00000000000E+00 -0.42636960456E+04  0.42636960456E+04  0.00000000000E+00 0. -1.
         24    2    1    2    0    0  0.28958060709E+02  0.77804724935E+01 -0.66841021893E+02  0.11142309335E+03  0.83954026058E+02 0.  0.
         25    2    1    2    0    0 -0.20175682566E+03 -0.28298486131E+03  0.40927548162E+03  0.55128736522E+03  0.12500036307E+03 0.  0.
         24    2    1    2    0    0 -0.49825712833E+02  0.98346414447E+02  0.15955143599E+03  0.20910248431E+03  0.78182922203E+02 0.  0.
        -11    1    3    3    0    0 -0.12557886243E+02  0.10282347205E+02  0.13397591585E+02  0.21045727148E+02  0.00000000000E+00 0.  1.
         12    1    3    3    0    0  0.41515946952E+02 -0.25018747116E+01 -0.80238613478E+02  0.90377366200E+02  0.00000000000E+00 0. -1.
        -13    1    5    5    0    0 -0.48471255038E+02  0.77138280737E+02  0.16380004901E+03  0.18743060843E+03  0.00000000000E+00 0.  1.
         14    1    5    5    0    0 -0.13544577952E+01  0.21208133710E+02 -0.42486130263E+01  0.21671875877E+02  0.00000000000E+00 0. -1.
          5    1    4    4  501    0 -0.52067668233E+02 -0.80785734676E+02  0.20760387981E+03  0.22882053648E+03  0.47000000000E+01 0.  1.
         -5    1    4    4    0  501 -0.14968915743E+03 -0.20219912664E+03  0.20167160180E+03  0.32246682874E+03  0.47000000000E+01 0.  1.
          1    1    1    2  502    0  0.14364264953E+03  0.54315918723E+02 -0.40459607762E+04  0.40488741685E+04  0.00000000000E+00 0. -1.
          1    1    1    2  503    0  0.78981828249E+02  0.12254205565E+03  0.13804871490E+03  0.20077881433E+03  0.00000000000E+00 0. -1.
<mgrwt>
<rscale>  0 0.14167751E+03</rscale>
<asrwt>0</asrwt>
<pdfrwt beam="1">  1        2 0.12614263E+00 0.11604889E+03</pdfrwt>
<pdfrwt beam="2">  1        2 0.62701413E+00 0.17296605E+03</pdfrwt>
<totfact> 0.23798887E+00</totfact>
</mgrwt>
</event>
<event>
13    1  0.1589573E-008  0.6144598E+02  0.7546771E-02  0.1432079E+00
          2   -1    0    0  502    0  0.00000000000E+00  0.00000000000E+00  0.12984227066E+04  0.12984227066E+04  0.00000000000E+00 0. -1.
          2   -1    0    0  503    0 -0.00000000000E+00 -0.00000000000E+00 -0.73040699743E+03  0.73040699743E+03  0.00000000000E+00 0. -1.
         24    2    1    2    0    0 -0.87822698944E+02  0.10611936874E+03 -0.86736001141E+02  0.18165209235E+03  0.80623829536E+02 0.  0.
         25    2    1    2    0    0  0.21118797054E+02 -0.17833486757E+03 -0.24717444730E+03  0.33010904440E+03  0.12500978049E+03 0.  0.
         24    2    1    2    0    0  0.77315886283E+01  0.20795146599E+02  0.31756418884E+03  0.32843742887E+03  0.80820263938E+02 0.  0.
        -11    1    3    3    0    0  0.30662929678E+01  0.29969859451E+02 -0.48447507931E+02  0.57050465842E+02  0.00000000000E+00 0.  1.
         12    1    3    3    0    0 -0.90888991911E+02  0.76149509285E+02 -0.38288493209E+02  0.12460162650E+03  0.00000000000E+00 0. -1.
        -11    1    5    5    0    0  0.22154992890E+02  0.46451111649E+02  0.24048565077E+03  0.24593067664E+03  0.00000000000E+00 0.  1.
         12    1    5    5    0    0 -0.14423404262E+02 -0.25655965050E+02  0.77078538066E+02  0.82506752230E+02  0.00000000000E+00 0. -1.
          5    1    4    4  501    0  0.65337206888E+01 -0.19801751803E+02 -0.13159428945E+03  0.13331896300E+03  0.47000000000E+01 0.  1.
         -5    1    4    4    0  501  0.14585076365E+02 -0.15853311577E+03 -0.11558015785E+03  0.19679008140E+03  0.47000000000E+01 0.  1.
          1    1    1    2  502    0 -0.21037402455E+01  0.44884017067E+02  0.88279728606E+03  0.88394007093E+03  0.00000000000E+00 0. -1.
          1    1    1    2  503    0  0.61076053507E+02  0.65363351719E+01 -0.29843531730E+03  0.30469106748E+03  0.00000000000E+00 0. -1.
<mgrwt>
<rscale>  0 0.52544933E+02</rscale>
<asrwt>0</asrwt>
<pdfrwt beam="1">  1        2 0.19094452E+00 0.44933292E+02</pdfrwt>
<pdfrwt beam="2">  1        2 0.10741279E+00 0.61445975E+02</pdfrwt>
<totfact> 0.14646823E+02</totfact>
</mgrwt>
</event>
<event>
13    1  0.1589573E-008  0.7717932E+02  0.7546771E-02  0.1379201E+00
          2   -1    0    0  503    0  0.00000000000E+00  0.00000000000E+00  0.70480773087E+03  0.70480773087E+03  0.00000000000E+00 0. -1.
         -1   -1    0    0    0  501 -0.00000000000E+00 -0.00000000000E+00 -0.16343087476E+04  0.16343087476E+04  0.00000000000E+00 0.  1.
         24    2    1    2    0    0  0.22502632491E+02  0.15133175136E+03 -0.49297098849E+03  0.52227679253E+03  0.79655414641E+02 0.  0.
         25    2    1    2    0    0 -0.10126586030E+03  0.29721763428E+02  0.61724798851E+02  0.17484674912E+03  0.12499310861E+03 0.  0.
         24    2    1    2    0    0  0.48233567947E+02 -0.10864908201E+03 -0.61851025243E+03  0.63492701753E+03  0.80288760977E+02 0.  0.
        -11    1    5    5    0    0  0.10570917198E+02 -0.76559502128E+02 -0.50800131989E+03  0.51384671125E+03  0.00000000000E+00 0.  1.
         12    1    5    5    0    0  0.37662650749E+02 -0.32089579882E+02 -0.11050893254E+03  0.12108030628E+03  0.00000000000E+00 0. -1.
        -13    1    3    3    0    0  0.28415820508E+02  0.15228592250E+03 -0.39753022704E+03  0.42664826551E+03  0.00000000000E+00 0.  1.
         14    1    3    3    0    0 -0.59131880173E+01 -0.95417113345E+00 -0.95440761446E+02  0.95628527023E+02  0.00000000000E+00 0. -1.
          5    1    4    4  502    0 -0.11112087290E+03  0.62589981551E+02  0.57424756878E+02  0.13994658584E+03  0.47000000000E+01 0. -1.
         -5    1    4    4    0  502  0.98550126047E+01 -0.32868218123E+02  0.43000419729E+01  0.34900163280E+02  0.47000000000E+01 0. -1.
          1    1    1    2  503    0  0.69143967587E+02 -0.34377338364E+02  0.55934223470E+03  0.56464716874E+03  0.00000000000E+00 0. -1.
         -2    1    1    2    0  501 -0.38614307727E+02 -0.38027094419E+02 -0.43908680937E+03  0.44241875055E+03  0.00000000000E+00 0.  1.
<mgrwt>
<rscale>  0 0.64674201E+02</rscale>
<asrwt>0</asrwt>
<pdfrwt beam="1">  1        2 0.10364820E+00 0.77179321E+02</pdfrwt>
<pdfrwt beam="2">  1       -1 0.24033952E+00 0.54195246E+02</pdfrwt>
<totfact> 0.56607036E+00</totfact>
</mgrwt>
</event>
<event>
13    1  0.1589573E-008  0.1589884E+03  0.7546771E-02  0.1259673E+00
          2   -1    0    0  503    0  0.00000000000E+00  0.00000000000E+00  0.11214559859E+04  0.11214559859E+04  0.00000000000E+00 0. -1.
          2   -1    0    0  502    0 -0.00000000000E+00 -0.00000000000E+00 -0.10991147356E+04  0.10991147356E+04  0.00000000000E+00 0. -1.
         24    2    1    2    0    0  0.86477665432E+02 -0.12188846872E+03 -0.82490377618E+02  0.18857649763E+03  0.80132687678E+02 0.  0.
         25    2    1    2    0    0 -0.45687260318E+01  0.80250256815E+02  0.61789752715E+02  0.16094200890E+03  0.12499351868E+03 0.  0.
         24    2    1    2    0    0  0.10251347439E+02  0.30364879053E+02 -0.54547330953E+02  0.10164972566E+03  0.79562173222E+02 0.  0.
        -11    1    3    3    0    0 -0.14335635933E+02 -0.52596967883E+01 -0.97388071821E+01  0.18111301258E+02  0.00000000000E+00 0.  1.
         12    1    3    3    0    0  0.10081330136E+03 -0.11662877193E+03 -0.72751570436E+02  0.17046519638E+03  0.00000000000E+00 0. -1.
        -13    1    5    5    0    0 -0.17668025117E+02  0.46391990648E+02 -0.47474903302E+02  0.68689463176E+02  0.00000000000E+00 0.  1.
         14    1    5    5    0    0  0.27919372555E+02 -0.16027111595E+02 -0.70724276506E+01  0.32960262481E+02  0.00000000000E+00 0. -1.
          5    1    4    4  501    0  0.69270935367E+01  0.10986240199E+03  0.26685329633E+02  0.11336634780E+03  0.47000000000E+01 0.  1.
         -5    1    4    4    0  501 -0.11495819569E+02 -0.29612145175E+02  0.35104423082E+02  0.47575661102E+02  0.47000000000E+01 0.  1.
          1    1    1    2  502    0 -0.15349653309E+03  0.57457250653E+02 -0.82626486040E+03  0.84236342564E+03  0.00000000000E+00 0. -1.
          1    1    1    2  503    0  0.61336246249E+02 -0.46183917802E+02  0.92385406656E+03  0.92703906372E+03  0.00000000000E+00 0. -1.
<mgrwt>
<rscale>  0 0.11048550E+03</rscale>
<asrwt>0</asrwt>
<pdfrwt beam="1">  1        2 0.16492000E+00 0.76779485E+02</pdfrwt>
<pdfrwt beam="2">  1        2 0.16163452E+00 0.15898836E+03</pdfrwt>
<totfact> 0.10001655E+02</totfact>
</mgrwt>
</event>
<event>
13    1  0.1589573E-008  0.1361223E+03  0.7546771E-02  0.1257045E+00
          2   -1    0    0  502    0  0.00000000000E+00  0.00000000000E+00  0.21569484741E+04  0.21569484741E+04  0.00000000000E+00 0. -1.
          2   -1    0    0  503    0 -0.00000000000E+00 -0.00000000000E+00 -0.28089735544E+03  0.28089735544E+03  0.00000000000E+00 0. -1.
         24    2    1    2    0    0 -0.71643551429E+02 -0.50061627041E+02 -0.64256416791E+02  0.13497220488E+03  0.80309675807E+02 0.  0.
         25    2    1    2    0    0  0.24873050101E+03 -0.88216082772E+02  0.52350731510E+03  0.59944332938E+03  0.12499382701E+03 0.  0.
         24    2    1    2    0    0 -0.40846931059E+02  0.10962000943E+02  0.82273066839E+03  0.82773263418E+03  0.80417185498E+02 0.  0.
        -11    1    3    3    0    0 -0.74789111137E+02 -0.67284745842E+01 -0.44027668236E+02  0.87046648903E+02  0.00000000000E+00 0.  1.
         12    1    3    3    0    0  0.31455597077E+01 -0.43333152457E+02 -0.20228748555E+02  0.47925555978E+02  0.00000000000E+00 0. -1.
        -11    1    5    5    0    0  0.10679959462E+02 -0.11619026213E+02  0.49187484183E+03  0.49212795423E+03  0.00000000000E+00 0.  1.
         12    1    5    5    0    0 -0.51526890521E+02  0.22581027156E+02  0.33085582656E+03  0.33560467995E+03  0.00000000000E+00 0. -1.
          5    1    4    4  501    0  0.65001340854E+00  0.15935432711E+02  0.71410848927E+02  0.73320937511E+02  0.47000000000E+01 0.  1.
         -5    1    4    4    0  501  0.24808048760E+03 -0.10415151548E+03  0.45209646617E+03  0.52612239187E+03  0.47000000000E+01 0.  1.
          1    1    1    2  502    0 -0.15999592974E+03  0.38406788538E+02  0.70935329801E+03  0.72818670706E+03  0.00000000000E+00 0. -1.
          1    1    1    2  503    0  0.23755911217E+02  0.88908920333E+02 -0.11528374609E+03  0.14751095399E+03  0.00000000000E+00 0. -1.
<mgrwt>
<rscale>  0 0.11192553E+03</rscale>
<asrwt>0</asrwt>
<pdfrwt beam="1">  1        2 0.31719830E+00 0.13612232E+03</pdfrwt>
<pdfrwt beam="2">  1        2 0.41308436E-01 0.92029911E+02</pdfrwt>
<totfact> 0.14088922E+02</totfact>
</mgrwt>
</event>
<event>
13    1  0.1589573E-008  0.3412102E+02  0.7546771E-02  0.1593444E+00
          2   -1    0    0  503    0  0.00000000000E+00  0.00000000000E+00  0.20713225878E+04  0.20713225878E+04  0.00000000000E+00 0. -1.
          2   -1    0    0  502    0 -0.00000000000E+00 -0.00000000000E+00 -0.25009415833E+04  0.25009415833E+04  0.00000000000E+00 0. -1.
         24    2    1    2    0    0  0.34223357097E+02  0.11660511724E+03 -0.26858774564E+03  0.30832237316E+03  0.90306794564E+02 0.  0.
         25    2    1    2    0    0  0.32489154677E+02 -0.10754945349E+03  0.74201356057E+03  0.76081059149E+03  0.12500480760E+03 0.  0.
         24    2    1    2    0    0 -0.73243371193E+02  0.92780786959E+01 -0.85011365479E+02  0.13699766189E+03  0.78043276034E+02 0.  0.
        -11    1    3    3    0    0  0.10284533656E+01  0.11706436502E+03 -0.19242416989E+03  0.22523806168E+03  0.00000000000E+00 0.  1.
         12    1    3    3    0    0  0.33194903731E+02 -0.45924777571E+00 -0.76163575755E+02  0.83084311480E+02  0.00000000000E+00 0. -1.
        -13    1    5    5    0    0 -0.88435832609E+02  0.97257194438E+01 -0.58627138102E+02  0.10654870919E+03  0.00000000000E+00 0.  1.
         14    1    5    5    0    0  0.15192461416E+02 -0.44764074796E+00 -0.26384227377E+02  0.30448952698E+02  0.00000000000E+00 0. -1.
          5    1    4    4  501    0 -0.37394427147E+02 -0.60536735638E+02  0.48734316456E+03  0.49253272946E+03  0.47000000000E+01 0. -1.
         -5    1    4    4    0  501  0.69883581824E+02 -0.47012717856E+02  0.25467039601E+03  0.26827786203E+03  0.47000000000E+01 0. -1.
          1    1    1    2  502    0  0.32486991264E+02 -0.10445328515E+02 -0.20917999016E+04  0.20920782342E+04  0.00000000000E+00 0. -1.
          1    1    1    2  503    0 -0.25956131844E+02 -0.78884139269E+01  0.12737664567E+04  0.12740553104E+04  0.00000000000E+00 0. -1.
<mgrwt>
<rscale>  0 0.30424452E+02</rscale>
<asrwt>0</asrwt>
<pdfrwt beam="1">  1        2 0.30460626E+00 0.27128359E+02</pdfrwt>
<pdfrwt beam="2">  1        2 0.36778553E+00 0.34121019E+02</pdfrwt>
<totfact> 0.93067575E+00</totfact>
</mgrwt>
</event>
<event>
13    1  0.1589573E-008  0.6993852E+02  0.7546771E-02  0.1447647E+00
         -1   -1    0    0    0  501 -0.00000000000E+00  0.00000000000E+00  0.10314759833E+04  0.10314759833E+04  0.00000000000E+00 0.  1.
          2   -1    0    0  503    0  0.00000000000E+00 -0.00000000000E+00 -0.83843394003E+03  0.83843394003E+03  0.00000000000E+00 0. -1.
         24    2    1    2    0    0 -0.32449015513E+02  0.25332862240E+01  0.11577564021E+03  0.14469361681E+03  0.80454258647E+02 0.  0.
         25    2    1    2    0    0 -0.51963231568E+02  0.49206786259E+02 -0.32480594897E+03  0.35530821843E+03  0.12499416126E+03 0.  0.
         24    2    1    2    0    0 -0.12559277065E+02 -0.20303571170E+02 -0.97659962938E+02  0.12911168887E+03  0.81008576076E+02 0.  0.
        -11    1    3    3    0    0  0.20309240302E+02  0.18143303816E+02  0.18454923413E+02  0.32897247806E+02  0.00000000000E+00 0.  1.
         12    1    3    3    0    0 -0.52758255816E+02 -0.15610017592E+02  0.97320716796E+02  0.11179636901E+03  0.00000000000E+00 0. -1.
        -11    1    5    5    0    0  0.32145015586E+02 -0.15051880207E+02 -0.24203719681E+02  0.42961391635E+02  0.00000000000E+00 0.  1.
         12    1    5    5    0    0 -0.44704292651E+02 -0.52516909636E+01 -0.73456243257E+02  0.86150297230E+02  0.00000000000E+00 0. -1.
          5    1    4    4  502    0 -0.10219587738E+02  0.85135996640E+02 -0.23074913961E+03  0.24621095290E+03  0.47000000000E+01 0.  1.
         -5    1    4    4    0  502 -0.41743643830E+02 -0.35929210381E+02 -0.94056809358E+02  0.10909726553E+03  0.47000000000E+01 0.  1.
          1    1    1    2  503    0  0.35125779389E+02  0.10242531584E+01 -0.36829288468E+03  0.36996556378E+03  0.00000000000E+00 0. -1.
         -2    1    1    2    0  501  0.61845744757E+02 -0.32460754471E+02  0.86802519963E+03  0.87083083542E+03  0.00000000000E+00 0.  1.
<mgrwt>
<rscale>  0 0.49575085E+02</rscale>
<asrwt>0</asrwt>
<pdfrwt beam="2">  1        2 0.12329911E+00 0.35140710E+02</pdfrwt>
<pdfrwt beam="1">  1       -1 0.15168764E+00 0.69938517E+02</pdfrwt>
<totfact> 0.17738805E+01</totfact>
</mgrwt>
</event>
<event>
13    1  0.1589573E-008  0.1383573E+03  0.7546771E-02  0.1311385E+00
          2   -1    0    0  502    0  0.00000000000E+00  0.00000000000E+00  0.13203435984E+04  0.13203435984E+04  0.00000000000E+00 0. -1.
          2   -1    0    0  503    0 -0.00000000000E+00 -0.00000000000E+00 -0.13797002728E+04  0.13797002728E+04  0.00000000000E+00 0. -1.
         24    2    1    2    0    0 -0.26205864959E+02 -0.17748238686E+03  0.63477220755E+03  0.66455054089E+03  0.80653089903E+02 0.  0.
         25    2    1    2    0    0  0.30680120984E+02  0.27168624581E+02 -0.26699414552E+02  0.13422619679E+03  0.12499763671E+03 0.  0.
         24    2    1    2    0    0  0.46355604961E+02 -0.32668181969E+02 -0.96265269805E+02  0.13655440633E+03  0.78511473633E+02 0.  0.
        -11    1    5    5    0    0  0.13125436023E+01 -0.28943907182E+02  0.13274185364E+01  0.29004044091E+02  0.00000000000E+00 0.  1.
         12    1    5    5    0    0  0.45043061359E+02 -0.37242747872E+01 -0.97592688341E+02  0.10755036224E+03  0.00000000000E+00 0. -1.
        -13    1    3    3    0    0  0.16851821261E+02 -0.67737214335E+02  0.14695133290E+03  0.16268684128E+03  0.00000000000E+00 0.  1.
         14    1    3    3    0    0 -0.43057686221E+02 -0.10974517253E+03  0.48782087465E+03  0.50186369960E+03  0.00000000000E+00 0. -1.
          5    1    4    4  501    0  0.61783168286E+02 -0.27590002888E+02 -0.76032503788E+01  0.68251502248E+02  0.47000000000E+01 0. -1.
         -5    1    4    4    0  501 -0.31103047302E+02  0.54758627469E+02 -0.19096164173E+02  0.65974694542E+02  0.47000000000E+01 0. -1.
          1    1    1    2  502    0 -0.49447952633E+02  0.12883645946E+03  0.58815566362E+03  0.60412831249E+03  0.00000000000E+00 0. -1.
          1    1    1    2  503    0 -0.13819083516E+01  0.54145484788E+02 -0.11593198611E+04  0.11605844147E+04  0.00000000000E+00 0. -1.
<mgrwt>
<rscale>  0 0.86567084E+02</rscale>
<asrwt>0</asrwt>
<pdfrwt beam="1">  1        2 0.19416818E+00 0.13835725E+03</pdfrwt>
<pdfrwt beam="2">  1        2 0.20289710E+00 0.54163117E+02</pdfrwt>
<totfact> 0.57816096E+01</totfact>
</mgrwt>
</event>
<event>
13    1  0.1589573E-008  0.4187549E+03  0.7546771E-02  0.1270482E+00
          2   -1    0    0  502    0  0.00000000000E+00  0.00000000000E+00  0.74653637953E+03  0.74653637953E+03  0.00000000000E+00 0. -1.
          4   -1    0    0  503    0 -0.00000000000E+00 -0.00000000000E+00 -0.12892485325E+04  0.12892485325E+04  0.00000000000E+00 0. -1.
         24    2    1    2    0    0  0.48603567940E+02 -0.95694404268E+02 -0.26601228189E+03  0.29798461547E+03  0.80700502586E+02 0.  0.
         25    2    1    2    0    0  0.14304842218E+03 -0.28123250250E+03 -0.19316158544E+03  0.39050108595E+03  0.12500051394E+03 0.  0.
         24    2    1    2    0    0  0.11783235872E+03  0.83738159962E+02 -0.39002003549E+03  0.42321423004E+03  0.78090410597E+02 0.  0.
        -13    1    3    3    0    0  0.44837815055E+01  0.65400067045E+01  0.16377105360E+01  0.80967944326E+01  0.00000000000E+00 0.  1.
         14    1    3    3    0    0  0.44119786434E+02 -0.10223441097E+03 -0.26764999243E+03  0.28988782104E+03  0.00000000000E+00 0. -1.
        -13    1    5    5    0    0  0.43618148866E+02  0.78488673036E+02 -0.20568317159E+03  0.22442945836E+03  0.00000000000E+00 0.  1.
         14    1    5    5    0    0  0.74214209858E+02  0.52494869252E+01 -0.18433686389E+03  0.19878477167E+03  0.00000000000E+00 0. -1.
          5    1    4    4  501    0 -0.22309352934E+02 -0.48406093022E+02 -0.24960309427E+02  0.59042053798E+02  0.47000000000E+01 0. -1.
         -5    1    4    4    0  501  0.16535777511E+03 -0.23282640948E+03 -0.16820127601E+03  0.33145903215E+03  0.47000000000E+01 0. -1.
          1    1    1    2  502    0 -0.32685844076E+03  0.31284763181E+03  0.53123988462E+03  0.69780075669E+03  0.00000000000E+00 0. -1.
          3    1    1    2  503    0  0.17374091912E+02 -0.19658885005E+02 -0.22475813478E+03  0.22628422389E+03  0.00000000000E+00 0. -1.
<mgrwt>
<rscale>  0 0.10481640E+03</rscale>
<asrwt>0</asrwt>
<pdfrwt beam="1">  1        2 0.10978476E+00 0.41875489E+03</pdfrwt>
<pdfrwt beam="2">  1        4 0.18959537E+00 0.26236060E+02</pdfrwt>
<totfact> 0.35614238E+00</totfact>
</mgrwt>
</event>
<event>
13    1  0.1589573E-008  0.3221105E+02  0.7546771E-02  0.1626610E+00
          2   -1    0    0  503    0  0.00000000000E+00  0.00000000000E+00  0.28597336531E+04  0.28597336531E+04  0.00000000000E+00 0. -1.
          2   -1    0    0  502    0 -0.00000000000E+00 -0.00000000000E+00 -0.77030891407E+03  0.77030891407E+03  0.00000000000E+00 0. -1.
         24    2    1    2    0    0  0.16289467060E+03 -0.20582142608E+03 -0.27964794335E+03  0.39051783865E+03  0.73512427122E+02 0.  0.
         25    2    1    2    0    0 -0.30694319665E+03 -0.54316618254E+03  0.93342487420E+03  0.11296687894E+04  0.12500380038E+03 0.  0.
         24    2    1    2    0    0  0.92033469009E+02  0.76744524833E+03  0.12277493238E+04  0.14528542046E+04  0.77295337769E+02 0.  0.
        -11    1    3    3    0    0  0.48287269880E+02 -0.77906264616E+02 -0.52100339290E+02  0.10543003297E+03  0.00000000000E+00 0.  1.
         12    1    3    3    0    0  0.11460740072E+03 -0.12791516147E+03 -0.22754760406E+03  0.28508780568E+03  0.00000000000E+00 0. -1.
        -13    1    5    5    0    0  0.82725775901E+02  0.38356277296E+03  0.59657448530E+03  0.71404836763E+03  0.00000000000E+00 0.  1.
         14    1    5    5    0    0  0.93076931081E+01  0.38388247537E+03  0.63117483846E+03  0.73880583697E+03  0.00000000000E+00 0. -1.
          5    1    4    4  501    0 -0.66384306696E+02 -0.55419872601E+02  0.18742135068E+03  0.20646329248E+03  0.47000000000E+01 0. -1.
         -5    1    4    4    0  501 -0.24055888995E+03 -0.48774630993E+03  0.74600352352E+03  0.92320549690E+03  0.47000000000E+01 0. -1.
          1    1    1    2  502    0  0.23255790171E+02 -0.40056517877E+01 -0.22333022760E+03  0.22457352378E+03  0.00000000000E+00 0. -1.
          1    1    1    2  503    0  0.28759266871E+02 -0.14451987920E+02  0.43122871202E+03  0.43242821076E+03  0.00000000000E+00 0. -1.
<mgrwt>
<rscale>  0 0.27570348E+02</rscale>
<asrwt>0</asrwt>
<pdfrwt beam="1">  1        2 0.42054906E+00 0.32211046E+02</pdfrwt>
<pdfrwt beam="2">  1        2 0.11328072E+00 0.23598242E+02</pdfrwt>
<totfact> 0.27322471E+01</totfact>
</mgrwt>
</event>
<event>
13    1  0.1589573E-008  0.8170377E+02  0.7546771E-02  0.1464009E+00
         -1   -1    0    0    0  501 -0.00000000000E+00  0.00000000000E+00  0.22416445418E+04  0.22416445418E+04  0.00000000000E+00 0.  1.
          2   -1    0    0  503    0  0.00000000000E+00 -0.00000000000E+00 -0.21500184106E+04  0.21500184106E+04  0.00000000000E+00 0. -1.
         24    2    1    2    0    0 -0.36595051637E+02 -0.15257396124E+03  0.74014717458E+02  0.19201201819E+03  0.82294746349E+02 0.  0.
         25    2    1    2    0    0  0.40911345993E+02  0.18868431999E+03 -0.16994481497E+04  0.17149416434E+04  0.12500126479E+03 0.  0.
         24    2    1    2    0    0  0.37665179719E+02  0.20756138435E+01 -0.13803703560E+02  0.89670094955E+02  0.80169880636E+02 0.  0.
        -11    1    5    5    0    0 -0.23323321503E+02 -0.35655591894E+01 -0.15787725019E+02  0.28389131715E+02  0.00000000000E+00 0.  1.
         12    1    5    5    0    0  0.60988501222E+02  0.56411730328E+01  0.19840214593E+01  0.61280963240E+02  0.00000000000E+00 0. -1.
        -13    1    3    3    0    0 -0.33328333773E+02 -0.26760946931E+02 -0.55715063829E+01  0.43104150567E+02  0.00000000000E+00 0.  1.
         14    1    3    3    0    0 -0.32667178644E+01 -0.12581301431E+03  0.79586223841E+02  0.14890786763E+03  0.00000000000E+00 0. -1.
          5    1    4    4  502    0 -0.38550569571E+02  0.27421991431E+02 -0.26092786131E+03  0.26522358650E+03  0.47000000000E+01 0. -1.
         -5    1    4    4    0  502  0.79461915565E+02  0.16126232856E+03 -0.14385202883E+04  0.14497180569E+04  0.47000000000E+01 0. -1.
          1    1    1    2  503    0  0.10280524974E+02  0.24631580638E+02 -0.33074093638E+03  0.33181617042E+03  0.00000000000E+00 0. -1.
         -2    1    1    2    0  501 -0.52261999050E+02 -0.62817553230E+02  0.20616042033E+04  0.20632230254E+04  0.00000000000E+00 0.  1.
<mgrwt>
<rscale>  0 0.46698468E+02</rscale>
<asrwt>0</asrwt>
<pdfrwt beam="2">  1        2 0.31617918E+00 0.26690897E+02</pdfrwt>
<pdfrwt beam="1">  1       -1 0.32965361E+00 0.81703771E+02</pdfrwt>
<totfact> 0.31065869E-01</totfact>
</mgrwt>
</event>
<event>
13    1  0.1589573E-008  0.9957035E+02  0.7546771E-02  0.1295338E+00
          2   -1    0    0  502    0  0.00000000000E+00  0.00000000000E+00  0.80297226647E+03  0.80297226647E+03  0.00000000000E+00 0. -1.
          2   -1    0    0  503    0 -0.00000000000E+00 -0.00000000000E+00 -0.24414843368E+04  0.24414843368E+04  0.00000000000E+00 0. -1.
         24    2    1    2    0    0 -0.87939579824E+02 -0.12062700844E+02 -0.12291589395E+04  0.12352830422E+04  0.84933016290E+02 0.  0.
         25    2    1    2    0    0  0.28726925428E+02  0.41060085851E+02 -0.19109087229E+02  0.13602076621E+03  0.12500129892E+03 0.  0.
         24    2    1    2    0    0 -0.91248637287E+01 -0.20021795215E+02 -0.14136068222E+03  0.16351698268E+03  0.79188545418E+02 0.  0.
        -11    1    5    5    0    0  0.32574824633E+02  0.16254261750E+01 -0.38665491201E+02  0.50584398977E+02  0.00000000000E+00 0.  1.
         12    1    5    5    0    0 -0.41699688361E+02 -0.21647221390E+02 -0.10269519102E+03  0.11293258370E+03  0.00000000000E+00 0. -1.
        -11    1    3    3    0    0  0.74076259360E+01 -0.11677660342E+02 -0.40299611898E+02  0.42606330424E+02  0.00000000000E+00 0.  1.
         12    1    3    3    0    0 -0.95347205761E+02 -0.38504050232E+00 -0.11888593276E+04  0.11926767118E+04  0.00000000000E+00 0. -1.
          5    1    4    4  501    0  0.43507661417E+02  0.21863522798E+02  0.45531515779E+02  0.66829178958E+02  0.47000000000E+01 0. -1.
         -5    1    4    4    0  501 -0.14780735988E+02  0.19196563053E+02 -0.64640603008E+02  0.69191587253E+02  0.47000000000E+01 0. -1.
          1    1    1    2  502    0 -0.54556611973E+02 -0.67983568723E+02  0.72300104414E+03  0.72823670558E+03  0.00000000000E+00 0. -1.
          1    1    1    2  503    0  0.12289413010E+03  0.59007978931E+02 -0.97188440552E+03  0.98139910663E+03  0.00000000000E+00 0. -1.
<mgrwt>
<rscale>  0 0.93175837E+02</rscale>
<asrwt>0</asrwt>
<pdfrwt beam="1">  1        2 0.11808416E+00 0.87191984E+02</pdfrwt>
<pdfrwt beam="2">  1        2 0.35904182E+00 0.99570351E+02</pdfrwt>
<totfact> 0.33901057E+01</totfact>
</mgrwt>
</event>
<event>
13    1  0.1589573E-008  0.4502372E+03  0.7546771E-02  0.1277346E+00
          2   -1    0    0  503    0  0.00000000000E+00  0.00000000000E+00  0.16372252822E+04  0.16372252822E+04  0.00000000000E+00 0. -1.
          2   -1    0    0  502    0 -0.00000000000E+00 -0.00000000000E+00 -0.30803682846E+04  0.30803682846E+04  0.00000000000E+00 0. -1.
         24    2    1    2    0    0 -0.26736854392E+03  0.10393957880E+03 -0.46578106397E+03  0.55398407584E+03  0.87504185092E+02 0.  0.
         25    2    1    2    0    0  0.61532816705E+03  0.81316394274E+02  0.72783556206E+03  0.96468155071E+03  0.12499911896E+03 0.  0.
         24    2    1    2    0    0  0.85453100884E+02 -0.30228491898E+02  0.13680905553E+03  0.17777428836E+03  0.68344610269E+02 0.  0.
        -11    1    3    3    0    0 -0.25984372930E+03  0.79691475032E+02 -0.40121864764E+03  0.48460901567E+03  0.00000000000E+00 0.  1.
         12    1    3    3    0    0 -0.75248146175E+01  0.24248103766E+02 -0.64562416332E+02  0.69375060172E+02  0.00000000000E+00 0. -1.
        -13    1    5    5    0    0  0.63628188145E+02 -0.47310054886E+02  0.12414082978E+03  0.14730150453E+03  0.00000000000E+00 0.  1.
         14    1    5    5    0    0  0.21824912739E+02  0.17081562989E+02  0.12668225750E+02  0.30472783822E+02  0.00000000000E+00 0. -1.
          5    1    4    4  501    0  0.90169807082E+02 -0.32110020034E+02  0.11288889888E+03  0.14807984666E+03  0.47000000000E+01 0. -1.
         -5    1    4    4    0  501  0.52515835997E+03  0.11342641431E+03  0.61494666318E+03  0.81660170405E+03  0.47000000000E+01 0. -1.
          1    1    1    2  502    0 -0.43656112666E+03 -0.17765341998E+03 -0.24085080302E+04  0.24541917786E+04  0.00000000000E+00 0. -1.
          1    1    1    2  503    0  0.31484026408E+01  0.22625938810E+02  0.56650147410E+03  0.56696187324E+03  0.00000000000E+00 0. -1.
<mgrwt>
<rscale>  0 0.10141593E+03</rscale>
<asrwt>0</asrwt>
<pdfrwt beam="1">  1        2 0.24076842E+00 0.22843939E+02</pdfrwt>
<pdfrwt beam="2">  1        2 0.45299533E+00 0.45023716E+03</pdfrwt>
<totfact> 0.51529295E+00</totfact>
</mgrwt>
</event>
<event>
13    1  0.1589573E-008  0.1781051E+03  0.7546771E-02  0.1205799E+00
          2   -1    0    0  502    0  0.00000000000E+00  0.00000000000E+00  0.52263070707E+03  0.52263070707E+03  0.00000000000E+00 0. -1.
          2   -1    0    0  503    0 -0.00000000000E+00 -0.00000000000E+00 -0.22395170084E+04  0.22395170084E+04  0.00000000000E+00 0. -1.
         24    2    1    2    0    0  0.58323340358E+02  0.61978481692E+02 -0.15401351454E+03  0.19386782844E+03  0.81373386435E+02 0.  0.
         25    2    1    2    0    0 -0.27130000576E+03  0.36028442596E+03 -0.18627929949E+03  0.50371953101E+03  0.12499931114E+03 0.  0.
         24    2    1    2    0    0  0.10504275253E+03 -0.15387584787E+03 -0.29520293363E+03  0.35828000998E+03  0.80672406109E+02 0.  0.
        -11    1    5    5    0    0  0.11289408423E+03 -0.14368004312E+03 -0.24026331172E+03  0.30185342139E+03  0.00000000000E+00 0.  1.
         12    1    5    5    0    0 -0.78513316969E+01 -0.10195804745E+02 -0.54939621911E+02  0.56426588587E+02  0.00000000000E+00 0. -1.
        -13    1    3    3    0    0  0.77152643034E+02  0.60855762844E+02 -0.12132333915E+03  0.15612593257E+03  0.00000000000E+00 0.  1.
         14    1    3    3    0    0 -0.18829302676E+02  0.11227188477E+01 -0.32690175385E+02  0.37741895866E+02  0.00000000000E+00 0. -1.
          5    1    4    4  501    0 -0.14187625742E+03  0.28439716607E+03 -0.12991356501E+03  0.34338061224E+03  0.47000000000E+01 0.  1.
         -5    1    4    4    0  501 -0.12942374835E+03  0.75887259890E+02 -0.56365734477E+02  0.16033891877E+03  0.47000000000E+01 0.  1.
          1    1    1    2  502    0 -0.63274932815E+02 -0.10166444964E+03  0.29024795299E+03  0.31397969944E+03  0.00000000000E+00 0. -1.
          1    1    1    2  503    0  0.17120884569E+03 -0.16672261014E+03 -0.13716385066E+04  0.13923006466E+04  0.00000000000E+00 0. -1.
<mgrwt>
<rscale>  0 0.14574708E+03</rscale>
<asrwt>0</asrwt>
<pdfrwt beam="1">  1        2 0.76857458E-01 0.11926786E+03</pdfrwt>
<pdfrwt beam="2">  1        2 0.32934073E+00 0.17810508E+03</pdfrwt>
<totfact> 0.64514477E+01</totfact>
</mgrwt>
</event>
<event>
13    1  0.1589573E-008  0.6779536E+02  0.7546771E-02  0.1412734E+00
          2   -1    0    0  502    0  0.00000000000E+00  0.00000000000E+00  0.40697998893E+03  0.40697998893E+03  0.00000000000E+00 0. -1.
          2   -1    0    0  503    0 -0.00000000000E+00 -0.00000000000E+00 -0.26182280989E+04  0.26182280989E+04  0.00000000000E+00 0. -1.
         24    2    1    2    0    0 -0.17334486497E+03 -0.29326485937E+03 -0.54638181409E+03  0.65006798658E+03  0.89457143104E+02 0.  0.
         25    2    1    2    0    0  0.78960910363E+02  0.39386656612E+02  0.21644948458E+02  0.15453001693E+03  0.12499955302E+03 0.  0.
         24    2    1    2    0    0  0.58319112528E+02  0.14577989228E+03 -0.65033765001E+01  0.18082665604E+03  0.89459989656E+02 0.  0.
        -11    1    3    3    0    0 -0.12966073394E+03 -0.16596307522E+03 -0.26793705139E+03  0.34080186585E+03  0.00000000000E+00 0.  1.
         12    1    3    3    0    0 -0.43684131025E+02 -0.12730178416E+03 -0.27844476270E+03  0.30926612073E+03  0.00000000000E+00 0. -1.
        -13    1    5    5    0    0  0.23454752584E+01  0.52058294061E+02 -0.41038145888E+02  0.66330209201E+02  0.00000000000E+00 0.  1.
         14    1    5    5    0    0  0.55973637269E+02  0.93721598224E+02  0.34534769388E+02  0.11449644684E+03  0.00000000000E+00 0. -1.
          5    1    4    4  501    0  0.21368261154E+02  0.49809975482E+02  0.62603403166E+02  0.82939208643E+02  0.47000000000E+01 0. -1.
         -5    1    4    4    0  501  0.57592649209E+02 -0.10423318869E+02 -0.40958454708E+02  0.71590808287E+02  0.47000000000E+01 0. -1.
          1    1    1    2  502    0  0.21651129681E+02  0.41979342352E+02  0.17615993448E+03  0.18238245287E+03  0.00000000000E+00 0. -1.
          1    1    1    2  503    0  0.14413712395E+02  0.66118968126E+02 -0.18561678023E+04  0.18574009754E+04  0.00000000000E+00 0. -1.
<mgrwt>
<rscale>  0 0.56588302E+02</rscale>
<asrwt>0</asrwt>
<pdfrwt beam="1">  1        2 0.59850000E-01 0.47233850E+02</pdfrwt>
<pdfrwt beam="2">  1        2 0.38503354E+00 0.67795362E+02</pdfrwt>
<totfact> 0.61892509E+01</totfact>
</mgrwt>
</event>
<event>
13    1  0.1589573E-008  0.7786591E+02  0.7546771E-02  0.1361529E+00
          2   -1    0    0  503    0  0.00000000000E+00  0.00000000000E+00  0.20414872469E+04  0.20414872469E+04  0.00000000000E+00 0. -1.
          2   -1    0    0  502    0 -0.00000000000E+00 -0.00000000000E+00 -0.14479906713E+04  0.14479906713E+04  0.00000000000E+00 0. -1.
         24    2    1    2    0    0 -0.44152595444E+02  0.34608397551E+03 -0.60296235022E+03  0.70242265921E+03  0.90057906972E+02 0.  0.
         25    2    1    2    0    0  0.10042181227E+03 -0.62537554074E+03  0.10673527630E+04  0.12474158409E+04  0.12500100888E+03 0.  0.
         24    2    1    2    0    0 -0.14035646277E+03  0.16801462372E+03 -0.28209437101E+03  0.36591308694E+03  0.79914345493E+02 0.  0.
        -11    1    5    5    0    0 -0.12939783807E+03  0.10586726490E+03 -0.22842072791E+03  0.28306837904E+03  0.00000000000E+00 0.  1.
         12    1    5    5    0    0 -0.10958624698E+02  0.62147358819E+02 -0.53673643099E+02  0.82844707900E+02  0.00000000000E+00 0. -1.
        -13    1    3    3    0    0 -0.67778759171E+02  0.17801953935E+03 -0.30973381812E+03  0.36362061915E+03  0.00000000000E+00 0.  1.
         14    1    3    3    0    0  0.23626163727E+02  0.16806443616E+03 -0.29322853210E+03  0.33880204007E+03  0.00000000000E+00 0. -1.
          5    1    4    4  501    0  0.59904648421E+02 -0.50033808811E+03  0.92666305675E+03  0.10548238147E+04  0.47000000000E+01 0. -1.
         -5    1    4    4    0  501  0.40517163847E+02 -0.12503745263E+03  0.14068970622E+03  0.19259202622E+03  0.47000000000E+01 0. -1.
          1    1    1    2  502    0  0.50764873167E+02  0.58785424764E+02 -0.37606867050E+03  0.38400578569E+03  0.00000000000E+00 0. -1.
          1    1    1    2  503    0  0.33322372774E+02  0.52491516741E+02  0.78726920433E+03  0.78972054548E+03  0.00000000000E+00 0. -1.
<mgrwt>
<rscale>  0 0.69579584E+02</rscale>
<asrwt>0</asrwt>
<pdfrwt beam="1">  1        2 0.30021871E+00 0.62175074E+02</pdfrwt>
<pdfrwt beam="2">  1        2 0.21293980E+00 0.77865907E+02</pdfrwt>
<totfact> 0.24857735E+01</totfact>
</mgrwt>
</event>
<event>
13    1  0.1589573E-008  0.1046554E+03  0.7546771E-02  0.1365666E+00
         -1   -1    0    0    0  501 -0.00000000000E+00  0.00000000000E+00  0.41687042121E+03  0.41687042121E+03  0.00000000000E+00 0.  1.
          2   -1    0    0  503    0  0.00000000000E+00 -0.00000000000E+00 -0.29255920616E+04  0.29255920616E+04  0.00000000000E+00 0. -1.
         24    2    1    2    0    0 -0.14883552047E+03  0.90987761653E+02  0.23967304674E+03  0.30779670007E+03  0.82854416370E+02 0.  0.
         25    2    1    2    0    0  0.20347770024E+03 -0.71813799862E+02 -0.75209132086E+03  0.79234412669E+03  0.12492983567E+03 0.  0.
         24    2    1    2    0    0  0.32300611393E+02 -0.12613749244E+03 -0.69746122838E+03  0.71395801332E+03  0.79560563085E+02 0.  0.
        -13    1    3    3    0    0 -0.63521178173E+02  0.78220978376E+02  0.16679218940E+03  0.19486686732E+03  0.00000000000E+00 0.  1.
         14    1    3    3    0    0 -0.85314342295E+02  0.12766783277E+02  0.72880857342E+02  0.11292983274E+03  0.00000000000E+00 0. -1.
        -13    1    5    5    0    0 -0.21999326143E+02 -0.19296923433E+02 -0.20743180745E+03  0.20948579033E+03  0.00000000000E+00 0.  1.
         14    1    5    5    0    0  0.54299937536E+02 -0.10684056900E+03 -0.49002942092E+03  0.50447222299E+03  0.00000000000E+00 0. -1.
          5    1    4    4  502    0  0.18746556207E+03 -0.43988725295E+02 -0.46341912796E+03  0.50185428470E+03  0.47000000000E+01 0. -1.
         -5    1    4    4    0  502  0.16012138166E+02 -0.27825074566E+02 -0.28867219290E+03  0.29048984199E+03  0.47000000000E+01 0. -1.
          1    1    1    2  503    0 -0.43949872652E+02  0.94774997960E+02 -0.14072417695E+04  0.14111142014E+04  0.00000000000E+00 0. -1.
         -2    1    1    2    0  501 -0.42992918509E+02  0.12188532684E+02  0.10839963159E+03  0.11724944136E+03  0.00000000000E+00 0.  1.
<mgrwt>
<rscale>  0 0.68386862E+02</rscale>
<asrwt>0</asrwt>
<pdfrwt beam="2">  1        2 0.43023412E+00 0.10465539E+03</pdfrwt>
<pdfrwt beam="1">  1       -1 0.61304474E-01 0.44687262E+02</pdfrwt>
<totfact> 0.10400790E+01</totfact>
</mgrwt>
</event>
<event>
13    1  0.1589573E-008  0.2428662E+03  0.7546771E-02  0.1270971E+00
          2   -1    0    0  503    0  0.00000000000E+00  0.00000000000E+00  0.17038518744E+04  0.17038518744E+04  0.00000000000E+00 0. -1.
          2   -1    0    0  502    0 -0.00000000000E+00 -0.00000000000E+00 -0.59525706024E+03  0.59525706024E+03  0.00000000000E+00 0. -1.
         24    2    1    2    0    0 -0.54583432080E+02  0.10980828980E+03 -0.19353225339E+03  0.24290566739E+03  0.80692122186E+02 0.  0.
         25    2    1    2    0    0 -0.14157471819E+03  0.13355816131E+03  0.13430306926E+03  0.26747772606E+03  0.12500334492E+03 0.  0.
         24    2    1    2    0    0  0.78618236498E+02 -0.27379773065E+02 -0.40852454948E+01  0.11459121081E+03  0.78638268560E+02 0.  0.
        -11    1    5    5    0    0  0.31010029747E+02 -0.51341178594E+02 -0.10557461513E+02  0.60901548075E+02  0.00000000000E+00 0.  1.
         12    1    5    5    0    0  0.47608206750E+02  0.23961405529E+02  0.64722160177E+01  0.53689662740E+02  0.00000000000E+00 0. -1.
        -11    1    3    3    0    0  0.12299564670E+02  0.46397953476E+02 -0.34553893387E+02  0.59144069238E+02  0.00000000000E+00 0.  1.
         12    1    3    3    0    0 -0.66882996750E+02  0.63410336325E+02 -0.15897836001E+03  0.18376159816E+03  0.00000000000E+00 0. -1.
          5    1    4    4  501    0 -0.15414329444E+03  0.86450941908E+02  0.79115132327E+02  0.19368844762E+03  0.47000000000E+01 0. -1.
         -5    1    4    4    0  501  0.12568576255E+02  0.47107219399E+02  0.55187936937E+02  0.73789278435E+02  0.47000000000E+01 0. -1.
          1    1    1    2  502    0 -0.40110448771E+02 -0.20451922282E+02 -0.23790122756E+03  0.24212418983E+03  0.00000000000E+00 0. -1.
          1    1    1    2  503    0  0.15765036254E+03 -0.19553475576E+03  0.14098104714E+04  0.14320101406E+04  0.00000000000E+00 0. -1.
<mgrwt>
<rscale>  0 0.10456923E+03</rscale>
<asrwt>0</asrwt>
<pdfrwt beam="1">  1        2 0.25056645E+00 0.24286620E+03</pdfrwt>
<pdfrwt beam="2">  1        2 0.87537803E-01 0.45023652E+02</pdfrwt>
<totfact> 0.10222493E+02</totfact>
</mgrwt>
</event>
<event>
13    1  0.1589573E-008  0.9147412E+02  0.7546771E-02  0.1345917E+00
          2   -1    0    0  503    0  0.00000000000E+00  0.00000000000E+00  0.11803091395E+04  0.11803091395E+04  0.00000000000E+00 0. -1.
          2   -1    0    0  502    0 -0.00000000000E+00 -0.00000000000E+00 -0.12682407337E+04  0.12682407337E+04  0.00000000000E+00 0. -1.
         24    2    1    2    0    0 -0.13390928046E+02 -0.26647401595E+02 -0.46494514829E+03  0.47275884453E+03  0.80234239563E+02 0.  0.
         25    2    1    2    0    0 -0.19935305767E+02  0.67315498915E+02 -0.25589769067E+03  0.29332184785E+03  0.12500114211E+03 0.  0.
         24    2    1    2    0    0  0.40370640846E+01 -0.57574273773E+02 -0.17411908425E+03  0.20046798042E+03  0.80863222708E+02 0.  0.
        -11    1    5    5    0    0  0.37347241236E+02 -0.12818649548E+02 -0.10137008821E+03  0.10878891942E+03  0.00000000000E+00 0.  1.
         12    1    5    5    0    0 -0.33310177151E+02 -0.44755624225E+02 -0.72748996041E+02  0.91679061004E+02  0.00000000000E+00 0. -1.
        -13    1    3    3    0    0  0.25526023399E+02 -0.64767441866E+01 -0.60993659319E+02  0.66436078775E+02  0.00000000000E+00 0.  1.
         14    1    3    3    0    0 -0.38916951445E+02 -0.20170657408E+02 -0.40395148897E+03  0.40632276576E+03  0.00000000000E+00 0. -1.
          5    1    4    4  501    0 -0.61481575342E+02  0.54112117200E+02 -0.22552619146E+03  0.23998387106E+03  0.47000000000E+01 0.  1.
         -5    1    4    4    0  501  0.41546269575E+02  0.13203381715E+02 -0.30371499207E+02  0.53337976793E+02  0.47000000000E+01 0.  1.
          1    1    1    2  502    0 -0.60397369762E+02 -0.16756683498E+01 -0.33292954535E+03  0.33836774714E+03  0.00000000000E+00 0. -1.
          1    1    1    2  503    0  0.89686539490E+02  0.18581844802E+02  0.11399598744E+04  0.11436334533E+04  0.00000000000E+00 0. -1.
<mgrwt>
<rscale>  0 0.74343272E+02</rscale>
<asrwt>0</asrwt>
<pdfrwt beam="1">  1        2 0.17357487E+00 0.91474119E+02</pdfrwt>
<pdfrwt beam="2">  1        2 0.18650599E+00 0.60420610E+02</pdfrwt>
<totfact> 0.79239368E+01</totfact>
</mgrwt>
</event>
<event>
13    1  0.1589573E-008  0.1218297E+03  0.7546771E-02  0.1283084E+00
          4   -1    0    0  503    0  0.00000000000E+00  0.00000000000E+00  0.12710092360E+04  0.12710092360E+04  0.00000000000E+00 0. -1.
          4   -1    0    0  502    0 -0.00000000000E+00 -0.00000000000E+00 -0.21698254774E+04  0.21698254774E+04  0.00000000000E+00 0. -1.
         24    2    1    2    0    0  0.72588377567E+00 -0.34184832574E+02 -0.94341314802E+03  0.94748740776E+03  0.80838668439E+02 0.  0.
         25    2    1    2    0    0  0.13743161903E+03  0.14501488606E+03  0.70011365738E+03  0.73871396649E+03  0.12498969537E+03 0.  0.
         24    2    1    2    0    0 -0.85964631427E+00  0.20509328990E+02  0.45934596244E+02  0.94673795100E+02  0.80198309079E+02 0.  0.
        -13    1    3    3    0    0 -0.35271896626E+02 -0.35227632612E+02 -0.64149340009E+03  0.64342744358E+03  0.00000000000E+00 0.  1.
         14    1    3    3    0    0  0.35997780402E+02  0.10428000386E+01 -0.30191974793E+03  0.30405996418E+03  0.00000000000E+00 0. -1.
        -13    1    5    5    0    0  0.63552946058E+01 -0.30512406914E+02  0.15219628341E+02  0.34684778102E+02  0.00000000000E+00 0.  1.
         14    1    5    5    0    0 -0.72149409200E+01  0.51021735903E+02  0.30714967903E+02  0.59989016998E+02  0.00000000000E+00 0. -1.
          5    1    4    4  501    0  0.58101944934E+02  0.14479336908E+03  0.47456680622E+03  0.49957651996E+03  0.47000000000E+01 0.  1.
         -5    1    4    4    0  501  0.79329674094E+02  0.22151697925E+00  0.22554685116E+03  0.23913744652E+03  0.47000000000E+01 0.  1.
          3    1    1    2  502    0 -0.57520204957E+02 -0.12627180913E+03 -0.11732551204E+04  0.11814316405E+04  0.00000000000E+00 0. -1.
          3    1    1    2  503    0 -0.79777651532E+02 -0.50675733432E+01  0.47180377334E+03  0.47852790360E+03  0.00000000000E+00 0. -1.
<mgrwt>
<rscale>  0 0.98685756E+02</rscale>
<asrwt>0</asrwt>
<pdfrwt beam="1">  1        4 0.18691312E+00 0.79938439E+02</pdfrwt>
<pdfrwt beam="2">  1        4 0.31909198E+00 0.12182973E+03</pdfrwt>
<totfact> 0.93748790E-03</totfact>
</mgrwt>
</event>
<event>
13    1  0.1589573E-008  0.1579499E+03  0.7546771E-02  0.1275250E+00
          2   -1    0    0  502    0  0.00000000000E+00  0.00000000000E+00  0.14378790933E+04  0.14378790933E+04  0.00000000000E+00 0. -1.
          2   -1    0    0  503    0 -0.00000000000E+00 -0.00000000000E+00 -0.84636713881E+03  0.84636713881E+03  0.00000000000E+00 0. -1.
         24    2    1    2    0    0 -0.20597378453E+02  0.96049219645E+02 -0.44059503063E+03  0.45894476798E+03  0.82804676471E+02 0.  0.
         25    2    1    2    0    0  0.19595265426E+03 -0.17545617123E+03  0.13910239069E+03  0.32273390847E+03  0.12500155938E+03 0.  0.
         24    2    1    2    0    0  0.35117718329E+02  0.36796574520E+02  0.25685841739E+01  0.94791310076E+02  0.79947187594E+02 0.  0.
        -11    1    5    5    0    0  0.10690680518E+02  0.57910638914E+02  0.14016699275E+02  0.60534292826E+02  0.00000000000E+00 0.  1.
         12    1    5    5    0    0  0.24427037811E+02 -0.21114064394E+02 -0.11448115102E+02  0.34257017250E+02  0.00000000000E+00 0. -1.
        -13    1    3    3    0    0  0.19969514346E+02  0.24319928416E+02 -0.45336352810E+02  0.55187184269E+02  0.00000000000E+00 0.  1.
         14    1    3    3    0    0 -0.40566892799E+02  0.71729291229E+02 -0.39525867782E+03  0.40375758371E+03  0.00000000000E+00 0. -1.
          5    1    4    4  501    0  0.10691362462E+03 -0.30953974662E+02  0.97192165006E+02  0.14784139682E+03  0.47000000000E+01 0.  1.
         -5    1    4    4    0  501  0.89039029645E+02 -0.14450219657E+03  0.41910225680E+02  0.17489251165E+03  0.47000000000E+01 0.  1.
          1    1    1    2  502    0 -0.63100675844E+02  0.20788096099E+02  0.11265951657E+04  0.11285523947E+04  0.00000000000E+00 0. -1.
          1    1    1    2  503    0 -0.14737231830E+03  0.21822280967E+02 -0.23615915549E+03  0.27922385083E+03  0.00000000000E+00 0. -1.
<mgrwt>
<rscale>  0 0.10243864E+03</rscale>
<asrwt>0</asrwt>
<pdfrwt beam="1">  1        2 0.21145281E+00 0.66436739E+02</pdfrwt>
<pdfrwt beam="2">  1        2 0.12446576E+00 0.15794987E+03</pdfrwt>
<totfact> 0.98640423E+01</totfact>
</mgrwt>
</event>
<event>
13    1  0.1589573E-008  0.3560365E+03  0.7546771E-02  0.1121187E+00
          2   -1    0    0  503    0  0.00000000000E+00  0.00000000000E+00  0.19917784429E+04  0.19917784429E+04  0.00000000000E+00 0. -1.
          2   -1    0    0  502    0 -0.00000000000E+00 -0.00000000000E+00 -0.27922459420E+03  0.27922459420E+03  0.00000000000E+00 0. -1.
         24    2    1    2    0    0  0.67137329131E+02  0.18549152162E+02  0.15753057909E+03  0.19107582502E+03  0.82719982767E+02 0.  0.
         25    2    1    2    0    0  0.83949579504E+02 -0.41350192831E+02  0.52055878048E+03  0.54347173379E+03  0.12499084423E+03 0.  0.
         24    2    1    2    0    0 -0.14610995286E+03  0.24311808080E+03  0.16009662496E+03  0.33551818925E+03  0.80541954662E+02 0.  0.
        -11    1    3    3    0    0  0.43470485240E+02 -0.29789467702E+02  0.61487054763E+02  0.80979956634E+02  0.00000000000E+00 0.  1.
         12    1    3    3    0    0  0.23666843891E+02  0.48338619864E+02  0.96043524328E+02  0.11009586839E+03  0.00000000000E+00 0. -1.
        -13    1    5    5    0    0 -0.18732017543E+01  0.82784283989E+01 -0.88469065602E+01  0.12260057800E+02  0.00000000000E+00 0.  1.
         14    1    5    5    0    0 -0.14423675111E+03  0.23483965240E+03  0.16894353152E+03  0.32325813145E+03  0.00000000000E+00 0. -1.
          5    1    4    4  501    0  0.82248826018E+02 -0.92600945536E+01  0.14911332088E+03  0.17060917677E+03  0.47000000000E+01 0. -1.
         -5    1    4    4    0  501  0.17007534864E+01 -0.32090098278E+02  0.37144545960E+03  0.37286255702E+03  0.47000000000E+01 0. -1.
          1    1    1    2  502    0  0.14482690586E+03 -0.41139818427E+03  0.19177350602E+03  0.47644556488E+03  0.00000000000E+00 0. -1.
          1    1    1    2  503    0 -0.14980386163E+03  0.19108114414E+03  0.68259435819E+03  0.72449172420E+03  0.00000000000E+00 0. -1.
<mgrwt>
<rscale>  0 0.23791930E+03</rscale>
<asrwt>0</asrwt>
<pdfrwt beam="1">  1        2 0.29290859E+00 0.15898819E+03</pdfrwt>
<pdfrwt beam="2">  1        2 0.41062441E-01 0.35603646E+03</pdfrwt>
<totfact> 0.16980937E+02</totfact>
</mgrwt>
</event>
<event>
13    1  0.1589573E-008  0.1387926E+03  0.7546771E-02  0.1252489E+00
          2   -1    0    0  503    0  0.00000000000E+00  0.00000000000E+00  0.70290012185E+03  0.70290012185E+03  0.00000000000E+00 0. -1.
          2   -1    0    0  502    0 -0.00000000000E+00 -0.00000000000E+00 -0.99425907444E+03  0.99425907444E+03  0.00000000000E+00 0. -1.
         24    2    1    2    0    0  0.42839811920E+02  0.54450972735E+02 -0.83389575214E+02  0.12650696057E+03  0.65192268721E+02 0.  0.
         25    2    1    2    0    0 -0.95152336510E+02 -0.76484003621E+02  0.70145427424E+02  0.18827997652E+03  0.12500079447E+03 0.  0.
         24    2    1    2    0    0 -0.34467142606E+02  0.96441334475E+01  0.22332268272E+03  0.23922860153E+03  0.77950689190E+02 0.  0.
        -11    1    5    5    0    0 -0.44999071039E+02  0.35716781280E+02  0.14199936234E+03  0.15318101633E+03  0.00000000000E+00 0.  1.
         12    1    5    5    0    0  0.10531928434E+02 -0.26072647832E+02  0.81323320380E+02  0.86047585203E+02  0.00000000000E+00 0. -1.
        -13    1    3    3    0    0 -0.13091670177E+02 -0.35338078019E+01 -0.19159443600E+02  0.23472620320E+02  0.00000000000E+00 0.  1.
         14    1    3    3    0    0  0.55931482097E+02  0.57984780537E+02 -0.64230131613E+02  0.10303434025E+03  0.00000000000E+00 0. -1.
          5    1    4    4  501    0 -0.11122521186E+03 -0.77632510371E+02  0.89566634076E+02  0.16261035133E+03  0.47000000000E+01 0. -1.
         -5    1    4    4    0  501  0.16072875349E+02  0.11485067495E+01 -0.19421206652E+02  0.25669625194E+02  0.47000000000E+01 0. -1.
          1    1    1    2  502    0  0.13281858736E+03  0.98123966122E+02 -0.80634646492E+03  0.82308183759E+03  0.00000000000E+00 0. -1.
          1    1    1    2  503    0 -0.46038920160E+02 -0.85735068683E+02  0.30490897740E+03  0.32006182008E+03  0.00000000000E+00 0. -1.
<mgrwt>
<rscale>  0 0.11448117E+03</rscale>
<asrwt>0</asrwt>
<pdfrwt beam="1">  1        2 0.10336767E+00 0.94428221E+02</pdfrwt>
<pdfrwt beam="2">  1        2 0.14621457E+00 0.13879260E+03</pdfrwt>
<totfact> 0.20609627E+02</totfact>
</mgrwt>
</event>
<event>
13    1  0.1589573E-008  0.1690917E+03  0.7546771E-02  0.1212165E+00
         -3   -1    0    0    0  501 -0.00000000000E+00  0.00000000000E+00  0.41209729561E+03  0.41209729561E+03  0.00000000000E+00 0.  1.
          2   -1    0    0  503    0  0.00000000000E+00 -0.00000000000E+00 -0.18258497359E+04  0.18258497359E+04  0.00000000000E+00 0. -1.
         24    2    1    2    0    0  0.59393974912E+02 -0.17721291037E+02  0.17027377869E+03  0.19819818512E+03  0.80297400101E+02 0.  0.
         25    2    1    2    0    0 -0.37134781215E+03 -0.81360514403E+02 -0.26703928611E+03  0.48109626464E+03  0.12499961854E+03 0.  0.
         24    2    1    2    0    0  0.92668033246E+02  0.71164038763E+02 -0.16290762031E+03  0.22226880771E+03  0.95983568008E+02 0.  0.
        -11    1    5    5    0    0  0.86605397889E+02  0.77420344113E+02 -0.17334752381E+03  0.20867143704E+03  0.00000000000E+00 0.  1.
         12    1    5    5    0    0  0.60626353568E+01 -0.62563053506E+01  0.10439903498E+02  0.13597370671E+02  0.00000000000E+00 0. -1.
        -13    1    3    3    0    0  0.53224296846E+02 -0.45734126962E+02  0.13933281118E+03  0.15600662939E+03  0.00000000000E+00 0.  1.
         14    1    3    3    0    0  0.61696780664E+01  0.28012835925E+02  0.30940967510E+02  0.42191555725E+02  0.00000000000E+00 0. -1.
          5    1    4    4  502    0 -0.24591789145E+03 -0.10142578657E+03 -0.13701650018E+03  0.29926311306E+03  0.47000000000E+01 0. -1.
         -5    1    4    4    0  502 -0.12542992070E+03  0.20065272163E+02 -0.13002278593E+03  0.18183315158E+03  0.47000000000E+01 0. -1.
          1    1    1    2  503    0  0.14725935427E+03 -0.76417536213E+02 -0.11924394750E+04  0.12039256035E+04  0.00000000000E+00 0. -1.
         -4    1    1    2    0  501  0.72026449726E+02  0.10433530289E+03  0.38360162402E+02  0.13245817056E+03  0.00000000000E+00 0.  1.
<mgrwt>
<rscale>  0 0.14086822E+03</rscale>
<asrwt>0</asrwt>
<pdfrwt beam="2">  1        2 0.26850731E+00 0.16909166E+03</pdfrwt>
<pdfrwt beam="1">  1       -3 0.60602544E-01 0.11735562E+03</pdfrwt>
<totfact> 0.17311294E+01</totfact>
</mgrwt>
</event>
<event>
13    1  0.1589573E-008  0.4154266E+02  0.7546771E-02  0.1540615E+00
          2   -1    0    0  503    0  0.00000000000E+00  0.00000000000E+00  0.10412751288E+04  0.10412751288E+04  0.00000000000E+00 0. -1.
         -1   -1    0    0    0  501 -0.00000000000E+00 -0.00000000000E+00 -0.56968500747E+03  0.56968500747E+03  0.00000000000E+00 0.  1.
         24    2    1    2    0    0  0.22131343041E+02 -0.18840536782E+03  0.30769035329E+03  0.36977756157E+03  0.77946857317E+02 0.  0.
         25    2    1    2    0    0 -0.80377468714E+02  0.16848093836E+03 -0.16737769302E+03  0.28014997704E+03  0.12498941336E+03 0.  0.
         24    2    1    2    0    0  0.69966762945E+02  0.71956806032E+02  0.33649406311E+03  0.36023937127E+03  0.80442651960E+02 0.  0.
        -11    1    5    5    0    0 -0.67530920629E+01 -0.10987276910E+02  0.16881678346E+02  0.21244189090E+02  0.00000000000E+00 0.  1.
         12    1    5    5    0    0  0.76719855008E+02  0.82944082943E+02  0.31961238477E+03  0.33899518218E+03  0.00000000000E+00 0. -1.
        -13    1    3    3    0    0  0.28704732461E+02 -0.32567908267E+02  0.35564437702E+02  0.56120045827E+02  0.00000000000E+00 0.  1.
         14    1    3    3    0    0 -0.65733894199E+01 -0.15583745956E+03  0.27212591559E+03  0.31365751575E+03  0.00000000000E+00 0. -1.
          5    1    4    4  502    0 -0.30709650064E+02  0.15037645983E+03 -0.68943424261E+02  0.16831948202E+03  0.47000000000E+01 0. -1.
         -5    1    4    4    0  502 -0.49667818650E+02  0.18104478528E+02 -0.98434268757E+02  0.11183049503E+03  0.47000000000E+01 0. -1.
          1    1    1    2  503    0  0.16117603090E+02 -0.38277207985E+02  0.29553696466E+03  0.29844098120E+03  0.00000000000E+00 0. -1.
         -2    1    1    2    0  501 -0.27838240362E+02 -0.13755168580E+02 -0.30075356670E+03  0.30235224519E+03  0.00000000000E+00 0.  1.
<mgrwt>
<rscale>  0 0.35915824E+02</rscale>
<asrwt>0</asrwt>
<pdfrwt beam="1">  1        2 0.15312869E+00 0.41542664E+02</pdfrwt>
<pdfrwt beam="2">  1       -1 0.83777207E-01 0.31051124E+02</pdfrwt>
<totfact> 0.53272090E+01</totfact>
</mgrwt>
</event>
<event>
13    1  0.1589573E-008  0.1698486E+03  0.7546771E-02  0.1362525E+00
          2   -1    0    0  503    0  0.00000000000E+00  0.00000000000E+00  0.13502244514E+04  0.13502244514E+04  0.00000000000E+00 0. -1.
          2   -1    0    0  502    0 -0.00000000000E+00 -0.00000000000E+00 -0.30019038831E+04  0.30019038831E+04  0.00000000000E+00 0. -1.
         24    2    1    2    0    0  0.17705089692E+03 -0.66083488024E+03 -0.29314924435E+03  0.75011327577E+03  0.93186307883E+02 0.  0.
         25    2    1    2    0    0 -0.52807875066E+03  0.48826147393E+03  0.11948115837E+03  0.73970598436E+03  0.12499104873E+03 0.  0.
         24    2    1    2    0    0  0.25277570147E+03  0.28884216290E+03 -0.84918789236E+02  0.40121707768E+03  0.80240839548E+02 0.  0.
        -11    1    5    5    0    0  0.21839659596E+03  0.25975852099E+03 -0.99886385346E+02  0.35376383694E+03  0.00000000000E+00 0.  1.
         12    1    5    5    0    0  0.34379105514E+02  0.29083641915E+02  0.14967596110E+02  0.47453240735E+02  0.00000000000E+00 0. -1.
        -11    1    3    3    0    0  0.27381112092E+02 -0.10512947428E+03 -0.11087177007E+02  0.10920099430E+03  0.00000000000E+00 0.  1.
         12    1    3    3    0    0  0.14966978483E+03 -0.55570540596E+03 -0.28206206734E+03  0.64091228147E+03  0.00000000000E+00 0. -1.
          5    1    4    4  501    0 -0.50318512802E+03  0.47983247578E+03  0.13575384069E+03  0.70843889866E+03  0.47000000000E+01 0. -1.
         -5    1    4    4    0  501 -0.24893622645E+02  0.84289981540E+01 -0.16272682321E+02  0.31267085700E+02  0.47000000000E+01 0. -1.
          1    1    1    2  502    0  0.71313130690E+01  0.27352403331E+02 -0.19134412042E+04  0.19136499814E+04  0.00000000000E+00 0. -1.
          1    1    1    2  503    0  0.91120839197E+02 -0.14362115992E+03  0.52034864773E+03  0.54744201529E+03  0.00000000000E+00 0. -1.
<mgrwt>
<rscale>  0 0.69289752E+02</rscale>
<asrwt>0</asrwt>
<pdfrwt beam="1">  1        2 0.19856242E+00 0.16984862E+03</pdfrwt>
<pdfrwt beam="2">  1        2 0.44145645E+00 0.28266758E+02</pdfrwt>
<totfact> 0.10225742E+01</totfact>
</mgrwt>
</event>
<event>
13    1  0.1589573E-008  0.1124112E+03  0.7546771E-02  0.1428737E+00
          4   -1    0    0  503    0 -0.00000000000E+00  0.00000000000E+00  0.14183192853E+03  0.14183192853E+03  0.00000000000E+00 0. -1.
          2   -1    0    0  502    0  0.00000000000E+00 -0.00000000000E+00 -0.13150268359E+04  0.13150268359E+04  0.00000000000E+00 0. -1.
         24    2    1    2    0    0 -0.37942298575E+02 -0.21066551417E+02  0.54219858597E+02  0.10616361312E+03  0.80296339112E+02 0.  0.
         25    2    1    2    0    0  0.10386216339E+02  0.12485448177E+03 -0.38917971253E+03  0.42755270277E+03  0.12507577661E+03 0.  0.
         24    2    1    2    0    0  0.11237077053E+03 -0.12212743676E+03 -0.22890355078E+03  0.29614171820E+03  0.88095293985E+02 0.  0.
        -11    1    3    3    0    0 -0.24226889666E+01  0.24486501392E+02 -0.30826223523E+01  0.24798401820E+02  0.00000000000E+00 0.  1.
         12    1    3    3    0    0 -0.35519609609E+02 -0.45553052809E+02  0.57302480950E+02  0.81365211300E+02  0.00000000000E+00 0. -1.
        -13    1    5    5    0    0  0.57656552837E+02 -0.49695816392E+01 -0.59155776730E+02  0.82754943944E+02  0.00000000000E+00 0.  1.
         14    1    5    5    0    0  0.54714217691E+02 -0.11715785512E+03 -0.16974777405E+03  0.21338677426E+03  0.00000000000E+00 0. -1.
          5    1    4    4  501    0  0.21155344161E+02  0.88058598211E+02 -0.96840392748E+02  0.13267259315E+03  0.47000000000E+01 0. -1.
         -5    1    4    4    0  501 -0.10769127822E+02  0.36795883560E+02 -0.29233931978E+03  0.29488010962E+03  0.47000000000E+01 0. -1.
          1    1    1    2  502    0 -0.10836769800E+03  0.27275183115E+02 -0.56559207801E+03  0.57652570826E+03  0.00000000000E+00 0. -1.
          3    1    1    2  503    0  0.23553009710E+02 -0.89356767115E+01 -0.43739424653E+02  0.50475022077E+02  0.00000000000E+00 0. -1.
<mgrwt>
<rscale>  0 0.53214278E+02</rscale>
<asrwt>0</asrwt>
<pdfrwt beam="2">  1        2 0.19338630E+00 0.11241119E+03</pdfrwt>
<pdfrwt beam="1">  1        4 0.20857636E-01 0.25191081E+02</pdfrwt>
<totfact> 0.16304331E+02</totfact>
</mgrwt>
</event>
<event>
13    1  0.1589573E-008  0.7178117E+02  0.7546771E-02  0.1412482E+00
          2   -1    0    0  502    0  0.00000000000E+00  0.00000000000E+00  0.33135826867E+04  0.33135826867E+04  0.00000000000E+00 0. -1.
          2   -1    0    0  503    0 -0.00000000000E+00 -0.00000000000E+00 -0.63956196814E+03  0.63956196814E+03  0.00000000000E+00 0. -1.
         24    2    1    2    0    0 -0.96846165100E+01  0.36259779434E+02 -0.86885047732E+02  0.12398844804E+03  0.80097192997E+02 0.  0.
         25    2    1    2    0    0  0.11318186573E+03  0.11359230948E+02  0.44144980607E+03  0.47269644929E+03  0.12499934014E+03 0.  0.
         24    2    1    2    0    0 -0.19967374727E+02 -0.17611696081E+01  0.61129546001E+02  0.10277921203E+03  0.80155768726E+02 0.  0.
        -11    1    3    3    0    0  0.13101347179E+02  0.56395507247E+02 -0.53504853771E+02  0.78834433547E+02  0.00000000000E+00 0.  1.
         12    1    3    3    0    0 -0.22785963689E+02 -0.20135727814E+02 -0.33380193961E+02  0.45154014491E+02  0.00000000000E+00 0. -1.
        -13    1    5    5    0    0 -0.44231348769E+02  0.17137742639E+02  0.52668866970E+02  0.70881055188E+02  0.00000000000E+00 0.  1.
         14    1    5    5    0    0  0.24263974042E+02 -0.18898912247E+02  0.84606790307E+01  0.31898156845E+02  0.00000000000E+00 0. -1.
          5    1    4    4  501    0  0.28689975353E+02 -0.39036805706E+02  0.27512283495E+03  0.27939515242E+03  0.47000000000E+01 0.  1.
         -5    1    4    4    0  501  0.84491890375E+02  0.50396036654E+02  0.16632697112E+03  0.19330129687E+03  0.47000000000E+01 0.  1.
          1    1    1    2  502    0 -0.42728514203E+02  0.13123495342E+02  0.27532373528E+04  0.27536001658E+04  0.00000000000E+00 0. -1.
          1    1    1    2  503    0 -0.40801360289E+02 -0.58981336116E+02 -0.49491093859E+03  0.50008037969E+03  0.00000000000E+00 0. -1.
<mgrwt>
<rscale>  0 0.56643691E+02</rscale>
<asrwt>0</asrwt>
<pdfrwt beam="1">  1        2 0.48729156E+00 0.44698457E+02</pdfrwt>
<pdfrwt beam="2">  1        2 0.94053232E-01 0.71781175E+02</pdfrwt>
<totfact> 0.17842928E+01</totfact>
</mgrwt>
</event>
<event>
13    1  0.1589573E-008  0.1157855E+03  0.7546771E-02  0.1398898E+00
         -3   -1    0    0    0  502 -0.00000000000E+00  0.00000000000E+00  0.23493863445E+04  0.23493863445E+04  0.00000000000E+00 0.  1.
         -1   -1    0    0    0  501  0.00000000000E+00 -0.00000000000E+00 -0.47989511321E+03  0.47989511321E+03  0.00000000000E+00 0.  1.
         24    2    1    2    0    0  0.27314020083E+03 -0.14318056857E+03  0.90790378699E+03  0.96098709237E+03  0.64036401646E+02 0.  0.
         25    2    1    2    0    0  0.55470622629E+02  0.10949717374E+03  0.29013870063E+03  0.33892787228E+03  0.12500006389E+03 0.  0.
         24    2    1    2    0    0 -0.24311987105E+03 -0.75664857015E+02  0.20675775265E+03  0.33759938796E+03  0.79950836044E+02 0.  0.
        -13    1    5    5    0    0 -0.13774121212E+03 -0.45853933819E+01  0.87135012463E+02  0.16305268396E+03  0.00000000000E+00 0.  1.
         14    1    5    5    0    0 -0.10537865893E+03 -0.71079463633E+02  0.11962274019E+03  0.17454670400E+03  0.00000000000E+00 0. -1.
        -13    1    3    3    0    0  0.13947423823E+03 -0.38765992105E+02  0.38875695806E+03  0.41483471131E+03  0.00000000000E+00 0.  1.
         14    1    3    3    0    0  0.13366596261E+03 -0.10441457647E+03  0.51914682893E+03  0.54615238105E+03  0.00000000000E+00 0. -1.
          5    1    4    4  503    0  0.89009728110E+01  0.10054808292E+03  0.97270591637E+02  0.14025976720E+03  0.47000000000E+01 0.  1.
         -5    1    4    4    0  503  0.46569649818E+02  0.89490908167E+01  0.19286810899E+03  0.19866810508E+03  0.47000000000E+01 0.  1.
         -2    1    1    2    0  501 -0.84915000149E+02  0.78523780811E+02 -0.35404172471E+03  0.37245413710E+03  0.00000000000E+00 0.  1.
         -4    1    1    2    0  502 -0.57595226554E+00  0.30824471035E+02  0.81873271569E+03  0.81931296797E+03  0.00000000000E+00 0.  1.
<mgrwt>
<rscale>  0 0.59746550E+02</rscale>
<asrwt>0</asrwt>
<pdfrwt beam="2">  1       -1 0.70572812E-01 0.11578552E+03</pdfrwt>
<pdfrwt beam="1">  1       -3 0.34549799E+00 0.30829851E+02</pdfrwt>
<totfact> 0.30691796E-01</totfact>
</mgrwt>
</event>
<event>
13    1  0.1589573E-008  0.1330998E+03  0.7546771E-02  0.1281646E+00
          2   -1    0    0  503    0  0.00000000000E+00  0.00000000000E+00  0.18299241211E+04  0.18299241211E+04  0.00000000000E+00 0. -1.
          2   -1    0    0  502    0 -0.00000000000E+00 -0.00000000000E+00 -0.18039429201E+04  0.18039429201E+04  0.00000000000E+00 0. -1.
         24    2    1    2    0    0  0.68332765787E+02  0.16082378436E+03 -0.26976795506E+03  0.33143277915E+03  0.80865821123E+02 0.  0.
         25    2    1    2    0    0  0.15630989314E+03 -0.26024281671E+03 -0.54163905061E+03  0.63336926729E+03  0.12499864506E+03 0.  0.
         24    2    1    2    0    0  0.30648297315E+02 -0.41936841778E+02  0.17002717688E+03  0.19473448481E+03  0.79462329877E+02 0.  0.
        -11    1    5    5    0    0  0.36623090950E+02 -0.51670879194E+02  0.71372984021E+02  0.95421346645E+02  0.00000000000E+00 0.  1.
         12    1    5    5    0    0 -0.59747936359E+01  0.97340374153E+01  0.98654192862E+02  0.99313138168E+02  0.00000000000E+00 0. -1.
        -13    1    3    3    0    0  0.80796918894E+02  0.14528579475E+03 -0.20648564572E+03  0.26508946820E+03  0.00000000000E+00 0.  1.
         14    1    3    3    0    0 -0.12464153107E+02  0.15537989601E+02 -0.63282309336E+02  0.66343310955E+02  0.00000000000E+00 0. -1.
          5    1    4    4  501    0  0.10512736949E+03 -0.17213832990E+03 -0.46142762125E+03  0.50360789121E+03  0.47000000000E+01 0. -1.
         -5    1    4    4    0  501  0.51182523650E+02 -0.88104486813E+02 -0.80211429358E+02  0.12976137608E+03  0.47000000000E+01 0. -1.
          1    1    1    2  502    0 -0.74107918700E+02 -0.31258110406E+01 -0.89339273647E+03  0.89646658381E+03  0.00000000000E+00 0. -1.
          1    1    1    2  503    0 -0.18118303754E+03  0.14448168517E+03  0.15607537663E+04  0.15778639261E+04  0.00000000000E+00 0. -1.
<mgrwt>
<rscale>  0 0.99360567E+02</rscale>
<asrwt>0</asrwt>
<pdfrwt beam="1">  1        2 0.26910649E+00 0.13309984E+03</pdfrwt>
<pdfrwt beam="2">  1        2 0.26528572E+00 0.74173811E+02</pdfrwt>
<totfact> 0.19651649E+01</totfact>
</mgrwt>
</event>
<event>
13    1  0.1589573E-008  0.1781430E+03  0.7546771E-02  0.1225010E+00
          2   -1    0    0  502    0  0.00000000000E+00  0.00000000000E+00  0.11396100346E+04  0.11396100346E+04  0.00000000000E+00 0. -1.
          2   -1    0    0  503    0 -0.00000000000E+00 -0.00000000000E+00 -0.66805658877E+03  0.66805658877E+03  0.00000000000E+00 0. -1.
         24    2    1    2    0    0 -0.72419936275E+02  0.47256465994E+02 -0.12150655251E+03  0.16801194504E+03  0.77371510421E+02 0.  0.
         25    2    1    2    0    0 -0.78374785039E+02  0.10656560795E+03 -0.95954261988E+02  0.20574665521E+03  0.12500252001E+03 0.  0.
         24    2    1    2    0    0 -0.12034126040E+03 -0.98732737494E+02  0.14806014796E+03  0.22993458041E+03  0.81962988287E+02 0.  0.
        -11    1    5    5    0    0 -0.16802789633E+02 -0.57595765617E+02  0.28205585166E+02  0.66296010370E+02  0.00000000000E+00 0.  1.
         12    1    5    5    0    0 -0.10353847077E+03 -0.41136971877E+02  0.11985456279E+03  0.16363857004E+03  0.00000000000E+00 0. -1.
        -13    1    3    3    0    0 -0.82827750774E+02  0.57967396138E+02 -0.10544590243E+03  0.14608043556E+03  0.00000000000E+00 0.  1.
         14    1    3    3    0    0  0.10407814499E+02 -0.10710930144E+02 -0.16060650078E+02  0.21931509481E+02  0.00000000000E+00 0. -1.
          5    1    4    4  501    0 -0.82885430362E+01  0.33331530085E+02 -0.98310040973E+02  0.10424320121E+03  0.47000000000E+01 0. -1.
         -5    1    4    4    0  501 -0.70086242003E+02  0.73234077867E+02  0.23557789848E+01  0.10150345400E+03  0.47000000000E+01 0. -1.
          1    1    1    2  502    0  0.28477631636E+03  0.41258900959E+02  0.84083015337E+03  0.88870422194E+03  0.00000000000E+00 0. -1.
          1    1    1    2  503    0 -0.13640334647E+02 -0.96348237411E+02 -0.29987604101E+03  0.31526922075E+03  0.00000000000E+00 0. -1.
<mgrwt>
<rscale>  0 0.13166213E+03</rscale>
<asrwt>0</asrwt>
<pdfrwt beam="1">  1        2 0.16758971E+00 0.17814299E+03</pdfrwt>
<pdfrwt beam="2">  1        2 0.98243615E-01 0.97309001E+02</pdfrwt>
<totfact> 0.17813417E+02</totfact>
</mgrwt>
</event>
<event>
13    1  0.1589573E-008  0.7081573E+02  0.7546771E-02  0.1444834E+00
          2   -1    0    0  502    0  0.00000000000E+00  0.00000000000E+00  0.71393655448E+03  0.71393655448E+03  0.00000000000E+00 0. -1.
          2   -1    0    0  503    0 -0.00000000000E+00 -0.00000000000E+00 -0.32097397893E+03  0.32097397893E+03  0.00000000000E+00 0. -1.
         24    2    1    2    0    0 -0.34665053593E+01 -0.74027316817E+01 -0.75736913115E+02  0.11274926934E+03  0.83123406047E+02 0.  0.
         25    2    1    2    0    0 -0.41655991889E+02 -0.86471723797E+02  0.34919407279E+03  0.38312492723E+03  0.12504250765E+03 0.  0.
         24    2    1    2    0    0 -0.30205409916E+02  0.22969157599E+02 -0.78501409554E+01  0.86758879231E+02  0.77624283722E+02 0.  0.
        -13    1    3    3    0    0  0.10301310438E+02 -0.16136589602E+02  0.12601049469E+02  0.22919270679E+02  0.00000000000E+00 0.  1.
         14    1    3    3    0    0 -0.13767815797E+02  0.87338579206E+01 -0.88337962585E+02  0.89829998662E+02  0.00000000000E+00 0. -1.
        -13    1    5    5    0    0 -0.36382303298E+02 -0.97921415672E+01  0.20591417743E+02  0.42936750162E+02  0.00000000000E+00 0.  1.
         14    1    5    5    0    0  0.61768933824E+01  0.32761299167E+02 -0.28441558699E+02  0.43822129069E+02  0.00000000000E+00 0. -1.
          5    1    4    4  501    0 -0.30956218469E+02 -0.77137124016E+01  0.26608314724E+03  0.26803007307E+03  0.47000000000E+01 0. -1.
         -5    1    4    4    0  501 -0.10699773421E+02 -0.78758011396E+02  0.83110925546E+02  0.11509485417E+03  0.47000000000E+01 0. -1.
          1    1    1    2  502    0  0.31690496066E+02  0.15856608926E+02  0.28105810511E+03  0.28328321171E+03  0.00000000000E+00 0. -1.
          1    1    1    2  503    0  0.43637411099E+02  0.55048688954E+02 -0.15370254827E+03  0.16899424590E+03  0.00000000000E+00 0. -1.
<mgrwt>
<rscale>  0 0.50094268E+02</rscale>
<asrwt>0</asrwt>
<pdfrwt beam="1">  1        2 0.10499067E+00 0.35436134E+02</pdfrwt>
<pdfrwt beam="2">  1        2 0.47202056E-01 0.70815730E+02</pdfrwt>
<totfact> 0.75415735E+02</totfact>
</mgrwt>
</event>
<event>
13    1  0.1589573E-008  0.1183235E+03  0.7546771E-02  0.1251122E+00
          2   -1    0    0  502    0  0.00000000000E+00  0.00000000000E+00  0.17024955045E+04  0.17024955045E+04  0.00000000000E+00 0. -1.
          2   -1    0    0  503    0 -0.00000000000E+00 -0.00000000000E+00 -0.14552172293E+04  0.14552172293E+04  0.00000000000E+00 0. -1.
         24    2    1    2    0    0 -0.17428447649E+02 -0.23570610225E+03 -0.25928848197E+03  0.35558789924E+03  0.57888857084E+02 0.  0.
         25    2    1    2    0    0  0.94431720115E+02 -0.34443988292E+03 -0.35674444230E+03  0.52004663682E+03  0.12500289854E+03 0.  0.
         24    2    1    2    0    0  0.54744787232E+01  0.74827638867E+03 -0.13840004646E+02  0.75274698320E+03  0.80554026745E+02 0.  0.
        -13    1    3    3    0    0  0.20928440459E+02 -0.80319512796E+02 -0.96780793534E+02  0.12749802254E+03  0.00000000000E+00 0.  1.
         14    1    3    3    0    0 -0.38356888108E+02 -0.15538658945E+03 -0.16250768844E+03  0.22808987669E+03  0.00000000000E+00 0. -1.
        -13    1    5    5    0    0 -0.25546305321E+02  0.61063247991E+03 -0.20291449930E+02  0.61150337871E+03  0.00000000000E+00 0.  1.
         14    1    5    5    0    0  0.31020784044E+02  0.13764390876E+03  0.64514452848E+01  0.14124360449E+03  0.00000000000E+00 0. -1.
          5    1    4    4  501    0 -0.15914283001E+02 -0.16283828920E+03 -0.18299370647E+03  0.24551651562E+03  0.47000000000E+01 0.  1.
         -5    1    4    4    0  501  0.11034600312E+03 -0.18160159372E+03 -0.17375073583E+03  0.27453012120E+03  0.47000000000E+01 0.  1.
          1    1    1    2  502    0 -0.99592858796E+02 -0.51851031817E+02  0.11899212879E+04  0.11952070692E+04  0.00000000000E+00 0. -1.
          1    1    1    2  503    0  0.17115107607E+02 -0.11627937168E+03 -0.31277008377E+03  0.33412414532E+03  0.00000000000E+00 0. -1.
<mgrwt>
<rscale>  0 0.11526321E+03</rscale>
<asrwt>0</asrwt>
<pdfrwt beam="1">  1        2 0.25036699E+00 0.11228209E+03</pdfrwt>
<pdfrwt beam="2">  1        2 0.21400253E+00 0.11832349E+03</pdfrwt>
<totfact> 0.32721685E+01</totfact>
</mgrwt>
</event>
<event>
13    1  0.1589573E-008  0.4823888E+02  0.7546771E-02  0.1491375E+00
          2   -1    0    0  502    0  0.00000000000E+00  0.00000000000E+00  0.61979418455E+03  0.61979418455E+03  0.00000000000E+00 0. -1.
          2   -1    0    0  503    0 -0.00000000000E+00 -0.00000000000E+00 -0.22659119827E+04  0.22659119827E+04  0.00000000000E+00 0. -1.
         24    2    1    2    0    0 -0.12742674025E+02 -0.32579437388E+02 -0.23494738228E+03  0.24361029623E+03  0.54054680730E+02 0.  0.
         25    2    1    2    0    0  0.53733049900E+01 -0.65021398845E+02  0.79821274780E+02  0.16202938298E+03  0.12500172129E+03 0.  0.
         24    2    1    2    0    0  0.13446008547E+02  0.58883833104E+02 -0.31794599347E+03  0.33381903809E+03  0.81837610440E+02 0.  0.
        -11    1    5    5    0    0 -0.27314801533E+02  0.41959441036E+02 -0.10471768820E+03  0.11607104418E+03  0.00000000000E+00 0.  1.
         12    1    5    5    0    0  0.40760810080E+02  0.16924392068E+02 -0.21322830526E+03  0.21774799391E+03  0.00000000000E+00 0. -1.
        -13    1    3    3    0    0  0.14722895272E+02 -0.67779794659E+01 -0.21842813988E+02  0.27199506866E+02  0.00000000000E+00 0.  1.
         14    1    3    3    0    0 -0.27465569298E+02 -0.25801457922E+02 -0.21310456829E+03  0.21641078937E+03  0.00000000000E+00 0. -1.
          5    1    4    4  501    0  0.20114473478E+01  0.31956921182E+02  0.51518552359E+02  0.60840298890E+02  0.47000000000E+01 0. -1.
         -5    1    4    4    0  501  0.33618576422E+01 -0.96978320027E+02  0.28302722421E+02  0.10118908409E+03  0.47000000000E+01 0. -1.
          1    1    1    2  502    0 -0.29937801075E+02 -0.22144093337E+02  0.48524352218E+03  0.48667022574E+03  0.00000000000E+00 0. -1.
          1    1    1    2  503    0  0.23861161563E+02  0.60861096466E+02 -0.16582892194E+04  0.16595772243E+04  0.00000000000E+00 0. -1.
<mgrwt>
<rscale>  0 0.42382734E+02</rscale>
<asrwt>0</asrwt>
<pdfrwt beam="1">  1        2 0.91146205E-01 0.37237519E+02</pdfrwt>
<pdfrwt beam="2">  1        2 0.33322235E+00 0.48238878E+02</pdfrwt>
<totfact> 0.62000404E+01</totfact>
</mgrwt>
</event>
<event>
13    1  0.1589573E-008  0.1935966E+03  0.7546771E-02  0.1284335E+00
          2   -1    0    0  503    0  0.00000000000E+00  0.00000000000E+00  0.23770181876E+04  0.23770181876E+04  0.00000000000E+00 0. -1.
          2   -1    0    0  502    0 -0.00000000000E+00 -0.00000000000E+00 -0.14274947653E+04  0.14274947653E+04  0.00000000000E+00 0. -1.
         24    2    1    2    0    0  0.11967901752E+03  0.32025182694E+02 -0.56388589364E+03  0.57991487622E+03  0.54637743877E+02 0.  0.
         25    2    1    2    0    0  0.20285980102E+03 -0.11282821220E+03  0.48712804326E+03  0.55389633163E+03  0.12500044531E+03 0.  0.
         24    2    1    2    0    0 -0.68844516357E+02 -0.15102117906E+03  0.12077478016E+03  0.22067155966E+03  0.81008800535E+02 0.  0.
        -11    1    5    5    0    0 -0.25131684672E+02 -0.11341199896E+03  0.11374663018E+03  0.16257976184E+03  0.00000000000E+00 0.  1.
         12    1    5    5    0    0 -0.43712831685E+02 -0.37609180104E+02  0.70281499721E+01  0.58091797821E+02  0.00000000000E+00 0. -1.
        -13    1    3    3    0    0  0.14075586847E+02 -0.39994552528E+01 -0.16708791178E+03  0.16772742188E+03  0.00000000000E+00 0.  1.
         14    1    3    3    0    0  0.10560343067E+03  0.36024637946E+02 -0.39679798186E+03  0.41218745435E+03  0.00000000000E+00 0. -1.
          5    1    4    4  501    0  0.11360160318E+03 -0.10766194820E+03  0.39742166051E+03  0.42715627770E+03  0.47000000000E+01 0. -1.
         -5    1    4    4    0  501  0.89258197838E+02 -0.51662639966E+01  0.89706382756E+02  0.12674005394E+03  0.47000000000E+01 0. -1.
          1    1    1    2  502    0 -0.20450173660E+03  0.23899978043E+03 -0.73984094819E+03  0.80393189011E+03  0.00000000000E+00 0. -1.
          1    1    1    2  503    0 -0.49192565576E+02 -0.71755718620E+01  0.16453474407E+04  0.16460982953E+04  0.00000000000E+00 0. -1.
<mgrwt>
<rscale>  0 0.98103508E+02</rscale>
<asrwt>0</asrwt>
<pdfrwt beam="1">  1        2 0.34956150E+00 0.49713151E+02</pdfrwt>
<pdfrwt beam="2">  1        2 0.20992570E+00 0.19359663E+03</pdfrwt>
<totfact> 0.17013437E+01</totfact>
</mgrwt>
</event>
<event>
13    1  0.1589573E-008  0.1504410E+03  0.7546771E-02  0.1237915E+00
          2   -1    0    0  502    0  0.00000000000E+00  0.00000000000E+00  0.15918896922E+04  0.15918896922E+04  0.00000000000E+00 0. -1.
          2   -1    0    0  503    0 -0.00000000000E+00 -0.00000000000E+00 -0.22203630140E+04  0.22203630140E+04  0.00000000000E+00 0. -1.
         24    2    1    2    0    0  0.55120907659E+01  0.14632607831E+02 -0.11462075654E+04  0.11487242840E+04  0.74372047006E+02 0.  0.
         25    2    1    2    0    0 -0.32039269085E+02 -0.24565755307E+03  0.63044599976E+03  0.68881168663E+03  0.12500093151E+03 0.  0.
         24    2    1    2    0    0  0.44725130032E+02  0.12177480285E+02 -0.26061622226E+02  0.10085213917E+03  0.85693159235E+02 0.  0.
        -11    1    3    3    0    0 -0.12083060097E+02 -0.27318774517E+02 -0.52877828292E+03  0.52962136312E+03  0.00000000000E+00 0.  1.
         12    1    3    3    0    0  0.17595150863E+02  0.41951382348E+02 -0.61742928250E+03  0.61910292093E+03  0.00000000000E+00 0. -1.
        -11    1    5    5    0    0 -0.24195486216E+02  0.11091757103E+02  0.14010909566E+01  0.26653549195E+02  0.00000000000E+00 0.  1.
         12    1    5    5    0    0  0.68920616248E+02  0.10857231820E+01 -0.27462713183E+02  0.74198589975E+02  0.00000000000E+00 0. -1.
          5    1    4    4  501    0  0.33572127997E+02 -0.70871492164E+02  0.10480845982E+03  0.13098381361E+03  0.47000000000E+01 0.  1.
         -5    1    4    4    0  501 -0.65611397082E+02 -0.17478606090E+03  0.52563753995E+03  0.55782787302E+03  0.47000000000E+01 0.  1.
          1    1    1    2  502    0 -0.12143841081E+03 -0.47549085459E+02  0.86781344902E+03  0.87755819490E+03  0.00000000000E+00 0. -1.
          1    1    1    2  503    0  0.10324045909E+03  0.26639655041E+03 -0.95446358287E+03  0.99630640141E+03  0.00000000000E+00 0. -1.
<mgrwt>
<rscale>  0 0.12319667E+03</rscale>
<asrwt>0</asrwt>
<pdfrwt beam="1">  1        2 0.23410143E+00 0.10088618E+03</pdfrwt>
<pdfrwt beam="2">  1        2 0.32652397E+00 0.15044102E+03</pdfrwt>
<totfact> 0.15382068E+01</totfact>
</mgrwt>
</event>
<event>
13    1  0.1589573E-008  0.5019330E+02  0.7546771E-02  0.1520704E+00
          2   -1    0    0  502    0  0.00000000000E+00  0.00000000000E+00  0.80474810725E+03  0.80474810725E+03  0.00000000000E+00 0. -1.
          2   -1    0    0  503    0 -0.00000000000E+00 -0.00000000000E+00 -0.35089832052E+03  0.35089832052E+03  0.00000000000E+00 0. -1.
         24    2    1    2    0    0  0.79935727935E+02 -0.39002989434E+02 -0.10641463096E+03  0.16037258375E+03  0.80525388240E+02 0.  0.
         25    2    1    2    0    0  0.51620791265E+02  0.14178631906E+03  0.14622963040E+03  0.24449225345E+03  0.12500116329E+03 0.  0.
         24    2    1    2    0    0 -0.12967109328E+03 -0.70173074547E+02  0.46545991212E+03  0.49463264417E+03  0.79181248161E+02 0.  0.
        -13    1    3    3    0    0  0.18688972757E+01 -0.36445632382E+02 -0.57844501040E+02  0.68394175171E+02  0.00000000000E+00 0.  1.
         14    1    3    3    0    0  0.78066830660E+02 -0.25573570516E+01 -0.48570129916E+02  0.91978408577E+02  0.00000000000E+00 0. -1.
        -13    1    5    5    0    0  0.89250898788E+01 -0.95451499534E+01  0.70339296771E+02  0.71542880759E+02  0.00000000000E+00 0.  1.
         14    1    5    5    0    0 -0.13859618316E+03 -0.60627924594E+02  0.39512061535E+03  0.42308976341E+03  0.00000000000E+00 0. -1.
          5    1    4    4  501    0  0.90584423306E+02  0.12181607418E+03  0.11513204919E+03  0.19058376747E+03  0.47000000000E+01 0.  1.
         -5    1    4    4    0  501 -0.38963632040E+02  0.19970244884E+02  0.31097581213E+02  0.53908485972E+02  0.47000000000E+01 0.  1.
          1    1    1    2  502    0 -0.29891009806E+02 -0.41235409782E+02  0.94478687022E+02  0.10733151349E+03  0.00000000000E+00 0. -1.
          1    1    1    2  503    0  0.28005583884E+02  0.86251547007E+01 -0.14590381186E+03  0.14881743291E+03  0.00000000000E+00 0. -1.
<mgrwt>
<rscale>  0 0.38351644E+02</rscale>
<asrwt>0</asrwt>
<pdfrwt beam="1">  1        2 0.11834531E+00 0.50193297E+02</pdfrwt>
<pdfrwt beam="2">  1        2 0.51602694E-01 0.29303686E+02</pdfrwt>
<totfact> 0.58963140E+02</totfact>
</mgrwt>
</event>
<event>
13    1  0.1589573E-008  0.1163480E+03  0.7546771E-02  0.1268017E+00
          2   -1    0    0  502    0  0.00000000000E+00  0.00000000000E+00  0.25746828317E+04  0.25746828317E+04  0.00000000000E+00 0. -1.
          2   -1    0    0  503    0 -0.00000000000E+00 -0.00000000000E+00 -0.40042010794E+03  0.40042010794E+03  0.00000000000E+00 0. -1.
         24    2    1    2    0    0  0.14300674330E+02  0.56817598297E+02 -0.84504112461E+01  0.10068661907E+03  0.81447142660E+02 0.  0.
         25    2    1    2    0    0  0.13342289230E+02  0.20061149679E+03 -0.13369896865E+03  0.27188762821E+03  0.12499791529E+03 0.  0.
         24    2    1    2    0    0  0.48666440272E+02 -0.72987245599E+01  0.87793049202E+01  0.94195200006E+02  0.79837119940E+02 0.  0.
        -11    1    5    5    0    0 -0.11100262265E+02 -0.16792470787E+02 -0.18934194266E+02  0.27635242173E+02  0.00000000000E+00 0.  1.
         12    1    5    5    0    0  0.59766702537E+02  0.94937462269E+01  0.27713499186E+02  0.66559957833E+02  0.00000000000E+00 0. -1.
        -13    1    3    3    0    0 -0.19918500837E+02  0.60507775764E+02 -0.15486107272E+02  0.65557281228E+02  0.00000000000E+00 0.  1.
         14    1    3    3    0    0  0.34219175167E+02 -0.36901774671E+01  0.70356960256E+01  0.35129337845E+02  0.00000000000E+00 0. -1.
          5    1    4    4  501    0 -0.51520252460E+02  0.51775507868E+02 -0.54048041238E+02  0.90985275678E+02  0.47000000000E+01 0. -1.
         -5    1    4    4    0  501  0.64862541690E+02  0.14883598893E+03 -0.79650927409E+02  0.18090235253E+03  0.47000000000E+01 0. -1.
          1    1    1    2  502    0 -0.32961948062E+02 -0.14419411069E+03  0.23722735684E+04  0.23768803745E+04  0.00000000000E+00 0. -1.
          1    1    1    2  503    0 -0.43347455770E+02 -0.10593625984E+03 -0.64640769684E+02  0.13145311779E+03  0.00000000000E+00 0. -1.
<mgrwt>
<rscale>  0 0.10607472E+03</rscale>
<asrwt>0</asrwt>
<pdfrwt beam="1">  1        2 0.37862982E+00 0.96708502E+02</pdfrwt>
<pdfrwt beam="2">  1        2 0.58885311E-01 0.11634805E+03</pdfrwt>
<totfact> 0.62915828E+01</totfact>
</mgrwt>
</event>
<event>
13    1  0.1589573E-008  0.1225260E+03  0.7546771E-02  0.1389689E+00
         -1   -1    0    0    0  501 -0.00000000000E+00  0.00000000000E+00  0.14105890786E+04  0.14105890786E+04  0.00000000000E+00 0.  1.
          2   -1    0    0  503    0  0.00000000000E+00 -0.00000000000E+00 -0.23302898599E+04  0.23302898599E+04  0.00000000000E+00 0. -1.
         24    2    1    2    0    0  0.36190303410E+03 -0.13643202868E+03  0.20700384382E+03  0.45091523477E+03  0.10433816680E+03 0.  0.
         25    2    1    2    0    0 -0.47897082230E+03  0.92525031948E+02 -0.13334177880E+04  0.14253418726E+04  0.12499010383E+03 0.  0.
         24    2    1    2    0    0  0.83611253787E+02 -0.41786086515E+02  0.85464193733E+01  0.12428420092E+03  0.81465345560E+02 0.  0.
        -11    1    5    5    0    0  0.76285178653E+02  0.47957317730E+01  0.43364644771E+00  0.76437003962E+02  0.00000000000E+00 0.  1.
         12    1    5    5    0    0  0.73260751339E+01 -0.46581818288E+02  0.81127729256E+01  0.47847196955E+02  0.00000000000E+00 0. -1.
        -13    1    3    3    0    0  0.18188375065E+03 -0.11910257666E+03  0.13707544391E+03  0.25701517434E+03  0.00000000000E+00 0.  1.
         14    1    3    3    0    0  0.18001928345E+03 -0.17329452018E+02  0.69928399909E+02  0.19390006043E+03  0.00000000000E+00 0. -1.
          5    1    4    4  502    0 -0.99977296844E+02  0.53694310088E+02 -0.43261483384E+03  0.44727645062E+03  0.47000000000E+01 0.  1.
         -5    1    4    4    0  502 -0.37899352546E+03  0.38830721860E+02 -0.90080295420E+03  0.97806542194E+03  0.47000000000E+01 0.  1.
          1    1    1    2  503    0  0.50527313416E+02  0.11199586196E+03 -0.76593450145E+03  0.77572659037E+03  0.00000000000E+00 0. -1.
         -2    1    1    2    0  501 -0.17070778997E+02 -0.26302778715E+02  0.96410124498E+03  0.96461103987E+03  0.00000000000E+00 0.  1.
<mgrwt>
<rscale>  0 0.61984048E+02</rscale>
<asrwt>0</asrwt>
<pdfrwt beam="2">  1        2 0.34268968E+00 0.12252604E+03</pdfrwt>
<pdfrwt beam="1">  1       -1 0.20743957E+00 0.31356780E+02</pdfrwt>
<totfact> 0.12947539E+00</totfact>
</mgrwt>
</event>
<event>
13    1  0.1589573E-008  0.8892786E+02  0.7546771E-02  0.1458339E+00
          2   -1    0    0  502    0  0.00000000000E+00  0.00000000000E+00  0.13100683095E+04  0.13100683095E+04  0.00000000000E+00 0. -1.
          4   -1    0    0  503    0 -0.00000000000E+00 -0.00000000000E+00 -0.10422436749E+04  0.10422436749E+04  0.00000000000E+00 0. -1.
         24    2    1    2    0    0  0.45645415889E+02 -0.20755686762E+03 -0.27345671547E+03  0.35549438098E+03  0.80214228071E+02 0.  0.
         25    2    1    2    0    0 -0.64398763645E+02  0.28051431811E+03  0.44878802141E+03  0.54761531129E+03  0.12504542205E+03 0.  0.
         24    2    1    2    0    0  0.58910652250E+02  0.25486576680E+02  0.13234942318E+02  0.10437627802E+03  0.81235541333E+02 0.  0.
        -11    1    3    3    0    0 -0.10892895078E+02 -0.13361818940E+03 -0.15961467248E+03  0.20844500323E+03  0.00000000000E+00 0.  1.
         12    1    3    3    0    0  0.56538310967E+02 -0.73938678221E+02 -0.11384204298E+03  0.14704937774E+03  0.00000000000E+00 0. -1.
        -11    1    5    5    0    0  0.28299118444E+02 -0.28206003069E+02 -0.41548100028E+01  0.40170650480E+02  0.00000000000E+00 0.  1.
         12    1    5    5    0    0  0.30611533806E+02  0.53692579749E+02  0.17389752321E+02  0.64205627540E+02  0.00000000000E+00 0. -1.
          5    1    4    4  501    0 -0.41603439766E+02  0.11044519745E+02  0.64522410022E+02  0.77704948438E+02  0.47000000000E+01 0. -1.
         -5    1    4    4    0  501 -0.22795323879E+02  0.26946979836E+03  0.38426561139E+03  0.46991036285E+03  0.47000000000E+01 0. -1.
          1    1    1    2  502    0  0.84919594166E+01 -0.24099641053E+02  0.70869212414E+03  0.70915261608E+03  0.00000000000E+00 0. -1.
          3    1    1    2  503    0 -0.48649263910E+02 -0.74344386112E+02 -0.62943373783E+03  0.63567339802E+03  0.00000000000E+00 0. -1.
<mgrwt>
<rscale>  0 0.47668513E+02</rscale>
<asrwt>0</asrwt>
<pdfrwt beam="1">  1        2 0.19265710E+00 0.25552027E+02</pdfrwt>
<pdfrwt beam="2">  1        4 0.15327113E+00 0.88927864E+02</pdfrwt>
<totfact> 0.34526118E+00</totfact>
</mgrwt>
</event>
<event>
13    1  0.1589573E-008  0.2558686E+03  0.7546771E-02  0.1239443E+00
          2   -1    0    0  503    0  0.00000000000E+00  0.00000000000E+00  0.27285318581E+04  0.27285318581E+04  0.00000000000E+00 0. -1.
          2   -1    0    0  502    0 -0.00000000000E+00 -0.00000000000E+00 -0.24995068004E+04  0.24995068004E+04  0.00000000000E+00 0. -1.
         24    2    1    2    0    0  0.66202925787E+03 -0.95648135716E+02 -0.56287285809E+03  0.87783435618E+03  0.79598984746E+02 0.  0.
         25    2    1    2    0    0 -0.64629325554E+03  0.10990959498E+03  0.29987658187E+03  0.73166113600E+03  0.12500784915E+03 0.  0.
         24    2    1    2    0    0 -0.95159883941E+02 -0.24377041622E+03  0.18223684254E+03  0.32308929297E+03  0.51932697931E+02 0.  0.
        -11    1    3    3    0    0  0.29997924579E+03 -0.75228357842E+02 -0.22787383164E+03  0.38415275201E+03  0.00000000000E+00 0.  1.
         12    1    3    3    0    0  0.36205001208E+03 -0.20419777874E+02 -0.33499902645E+03  0.49368160417E+03  0.00000000000E+00 0. -1.
        -13    1    5    5    0    0 -0.42598519001E+02 -0.88272619088E+02  0.97969917633E+02  0.13858136189E+03  0.00000000000E+00 0.  1.
         14    1    5    5    0    0 -0.52561364940E+02 -0.15549779713E+03  0.84266924906E+02  0.18450793108E+03  0.00000000000E+00 0. -1.
          5    1    4    4  501    0 -0.18316247903E+03  0.53614522957E+00  0.33410416505E+02  0.18624480424E+03  0.47000000000E+01 0. -1.
         -5    1    4    4    0  501 -0.46313077651E+03  0.10937344975E+03  0.26646616536E+03  0.54541633176E+03  0.47000000000E+01 0. -1.
          1    1    1    2  502    0  0.13641313441E+03  0.21674210627E+03 -0.14813718443E+04  0.15033456772E+04  0.00000000000E+00 0. -1.
          1    1    1    2  503    0 -0.56989252788E+02  0.12766850686E+02  0.17911563358E+04  0.17921081962E+04  0.00000000000E+00 0. -1.
<mgrwt>
<rscale>  0 0.12224229E+03</rscale>
<asrwt>0</asrwt>
<pdfrwt beam="1">  1        2 0.40125468E+00 0.58401776E+02</pdfrwt>
<pdfrwt beam="2">  1        2 0.36757453E+00 0.25586856E+03</pdfrwt>
<totfact> 0.31485836E+00</totfact>
</mgrwt>
</event>
<event>
13    1  0.1589573E-008  0.1104412E+03  0.7546771E-02  0.1379487E+00
          4   -1    0    0  503    0 -0.00000000000E+00  0.00000000000E+00  0.52449141772E+03  0.52449141772E+03  0.00000000000E+00 0. -1.
          2   -1    0    0  502    0  0.00000000000E+00 -0.00000000000E+00 -0.27621730182E+04  0.27621730182E+04  0.00000000000E+00 0. -1.
         24    2    1    2    0    0 -0.74174270910E+02 -0.10824175218E+03 -0.20839554745E+02  0.15950662621E+03  0.88260848531E+02 0.  0.
         25    2    1    2    0    0  0.76459219501E+02  0.11778695958E+02 -0.25327999182E+03  0.29285391457E+03  0.12501164385E+03 0.  0.
         24    2    1    2    0    0  0.43321912134E+02  0.99921028716E+01  0.24938079758E+03  0.26646430142E+03  0.82678966708E+02 0.  0.
        -11    1    5    5    0    0  0.61175802603E+02  0.10758606626E+02  0.11325154294E+03  0.12916709496E+03  0.00000000000E+00 0.  1.
         12    1    5    5    0    0 -0.17853890470E+02 -0.76650375407E+00  0.13612925464E+03  0.13729720646E+03  0.00000000000E+00 0. -1.
        -13    1    3    3    0    0 -0.47283481154E+02 -0.45202357074E+02  0.32138385085E+02  0.72882483979E+02  0.00000000000E+00 0.  1.
         14    1    3    3    0    0 -0.26890789757E+02 -0.63039395105E+02 -0.52977939829E+02  0.86624142232E+02  0.00000000000E+00 0. -1.
          5    1    4    4  501    0  0.92027611473E+02  0.36937480799E+02 -0.11757269352E+03  0.15387945614E+03  0.47000000000E+01 0. -1.
         -5    1    4    4    0  501 -0.15568391972E+02 -0.25158784841E+02 -0.13570729830E+03  0.13897445843E+03  0.47000000000E+01 0. -1.
          1    1    1    2  502    0 -0.15677921116E+02  0.10953511827E+03 -0.23870835610E+04  0.23896467661E+04  0.00000000000E+00 0. -1.
          3    1    1    2  503    0 -0.29928939608E+02 -0.23064164917E+02  0.17414070950E+03  0.17819282767E+03  0.00000000000E+00 0. -1.
<mgrwt>
<rscale>  0 0.64598819E+02</rscale>
<asrwt>0</asrwt>
<pdfrwt beam="2">  1        2 0.40620193E+00 0.11044120E+03</pdfrwt>
<pdfrwt beam="1">  1        4 0.77131089E-01 0.37784880E+02</pdfrwt>
<totfact> 0.27666356E+00</totfact>
</mgrwt>
</event>
<event>
13    1  0.1589573E-008  0.1137341E+03  0.7546771E-02  0.1315209E+00
          2   -1    0    0  502    0  0.00000000000E+00  0.00000000000E+00  0.93090789357E+03  0.93090789357E+03  0.00000000000E+00 0. -1.
          2   -1    0    0  503    0 -0.00000000000E+00 -0.00000000000E+00 -0.34093084328E+04  0.34093084328E+04  0.00000000000E+00 0. -1.
         24    2    1    2    0    0  0.57250981531E+01 -0.18959879129E+02 -0.16393392933E+04  0.16412896011E+04  0.77498273581E+02 0.  0.
         25    2    1    2    0    0 -0.13466309171E+03 -0.15350328671E+03  0.26793376775E+02  0.24091338144E+03  0.12499586001E+03 0.  0.
         24    2    1    2    0    0 -0.24849767669E+02  0.10924068826E+03 -0.64449628481E+03  0.65926499694E+03  0.81876957240E+02 0.  0.
        -11    1    3    3    0    0  0.15283752856E+02 -0.36566710208E+02 -0.43956625894E+03  0.44134930995E+03  0.00000000000E+00 0.  1.
         12    1    3    3    0    0 -0.95586547031E+01  0.17606831079E+02 -0.11997730344E+04  0.11999402912E+04  0.00000000000E+00 0. -1.
        -13    1    5    5    0    0 -0.49066529040E+02  0.89153479759E+02 -0.55846020504E+03  0.56765629375E+03  0.00000000000E+00 0.  1.
         14    1    5    5    0    0  0.24216761371E+02  0.20087208496E+02 -0.86036079778E+02  0.91608703189E+02  0.00000000000E+00 0. -1.
          5    1    4    4  501    0 -0.11273488614E+02  0.65138962937E+01  0.36014311815E+02  0.38582937239E+02  0.47000000000E+01 0.  1.
         -5    1    4    4    0  501 -0.12338960309E+03 -0.16001718300E+03 -0.92209350399E+01  0.20233044420E+03  0.47000000000E+01 0.  1.
          1    1    1    2  502    0  0.90370654416E+02  0.68698283033E+02  0.78359816572E+03  0.79177799577E+03  0.00000000000E+00 0. -1.
          1    1    1    2  503    0  0.63417106806E+02 -0.54758054537E+01 -0.10049565036E+04  0.10069703511E+04  0.00000000000E+00 0. -1.
<mgrwt>
<rscale>  0 0.85085410E+02</rscale>
<asrwt>0</asrwt>
<pdfrwt beam="1">  1        2 0.13689822E+00 0.11373413E+03</pdfrwt>
<pdfrwt beam="2">  1        2 0.50136890E+00 0.63653074E+02</pdfrwt>
<totfact> 0.92996408E+00</totfact>
</mgrwt>
</event>
<event>
13    1  0.1589573E-008  0.1109066E+03  0.7546771E-02  0.1328842E+00
          2   -1    0    0  503    0  0.00000000000E+00  0.00000000000E+00  0.31665814178E+04  0.31665814178E+04  0.00000000000E+00 0. -1.
          2   -1    0    0  502    0 -0.00000000000E+00 -0.00000000000E+00 -0.17274649392E+04  0.17274649392E+04  0.00000000000E+00 0. -1.
         24    2    1    2    0    0 -0.19206417558E+03 -0.10453120730E+03 -0.47001062117E+03  0.52421660665E+03  0.77959257559E+02 0.  0.
         25    2    1    2    0    0  0.34834918551E+03  0.13500188312E+03 -0.28228748424E+03  0.48464866518E+03  0.12500176564E+03 0.  0.
         24    2    1    2    0    0 -0.21254170608E+03  0.64354179593E+02  0.87594619522E+03  0.90799944045E+03  0.88689400080E+02 0.  0.
        -13    1    3    3    0    0 -0.95073183276E+01 -0.27864146020E+02 -0.10393060681E+03  0.10802023314E+03  0.00000000000E+00 0.  1.
         14    1    3    3    0    0 -0.18255685725E+03 -0.76667061279E+02 -0.36608001436E+03  0.41619637352E+03  0.00000000000E+00 0. -1.
        -13    1    5    5    0    0 -0.82105789133E+02 -0.15572444938E+02  0.37587010093E+03  0.38504830141E+03  0.00000000000E+00 0.  1.
         14    1    5    5    0    0 -0.13043591694E+03  0.79926624531E+02  0.50007609430E+03  0.52295113904E+03  0.00000000000E+00 0. -1.
          5    1    4    4  501    0  0.10475859244E+03  0.11475437872E+02 -0.14392216801E+03  0.17844250842E+03  0.47000000000E+01 0. -1.
         -5    1    4    4    0  501  0.24359059306E+03  0.12352644524E+03 -0.13836531622E+03  0.30620615676E+03  0.47000000000E+01 0. -1.
          1    1    1    2  502    0  0.97028135079E+02 -0.53837076916E+02 -0.82676003078E+03  0.83417326638E+03  0.00000000000E+00 0. -1.
          1    1    1    2  503    0 -0.40771438930E+02 -0.40987778493E+02  0.21422284196E+04  0.21430083784E+04  0.00000000000E+00 0. -1.
<mgrwt>
<rscale>  0 0.80073770E+02</rscale>
<asrwt>0</asrwt>
<pdfrwt beam="1">  1        2 0.46567374E+00 0.57812699E+02</pdfrwt>
<pdfrwt beam="2">  1        2 0.25403896E+00 0.11090658E+03</pdfrwt>
<totfact> 0.49349150E+00</totfact>
</mgrwt>
</event>
<event>
13    1  0.1698794E-008  0.1431389E+03  0.7546771E-02  0.1408344E+00
          2   -1    0    0  503    0  0.00000000000E+00  0.00000000000E+00  0.29979000878E+04  0.29979000878E+04  0.00000000000E+00 0. -1.
          2   -1    0    0  502    0 -0.00000000000E+00 -0.00000000000E+00 -0.28685889001E+04  0.28685889001E+04  0.00000000000E+00 0. -1.
         24    2    1    2    0    0  0.15502566710E+02  0.61445183078E+02 -0.21675269802E+04  0.21698007999E+04  0.76462156300E+02 0.  0.
         25    2    1    2    0    0 -0.14546927339E+03 -0.49734203082E+02  0.29824896305E+03  0.35806901696E+03  0.12500470586E+03 0.  0.
         24    2    1    2    0    0  0.40801677184E+02  0.10131530021E+03 -0.25718615737E+02  0.13724964132E+03  0.79034485694E+02 0.  0.
        -11    1    5    5    0    0 -0.15936841385E+02  0.60102934413E+02 -0.25278290761E+02  0.67121811821E+02  0.00000000000E+00 0.  1.
         12    1    5    5    0    0  0.56738518569E+02  0.41212365800E+02 -0.44032497625E+00  0.70127829499E+02  0.00000000000E+00 0. -1.
        -11    1    3    3    0    0 -0.10479102670E+02 -0.12884981592E+02 -0.19612434568E+03  0.19682630239E+03  0.00000000000E+00 0.  1.
         12    1    3    3    0    0  0.25981669380E+02  0.74330164670E+02 -0.19714026345E+04  0.19729744975E+04  0.00000000000E+00 0. -1.
          5    1    4    4  501    0 -0.14317720354E+03 -0.33814714060E+02  0.15466248253E+03  0.21350812632E+03  0.47000000000E+01 0. -1.
         -5    1    4    4    0  501 -0.22920698517E+01 -0.15919489022E+02  0.14358648052E+03  0.14456089064E+03  0.47000000000E+01 0. -1.
          1    1    1    2  502    0 -0.16776234090E+02 -0.15953163110E+02 -0.58632674396E+03  0.58678360247E+03  0.00000000000E+00 0. -1.
          1    1    1    2  503    0  0.10594126359E+03 -0.97073117099E+02  0.26106345645E+04  0.26145859272E+04  0.00000000000E+00 0. -1.
<mgrwt>
<rscale>  0 0.57565068E+02</rscale>
<asrwt>0</asrwt>
<pdfrwt beam="1">  1        2 0.44086766E+00 0.14313892E+03</pdfrwt>
<pdfrwt beam="2">  1        2 0.42185131E+00 0.23150496E+02</pdfrwt>
<totfact> 0.18466611E+00</totfact>
</mgrwt>
</event>
<event>
13    1  0.1589573E-008  0.2359443E+03  0.7546771E-02  0.1177034E+00
          2   -1    0    0  503    0  0.00000000000E+00  0.00000000000E+00  0.34706983592E+04  0.34706983592E+04  0.00000000000E+00 0. -1.
          2   -1    0    0  502    0 -0.00000000000E+00 -0.00000000000E+00 -0.20415913607E+04  0.20415913607E+04  0.00000000000E+00 0. -1.
         24    2    1    2    0    0 -0.38011765013E+03  0.26063565477E+03  0.24651790136E+03  0.53403077381E+03  0.10953273124E+03 0.  0.
         25    2    1    2    0    0 -0.28907516478E+02 -0.14325276104E+03  0.24701642195E+03  0.31304698872E+03  0.12499722549E+03 0.  0.
         24    2    1    2    0    0  0.38698283629E+03  0.20026529623E+03  0.13825139316E+04  0.14517512680E+04  0.79844027853E+02 0.  0.
        -11    1    5    5    0    0  0.23127407885E+03  0.76965961146E+02  0.72318297816E+03  0.76315468853E+03  0.00000000000E+00 0.  1.
         12    1    5    5    0    0  0.15570875744E+03  0.12329933509E+03  0.65933095339E+03  0.68859657949E+03  0.00000000000E+00 0. -1.
        -13    1    3    3    0    0 -0.24562717412E+03  0.10340227279E+03  0.14844527910E+03  0.30505858384E+03  0.00000000000E+00 0.  1.
         14    1    3    3    0    0 -0.13449047601E+03  0.15723338199E+03  0.98072622256E+02  0.22897218998E+03  0.00000000000E+00 0. -1.
          5    1    4    4  501    0  0.26939918998E+02  0.82716098281E+01  0.22097184957E+02  0.36118614976E+02  0.47000000000E+01 0.  1.
         -5    1    4    4    0  501 -0.55847435476E+02 -0.15152437087E+03  0.22491923699E+03  0.27692837375E+03  0.47000000000E+01 0.  1.
          1    1    1    2  502    0  0.92622331608E+02 -0.21616050329E+03 -0.18198580813E+04  0.18349898353E+04  0.00000000000E+00 0. -1.
          1    1    1    2  503    0 -0.70580001294E+02 -0.10148768668E+03  0.13729168250E+04  0.13784708540E+04  0.00000000000E+00 0. -1.
<mgrwt>
<rscale>  0 0.17078303E+03</rscale>
<asrwt>0</asrwt>
<pdfrwt beam="1">  1        2 0.51039682E+00 0.12361750E+03</pdfrwt>
<pdfrwt beam="2">  1        2 0.30023402E+00 0.23594430E+03</pdfrwt>
<totfact> 0.19036625E+00</totfact>
</mgrwt>
</event>
<event>
13    1  0.1589573E-008  0.3759718E+03  0.7546771E-02  0.1154032E+00
          2   -1    0    0  503    0  0.00000000000E+00  0.00000000000E+00  0.16013033514E+04  0.16013033514E+04  0.00000000000E+00 0. -1.
          2   -1    0    0  502    0 -0.00000000000E+00 -0.00000000000E+00 -0.13473597584E+04  0.13473597584E+04  0.00000000000E+00 0. -1.
         24    2    1    2    0    0  0.91887399769E+02  0.52824210981E+02  0.20789411261E+03  0.24674008599E+03  0.80168675150E+02 0.  0.
         25    2    1    2    0    0 -0.50384658929E+03  0.16486879129E+03  0.15406095417E+03  0.56604131438E+03  0.12499955242E+03 0.  0.
         24    2    1    2    0    0 -0.36336713240E+02 -0.25348124748E+03 -0.31037896334E+03  0.41058337687E+03  0.81673183606E+02 0.  0.
        -13    1    5    5    0    0 -0.23256292948E+02 -0.23256079381E+03 -0.30675195187E+03  0.38564509327E+03  0.00000000000E+00 0.  1.
         14    1    5    5    0    0 -0.13080420292E+02 -0.20920453671E+02 -0.36270114650E+01  0.24938283602E+02  0.00000000000E+00 0. -1.
        -13    1    3    3    0    0 -0.10579441638E+02  0.16477105822E+01  0.16592413131E+01  0.10834787366E+02  0.00000000000E+00 0.  1.
         14    1    3    3    0    0  0.10246684141E+03  0.51176500399E+02  0.20623487130E+03  0.23590529863E+03  0.00000000000E+00 0. -1.
          5    1    4    4  501    0 -0.11898530837E+03  0.57362000536E+02  0.93392847940E+02  0.16184009627E+03  0.47000000000E+01 0. -1.
         -5    1    4    4    0  501 -0.38486128092E+03  0.10750679076E+03  0.60668106226E+02  0.40420121811E+03  0.47000000000E+01 0. -1.
          1    1    1    2  502    0  0.54431376820E+03  0.40356776377E+01 -0.66085740180E+03  0.85616953371E+03  0.00000000000E+00 0. -1.
          1    1    1    2  503    0 -0.96017865436E+02  0.31752567571E+02  0.86322489130E+03  0.86912879885E+03  0.00000000000E+00 0. -1.
<mgrwt>
<rscale>  0 0.19499418E+03</rscale>
<asrwt>0</asrwt>
<pdfrwt beam="1">  1        2 0.23548579E+00 0.10113187E+03</pdfrwt>
<pdfrwt beam="2">  1        2 0.19814114E+00 0.37597179E+03</pdfrwt>
<totfact> 0.38951152E+01</totfact>
</mgrwt>
</event>
<event>
13    1  0.1589573E-008  0.1823694E+03  0.7546771E-02  0.1292734E+00
          2   -1    0    0  502    0  0.00000000000E+00  0.00000000000E+00  0.10321732318E+04  0.10321732318E+04  0.00000000000E+00 0. -1.
          2   -1    0    0  503    0 -0.00000000000E+00 -0.00000000000E+00 -0.23168006218E+04  0.23168006218E+04  0.00000000000E+00 0. -1.
         24    2    1    2    0    0 -0.26975451536E+02  0.15007337815E+02 -0.44897850135E+03  0.45721451275E+03  0.80687798469E+02 0.  0.
         25    2    1    2    0    0  0.25448555905E+03 -0.93392264706E+01  0.73727325357E+02  0.29310471651E+03  0.12499814167E+03 0.  0.
         24    2    1    2    0    0 -0.13239302986E+03  0.11250508403E+03  0.18067456770E+03  0.26366203356E+03  0.81786675193E+02 0.  0.
        -13    1    3    3    0    0  0.14163964480E+02  0.36779735664E+02 -0.18327280330E+03  0.18746276236E+03  0.00000000000E+00 0.  1.
         14    1    3    3    0    0 -0.41139416016E+02 -0.21772397849E+02 -0.26570569805E+03  0.26975175038E+03  0.00000000000E+00 0. -1.
        -13    1    5    5    0    0  0.84434021022E+01  0.16662709512E+02  0.34313501374E+02  0.39068571817E+02  0.00000000000E+00 0.  1.
         14    1    5    5    0    0 -0.14083643196E+03  0.95842374523E+02  0.14636106633E+03  0.22459346175E+03  0.00000000000E+00 0. -1.
          5    1    4    4  501    0  0.49894235110E+02 -0.29030873769E+02 -0.27305243056E+02  0.64030403929E+02  0.47000000000E+01 0.  1.
         -5    1    4    4    0  501  0.20459132394E+03  0.19691647298E+02  0.10103256841E+03  0.22907431258E+03  0.47000000000E+01 0.  1.
          1    1    1    2  502    0 -0.83651285539E+02 -0.16557941275E+03  0.60829147018E+03  0.63595014915E+03  0.00000000000E+00 0. -1.
          1    1    1    2  503    0 -0.11465792113E+02  0.47406217374E+02 -0.16983422519E+04  0.16990424416E+04  0.00000000000E+00 0. -1.
<mgrwt>
<rscale>  0 0.94311817E+02</rscale>
<asrwt>0</asrwt>
<pdfrwt beam="1">  1        2 0.15179018E+00 0.18236941E+03</pdfrwt>
<pdfrwt beam="2">  1        2 0.34070598E+00 0.48773085E+02</pdfrwt>
<totfact> 0.29979223E+01</totfact>
</mgrwt>
</event>
<event>
13    1  0.1589573E-008  0.6795025E+02  0.7546771E-02  0.1437163E+00
          2   -1    0    0  502    0  0.00000000000E+00  0.00000000000E+00  0.46821432972E+04  0.46821432972E+04  0.00000000000E+00 0. -1.
          2   -1    0    0  503    0 -0.00000000000E+00 -0.00000000000E+00 -0.17645257500E+04  0.17645257500E+04  0.00000000000E+00 0. -1.
         24    2    1    2    0    0  0.14265781832E+03 -0.33597906259E+03 -0.51886143222E+03  0.63937354472E+03  0.79675342589E+02 0.  0.
         25    2    1    2    0    0 -0.83932250992E+02  0.14200386656E+03  0.31580411664E+04  0.31648157948E+04  0.12500114088E+03 0.  0.
         24    2    1    2    0    0 -0.21044921418E+02  0.23787487965E+03 -0.11356931293E+02  0.25046398178E+03  0.74671809902E+02 0.  0.
        -11    1    5    5    0    0  0.93066698153E+01  0.58799396462E+02 -0.32133396343E+02  0.67650116688E+02  0.00000000000E+00 0.  1.
         12    1    5    5    0    0 -0.30351591234E+02  0.17907548319E+03  0.20776465051E+02  0.18281386509E+03  0.00000000000E+00 0. -1.
        -11    1    3    3    0    0  0.11961397975E+03 -0.18146739669E+03 -0.29711705870E+03  0.36812561278E+03  0.00000000000E+00 0.  1.
         12    1    3    3    0    0  0.23043838568E+02 -0.15451166589E+03 -0.22174437352E+03  0.27124793194E+03  0.00000000000E+00 0. -1.
          5    1    4    4  501    0  0.12753728805E+02 -0.14989471715E+02  0.48317230464E+03  0.48359581040E+03  0.47000000000E+01 0.  1.
         -5    1    4    4    0  501 -0.96685979796E+02  0.15699333827E+03  0.26748688617E+04  0.26812199844E+04  0.47000000000E+01 0.  1.
          1    1    1    2  502    0  0.28172640470E+02 -0.27121657923E+02  0.13395211822E+04  0.13400918922E+04  0.00000000000E+00 0. -1.
          1    1    1    2  503    0 -0.65853286376E+02 -0.16778025694E+02 -0.10497264379E+04  0.10519238337E+04  0.00000000000E+00 0. -1.
<mgrwt>
<rscale>  0 0.51548667E+02</rscale>
<asrwt>0</asrwt>
<pdfrwt beam="1">  1        2 0.68855048E+00 0.39106035E+02</pdfrwt>
<pdfrwt beam="2">  1        2 0.25948908E+00 0.67950254E+02</pdfrwt>
<totfact> 0.55899734E-01</totfact>
</mgrwt>
</event>
<event>
13    1  0.1589573E-008  0.6845649E+02  0.7546771E-02  0.1374557E+00
          2   -1    0    0  502    0  0.00000000000E+00  0.00000000000E+00  0.25547093619E+04  0.25547093619E+04  0.00000000000E+00 0. -1.
          2   -1    0    0  503    0 -0.00000000000E+00 -0.00000000000E+00 -0.82780839632E+03  0.82780839632E+03  0.00000000000E+00 0. -1.
         24    2    1    2    0    0 -0.12653921073E+03  0.30151558248E+02 -0.26375679449E+03  0.30498055385E+03  0.80772540314E+02 0.  0.
         25    2    1    2    0    0  0.10292313064E+03  0.11997462769E+03  0.11220239222E+03  0.23065512301E+03  0.12500130735E+03 0.  0.
         24    2    1    2    0    0  0.70725883528E+02 -0.32456899710E+02 -0.23823635439E+03  0.26352206816E+03  0.81435366489E+02 0.  0.
        -13    1    5    5    0    0 -0.28913408623E+01  0.58313216261E+01 -0.11362198919E+03  0.11380826241E+03  0.00000000000E+00 0.  1.
         14    1    5    5    0    0  0.73617224390E+02 -0.38288221336E+02 -0.12461436520E+03  0.14971380576E+03  0.00000000000E+00 0. -1.
        -13    1    3    3    0    0 -0.82464032391E+01 -0.21120771319E+02 -0.56701486731E+02  0.61066756464E+02  0.00000000000E+00 0.  1.
         14    1    3    3    0    0 -0.11829280749E+03  0.51272329567E+02 -0.20705530776E+03  0.24391379738E+03  0.00000000000E+00 0. -1.
          5    1    4    4  501    0  0.52156044192E+02 -0.76961942015E+01  0.68159967736E+02  0.86298062277E+02  0.47000000000E+01 0. -1.
         -5    1    4    4    0  501  0.50767086446E+02  0.12767082189E+03  0.44042424488E+02  0.14435706073E+03  0.47000000000E+01 0. -1.
          1    1    1    2  502    0 -0.41409835310E+02 -0.54454991286E+02  0.23452015489E+04  0.23461991445E+04  0.00000000000E+00 0. -1.
          1    1    1    2  503    0 -0.56999681287E+01 -0.63214294943E+02 -0.22850982672E+03  0.23716086867E+03  0.00000000000E+00 0. -1.
<mgrwt>
<rscale>  0 0.65916501E+02</rscale>
<asrwt>0</asrwt>
<pdfrwt beam="1">  1        2 0.37569255E+00 0.68456489E+02</pdfrwt>
<pdfrwt beam="2">  1        2 0.12173653E+00 0.63470755E+02</pdfrwt>
<totfact> 0.30554147E+01</totfact>
</mgrwt>
</event>
<event>
13    1  0.1589573E-008  0.8563636E+03  0.7546771E-02  0.1193869E+00
          2   -1    0    0  503    0  0.00000000000E+00  0.00000000000E+00  0.12322077821E+04  0.12322077821E+04  0.00000000000E+00 0. -1.
          2   -1    0    0  502    0 -0.00000000000E+00 -0.00000000000E+00 -0.28492354961E+04  0.28492354961E+04  0.00000000000E+00 0. -1.
         24    2    1    2    0    0 -0.22857316893E+03  0.27530739072E+02 -0.35762088488E+03  0.43270918384E+03  0.79629801769E+02 0.  0.
         25    2    1    2    0    0  0.35326267515E+03 -0.55630751531E+03 -0.29882311839E+03  0.73429747349E+03  0.12499981698E+03 0.  0.
         24    2    1    2    0    0  0.26550357160E+03 -0.18486242627E+03  0.71492596054E+02  0.34120422592E+03  0.81503799423E+02 0.  0.
        -11    1    3    3    0    0 -0.62321485437E+02  0.26056380900E+02 -0.16480949918E+03  0.17811533778E+03  0.00000000000E+00 0.  1.
         12    1    3    3    0    0 -0.16625168349E+03  0.14743581720E+01 -0.19281138570E+03  0.25459384606E+03  0.00000000000E+00 0. -1.
        -13    1    5    5    0    0  0.34051456089E+02 -0.54781658557E+02  0.34466676819E+02  0.73133327471E+02  0.00000000000E+00 0.  1.
         14    1    5    5    0    0  0.23145211551E+03 -0.13008076771E+03  0.37025919234E+02  0.26807089845E+03  0.00000000000E+00 0. -1.
          5    1    4    4  501    0  0.71538063586E+01 -0.34202657466E+01  0.91145621735E+01  0.12963040030E+02  0.47000000000E+01 0. -1.
         -5    1    4    4    0  501  0.34610886879E+03 -0.55288724956E+03 -0.30793768056E+03  0.72133443346E+03  0.47000000000E+01 0. -1.
          1    1    1    2  502    0  0.27777125553E+02  0.50772085833E+01 -0.15829303648E+04  0.15831822026E+04  0.00000000000E+00 0. -1.
          1    1    1    2  503    0 -0.41797020337E+03  0.70856199392E+03  0.55085405801E+03  0.99005019235E+03  0.00000000000E+00 0. -1.
<mgrwt>
<rscale>  0 0.15550377E+03</rscale>
<asrwt>0</asrwt>
<pdfrwt beam="1">  1        2 0.18120703E+00 0.85636363E+03</pdfrwt>
<pdfrwt beam="2">  1        2 0.41900522E+00 0.28237329E+02</pdfrwt>
<totfact> 0.12836089E+01</totfact>
</mgrwt>
</event>
<event>
13    1  0.1589573E-008  0.1049615E+03  0.7546771E-02  0.1303278E+00
          2   -1    0    0  502    0  0.00000000000E+00  0.00000000000E+00  0.88384159704E+03  0.88384159704E+03  0.00000000000E+00 0. -1.
          2   -1    0    0  503    0 -0.00000000000E+00 -0.00000000000E+00 -0.10496553900E+04  0.10496553900E+04  0.00000000000E+00 0. -1.
         24    2    1    2    0    0 -0.27058939562E+03  0.27979468519E+03 -0.46168910680E+03  0.60873436386E+03  0.76791975677E+02 0.  0.
         25    2    1    2    0    0  0.13890184290E+03 -0.21766654472E+03  0.15336760488E+03  0.32529791206E+03  0.12499865084E+03 0.  0.
         24    2    1    2    0    0 -0.36917972973E+02  0.69090441635E+02  0.26167545116E+02  0.11490152327E+03  0.79882374647E+02 0.  0.
        -11    1    3    3    0    0 -0.73203361764E+02  0.39477513744E+02 -0.70778515484E+02  0.10920991035E+03  0.00000000000E+00 0.  1.
         12    1    3    3    0    0 -0.19738603385E+03  0.24031717144E+03 -0.39091059132E+03  0.49952445351E+03  0.00000000000E+00 0. -1.
        -13    1    5    5    0    0  0.21094423998E+02  0.39831054988E+02  0.20996444903E+02  0.49722614209E+02  0.00000000000E+00 0.  1.
         14    1    5    5    0    0 -0.58012396971E+02  0.29259386648E+02  0.51711002129E+01  0.65178909064E+02  0.00000000000E+00 0. -1.
          5    1    4    4  501    0  0.92625621661E+02 -0.61713260914E+02  0.16425186976E+02  0.11260510258E+03  0.47000000000E+01 0.  1.
         -5    1    4    4    0  501  0.46276221244E+02 -0.15595328381E+03  0.13694241790E+03  0.21269280948E+03  0.47000000000E+01 0.  1.
          1    1    1    2  502    0  0.96055508014E+02 -0.10581213133E+03  0.48621658015E+03  0.50678341584E+03  0.00000000000E+00 0. -1.
          1    1    1    2  503    0  0.72550017674E+02 -0.25406450775E+02 -0.36987641630E+03  0.37777977201E+03  0.00000000000E+00 0. -1.
<mgrwt>
<rscale>  0 0.89824221E+02</rscale>
<asrwt>0</asrwt>
<pdfrwt beam="1">  1        2 0.12997671E+00 0.10496154E+03</pdfrwt>
<pdfrwt beam="2">  1        2 0.15436109E+00 0.76869973E+02</pdfrwt>
<totfact> 0.14926454E+02</totfact>
</mgrwt>
</event>
<event>
13    1  0.1589573E-008  0.9009531E+02  0.7546771E-02  0.1344885E+00
          2   -1    0    0  502    0  0.00000000000E+00  0.00000000000E+00  0.34056214357E+04  0.34056214357E+04  0.00000000000E+00 0. -1.
          2   -1    0    0  503    0 -0.00000000000E+00 -0.00000000000E+00 -0.13298747476E+04  0.13298747476E+04  0.00000000000E+00 0. -1.
         24    2    1    2    0    0 -0.26930570112E+02  0.52961867318E+01 -0.21333037064E+03  0.23038208002E+03  0.82539387923E+02 0.  0.
         25    2    1    2    0    0  0.30677127388E+02  0.62397758102E+02  0.12802971429E+03  0.19196750176E+03  0.12500139052E+03 0.  0.
         24    2    1    2    0    0 -0.18054064624E+02  0.54524788893E+01 -0.55980498269E+01  0.84011024090E+02  0.81675181244E+02 0.  0.
        -11    1    3    3    0    0 -0.31960491634E+02 -0.34363846508E+02 -0.11037743769E+03  0.11993967535E+03  0.00000000000E+00 0.  1.
         12    1    3    3    0    0  0.50299215221E+01  0.39660033240E+02 -0.10295293295E+03  0.11044240467E+03  0.00000000000E+00 0. -1.
        -13    1    5    5    0    0 -0.20433727137E+02  0.40045027455E+02 -0.16144907334E+02  0.47768184615E+02  0.00000000000E+00 0.  1.
         14    1    5    5    0    0  0.23796625129E+01 -0.34592548566E+02  0.10546857507E+02  0.36242839475E+02  0.00000000000E+00 0. -1.
          5    1    4    4  501    0  0.46499178412E+02  0.89117906419E+02  0.60307199611E+02  0.11731676420E+03  0.47000000000E+01 0. -1.
         -5    1    4    4    0  501 -0.15822051023E+02 -0.26720148317E+02  0.67722514674E+02  0.74650737562E+02  0.47000000000E+01 0. -1.
          1    1    1    2  502    0 -0.60505151642E+02  0.13025332408E+02  0.31944328281E+04  0.31950323357E+04  0.00000000000E+00 0. -1.
          1    1    1    2  503    0  0.74812658990E+02 -0.86171756131E+02 -0.10277874339E+04  0.10341032418E+04  0.00000000000E+00 0. -1.
<mgrwt>
<rscale>  0 0.74673395E+02</rscale>
<asrwt>0</asrwt>
<pdfrwt beam="1">  1        2 0.50082668E+00 0.61891297E+02</pdfrwt>
<pdfrwt beam="2">  1        2 0.19556982E+00 0.90095314E+02</pdfrwt>
<totfact> 0.57543195E+00</totfact>
</mgrwt>
</event>
<event>
13    1  0.1589573E-008  0.9163315E+02  0.7546771E-02  0.1368586E+00
          2   -1    0    0  503    0  0.00000000000E+00  0.00000000000E+00  0.15793187339E+04  0.15793187339E+04  0.00000000000E+00 0. -1.
          2   -1    0    0  502    0 -0.00000000000E+00 -0.00000000000E+00 -0.12041653586E+04  0.12041653586E+04  0.00000000000E+00 0. -1.
         24    2    1    2    0    0 -0.66854483882E+02  0.36292083347E+02 -0.21335178597E+03  0.24015003474E+03  0.79789831928E+02 0.  0.
         25    2    1    2    0    0  0.10962837660E+03  0.33759869331E+02 -0.98487760502E+01  0.16994578130E+03  0.12500584171E+03 0.  0.
         24    2    1    2    0    0  0.18524177412E+02  0.25833404584E+02  0.14428542921E+03  0.16896588668E+03  0.81979728212E+02 0.  0.
        -13    1    3    3    0    0 -0.40694575481E+01  0.43827160930E+02 -0.61233106537E+02  0.75411364237E+02  0.00000000000E+00 0.  1.
         14    1    3    3    0    0 -0.62785026334E+02 -0.75350775829E+01 -0.15211867943E+03  0.16473867050E+03  0.00000000000E+00 0. -1.
        -13    1    5    5    0    0  0.21772264616E+02 -0.26230830799E+02  0.73641942147E+02  0.81149390843E+02  0.00000000000E+00 0.  1.
         14    1    5    5    0    0 -0.32480872048E+01  0.52064235383E+02  0.70643487063E+02  0.87816495836E+02  0.00000000000E+00 0. -1.
          5    1    4    4  501    0 -0.13431582786E+02  0.67104582167E+01  0.33179457491E+02  0.36720621795E+02  0.47000000000E+01 0.  1.
         -5    1    4    4    0  501  0.12305995938E+03  0.27049411115E+02 -0.43028233541E+02  0.13322515951E+03  0.47000000000E+01 0.  1.
          1    1    1    2  502    0 -0.78009312840E+02 -0.48958023150E+02 -0.87228505597E+03  0.87713371831E+03  0.00000000000E+00 0. -1.
          1    1    1    2  503    0  0.16711242715E+02 -0.46927334112E+02  0.13263535641E+04  0.13272886715E+04  0.00000000000E+00 0. -1.
<mgrwt>
<rscale>  0 0.67561966E+02</rscale>
<asrwt>0</asrwt>
<pdfrwt beam="1">  1        2 0.23225276E+00 0.49814057E+02</pdfrwt>
<pdfrwt beam="2">  1        2 0.17708314E+00 0.91633155E+02</pdfrwt>
<totfact> 0.55103376E+01</totfact>
</mgrwt>
</event>
<event>
13    1  0.1589573E-008  0.1092544E+03  0.7546771E-02  0.1423964E+00
          2   -1    0    0  503    0  0.00000000000E+00  0.00000000000E+00  0.16017501363E+04  0.16017501363E+04  0.00000000000E+00 0. -1.
         -1   -1    0    0    0  501 -0.00000000000E+00 -0.00000000000E+00 -0.44888223105E+03  0.44888223105E+03  0.00000000000E+00 0.  1.
         24    2    1    2    0    0 -0.29397809029E+01 -0.35055026185E+02 -0.20983015613E+03  0.22662232274E+03  0.78047969672E+02 0.  0.
         25    2    1    2    0    0  0.21731569436E+02  0.82022871194E+02  0.97800775320E+03  0.98960817772E+03  0.12500067032E+03 0.  0.
         24    2    1    2    0    0 -0.66712579947E+02  0.27618686387E+02  0.20397704868E+03  0.23094037687E+03  0.80706016628E+02 0.  0.
        -11    1    5    5    0    0 -0.32209493688E+02  0.54660687322E+02  0.13574197426E+03  0.14983699743E+03  0.00000000000E+00 0.  1.
         12    1    5    5    0    0 -0.34503086259E+02 -0.27042000935E+02  0.68235074421E+02  0.81103379444E+02  0.00000000000E+00 0. -1.
        -11    1    3    3    0    0 -0.16413905507E+02 -0.35728012758E+02 -0.39410510633E+02  0.55669520727E+02  0.00000000000E+00 0.  1.
         12    1    3    3    0    0  0.13474124604E+02  0.67298657306E+00 -0.17041964550E+03  0.17095280201E+03  0.00000000000E+00 0. -1.
          5    1    4    4  502    0  0.24197150215E+02  0.72164085573E+02  0.97504997290E+03  0.97802745206E+03  0.47000000000E+01 0.  1.
         -5    1    4    4    0  502 -0.24655807790E+01  0.98587856209E+01  0.29577802966E+01  0.11580725659E+02  0.47000000000E+01 0.  1.
          1    1    1    2  503    0 -0.16289755575E+02  0.21380707607E+02  0.37580237880E+03  0.37676241679E+03  0.00000000000E+00 0. -1.
         -2    1    1    2    0  501  0.64210546989E+02 -0.95967239004E+02 -0.19508911933E+03  0.22669907320E+03  0.00000000000E+00 0.  1.
<mgrwt>
<rscale>  0 0.54191046E+02</rscale>
<asrwt>0</asrwt>
<pdfrwt beam="1">  1        2 0.23555149E+00 0.26879189E+02</pdfrwt>
<pdfrwt beam="2">  1       -1 0.66012093E-01 0.10925439E+03</pdfrwt>
<totfact> 0.45426220E+01</totfact>
</mgrwt>
</event>
<event>
13    1  0.1589573E-008  0.1147697E+03  0.7546771E-02  0.1308573E+00
          2   -1    0    0  502    0  0.00000000000E+00  0.00000000000E+00  0.11553687201E+04  0.11553687201E+04  0.00000000000E+00 0. -1.
          4   -1    0    0  503    0 -0.00000000000E+00 -0.00000000000E+00 -0.13758746891E+04  0.13758746891E+04  0.00000000000E+00 0. -1.
         24    2    1    2    0    0  0.37025316969E+02 -0.11793345359E+03 -0.62298987629E+03  0.64021444616E+03  0.80492096144E+02 0.  0.
         25    2    1    2    0    0 -0.19428933738E+02  0.12139815507E+03  0.74211746242E+03  0.76254839831E+03  0.12500694468E+03 0.  0.
         24    2    1    2    0    0  0.12017117480E+02  0.45087303299E+02  0.21137510410E+02  0.95982325374E+02  0.81169799844E+02 0.  0.
        -11    1    3    3    0    0  0.40013995421E+02 -0.12712595113E+03 -0.60756797554E+03  0.62201364308E+03  0.00000000000E+00 0.  1.
         12    1    3    3    0    0 -0.29886784515E+01  0.91924975424E+01 -0.15421900757E+02  0.18200803084E+02  0.00000000000E+00 0. -1.
        -13    1    5    5    0    0  0.26432894830E+02  0.60438088032E+02  0.30813153133E+02  0.72807354162E+02  0.00000000000E+00 0.  1.
         14    1    5    5    0    0 -0.14415777351E+02 -0.15350784734E+02 -0.96756427232E+01  0.23174971212E+02  0.00000000000E+00 0. -1.
          5    1    4    4  501    0  0.51721617839E+02  0.68542811669E+02  0.39615956206E+03  0.40538590429E+03  0.47000000000E+01 0.  1.
         -5    1    4    4    0  501 -0.71150551577E+02  0.52855343399E+02  0.34595790036E+03  0.35716249402E+03  0.47000000000E+01 0.  1.
          1    1    1    2  502    0 -0.93200655392E+02 -0.69606180387E+02  0.32410843136E+03  0.34435106765E+03  0.00000000000E+00 0. -1.
          3    1    1    2  503    0  0.63587154681E+02  0.21054175608E+02 -0.68487949693E+03  0.68814717166E+03  0.00000000000E+00 0. -1.
<mgrwt>
<rscale>  0 0.87678479E+02</rscale>
<asrwt>0</asrwt>
<pdfrwt beam="1">  1        2 0.16990716E+00 0.11476967E+03</pdfrwt>
<pdfrwt beam="2">  1        4 0.20233451E+00 0.66982121E+02</pdfrwt>
<totfact> 0.17948508E+00</totfact>
</mgrwt>
</event>
<event>
13    1  0.1589573E-008  0.1306174E+03  0.7546771E-02  0.1284707E+00
         -1   -1    0    0    0  501 -0.00000000000E+00  0.00000000000E+00  0.14463604975E+04  0.14463604975E+04  0.00000000000E+00 0.  1.
          2   -1    0    0  503    0  0.00000000000E+00 -0.00000000000E+00 -0.26807002910E+04  0.26807002910E+04  0.00000000000E+00 0. -1.
         24    2    1    2    0    0  0.17004040752E+03  0.19375875675E+03  0.27273119592E+03  0.38547579094E+03  0.88051599430E+02 0.  0.
         25    2    1    2    0    0 -0.13261114608E+03 -0.20155514951E+03 -0.72903545798E+03  0.77802481734E+03  0.12497889038E+03 0.  0.
         24    2    1    2    0    0 -0.10983125927E+03  0.42854908701E+02 -0.15946737343E+03  0.21257695442E+03  0.76548479090E+02 0.  0.
        -13    1    5    5    0    0  0.27068067478E+01  0.12574075369E+02 -0.53626807866E+02  0.55147698919E+02  0.00000000000E+00 0.  1.
         14    1    5    5    0    0 -0.11253806601E+03  0.30280833332E+02 -0.10584056557E+03  0.15742925550E+03  0.00000000000E+00 0. -1.
        -13    1    3    3    0    0  0.27662535222E+01  0.35348884188E+02  0.11737283543E+02  0.37349157913E+02  0.00000000000E+00 0.  1.
         14    1    3    3    0    0  0.16727415400E+03  0.15840987256E+03  0.26099391238E+03  0.34812663302E+03  0.00000000000E+00 0. -1.
          5    1    4    4  502    0 -0.14420540972E+03 -0.12438472632E+03 -0.56636846897E+03  0.59754672870E+03  0.47000000000E+01 0.  1.
         -5    1    4    4    0  502  0.11594263637E+02 -0.77170423198E+02 -0.16266698901E+03  0.18047808864E+03  0.47000000000E+01 0.  1.
          1    1    1    2  503    0  0.73491407114E+02 -0.10847513670E+03 -0.16809591443E+04  0.16860579726E+04  0.00000000000E+00 0. -1.
         -2    1    1    2    0  501 -0.10894092878E+01  0.73416620770E+02  0.10623909863E+04  0.10649252532E+04  0.00000000000E+00 0.  1.
<mgrwt>
<rscale>  0 0.97931329E+02</rscale>
<asrwt>0</asrwt>
<pdfrwt beam="2">  1        2 0.39422063E+00 0.13061742E+03</pdfrwt>
<pdfrwt beam="1">  1       -1 0.21270008E+00 0.73424703E+02</pdfrwt>
<totfact> 0.73140636E-01</totfact>
</mgrwt>
</event>
<event>
13    1  0.1589573E-008  0.2737868E+03  0.7546771E-02  0.1331256E+00
          2   -1    0    0  503    0  0.00000000000E+00  0.00000000000E+00  0.34799446108E+04  0.34799446108E+04  0.00000000000E+00 0. -1.
          2   -1    0    0  502    0 -0.00000000000E+00 -0.00000000000E+00 -0.27429956852E+04  0.27429956852E+04  0.00000000000E+00 0. -1.
         24    2    1    2    0    0  0.22256692042E+03 -0.15692884652E+04  0.85296513159E+03  0.18009396666E+04  0.60264798846E+02 0.  0.
         25    2    1    2    0    0 -0.70125546596E+02  0.38882420988E+03 -0.53537831556E+03  0.67702033600E+03  0.12499894444E+03 0.  0.
         24    2    1    2    0    0 -0.34881046065E+03  0.10052035074E+04 -0.41743708594E+03  0.11457720301E+04  0.80230889094E+02 0.  0.
        -13    1    5    5    0    0 -0.10930706973E+03  0.27464774515E+03 -0.80484800990E+02  0.30636126159E+03  0.00000000000E+00 0.  1.
         14    1    5    5    0    0 -0.23950339091E+03  0.73055576221E+03 -0.33695228495E+03  0.83941076852E+03  0.00000000000E+00 0. -1.
        -13    1    3    3    0    0  0.14948184259E+03 -0.86428133446E+03  0.45615999365E+03  0.98863996792E+03  0.00000000000E+00 0.  1.
         14    1    3    3    0    0  0.73085077834E+02 -0.70500713078E+03  0.39680513794E+03  0.81229969873E+03  0.00000000000E+00 0. -1.
          5    1    4    4  501    0 -0.96795658399E+02  0.32690726672E+03 -0.48439057109E+03  0.59236312839E+03  0.47000000000E+01 0.  1.
         -5    1    4    4    0  501  0.26670111803E+02  0.61916943161E+02 -0.50987744477E+02  0.84657207613E+02  0.47000000000E+01 0.  1.
          1    1    1    2  502    0  0.19002563703E+03  0.19729263464E+03 -0.85983783724E+03  0.90241633007E+03  0.00000000000E+00 0. -1.
          1    1    1    2  503    0  0.63434497854E+01 -0.22031886637E+02  0.16966370328E+04  0.16967919331E+04  0.00000000000E+00 0. -1.
<mgrwt>
<rscale>  0 0.79228062E+02</rscale>
<asrwt>0</asrwt>
<pdfrwt beam="1">  1        2 0.51175656E+00 0.22926914E+02</pdfrwt>
<pdfrwt beam="2">  1        2 0.40338172E+00 0.27378677E+03</pdfrwt>
<totfact> 0.11245172E+00</totfact>
</mgrwt>
</event>
<event>
13    1  0.1589573E-008  0.1170538E+03  0.7546771E-02  0.1397238E+00
          2   -1    0    0  503    0  0.00000000000E+00  0.00000000000E+00  0.19480834637E+04  0.19480834637E+04  0.00000000000E+00 0. -1.
         -1   -1    0    0    0  501 -0.00000000000E+00 -0.00000000000E+00 -0.54327719977E+03  0.54327719977E+03  0.00000000000E+00 0.  1.
         24    2    1    2    0    0  0.16037023552E+03  0.61243242729E+02 -0.10056663204E+03  0.21448237042E+03  0.80122983737E+02 0.  0.
         25    2    1    2    0    0  0.61528238302E+02  0.77903796046E+02  0.14867956306E+03  0.21814373068E+03  0.12500539675E+03 0.  0.
         24    2    1    2    0    0 -0.16191804607E+03 -0.38057958575E+02 -0.92457125456E+02  0.20667064211E+03  0.80613723465E+02 0.  0.
        -11    1    5    5    0    0 -0.16121012392E+03 -0.23777810928E+02 -0.64472157398E+02  0.17524482140E+03  0.00000000000E+00 0.  1.
         12    1    5    5    0    0 -0.70792214819E+00 -0.14280147647E+02 -0.27984968057E+02  0.31425820717E+02  0.00000000000E+00 0. -1.
        -11    1    3    3    0    0  0.14882191590E+03  0.29012746169E+02 -0.64557065971E+02  0.16479477194E+03  0.00000000000E+00 0.  1.
         12    1    3    3    0    0  0.11548319617E+02  0.32230496560E+02 -0.36009566069E+02  0.49687598483E+02  0.00000000000E+00 0. -1.
          5    1    4    4  502    0  0.79289753030E+02  0.24849120392E+02  0.32944101297E+02  0.89508365699E+02  0.47000000000E+01 0.  1.
         -5    1    4    4    0  502 -0.17761514729E+02  0.53054675654E+02  0.11573546176E+03  0.12863536498E+03  0.47000000000E+01 0.  1.
          1    1    1    2  503    0 -0.28533120089E+02  0.11861684537E+02  0.16333894186E+04  0.16336816799E+04  0.00000000000E+00 0. -1.
         -2    1    1    2    0  501 -0.31447307662E+02 -0.11295076474E+03 -0.18423896025E+03  0.21838224032E+03  0.00000000000E+00 0.  1.
<mgrwt>
<rscale>  0 0.60141633E+02</rscale>
<asrwt>0</asrwt>
<pdfrwt beam="1">  1        2 0.28648286E+00 0.30900461E+02</pdfrwt>
<pdfrwt beam="2">  1       -1 0.79893707E-01 0.11705379E+03</pdfrwt>
<totfact> 0.21344391E+01</totfact>
</mgrwt>
</event>
<event>
13    1  0.1589573E-008  0.1351800E+03  0.7546771E-02  0.1390082E+00
          2   -1    0    0  503    0  0.00000000000E+00  0.00000000000E+00  0.12201385748E+04  0.12201385748E+04  0.00000000000E+00 0. -1.
          2   -1    0    0  502    0 -0.00000000000E+00 -0.00000000000E+00 -0.39818164743E+03  0.39818164743E+03  0.00000000000E+00 0. -1.
         24    2    1    2    0    0 -0.35583220351E+02  0.27931177087E+02 -0.10387650058E+03  0.13949956378E+03  0.81384794027E+02 0.  0.
         25    2    1    2    0    0  0.12100113026E+02  0.14110177207E+03  0.23010669200E+03  0.29770834980E+03  0.12500019608E+03 0.  0.
         24    2    1    2    0    0  0.32966252094E+02  0.86434016754E+02  0.26104049405E+02  0.12589272578E+03  0.81301561979E+02 0.  0.
        -11    1    5    5    0    0  0.46368237320E+02  0.14618254465E+02  0.94765602840E+00  0.48627202754E+02  0.00000000000E+00 0.  1.
         12    1    5    5    0    0 -0.13401985226E+02  0.71815762289E+02  0.25156393376E+02  0.77265523028E+02  0.00000000000E+00 0. -1.
        -11    1    3    3    0    0 -0.49821832243E+02 -0.19843311013E+01 -0.91364145956E+02  0.10408438742E+03  0.00000000000E+00 0.  1.
         12    1    3    3    0    0  0.14238611891E+02  0.29915508188E+02 -0.12512354626E+02  0.35415176366E+02  0.00000000000E+00 0. -1.
          5    1    4    4  501    0 -0.32283926243E+02  0.36660002021E+02  0.10084238939E+02  0.50099795576E+02  0.47000000000E+01 0.  1.
         -5    1    4    4    0  501  0.44384039269E+02  0.10444177005E+03  0.22002245306E+03  0.24760855422E+03  0.47000000000E+01 0.  1.
          1    1    1    2  502    0 -0.45690925305E+01 -0.22756437052E+03 -0.12528111150E+03  0.25981103948E+03  0.00000000000E+00 0. -1.
          1    1    1    2  503    0 -0.49140522384E+01 -0.27902595391E+02  0.79490379808E+03  0.79540854342E+03  0.00000000000E+00 0. -1.
<mgrwt>
<rscale>  0 0.61886352E+02</rscale>
<asrwt>0</asrwt>
<pdfrwt beam="1">  1        2 0.17943214E+00 0.28332009E+02</pdfrwt>
<pdfrwt beam="2">  1        2 0.58556125E-01 0.13517999E+03</pdfrwt>
<totfact> 0.31663101E+02</totfact>
</mgrwt>
</event>
<event>
13    1  0.1589573E-008  0.1198626E+03  0.7546771E-02  0.1278006E+00
          2   -1    0    0  502    0  0.00000000000E+00  0.00000000000E+00  0.16142056412E+04  0.16142056412E+04  0.00000000000E+00 0. -1.
          2   -1    0    0  503    0 -0.00000000000E+00 -0.00000000000E+00 -0.10767736411E+04  0.10767736411E+04  0.00000000000E+00 0. -1.
         24    2    1    2    0    0 -0.13658234468E+02  0.54887153045E+02  0.19163855077E+02  0.10123692797E+03  0.81746653180E+02 0.  0.
         25    2    1    2    0    0  0.13381882301E+03 -0.16425560976E+03  0.79688838949E+02  0.25857747955E+03  0.12499847658E+03 0.  0.
         24    2    1    2    0    0 -0.40102646827E+02  0.12546584537E+03 -0.38925318631E+03  0.41881961930E+03  0.80882197179E+02 0.  0.
        -11    1    3    3    0    0  0.17357372890E+02 -0.14370847588E+02  0.10492406240E+02  0.24857398149E+02  0.00000000000E+00 0.  1.
         12    1    3    3    0    0 -0.31015607358E+02  0.69258000633E+02  0.86714488375E+01  0.76379529826E+02  0.00000000000E+00 0. -1.
        -11    1    5    5    0    0 -0.63642326438E+02  0.97858450742E+02 -0.26960057560E+03  0.29378749541E+03  0.00000000000E+00 0.  1.
         12    1    5    5    0    0  0.23539679611E+02  0.27607394631E+02 -0.11965261071E+03  0.12503212389E+03  0.00000000000E+00 0. -1.
          5    1    4    4  501    0  0.14542574631E+03 -0.12123049827E+03  0.94140039677E+02  0.21149448804E+03  0.47000000000E+01 0. -1.
         -5    1    4    4    0  501 -0.11606923299E+02 -0.43025111484E+02 -0.14451200727E+02  0.47082991506E+02  0.47000000000E+01 0. -1.
          1    1    1    2  502    0 -0.66606177701E+02 -0.10029906553E+03  0.13640686080E+04  0.13693719191E+04  0.00000000000E+00 0. -1.
          1    1    1    2  503    0 -0.13451764014E+02  0.84201676871E+02 -0.53623611558E+03  0.54297333636E+03  0.00000000000E+00 0. -1.
<mgrwt>
<rscale>  0 0.10109704E+03</rscale>
<asrwt>0</asrwt>
<pdfrwt beam="1">  1        2 0.23738318E+00 0.11986259E+03</pdfrwt>
<pdfrwt beam="2">  1        2 0.15834906E+00 0.85269410E+02</pdfrwt>
<totfact> 0.57867025E+01</totfact>
</mgrwt>
</event>
<event>
13    1  0.1589573E-008  0.2006478E+03  0.7546771E-02  0.1208567E+00
          2   -1    0    0  502    0  0.00000000000E+00  0.00000000000E+00  0.47310133031E+04  0.47310133031E+04  0.00000000000E+00 0. -1.
          2   -1    0    0  503    0 -0.00000000000E+00 -0.00000000000E+00 -0.89348547788E+03  0.89348547788E+03  0.00000000000E+00 0. -1.
         24    2    1    2    0    0  0.74770078642E+02  0.78972532844E+02 -0.15498401229E+02  0.13528949523E+03  0.78967217723E+02 0.  0.
         25    2    1    2    0    0  0.15931371025E+03 -0.26685394815E+03  0.10361421180E+04  0.10889504334E+04  0.12502267701E+03 0.  0.
         24    2    1    2    0    0  0.33349782175E+02 -0.85133653707E+02  0.31770459873E+03  0.33999401280E+03  0.79371088680E+02 0.  0.
        -11    1    5    5    0    0 -0.30893332369E+01 -0.77012870282E+02  0.26068056000E+03  0.27183612809E+03  0.00000000000E+00 0.  1.
         12    1    5    5    0    0  0.36439115412E+02 -0.81207834247E+01  0.57024038726E+02  0.68157884710E+02  0.00000000000E+00 0. -1.
        -13    1    3    3    0    0  0.75503293185E+02  0.24028615413E+02 -0.53817620482E+01  0.79417158115E+02  0.00000000000E+00 0.  1.
         14    1    3    3    0    0 -0.73321454283E+00  0.54943917431E+02 -0.10116639181E+02  0.55872337114E+02  0.00000000000E+00 0. -1.
          5    1    4    4  501    0  0.42599993296E+02 -0.11607908388E+03  0.60470494267E+03  0.61723518276E+03  0.47000000000E+01 0.  1.
         -5    1    4    4    0  501  0.11671371696E+03 -0.15077486427E+03  0.43143717533E+03  0.47171525063E+03  0.47000000000E+01 0.  1.
          1    1    1    2  502    0 -0.11128699752E+03  0.52641948464E+02  0.32551598193E+04  0.32574869792E+04  0.00000000000E+00 0. -1.
          1    1    1    2  503    0 -0.15614657355E+03  0.22037312055E+03 -0.75598030955E+03  0.80277786038E+03  0.00000000000E+00 0. -1.
<mgrwt>
<rscale>  0 0.14359911E+03</rscale>
<asrwt>0</asrwt>
<pdfrwt beam="1">  1        2 0.69573724E+00 0.10277064E+03</pdfrwt>
<pdfrwt beam="2">  1        2 0.13139493E+00 0.20064781E+03</pdfrwt>
<totfact> 0.10514520E+00</totfact>
</mgrwt>
</event>
<event>
13    1  0.1589573E-008  0.4189812E+02  0.7546771E-02  0.1541118E+00
          2   -1    0    0  503    0  0.00000000000E+00  0.00000000000E+00  0.18819727155E+04  0.18819727155E+04  0.00000000000E+00 0. -1.
          2   -1    0    0  502    0 -0.00000000000E+00 -0.00000000000E+00 -0.25512130247E+04  0.25512130247E+04  0.00000000000E+00 0. -1.
         24    2    1    2    0    0  0.11051241958E+02 -0.46967026207E+02 -0.13019882951E+04  0.13052746030E+04  0.78995172964E+02 0.  0.
         25    2    1    2    0    0  0.81835944426E+02  0.40723126570E+02  0.50967980442E+03  0.53268255892E+03  0.12498684213E+03 0.  0.
         24    2    1    2    0    0 -0.59258603231E+02  0.53065858345E+01  0.64213684593E+02  0.11846092062E+03  0.79811343273E+02 0.  0.
        -11    1    3    3    0    0 -0.34251051757E+02 -0.22842275565E+02 -0.55434676822E+03  0.55587340604E+03  0.00000000000E+00 0.  1.
         12    1    3    3    0    0  0.45302293714E+02 -0.24124750642E+02 -0.74764152684E+03  0.74940119700E+03  0.00000000000E+00 0. -1.
        -13    1    5    5    0    0  0.10892873944E+02 -0.20640520695E+02  0.72355462249E+01  0.24434380011E+02  0.00000000000E+00 0.  1.
         14    1    5    5    0    0 -0.70151477175E+02  0.25947106530E+02  0.56978138368E+02  0.94026540610E+02  0.00000000000E+00 0. -1.
          5    1    4    4  501    0  0.98027693941E+02  0.29527326682E+02  0.49972891206E+03  0.51012975541E+03  0.47000000000E+01 0. -1.
         -5    1    4    4    0  501 -0.16191749515E+02  0.11195799888E+02  0.99508923524E+01  0.22552803509E+02  0.47000000000E+01 0. -1.
          1    1    1    2  502    0 -0.55635008690E+01 -0.30178723474E+02 -0.12084154979E+04  0.12088050808E+04  0.00000000000E+00 0. -1.
          1    1    1    2  503    0 -0.28065082284E+02  0.31116037277E+02  0.12672699948E+04  0.12679625768E+04  0.00000000000E+00 0. -1.
<mgrwt>
<rscale>  0 0.35857197E+02</rscale>
<asrwt>0</asrwt>
<pdfrwt beam="1">  1        2 0.27676069E+00 0.41898124E+02</pdfrwt>
<pdfrwt beam="2">  1        2 0.37517838E+00 0.30687259E+02</pdfrwt>
<totfact> 0.10374496E+01</totfact>
</mgrwt>
</event>
<event>
13    1  0.1589573E-008  0.2261382E+03  0.7546771E-02  0.1241916E+00
          2   -1    0    0  503    0  0.00000000000E+00  0.00000000000E+00  0.80758098719E+03  0.80758098719E+03  0.00000000000E+00 0. -1.
          2   -1    0    0  502    0 -0.00000000000E+00 -0.00000000000E+00 -0.16395208675E+04  0.16395208675E+04  0.00000000000E+00 0. -1.
         24    2    1    2    0    0  0.16539423406E+03 -0.19773566154E+03 -0.58811892570E+03  0.64722481056E+03  0.81002716799E+02 0.  0.
         25    2    1    2    0    0 -0.69299430848E+03  0.13674795216E+03 -0.23649307086E+02  0.71772242429E+03  0.12500029836E+03 0.  0.
         24    2    1    2    0    0  0.24286604045E+03  0.37983066395E+02 -0.22054458741E+03  0.33993046418E+03  0.80536814592E+02 0.  0.
        -11    1    3    3    0    0  0.72209060969E+01 -0.21272774810E+02 -0.14912575293E+02  0.26964000720E+02  0.00000000000E+00 0.  1.
         12    1    3    3    0    0  0.15817332797E+03 -0.17646288673E+03 -0.57320635041E+03  0.62026080984E+03  0.00000000000E+00 0. -1.
        -13    1    5    5    0    0  0.12417143769E+03 -0.21136568135E+02 -0.10238310242E+03  0.16231943849E+03  0.00000000000E+00 0.  1.
         14    1    5    5    0    0  0.11869460276E+03  0.59119634530E+02 -0.11816148499E+03  0.17761102569E+03  0.00000000000E+00 0. -1.
          5    1    4    4  501    0 -0.19953818721E+03  0.91153473389E+02 -0.33955412439E+02  0.22203491595E+03  0.47000000000E+01 0.  1.
         -5    1    4    4    0  501 -0.49345612127E+03  0.45594478768E+02  0.10306105353E+02  0.49568750834E+03  0.47000000000E+01 0.  1.
          1    1    1    2  502    0  0.22128068853E+03  0.11754912581E+02 -0.33448174599E+03  0.40122482411E+03  0.00000000000E+00 0. -1.
          1    1    1    2  503    0  0.63453345438E+02  0.11249730407E+02  0.33485468587E+03  0.34099933156E+03  0.00000000000E+00 0. -1.
<mgrwt>
<rscale>  0 0.12071865E+03</rscale>
<asrwt>0</asrwt>
<pdfrwt beam="1">  1        2 0.11876191E+00 0.64442870E+02</pdfrwt>
<pdfrwt beam="2">  1        2 0.24110601E+00 0.22613815E+03</pdfrwt>
<totfact> 0.77908799E+01</totfact>
</mgrwt>
</event>
<event>
13    1  0.1589573E-008  0.1194591E+03  0.7546771E-02  0.1397857E+00
          2   -1    0    0  502    0  0.00000000000E+00  0.00000000000E+00  0.44270732087E+03  0.44270732087E+03  0.00000000000E+00 0. -1.
          4   -1    0    0  503    0 -0.00000000000E+00 -0.00000000000E+00 -0.54703167269E+03  0.54703167269E+03  0.00000000000E+00 0. -1.
         24    2    1    2    0    0 -0.40157364710E+02 -0.39052420502E+02 -0.11704129282E+03  0.15019688043E+03  0.75648748689E+02 0.  0.
         25    2    1    2    0    0  0.16129507934E+03  0.13357486192E+03  0.93949675155E+02  0.26136091533E+03  0.12499856099E+03 0.  0.
         24    2    1    2    0    0 -0.27422896427E+02 -0.40394071416E+02 -0.11179469795E+02  0.95476588898E+02  0.81284083489E+02 0.  0.
        -13    1    5    5    0    0 -0.50049190335E+02 -0.32115326918E+01 -0.13344215119E+02  0.51897046858E+02  0.00000000000E+00 0.  1.
         14    1    5    5    0    0  0.22626293909E+02 -0.37182538724E+02  0.21647453248E+01  0.43579542039E+02  0.00000000000E+00 0. -1.
        -13    1    3    3    0    0 -0.21169961500E+02  0.21554649872E+02 -0.44425265585E+02  0.53724988816E+02  0.00000000000E+00 0.  1.
         14    1    3    3    0    0 -0.18987403210E+02 -0.60607070374E+02 -0.72616027236E+02  0.96471891614E+02  0.00000000000E+00 0. -1.
          5    1    4    4  501    0  0.80997717414E+02  0.85330346489E+02  0.11570106330E+03  0.16507793404E+03  0.47000000000E+01 0.  1.
         -5    1    4    4    0  501  0.80297361923E+02  0.48244515427E+02 -0.21751388146E+02  0.96282981294E+02  0.47000000000E+01 0.  1.
          1    1    1    2  502    0  0.12823947737E+02 -0.27264457187E+02  0.19419791771E+03  0.19652133600E+03  0.00000000000E+00 0. -1.
          3    1    1    2  503    0 -0.10653876594E+03 -0.26863912810E+02 -0.26425118207E+03  0.28618327289E+03  0.00000000000E+00 0. -1.
<mgrwt>
<rscale>  0 0.59993986E+02</rscale>
<asrwt>0</asrwt>
<pdfrwt beam="1">  1        2 0.65104018E-01 0.30129790E+02</pdfrwt>
<pdfrwt beam="2">  1        4 0.80445833E-01 0.11945913E+03</pdfrwt>
<totfact> 0.54730344E+01</totfact>
</mgrwt>
</event>
<event>
13    1  0.1589573E-008  0.7789290E+02  0.7546771E-02  0.1361024E+00
          4   -1    0    0  503    0 -0.00000000000E+00  0.00000000000E+00  0.24202113665E+03  0.24202113665E+03  0.00000000000E+00 0. -1.
          2   -1    0    0  502    0  0.00000000000E+00 -0.00000000000E+00 -0.31987026647E+04  0.31987026647E+04  0.00000000000E+00 0. -1.
         24    2    1    2    0    0  0.58590373577E+02  0.65391420730E+02  0.74670011953E+02  0.14119464130E+03  0.81556399290E+02 0.  0.
         25    2    1    2    0    0 -0.15115779921E+03  0.11354464503E+02 -0.16178950645E+04  0.16297811168E+04  0.12499777884E+03 0.  0.
         24    2    1    2    0    0 -0.29845921782E+02 -0.44084894192E+02  0.26481828777E+02  0.99363450118E+02  0.79608737090E+02 0.  0.
        -11    1    5    5    0    0  0.25542079806E+02 -0.25961289535E+02  0.30348910391E+01  0.36545819990E+02  0.00000000000E+00 0.  1.
         12    1    5    5    0    0 -0.55388001588E+02 -0.18123604658E+02  0.23446937738E+02  0.62817630129E+02  0.00000000000E+00 0. -1.
        -11    1    3    3    0    0 -0.17618786728E+02  0.18123484820E+02  0.12695839390E+01  0.25307986707E+02  0.00000000000E+00 0.  1.
         12    1    3    3    0    0  0.76209160305E+02  0.47267935910E+02  0.73400428014E+02  0.11588665459E+03  0.00000000000E+00 0. -1.
          5    1    4    4  501    0 -0.74932586464E+02 -0.44643120765E+02 -0.10871600203E+04  0.10906635139E+04  0.47000000000E+01 0.  1.
         -5    1    4    4    0  501 -0.76225212749E+02  0.55997585267E+02 -0.53073504418E+03  0.53911760288E+03  0.47000000000E+01 0.  1.
          1    1    1    2  502    0  0.61705436101E+02 -0.47167356769E+02 -0.14889810177E+04  0.14910052955E+04  0.00000000000E+00 0. -1.
          3    1    1    2  503    0  0.60707911317E+02  0.14506365728E+02  0.49042713424E+02  0.79379297572E+02  0.00000000000E+00 0. -1.
<mgrwt>
<rscale>  0 0.69726917E+02</rscale>
<asrwt>0</asrwt>
<pdfrwt beam="2">  1        2 0.47039745E+00 0.77892897E+02</pdfrwt>
<pdfrwt beam="1">  1        4 0.35591344E-01 0.62417026E+02</pdfrwt>
<totfact> 0.85455248E+00</totfact>
</mgrwt>
</event>
<event>
13    1  0.1589573E-008  0.3338251E+03  0.7546771E-02  0.1252985E+00
          2   -1    0    0  503    0  0.00000000000E+00  0.00000000000E+00  0.31154542529E+04  0.31154542529E+04  0.00000000000E+00 0. -1.
          2   -1    0    0  502    0 -0.00000000000E+00 -0.00000000000E+00 -0.10531353066E+04  0.10531353066E+04  0.00000000000E+00 0. -1.
         24    2    1    2    0    0 -0.22123720580E+03 -0.23915046135E+02 -0.17957233339E+03  0.29694302014E+03  0.80069367613E+02 0.  0.
         25    2    1    2    0    0  0.19110457334E+03  0.16018530482E+01  0.12837605781E+04  0.13039147769E+04  0.12501599724E+03 0.  0.
         24    2    1    2    0    0  0.45518649966E+03  0.55421160403E+02  0.18074550398E+03  0.49915673503E+03  0.78881267890E+02 0.  0.
        -13    1    5    5    0    0  0.13672460175E+03  0.29843888167E+01  0.90630642525E+02  0.16406229507E+03  0.00000000000E+00 0.  1.
         14    1    5    5    0    0  0.31846189791E+03  0.52436771586E+02  0.90114861458E+02  0.33509443996E+03  0.00000000000E+00 0. -1.
        -13    1    3    3    0    0 -0.43181445195E+02 -0.28370873702E+02 -0.13459809276E+02  0.53392042005E+02  0.00000000000E+00 0.  1.
         14    1    3    3    0    0 -0.17805576061E+03  0.44558275669E+01 -0.16611252411E+03  0.24355097814E+03  0.00000000000E+00 0. -1.
          5    1    4    4  501    0  0.20360695603E+03  0.15336846356E+02  0.10714872542E+04  0.10907786381E+04  0.47000000000E+01 0. -1.
         -5    1    4    4    0  501 -0.12502382688E+02 -0.13734993307E+02  0.21227332387E+03  0.21313613875E+03  0.47000000000E+01 0. -1.
          1    1    1    2  502    0 -0.38862873063E+03 -0.47229585899E+02 -0.58593987576E+03  0.70469033061E+03  0.00000000000E+00 0. -1.
          1    1    1    2  503    0 -0.36425136575E+02  0.14121618583E+02  0.13633250734E+04  0.13638846969E+04  0.00000000000E+00 0. -1.
<mgrwt>
<rscale>  0 0.11419921E+03</rscale>
<asrwt>0</asrwt>
<pdfrwt beam="1">  1        2 0.45815503E+00 0.39066747E+02</pdfrwt>
<pdfrwt beam="2">  1        2 0.15487284E+00 0.33382507E+03</pdfrwt>
<totfact> 0.11839069E+01</totfact>
</mgrwt>
</event>
<event>
13    1  0.1589573E-008  0.1008769E+03  0.7546771E-02  0.1290227E+00
          2   -1    0    0  503    0  0.00000000000E+00  0.00000000000E+00  0.47738903837E+03  0.47738903837E+03  0.00000000000E+00 0. -1.
          2   -1    0    0  502    0 -0.00000000000E+00 -0.00000000000E+00 -0.33393489152E+04  0.33393489152E+04  0.00000000000E+00 0. -1.
         24    2    1    2    0    0  0.14404227411E+03 -0.12092410640E+03 -0.26667533363E+03  0.33545277470E+03  0.77730394609E+02 0.  0.
         25    2    1    2    0    0 -0.71568027610E+01  0.13382690766E+03  0.64576591229E+02  0.19430150796E+03  0.12498831474E+03 0.  0.
         24    2    1    2    0    0 -0.23649059690E+03  0.36873766248E+02 -0.28185204844E+03  0.37828445743E+03  0.79819023229E+02 0.  0.
        -11    1    3    3    0    0  0.39775962392E+02 -0.67359289499E+02 -0.62944748802E+02  0.10040638659E+03  0.00000000000E+00 0.  1.
         12    1    3    3    0    0  0.10426631172E+03 -0.53564816904E+02 -0.20373058482E+03  0.23504638811E+03  0.00000000000E+00 0. -1.
        -13    1    5    5    0    0 -0.10457190081E+03 -0.21469759452E+02 -0.13911979960E+03  0.17535835210E+03  0.00000000000E+00 0.  1.
         14    1    5    5    0    0 -0.13191869608E+03  0.58343525700E+02 -0.14273224884E+03  0.20292610534E+03  0.00000000000E+00 0. -1.
          5    1    4    4  501    0  0.54299222006E+02  0.70261117045E+02  0.56587764973E+02  0.10540064148E+03  0.47000000000E+01 0.  1.
         -5    1    4    4    0  501 -0.61456024767E+02  0.63565790610E+02  0.79888262555E+01  0.88900866481E+02  0.47000000000E+01 0.  1.
          1    1    1    2  502    0  0.66651215946E+01 -0.90016499776E+02 -0.26328885877E+04  0.26344353682E+04  0.00000000000E+00 0. -1.
          1    1    1    2  503    0  0.92940003950E+02  0.40239932275E+02  0.25487950165E+03  0.27426384531E+03  0.00000000000E+00 0. -1.
<mgrwt>
<rscale>  0 0.95422449E+02</rscale>
<asrwt>0</asrwt>
<pdfrwt beam="1">  1        2 0.70204268E-01 0.10087691E+03</pdfrwt>
<pdfrwt beam="2">  1        2 0.49108074E+00 0.90262916E+02</pdfrwt>
<totfact> 0.20769726E+01</totfact>
</mgrwt>
</event>
<event>
13    1  0.1589573E-008  0.1696678E+03  0.7546771E-02  0.1302558E+00
          2   -1    0    0  502    0  0.00000000000E+00  0.00000000000E+00  0.36980859675E+04  0.36980859675E+04  0.00000000000E+00 0. -1.
          2   -1    0    0  503    0 -0.00000000000E+00 -0.00000000000E+00 -0.32770369305E+04  0.32770369305E+04  0.00000000000E+00 0. -1.
         24    2    1    2    0    0  0.68106565838E+02  0.31542724925E+03 -0.22545996074E+03  0.40055408030E+03  0.74017048503E+02 0.  0.
         25    2    1    2    0    0  0.18671948180E+03  0.34055724571E+02 -0.30078737139E+03  0.37699050025E+03  0.12499934895E+03 0.  0.
         24    2    1    2    0    0 -0.22399917454E+03 -0.50559737013E+03  0.16647753743E+04  0.17559934438E+04  0.78940465627E+02 0.  0.
        -13    1    3    3    0    0  0.74516215540E+02  0.21444359934E+03 -0.13087534110E+03  0.26204403940E+03  0.00000000000E+00 0.  1.
         14    1    3    3    0    0 -0.64096497021E+01  0.10098364991E+03 -0.94584619638E+02  0.13851004090E+03  0.00000000000E+00 0. -1.
        -13    1    5    5    0    0 -0.42817714819E+02 -0.11913282432E+03  0.48975390923E+03  0.50585064805E+03  0.00000000000E+00 0.  1.
         14    1    5    5    0    0 -0.18118145972E+03 -0.38646454581E+03  0.11750214650E+04  0.12501427958E+04  0.00000000000E+00 0. -1.
          5    1    4    4  501    0  0.21963838958E+02  0.40456763512E+02 -0.18076952901E+02  0.49679232702E+02  0.47000000000E+01 0.  1.
         -5    1    4    4    0  501  0.16475564284E+03 -0.64010389410E+01 -0.28271041849E+03  0.32731126755E+03  0.47000000000E+01 0.  1.
          1    1    1    2  502    0  0.47540417339E+02  0.56003412653E+01  0.18589536794E+04  0.18595699065E+04  0.00000000000E+00 0. -1.
          1    1    1    2  503    0 -0.78367290433E+02  0.15051405504E+03 -0.25764326844E+04  0.25820149671E+04  0.00000000000E+00 0. -1.
<mgrwt>
<rscale>  0 0.90121325E+02</rscale>
<asrwt>0</asrwt>
<pdfrwt beam="1">  1        2 0.54383617E+00 0.47869146E+02</pdfrwt>
<pdfrwt beam="2">  1        2 0.48191720E+00 0.16966781E+03</pdfrwt>
<totfact> 0.39057260E-01</totfact>
</mgrwt>
</event>
<event>
13    1  0.1589573E-008  0.1130723E+03  0.7546771E-02  0.1355957E+00
          2   -1    0    0  502    0  0.00000000000E+00  0.00000000000E+00  0.12959281165E+04  0.12959281165E+04  0.00000000000E+00 0. -1.
          2   -1    0    0  503    0 -0.00000000000E+00 -0.00000000000E+00 -0.26816615490E+04  0.26816615490E+04  0.00000000000E+00 0. -1.
         24    2    1    2    0    0  0.19440980632E+02  0.84179517853E+01 -0.55554735247E+03  0.56185998049E+03  0.81270924701E+02 0.  0.
         25    2    1    2    0    0 -0.12824824706E+03 -0.25018915299E+02  0.56247368079E+03  0.59082740811E+03  0.12500730218E+03 0.  0.
         24    2    1    2    0    0 -0.15075323988E+02 -0.21653837875E+02 -0.31479128725E+03  0.32596826856E+03  0.80408976404E+02 0.  0.
        -13    1    3    3    0    0  0.20625473688E+02  0.41604373325E+02 -0.23120881768E+03  0.23582589217E+03  0.00000000000E+00 0.  1.
         14    1    3    3    0    0 -0.11844930565E+01 -0.33186421540E+02 -0.32433853479E+03  0.32603408832E+03  0.00000000000E+00 0. -1.
        -13    1    5    5    0    0 -0.35481967868E+02  0.66221640855E+01 -0.24808952096E+03  0.25070148287E+03  0.00000000000E+00 0.  1.
         14    1    5    5    0    0  0.20406643881E+02 -0.28276001961E+02 -0.66701766291E+02  0.75266785688E+02  0.00000000000E+00 0. -1.
          5    1    4    4  501    0 -0.79408805352E+02 -0.45568660256E+02  0.50193509919E+03  0.51023837073E+03  0.47000000000E+01 0. -1.
         -5    1    4    4    0  501 -0.48839441708E+02  0.20549744957E+02  0.60538581597E+02  0.80589037380E+02  0.47000000000E+01 0. -1.
          1    1    1    2  502    0  0.10858421085E+03 -0.39291778348E+01  0.70609507694E+03  0.71440620585E+03  0.00000000000E+00 0. -1.
          1    1    1    2  503    0  0.15298379570E+02  0.42183979224E+02 -0.17839635505E+04  0.17845278025E+04  0.00000000000E+00 0. -1.
<mgrwt>
<rscale>  0 0.71230749E+02</rscale>
<asrwt>0</asrwt>
<pdfrwt beam="1">  1        2 0.19057766E+00 0.11307228E+03</pdfrwt>
<pdfrwt beam="2">  1        2 0.39436199E+00 0.44872358E+02</pdfrwt>
<totfact> 0.14933646E+01</totfact>
</mgrwt>
</event>
<event>
13    1  0.1589573E-008  0.6216881E+02  0.7546771E-02  0.1410498E+00
          2   -1    0    0  502    0  0.00000000000E+00  0.00000000000E+00  0.11197214268E+04  0.11197214268E+04  0.00000000000E+00 0. -1.
          2   -1    0    0  503    0 -0.00000000000E+00 -0.00000000000E+00 -0.32994004640E+04  0.32994004640E+04  0.00000000000E+00 0. -1.
         24    2    1    2    0    0  0.45946248643E+02  0.16558511545E+01 -0.18750610632E+03  0.20942862682E+03  0.81166558494E+02 0.  0.
         25    2    1    2    0    0  0.48645443902E+02 -0.10281830079E+03  0.52509324214E+03  0.55162244918E+03  0.12500572508E+03 0.  0.
         24    2    1    2    0    0  0.13828098698E+02  0.74989473514E+02 -0.32603905733E+03  0.34504536121E+03  0.83307844384E+02 0.  0.
        -11    1    5    5    0    0 -0.31457745974E+02  0.54786147411E+02 -0.19210332702E+03  0.20222462754E+03  0.00000000000E+00 0.  1.
         12    1    5    5    0    0  0.45285844672E+02  0.20203326103E+02 -0.13393573031E+03  0.14282073367E+03  0.00000000000E+00 0. -1.
        -11    1    3    3    0    0  0.25924152678E+02  0.34286010275E+02 -0.14921368701E+03  0.15528141094E+03  0.00000000000E+00 0.  1.
         12    1    3    3    0    0  0.20022095964E+02 -0.32630159120E+02 -0.38292419309E+02  0.54147215880E+02  0.00000000000E+00 0. -1.
          5    1    4    4  501    0  0.54136087331E+02 -0.82025682091E+02  0.51973541681E+03  0.52896684392E+03  0.47000000000E+01 0. -1.
         -5    1    4    4    0  501 -0.54906434296E+01 -0.20792618697E+02  0.53578253330E+01  0.22655605264E+02  0.47000000000E+01 0. -1.
          1    1    1    2  502    0 -0.61994000600E+02  0.18471086172E+01  0.55893419657E+03  0.56236474287E+03  0.00000000000E+00 0. -1.
          1    1    1    2  503    0 -0.46425790643E+02  0.24325867503E+02 -0.27501613123E+04  0.27506607107E+04  0.00000000000E+00 0. -1.
<mgrwt>
<rscale>  0 0.57082759E+02</rscale>
<asrwt>0</asrwt>
<pdfrwt beam="1">  1        2 0.16466491E+00 0.62168806E+02</pdfrwt>
<pdfrwt beam="2">  1        2 0.48520596E+00 0.52412803E+02</pdfrwt>
<totfact> 0.89511085E+00</totfact>
</mgrwt>
</event>
<event>
13    1  0.1589573E-008  0.1253144E+03  0.7546771E-02  0.1372168E+00
          2   -1    0    0  503    0  0.00000000000E+00  0.00000000000E+00  0.11020563578E+04  0.11020563578E+04  0.00000000000E+00 0. -1.
          2   -1    0    0  502    0 -0.00000000000E+00 -0.00000000000E+00 -0.11245069521E+04  0.11245069521E+04  0.00000000000E+00 0. -1.
         24    2    1    2    0    0  0.56883136646E+03  0.63216645994E+02  0.43476863582E+03  0.72333648636E+03  0.81402936086E+02 0.  0.
         25    2    1    2    0    0 -0.37164217319E+03 -0.96157852026E+02 -0.20267392539E+03  0.45173800873E+03  0.12500508429E+03 0.  0.
         24    2    1    2    0    0 -0.17225384592E+03  0.12022085575E+03 -0.12470636529E+03  0.24935650065E+03  0.50025446348E+02 0.  0.
        -11    1    3    3    0    0  0.25163982410E+03  0.64684074103E+02  0.21781745452E+03  0.33904435405E+03  0.00000000000E+00 0.  1.
         12    1    3    3    0    0  0.31719154237E+03 -0.14674281083E+01  0.21695118130E+03  0.38429213232E+03  0.00000000000E+00 0. -1.
        -11    1    5    5    0    0 -0.14735256138E+03  0.11397016910E+03 -0.12379296585E+03  0.22366643732E+03  0.00000000000E+00 0.  1.
         12    1    5    5    0    0 -0.24901284543E+02  0.62506866522E+01 -0.91339943657E+00  0.25690063333E+02  0.00000000000E+00 0. -1.
          5    1    4    4  501    0 -0.29138190892E+03 -0.99513231972E+02 -0.20717137505E+03  0.37114467371E+03  0.47000000000E+01 0. -1.
         -5    1    4    4    0  501 -0.80260264269E+02  0.33553799457E+01  0.44974496697E+01  0.80593335014E+02  0.47000000000E+01 0. -1.
          1    1    1    2  502    0  0.54064396947E+01  0.34945928099E+02 -0.45347786956E+03  0.45485451043E+03  0.00000000000E+00 0. -1.
          1    1    1    2  503    0 -0.30341787050E+02 -0.12222557782E+03  0.32363893013E+03  0.34727780380E+03  0.00000000000E+00 0. -1.
<mgrwt>
<rscale>  0 0.66568205E+02</rscale>
<asrwt>0</asrwt>
<pdfrwt beam="1">  1        2 0.16206711E+00 0.12531439E+03</pdfrwt>
<pdfrwt beam="2">  1        2 0.16536867E+00 0.35361667E+02</pdfrwt>
<totfact> 0.10516578E+02</totfact>
</mgrwt>
</event>
<event>
13    1  0.1589573E-008  0.6316662E+03  0.7546771E-02  0.1080732E+00
          2   -1    0    0  503    0  0.00000000000E+00  0.00000000000E+00  0.20048960933E+04  0.20048960933E+04  0.00000000000E+00 0. -1.
          2   -1    0    0  502    0 -0.00000000000E+00 -0.00000000000E+00 -0.14154456588E+04  0.14154456588E+04  0.00000000000E+00 0. -1.
         24    2    1    2    0    0  0.43594084335E+03 -0.93950523709E+02  0.68519626269E+03  0.82176419527E+03  0.83254756076E+02 0.  0.
         25    2    1    2    0    0  0.40102154694E+03 -0.62010565510E+02  0.68366478822E+03  0.80478937474E+03  0.12499921473E+03 0.  0.
         24    2    1    2    0    0 -0.83683292355E+02  0.19353367659E+02  0.47579686841E+02  0.12798394149E+03  0.82089076136E+02 0.  0.
        -11    1    5    5    0    0  0.12054367021E+02  0.13773029840E+02 -0.45094654414E+01  0.18850448107E+02  0.00000000000E+00 0.  1.
         12    1    5    5    0    0 -0.95737659376E+02  0.55803378183E+01  0.52089152282E+02  0.10913349339E+03  0.00000000000E+00 0. -1.
        -13    1    3    3    0    0  0.83419376488E+02 -0.36164055204E+02  0.92253288928E+02  0.12952721946E+03  0.00000000000E+00 0.  1.
         14    1    3    3    0    0  0.35252146686E+03 -0.57786468505E+02  0.59294297377E+03  0.69223697581E+03  0.00000000000E+00 0. -1.
          5    1    4    4  501    0  0.90693972472E+02 -0.31258173127E+02  0.27105551315E+03  0.28756851573E+03  0.47000000000E+01 0. -1.
         -5    1    4    4    0  501  0.31032757447E+03 -0.30752392383E+02  0.41260927508E+03  0.51722085901E+03  0.47000000000E+01 0. -1.
          1    1    1    2  502    0 -0.62042528168E+03  0.16153964797E+02 -0.11440446980E+04  0.13015478292E+04  0.00000000000E+00 0. -1.
          1    1    1    2  503    0 -0.13285381626E+03  0.12045375676E+03  0.31705439470E+03  0.36425641135E+03  0.00000000000E+00 0. -1.
<mgrwt>
<rscale>  0 0.30919649E+03</rscale>
<asrwt>0</asrwt>
<pdfrwt beam="1">  1        2 0.29483766E+00 0.15134965E+03</pdfrwt>
<pdfrwt beam="2">  1        2 0.20815377E+00 0.63166625E+03</pdfrwt>
<totfact> 0.21219641E+01</totfact>
</mgrwt>
</event>
<event>
13    1  0.1589573E-008  0.7234818E+02  0.7546771E-02  0.1477740E+00
         -1   -1    0    0    0  501 -0.00000000000E+00  0.00000000000E+00  0.14827781129E+03  0.14827781129E+03  0.00000000000E+00 0.  1.
          2   -1    0    0  503    0  0.00000000000E+00 -0.00000000000E+00 -0.25145190599E+04  0.25145190599E+04  0.00000000000E+00 0. -1.
         24    2    1    2    0    0  0.20485421394E+03  0.17897039707E+03 -0.85078801999E+02  0.29596940035E+03  0.79773625949E+02 0.  0.
         25    2    1    2    0    0 -0.19939539115E+03 -0.89343786865E+02 -0.10901221723E+04  0.11188086515E+04  0.12500245541E+03 0.  0.
         24    2    1    2    0    0 -0.35569253851E+02 -0.12704225117E+03 -0.27586531581E+03  0.31610679374E+03  0.80105725014E+02 0.  0.
        -11    1    5    5    0    0 -0.13970165737E+02 -0.11784773874E+03 -0.26475587934E+03  0.29013605550E+03  0.00000000000E+00 0.  1.
         12    1    5    5    0    0 -0.21599088114E+02 -0.91945124278E+01 -0.11109436479E+02  0.25970738246E+02  0.00000000000E+00 0. -1.
        -11    1    3    3    0    0  0.17733975073E+03  0.18327680792E+03 -0.70807073084E+02  0.26467606070E+03  0.00000000000E+00 0.  1.
         12    1    3    3    0    0  0.27514463213E+02 -0.43064108467E+01 -0.14271728915E+02  0.31293339651E+02  0.00000000000E+00 0. -1.
          5    1    4    4  502    0 -0.20637834116E+03 -0.86605595770E+02 -0.86455066747E+03  0.89306354507E+03  0.47000000000E+01 0.  1.
         -5    1    4    4    0  502  0.69829500128E+01 -0.27381910952E+01 -0.22557150485E+03  0.22574510644E+03  0.47000000000E+01 0.  1.
          1    1    1    2  503    0  0.33243175385E+02  0.64557597732E+02 -0.89501867316E+03  0.89795947427E+03  0.00000000000E+00 0. -1.
         -2    1    1    2    0  501 -0.31327443263E+01 -0.27141956765E+02 -0.20156285372E+02  0.33952551363E+02  0.00000000000E+00 0.  1.
<mgrwt>
<rscale>  0 0.44460183E+02</rscale>
<asrwt>0</asrwt>
<pdfrwt beam="2">  1        2 0.36978223E+00 0.72348180E+02</pdfrwt>
<pdfrwt beam="1">  1       -1 0.21805560E-01 0.27322150E+02</pdfrwt>
<totfact> 0.98815223E+01</totfact>
</mgrwt>
</event>
<event>
13    1  0.2915459E-008  0.3534544E+02  0.7546771E-02  0.1571617E+00
          2   -1    0    0  503    0  0.00000000000E+00  0.00000000000E+00  0.46003070391E+04  0.46003070391E+04  0.00000000000E+00 0. -1.
          2   -1    0    0  502    0 -0.00000000000E+00 -0.00000000000E+00 -0.16992126556E+04  0.16992126556E+04  0.00000000000E+00 0. -1.
         24    2    1    2    0    0 -0.95403967658E+03 -0.10125414737E+04  0.21664471189E+03  0.14109524686E+04  0.91760541486E+02 0.  0.
         25    2    1    2    0    0  0.55551502876E+03  0.96589030107E+03 -0.42107679205E+03  0.11976943134E+04  0.12499993113E+03 0.  0.
         24    2    1    2    0    0  0.37525795095E+03  0.59491658865E+02  0.20046753207E+04  0.20419014741E+04  0.79250877097E+02 0.  0.
        -11    1    3    3    0    0 -0.21033000393E+03 -0.21057331786E+03  0.83685871944E+02  0.30916525987E+03  0.00000000000E+00 0.  1.
         12    1    3    3    0    0 -0.74370967265E+03 -0.80196815581E+03  0.13295883995E+03  0.11017872087E+04  0.00000000000E+00 0. -1.
        -11    1    5    5    0    0  0.15416373945E+03 -0.10310191025E+02  0.89874096670E+03  0.91192548151E+03  0.00000000000E+00 0.  1.
         12    1    5    5    0    0  0.22109421149E+03  0.69801849890E+02  0.11059343540E+04  0.11299759926E+04  0.00000000000E+00 0. -1.
          5    1    4    4  501    0  0.13336461874E+02  0.76470130663E+00 -0.38077854672E+01  0.14664079022E+02  0.47000000000E+01 0. -1.
         -5    1    4    4    0  501  0.54217856688E+03  0.96512559976E+03 -0.41726900658E+03  0.11830302344E+04  0.47000000000E+01 0. -1.
          1    1    1    2  502    0 -0.82810773371E+01 -0.28786260632E+02 -0.27301367468E+03  0.27465194629E+03  0.00000000000E+00 0. -1.
          1    1    1    2  503    0  0.31547774218E+02  0.15945774368E+02  0.13738648177E+04  0.13743194923E+04  0.00000000000E+00 0. -1.
<mgrwt>
<rscale>  0 0.32538088E+02</rscale>
<asrwt>0</asrwt>
<pdfrwt beam="1">  1        2 0.67651574E+00 0.35345439E+02</pdfrwt>
<pdfrwt beam="2">  1        2 0.24988421E+00 0.29953715E+02</pdfrwt>
<totfact> 0.77783323E-01</totfact>
</mgrwt>
</event>
<event>
13    1  0.1589573E-008  0.1286255E+03  0.7546771E-02  0.1251593E+00
          2   -1    0    0  503    0  0.00000000000E+00  0.00000000000E+00  0.19483864318E+04  0.19483864318E+04  0.00000000000E+00 0. -1.
          2   -1    0    0  502    0 -0.00000000000E+00 -0.00000000000E+00 -0.77704782689E+03  0.77704782689E+03  0.00000000000E+00 0. -1.
         24    2    1    2    0    0  0.10582954476E+02 -0.60288951370E+02 -0.68759584963E+02  0.12207749370E+03  0.80176538724E+02 0.  0.
         25    2    1    2    0    0 -0.13873595241E+03  0.14146173621E+03  0.35019793563E+03  0.42133243726E+03  0.12499336491E+03 0.  0.
         24    2    1    2    0    0 -0.13717090501E+02  0.33366518087E+02 -0.12210109620E+03  0.15102841157E+03  0.81236816201E+02 0.  0.
        -11    1    5    5    0    0  0.26960353455E+02  0.34028965359E+02 -0.38383789003E+02  0.57949515961E+02  0.00000000000E+00 0.  1.
         12    1    5    5    0    0 -0.40677443957E+02 -0.66244727197E+00 -0.83717307194E+02  0.93078895605E+02  0.00000000000E+00 0. -1.
        -13    1    3    3    0    0  0.38125473885E+02 -0.57397470251E+02 -0.31790309749E+02  0.75885737422E+02  0.00000000000E+00 0.  1.
         14    1    3    3    0    0 -0.27542519409E+02 -0.28914811190E+01 -0.36969275214E+02  0.46191756281E+02  0.00000000000E+00 0. -1.
          5    1    4    4  501    0 -0.96693217353E+02  0.10674061987E+03  0.12881030803E+03  0.19328042753E+03  0.47000000000E+01 0.  1.
         -5    1    4    4    0  501 -0.42042735053E+02  0.34721116348E+02  0.22138762759E+03  0.22805200973E+03  0.47000000000E+01 0.  1.
          1    1    1    2  502    0  0.12708615180E+03 -0.11661445109E+01 -0.49937878665E+03  0.51529741162E+03  0.00000000000E+00 0. -1.
          1    1    1    2  503    0  0.14783936631E+02 -0.11337315842E+03  0.15113801370E+04  0.15156985045E+04  0.00000000000E+00 0. -1.
<mgrwt>
<rscale>  0 0.11499290E+03</rscale>
<asrwt>0</asrwt>
<pdfrwt beam="1">  1        2 0.28652742E+00 0.12862547E+03</pdfrwt>
<pdfrwt beam="2">  1        2 0.11427174E+00 0.10280521E+03</pdfrwt>
<totfact> 0.59330330E+01</totfact>
</mgrwt>
</event>
<event>
13    1  0.1589573E-008  0.5290891E+02  0.7546771E-02  0.1454590E+00
          2   -1    0    0  503    0  0.00000000000E+00  0.00000000000E+00  0.31251630948E+04  0.31251630948E+04  0.00000000000E+00 0. -1.
          2   -1    0    0  502    0 -0.00000000000E+00 -0.00000000000E+00 -0.31986357589E+03  0.31986357589E+03  0.00000000000E+00 0. -1.
         24    2    1    2    0    0 -0.10685154464E+03 -0.19083176132E+02 -0.12840362529E+03  0.18645739254E+03  0.80606749372E+02 0.  0.
         25    2    1    2    0    0  0.14156958958E+03 -0.19551890911E+02  0.72260831599E+03  0.74713275885E+03  0.12498142210E+03 0.  0.
         24    2    1    2    0    0 -0.27765119930E+02 -0.54533763747E+02  0.58367613011E+02  0.11674215431E+03  0.80480550881E+02 0.  0.
        -11    1    3    3    0    0 -0.61521550554E+02  0.13750100802E+02 -0.22981085085E+02  0.67097665580E+02  0.00000000000E+00 0.  1.
         12    1    3    3    0    0 -0.45329994084E+02 -0.32833276935E+02 -0.10542254020E+03  0.11935972696E+03  0.00000000000E+00 0. -1.
        -13    1    5    5    0    0  0.11708762672E+02  0.14649268168E+02  0.13823921525E+01  0.18804445996E+02  0.00000000000E+00 0.  1.
         14    1    5    5    0    0 -0.39473882602E+02 -0.69183031915E+02  0.56985220859E+02  0.97937708309E+02  0.00000000000E+00 0. -1.
          5    1    4    4  501    0  0.52903669200E+02 -0.12236633243E+02  0.55180821563E+03  0.55449339964E+03  0.47000000000E+01 0. -1.
         -5    1    4    4    0  501  0.88665920380E+02 -0.73152576684E+01  0.17080010036E+03  0.19263935920E+03  0.47000000000E+01 0. -1.
          1    1    1    2  502    0 -0.16366374643E+02  0.50045691442E+02 -0.11502969654E+03  0.12650794654E+03  0.00000000000E+00 0. -1.
          1    1    1    2  503    0  0.94134496302E+01  0.43123139349E+02  0.22677569118E+04  0.22681864185E+04  0.00000000000E+00 0. -1.
<mgrwt>
<rscale>  0 0.48325214E+02</rscale>
<asrwt>0</asrwt>
<pdfrwt beam="1">  1        2 0.45958279E+00 0.44138625E+02</pdfrwt>
<pdfrwt beam="2">  1        2 0.47038763E-01 0.52908905E+02</pdfrwt>
<totfact> 0.46846438E+01</totfact>
</mgrwt>
</event>
<event>
13    1  0.1589573E-008  0.1424630E+03  0.7546771E-02  0.1301082E+00
          2   -1    0    0  503    0  0.00000000000E+00  0.00000000000E+00  0.10932092206E+04  0.10932092206E+04  0.00000000000E+00 0. -1.
          2   -1    0    0  502    0 -0.00000000000E+00 -0.00000000000E+00 -0.13670542818E+04  0.13670542818E+04  0.00000000000E+00 0. -1.
         24    2    1    2    0    0 -0.27046356730E+03 -0.35037387753E+02 -0.80323564177E+03  0.85213243354E+03  0.81018691139E+02 0.  0.
         25    2    1    2    0    0 -0.72980735723E+02  0.45456280228E+02  0.61153008193E+03  0.63006712272E+03  0.12499230709E+03 0.  0.
         24    2    1    2    0    0  0.19342620804E+03  0.49552406107E+02 -0.17540802463E+03  0.27849175914E+03  0.83189818486E+02 0.  0.
        -11    1    3    3    0    0 -0.57386645700E+02 -0.40194192470E+02 -0.23575041524E+03  0.24594116878E+03  0.00000000000E+00 0.  1.
         12    1    3    3    0    0 -0.21307692160E+03  0.51568047163E+01 -0.56748522652E+03  0.60619126476E+03  0.00000000000E+00 0. -1.
        -13    1    5    5    0    0  0.86185563329E+02  0.61779363825E+02 -0.66548689597E+02  0.12519332733E+03  0.00000000000E+00 0.  1.
         14    1    5    5    0    0  0.10724064471E+03 -0.12226957719E+02 -0.10885933503E+03  0.15329843181E+03  0.00000000000E+00 0. -1.
          5    1    4    4  501    0 -0.95077989165E+02  0.69663003219E+02  0.49995673575E+03  0.51368432491E+03  0.47000000000E+01 0. -1.
         -5    1    4    4    0  501  0.22097253442E+02 -0.24206722991E+02  0.11157334618E+03  0.11638279781E+03  0.47000000000E+01 0. -1.
          1    1    1    2  502    0  0.16082430276E+03 -0.32016901142E+01 -0.27942903156E+03  0.32242098390E+03  0.00000000000E+00 0. -1.
          1    1    1    2  503    0 -0.10806207771E+02 -0.56769608467E+02  0.37269755483E+03  0.37715120304E+03  0.00000000000E+00 0. -1.
<mgrwt>
<rscale>  0 0.90734702E+02</rscale>
<asrwt>0</asrwt>
<pdfrwt beam="1">  1        2 0.16076606E+00 0.57788949E+02</pdfrwt>
<pdfrwt beam="2">  1        2 0.20103739E+00 0.14246299E+03</pdfrwt>
<totfact> 0.76098593E+01</totfact>
</mgrwt>
</event>
<event>
13    1  0.1589573E-008  0.9724052E+02  0.7546771E-02  0.1309716E+00
          2   -1    0    0  502    0  0.00000000000E+00  0.00000000000E+00  0.32768771679E+03  0.32768771679E+03  0.00000000000E+00 0. -1.
          2   -1    0    0  503    0 -0.00000000000E+00 -0.00000000000E+00 -0.23606856041E+04  0.23606856041E+04  0.00000000000E+00 0. -1.
         24    2    1    2    0    0  0.14158661558E+02 -0.78382386444E+02 -0.11710355462E+04  0.11763816820E+04  0.78774013197E+02 0.  0.
         25    2    1    2    0    0  0.49248167219E+02  0.21279765070E+02 -0.95463437074E+02  0.16616521737E+03  0.12497760308E+03 0.  0.
         24    2    1    2    0    0 -0.34246145256E+02  0.11420504706E+03 -0.28043113643E+03  0.31528417158E+03  0.80912887307E+02 0.  0.
        -11    1    3    3    0    0  0.36840287913E+02 -0.78192933161E+02 -0.80065799415E+03  0.80531022917E+03  0.00000000000E+00 0.  1.
         12    1    3    3    0    0 -0.22681626355E+02 -0.18945328320E+00 -0.37037755201E+03  0.37107145282E+03  0.00000000000E+00 0. -1.
        -13    1    5    5    0    0 -0.34279847788E+02  0.11545764638E+03 -0.19072643317E+03  0.22557071703E+03  0.00000000000E+00 0.  1.
         14    1    5    5    0    0  0.33702531857E-01 -0.12525993203E+01 -0.89704703253E+02  0.89713454547E+02  0.00000000000E+00 0. -1.
          5    1    4    4  501    0 -0.41456952781E+02  0.15580074492E+02 -0.25035490942E+02  0.51090933264E+02  0.47000000000E+01 0. -1.
         -5    1    4    4    0  501  0.90705120000E+02  0.56996905782E+01 -0.70427946131E+02  0.11507428411E+03  0.47000000000E+01 0. -1.
          1    1    1    2  502    0  0.69313735144E+02 -0.36291776203E+02  0.26318038271E+03  0.27456401938E+03  0.00000000000E+00 0. -1.
          1    1    1    2  503    0 -0.98474418666E+02 -0.20810649481E+02 -0.74924815037E+03  0.75597823057E+03  0.00000000000E+00 0. -1.
<mgrwt>
<rscale>  0 0.87224373E+02</rscale>
<asrwt>0</asrwt>
<pdfrwt beam="1">  1        2 0.48189369E-01 0.78239932E+02</pdfrwt>
<pdfrwt beam="2">  1        2 0.34715965E+00 0.97240515E+02</pdfrwt>
<totfact> 0.98968125E+01</totfact>
</mgrwt>
</event>
<event>
13    1  0.1589573E-008  0.1002313E+03  0.7546771E-02  0.1346628E+00
          2   -1    0    0  503    0  0.00000000000E+00  0.00000000000E+00  0.14190552735E+04  0.14190552735E+04  0.00000000000E+00 0. -1.
          2   -1    0    0  502    0 -0.00000000000E+00 -0.00000000000E+00 -0.13881151253E+04  0.13881151253E+04  0.00000000000E+00 0. -1.
         24    2    1    2    0    0  0.89855252506E+02  0.63098711435E+02 -0.44944248627E+03  0.46954406787E+03  0.80110357717E+02 0.  0.
         25    2    1    2    0    0  0.24760721081E+02  0.80571922836E+02  0.16714644443E+03  0.22509384247E+03  0.12499750386E+03 0.  0.
         24    2    1    2    0    0 -0.44254167541E+02 -0.68366076988E+02 -0.42294326337E+01  0.11359030410E+03  0.79072860441E+02 0.  0.
        -13    1    5    5    0    0  0.11892502346E+02  0.10344521949E+00 -0.20366954430E+02  0.23585061919E+02  0.00000000000E+00 0.  1.
         14    1    5    5    0    0 -0.56146669888E+02 -0.68469522208E+02  0.16137521797E+02  0.90005242184E+02  0.00000000000E+00 0. -1.
        -13    1    3    3    0    0  0.49886942493E+02  0.60431879821E+02 -0.16934817771E+03  0.18659990467E+03  0.00000000000E+00 0.  1.
         14    1    3    3    0    0  0.39968310013E+02  0.26668316141E+01 -0.28009430857E+03  0.28294416320E+03  0.00000000000E+00 0. -1.
          5    1    4    4  501    0  0.28110068156E+02  0.11052946131E+03  0.15444371466E+03  0.19204657963E+03  0.47000000000E+01 0.  1.
         -5    1    4    4    0  501 -0.33493470750E+01 -0.29957538476E+02  0.12702729776E+02  0.33047262839E+02  0.47000000000E+01 0.  1.
          1    1    1    2  502    0 -0.53381693970E+02 -0.12741394884E+03 -0.83440757866E+03  0.84576588187E+03  0.00000000000E+00 0. -1.
          1    1    1    2  503    0 -0.16980112076E+02  0.52109391558E+02  0.11518732013E+04  0.11531763026E+04  0.00000000000E+00 0. -1.
<mgrwt>
<rscale>  0 0.74116729E+02</rscale>
<asrwt>0</asrwt>
<pdfrwt beam="1">  1        2 0.20868460E+00 0.54806139E+02</pdfrwt>
<pdfrwt beam="2">  1        2 0.20413458E+00 0.10023128E+03</pdfrwt>
<totfact> 0.52146835E+01</totfact>
</mgrwt>
</event>
<event>
13    1  0.1589573E-008  0.8324063E+02  0.7546771E-02  0.1324226E+00
          2   -1    0    0  503    0  0.00000000000E+00  0.00000000000E+00  0.19489222192E+04  0.19489222192E+04  0.00000000000E+00 0. -1.
          2   -1    0    0  502    0 -0.00000000000E+00 -0.00000000000E+00 -0.26055008660E+04  0.26055008660E+04  0.00000000000E+00 0. -1.
         24    2    1    2    0    0  0.52250704556E+01 -0.15409379750E+02 -0.20676093498E+04  0.20693225258E+04  0.82598681778E+02 0.  0.
         25    2    1    2    0    0  0.10695853379E+03 -0.11269099211E+03 -0.43761367670E+00  0.19940475376E+03  0.12499070631E+03 0.  0.
         24    2    1    2    0    0  0.94921664603E+01 -0.64561033462E+01 -0.31240406667E+03  0.31937063956E+03  0.65341579750E+02 0.  0.
        -11    1    3    3    0    0 -0.35304608476E+02 -0.11751593332E+00 -0.13100821752E+04  0.13105577953E+04  0.00000000000E+00 0.  1.
         12    1    3    3    0    0  0.40529678932E+02 -0.15291863817E+02 -0.75752717462E+03  0.75876473051E+03  0.00000000000E+00 0. -1.
        -13    1    5    5    0    0  0.16552642623E+02 -0.33233382152E+02 -0.21157397339E+03  0.21480687578E+03  0.00000000000E+00 0.  1.
         14    1    5    5    0    0 -0.70604761623E+01  0.26777278806E+02 -0.10083009329E+03  0.10456376378E+03  0.00000000000E+00 0. -1.
          5    1    4    4  501    0  0.12558237957E+03 -0.83296343930E+02 -0.29735634479E+02  0.15367339695E+03  0.47000000000E+01 0. -1.
         -5    1    4    4    0  501 -0.18623845780E+02 -0.29394648184E+02  0.29298020802E+02  0.45731356818E+02  0.47000000000E+01 0. -1.
          1    1    1    2  502    0 -0.39084225128E+02  0.88080158299E+02 -0.10065082574E+03  0.13934231110E+03  0.00000000000E+00 0. -1.
          1    1    1    2  503    0 -0.82591545580E+02  0.46476316911E+02  0.18245232091E+04  0.18269828549E+04  0.00000000000E+00 0. -1.
<mgrwt>
<rscale>  0 0.81724983E+02</rscale>
<asrwt>0</asrwt>
<pdfrwt beam="1">  1        2 0.28660621E+00 0.80236936E+02</pdfrwt>
<pdfrwt beam="2">  1        2 0.38316189E+00 0.83240627E+02</pdfrwt>
<totfact> 0.73306728E+00</totfact>
</mgrwt>
</event>
<event>
13    1  0.1589573E-008  0.1849756E+03  0.7546771E-02  0.1240168E+00
          2   -1    0    0  502    0  0.00000000000E+00  0.00000000000E+00  0.59562405914E+03  0.59562405914E+03  0.00000000000E+00 0. -1.
          2   -1    0    0  503    0 -0.00000000000E+00 -0.00000000000E+00 -0.33367551390E+04  0.33367551390E+04  0.00000000000E+00 0. -1.
         24    2    1    2    0    0 -0.16847023449E+03  0.41433041968E+02 -0.20304823187E+04  0.20394510194E+04  0.80019353260E+02 0.  0.
         25    2    1    2    0    0  0.12441167840E+03  0.22438785369E+03 -0.25713696662E+03  0.38416782906E+03  0.12504929698E+03 0.  0.
         24    2    1    2    0    0 -0.40066068935E+01 -0.10700543753E+03 -0.29231439359E+02  0.13934199028E+03  0.84234771029E+02 0.  0.
        -13    1    5    5    0    0 -0.36809795516E+02 -0.29683307414E+02  0.71208319100E+01  0.47820142535E+02  0.00000000000E+00 0.  1.
         14    1    5    5    0    0  0.32803188623E+02 -0.77322130114E+02 -0.36352271269E+02  0.91521847750E+02  0.00000000000E+00 0. -1.
        -13    1    3    3    0    0 -0.24874878538E+02 -0.18152459612E+02 -0.19736281084E+03  0.19975072084E+03  0.00000000000E+00 0.  1.
         14    1    3    3    0    0 -0.14359535595E+03  0.59585501580E+02 -0.18331195079E+04  0.18397002985E+04  0.00000000000E+00 0. -1.
          5    1    4    4  501    0  0.98926949739E+02  0.13984994143E+03 -0.23870220957E+03  0.29384584795E+03  0.47000000000E+01 0. -1.
         -5    1    4    4    0  501  0.25484728660E+02  0.84537912264E+02 -0.18434757049E+02  0.90321981114E+02  0.47000000000E+01 0. -1.
          1    1    1    2  502    0 -0.32014402721E+02 -0.16305977313E+03  0.45608191884E+03  0.48541129806E+03  0.00000000000E+00 0. -1.
          1    1    1    2  503    0  0.80079565701E+02  0.42443150019E+01 -0.88036227400E+03  0.88400706136E+03  0.00000000000E+00 0. -1.
<mgrwt>
<rscale>  0 0.12179308E+03</rscale>
<asrwt>0</asrwt>
<pdfrwt beam="1">  1        2 0.87591773E-01 0.18497557E+03</pdfrwt>
<pdfrwt beam="2">  1        2 0.49069929E+00 0.80191964E+02</pdfrwt>
<totfact> 0.16516111E+01</totfact>
</mgrwt>
</event>
<event>
13    1  0.1589573E-008  0.5600710E+02  0.7546771E-02  0.1419288E+00
          2   -1    0    0  503    0  0.00000000000E+00  0.00000000000E+00  0.10231100556E+04  0.10231100556E+04  0.00000000000E+00 0. -1.
         -1   -1    0    0    0  501 -0.00000000000E+00 -0.00000000000E+00 -0.19308455456E+04  0.19308455456E+04  0.00000000000E+00 0.  1.
         24    2    1    2    0    0 -0.91023112410E+03 -0.72816961130E+02 -0.69597031414E+03  0.11501824496E+04  0.68716665547E+02 0.  0.
         25    2    1    2    0    0  0.46406742755E+03 -0.17770025422E+03 -0.22639529779E+03  0.56019176116E+03  0.12499608295E+03 0.  0.
         24    2    1    2    0    0  0.48481767277E+03  0.16280705799E+03  0.20449898310E+03  0.55697576643E+03  0.82751775422E+02 0.  0.
        -13    1    3    3    0    0 -0.41885465276E+03 -0.36853539558E+02 -0.36343468216E+03  0.55577169027E+03  0.00000000000E+00 0.  1.
         14    1    3    3    0    0 -0.49137647134E+03 -0.35963421571E+02 -0.33253563199E+03  0.59441075934E+03  0.00000000000E+00 0. -1.
        -13    1    5    5    0    0  0.27422524248E+03  0.98343598780E+02  0.72505487344E+02  0.30021324543E+03  0.00000000000E+00 0.  1.
         14    1    5    5    0    0  0.21059243029E+03  0.64463459213E+02  0.13199349575E+03  0.25676252100E+03  0.00000000000E+00 0. -1.
          5    1    4    4  502    0  0.39719660079E+03 -0.99789946866E+02 -0.17757379010E+03  0.44640532491E+03  0.47000000000E+01 0. -1.
         -5    1    4    4    0  502  0.66870826762E+02 -0.77910307352E+02 -0.48821507687E+02  0.11378643626E+03  0.47000000000E+01 0. -1.
          1    1    1    2  503    0  0.60039588390E+01  0.54016490402E+02  0.24357585561E+03  0.24956567511E+03  0.00000000000E+00 0. -1.
         -2    1    1    2    0  501 -0.44657935061E+02  0.33693666953E+02 -0.43344471681E+03  0.43703994885E+03  0.00000000000E+00 0.  1.
<mgrwt>
<rscale>  0 0.55171891E+02</rscale>
<asrwt>0</asrwt>
<pdfrwt beam="1">  1        2 0.15045736E+00 0.54349138E+02</pdfrwt>
<pdfrwt beam="2">  1       -1 0.28394787E+00 0.56007099E+02</pdfrwt>
<totfact> 0.19905235E+00</totfact>
</mgrwt>
</event>
<event>
13    1  0.1589573E-008  0.1339829E+03  0.7546771E-02  0.1235039E+00
          2   -1    0    0  502    0  0.00000000000E+00  0.00000000000E+00  0.20743288469E+04  0.20743288469E+04  0.00000000000E+00 0. -1.
          2   -1    0    0  503    0 -0.00000000000E+00 -0.00000000000E+00 -0.18771549489E+04  0.18771549489E+04  0.00000000000E+00 0. -1.
         24    2    1    2    0    0  0.16966759139E+03 -0.19405499313E+03 -0.56539077417E+03  0.62707947047E+03  0.84365294031E+02 0.  0.
         25    2    1    2    0    0 -0.18854583158E+03  0.22237024930E+03  0.11785935083E+04  0.12205351825E+04  0.12500166258E+03 0.  0.
         24    2    1    2    0    0 -0.23896826666E+02  0.68830367138E+02  0.67751872529E+02  0.12793830243E+03  0.80431431876E+02 0.  0.
        -11    1    5    5    0    0  0.20652825210E+02  0.52642644659E+01  0.40327660655E+02  0.45613286260E+02  0.00000000000E+00 0.  1.
         12    1    5    5    0    0 -0.44549651877E+02  0.63566102672E+02  0.27424211874E+02  0.82325016174E+02  0.00000000000E+00 0. -1.
        -11    1    3    3    0    0  0.26342913766E+02 -0.34270196039E+02 -0.18811368499E+03  0.19301594215E+03  0.00000000000E+00 0.  1.
         12    1    3    3    0    0  0.14332467762E+03 -0.15978479709E+03 -0.37727708918E+03  0.43406352832E+03  0.00000000000E+00 0. -1.
          5    1    4    4  501    0 -0.17466686292E+03  0.12795924433E+03  0.91124656445E+03  0.93662931432E+03  0.47000000000E+01 0.  1.
         -5    1    4    4    0  501 -0.13878968654E+02  0.94411004963E+02  0.26734694383E+03  0.28390586821E+03  0.47000000000E+01 0.  1.
          1    1    1    2  502    0  0.15925728160E+03 -0.10274471305E+03  0.73120188273E+03  0.75536451539E+03  0.00000000000E+00 0. -1.
          1    1    1    2  503    0 -0.11648221475E+03  0.55990897407E+01 -0.12149825914E+04  0.12205663249E+04  0.00000000000E+00 0. -1.
<mgrwt>
<rscale>  0 0.12501919E+03</rscale>
<asrwt>0</asrwt>
<pdfrwt beam="1">  1        2 0.30504836E+00 0.13398294E+03</pdfrwt>
<pdfrwt beam="2">  1        2 0.27605220E+00 0.11665513E+03</pdfrwt>
<totfact> 0.13176520E+01</totfact>
</mgrwt>
</event>
<event>
13    1  0.1589573E-008  0.1461523E+03  0.7546771E-02  0.1291115E+00
          2   -1    0    0  502    0  0.00000000000E+00  0.00000000000E+00  0.25718177047E+04  0.25718177047E+04  0.00000000000E+00 0. -1.
          2   -1    0    0  503    0 -0.00000000000E+00 -0.00000000000E+00 -0.10817478123E+04  0.10817478123E+04  0.00000000000E+00 0. -1.
         24    2    1    2    0    0 -0.60095915185E+01  0.11584626259E+03 -0.11066233806E+03  0.18001354788E+03  0.81867286576E+02 0.  0.
         25    2    1    2    0    0 -0.16363473877E+03  0.76077886788E+02  0.72247573837E+03  0.75508970929E+03  0.12500041583E+03 0.  0.
         24    2    1    2    0    0  0.65323265584E+02 -0.89796181305E+02  0.50643127089E+01  0.13619885731E+03  0.78701958456E+02 0.  0.
        -11    1    3    3    0    0 -0.31689229847E+02  0.79543937333E+02 -0.35518245882E+02  0.92698387500E+02  0.00000000000E+00 0.  1.
         12    1    3    3    0    0  0.25679638328E+02  0.36302325253E+02 -0.75144092178E+02  0.87315160383E+02  0.00000000000E+00 0. -1.
        -13    1    5    5    0    0  0.18585831683E+02 -0.80598136804E+02  0.22092276697E+02  0.85612858178E+02  0.00000000000E+00 0.  1.
         14    1    5    5    0    0  0.46737433901E+02 -0.91980445009E+01 -0.17027963988E+02  0.50585999129E+02  0.00000000000E+00 0. -1.
          5    1    4    4  501    0 -0.11713677255E+03  0.40395433622E+02  0.25095208153E+03  0.27991400780E+03  0.47000000000E+01 0. -1.
         -5    1    4    4    0  501 -0.46497966221E+02  0.35682453166E+02  0.47152365683E+03  0.47517570148E+03  0.47000000000E+01 0. -1.
          1    1    1    2  502    0 -0.52982773574E+02 -0.31785466220E+02  0.17184802098E+04  0.17195905680E+04  0.00000000000E+00 0. -1.
          1    1    1    2  503    0  0.15730383828E+03 -0.70342501848E+02 -0.84528803044E+03  0.86267283457E+03  0.00000000000E+00 0. -1.
<mgrwt>
<rscale>  0 0.95027053E+02</rscale>
<asrwt>0</asrwt>
<pdfrwt beam="1">  1        2 0.37820848E+00 0.61785841E+02</pdfrwt>
<pdfrwt beam="2">  1        2 0.15908056E+00 0.14615227E+03</pdfrwt>
<totfact> 0.20725329E+01</totfact>
</mgrwt>
</event>
<event>
13    1  0.1589573E-008  0.5782213E+02  0.7546771E-02  0.1414138E+00
          4   -1    0    0  503    0 -0.00000000000E+00  0.00000000000E+00  0.85942060436E+02  0.85942060436E+02  0.00000000000E+00 0. -1.
          2   -1    0    0  502    0  0.00000000000E+00 -0.00000000000E+00 -0.20420883920E+04  0.20420883920E+04  0.00000000000E+00 0. -1.
         24    2    1    2    0    0 -0.10598682721E+03 -0.14696863063E+02 -0.78295621012E+02  0.14314672857E+03  0.53959024301E+02 0.  0.
         25    2    1    2    0    0  0.57661943813E+02  0.74866584473E+02 -0.66385481231E+03  0.68209658600E+03  0.12499054191E+03 0.  0.
         24    2    1    2    0    0  0.31493040789E+02 -0.68090983245E+02 -0.51203237120E+03  0.52418832175E+03  0.83474869799E+02 0.  0.
        -11    1    3    3    0    0 -0.16905474542E+02  0.71636295662E+01  0.52297046684E+01  0.19090900161E+02  0.00000000000E+00 0.  1.
         12    1    3    3    0    0 -0.89081352672E+02 -0.21860492630E+02 -0.83525325680E+02  0.12405582841E+03  0.00000000000E+00 0. -1.
        -13    1    5    5    0    0 -0.56826119324E+01  0.83764083001E+01 -0.76449610555E+01  0.12684704329E+02  0.00000000000E+00 0.  1.
         14    1    5    5    0    0  0.37175652721E+02 -0.76467391546E+02 -0.50438741014E+03  0.51150361742E+03  0.00000000000E+00 0. -1.
          5    1    4    4  501    0  0.16359203699E+02  0.41696668109E+02 -0.58648616872E+03  0.58821284564E+03  0.47000000000E+01 0.  1.
         -5    1    4    4    0  501  0.41302740114E+02  0.33169916365E+02 -0.77368643596E+02  0.93883740362E+02  0.47000000000E+01 0.  1.
          1    1    1    2  502    0  0.43680593105E+02 -0.39828451154E+02 -0.71884876887E+03  0.72127515709E+03  0.00000000000E+00 0. -1.
          3    1    1    2  503    0 -0.26848750493E+02  0.47749712990E+02  0.16885241818E+02  0.57323659032E+02  0.00000000000E+00 0. -1.
<mgrwt>
<rscale>  0 0.56280711E+02</rscale>
<asrwt>0</asrwt>
<pdfrwt beam="2">  1        2 0.30030709E+00 0.57822129E+02</pdfrwt>
<pdfrwt beam="1">  1        4 0.12638539E-01 0.54780384E+02</pdfrwt>
<totfact> 0.20916334E+02</totfact>
</mgrwt>
</event>
<event>
13    1  0.1589573E-008  0.2185522E+03  0.7546771E-02  0.1309111E+00
          2   -1    0    0  503    0  0.00000000000E+00  0.00000000000E+00  0.41733591225E+04  0.41733591225E+04  0.00000000000E+00 0. -1.
          2   -1    0    0  502    0 -0.00000000000E+00 -0.00000000000E+00 -0.47573500831E+03  0.47573500831E+03  0.00000000000E+00 0. -1.
         24    2    1    2    0    0  0.29181161087E+03  0.21534301097E+03  0.37081046051E+02  0.37274995558E+03  0.77723206307E+02 0.  0.
         25    2    1    2    0    0  0.18087988053E+03  0.84785394870E+02  0.21892978749E+04  0.22019436525E+04  0.12499827720E+03 0.  0.
         24    2    1    2    0    0  0.64590131630E+02 -0.16203748909E+02  0.76837900373E+02  0.13046316557E+03  0.81744284537E+02 0.  0.
        -11    1    5    5    0    0  0.57229125626E+02 -0.39736120139E+02  0.79446566466E+02  0.10566877016E+03  0.00000000000E+00 0.  1.
         12    1    5    5    0    0  0.73610060036E+01  0.23532371230E+02 -0.26086660932E+01  0.24794395412E+02  0.00000000000E+00 0. -1.
        -13    1    3    3    0    0  0.43496824060E+02  0.58412260690E+01 -0.84352308439E+01  0.44690566619E+02  0.00000000000E+00 0.  1.
         14    1    3    3    0    0  0.24831478681E+03  0.20950178490E+03  0.45516276895E+02  0.32805938896E+03  0.00000000000E+00 0. -1.
          5    1    4    4  501    0  0.58626513526E+02  0.39810272342E+01  0.12389921799E+04  0.12403937393E+04  0.47000000000E+01 0. -1.
         -5    1    4    4    0  501  0.12225336700E+03  0.80804367636E+02  0.95030569500E+03  0.96154991317E+03  0.47000000000E+01 0. -1.
          1    1    1    2  502    0 -0.50269675250E+03 -0.27852984811E+03  0.26217772668E+02  0.57530015893E+03  0.00000000000E+00 0. -1.
          1    1    1    2  503    0 -0.34584870523E+02 -0.53948088248E+01  0.13681895202E+04  0.13686371982E+04  0.00000000000E+00 0. -1.
<mgrwt>
<rscale>  0 0.87464309E+02</rscale>
<asrwt>0</asrwt>
<pdfrwt beam="1">  1        2 0.61372926E+00 0.35003103E+02</pdfrwt>
<pdfrwt beam="2">  1        2 0.69961033E-01 0.21855221E+03</pdfrwt>
<totfact> 0.77355069E+00</totfact>
</mgrwt>
</event>
<event>
13    1  0.1589573E-008  0.1077869E+03  0.7546771E-02  0.1285541E+00
          2   -1    0    0  503    0  0.00000000000E+00  0.00000000000E+00  0.18570712378E+04  0.18570712378E+04  0.00000000000E+00 0. -1.
          2   -1    0    0  502    0 -0.00000000000E+00 -0.00000000000E+00 -0.97010081444E+03  0.97010081444E+03  0.00000000000E+00 0. -1.
         24    2    1    2    0    0 -0.44109808281E+02 -0.63916766369E+01 -0.17078078654E+03  0.19390737493E+03  0.80296103802E+02 0.  0.
         25    2    1    2    0    0 -0.97280872776E+00  0.12338529935E+03  0.13024658459E+04  0.13142557438E+04  0.12500400813E+03 0.  0.
         24    2    1    2    0    0  0.19773685582E+01  0.42037746269E+02 -0.46879542152E+02  0.10197981506E+03  0.80194196234E+02 0.  0.
        -13    1    5    5    0    0  0.12578316436E+02 -0.21593168657E+02 -0.20359063591E+02  0.32233064504E+02  0.00000000000E+00 0.  1.
         14    1    5    5    0    0 -0.10600947878E+02  0.63630914926E+02 -0.26520478561E+02  0.69746750557E+02  0.00000000000E+00 0. -1.
        -13    1    3    3    0    0 -0.30911428954E+02  0.34610028678E+02 -0.66589728187E+02  0.81163799967E+02  0.00000000000E+00 0.  1.
         14    1    3    3    0    0 -0.13198379327E+02 -0.41001705315E+02 -0.10419105835E+03  0.11274357496E+03  0.00000000000E+00 0. -1.
          5    1    4    4  501    0  0.16597589078E+02  0.14119342125E+03  0.12106184397E+04  0.12189463313E+04  0.47000000000E+01 0. -1.
         -5    1    4    4    0  501 -0.17570397806E+02 -0.17808121906E+02  0.91847406177E+02  0.95309412475E+02  0.47000000000E+01 0. -1.
          1    1    1    2  502    0 -0.45029232234E+02 -0.15396975108E+03 -0.69439438043E+03  0.71268357044E+03  0.00000000000E+00 0. -1.
          1    1    1    2  503    0  0.88134480685E+02 -0.50616179018E+01  0.49655928661E+03  0.50434554799E+03  0.00000000000E+00 0. -1.
<mgrwt>
<rscale>  0 0.97546890E+02</rscale>
<asrwt>0</asrwt>
<pdfrwt beam="1">  1        2 0.27309871E+00 0.88279707E+02</pdfrwt>
<pdfrwt beam="2">  1        2 0.14266188E+00 0.10778690E+03</pdfrwt>
<totfact> 0.51540694E+01</totfact>
</mgrwt>
</event>
<event>
13    1  0.1589573E-008  0.9925122E+02  0.7546771E-02  0.1359277E+00
          2   -1    0    0  503    0  0.00000000000E+00  0.00000000000E+00  0.12511959314E+04  0.12511959314E+04  0.00000000000E+00 0. -1.
         -1   -1    0    0    0  501 -0.00000000000E+00 -0.00000000000E+00 -0.13700269861E+04  0.13700269861E+04  0.00000000000E+00 0.  1.
         24    2    1    2    0    0  0.60625350217E+01 -0.39687745901E+02 -0.36829088154E+03  0.38007083437E+03  0.84875168381E+02 0.  0.
         25    2    1    2    0    0  0.24641650125E+03 -0.19847222681E+03  0.14465308498E+03  0.36967909818E+03  0.12500321491E+03 0.  0.
         24    2    1    2    0    0 -0.17165373023E+03  0.78402957637E+02 -0.13326655149E+03  0.24365892805E+03  0.77444642193E+02 0.  0.
        -11    1    3    3    0    0  0.33518644899E+02 -0.23809231303E+02 -0.31777294387E+03  0.32042163302E+03  0.00000000000E+00 0.  1.
         12    1    3    3    0    0 -0.27456109877E+02 -0.15878514598E+02 -0.50517937675E+02  0.59649201356E+02  0.00000000000E+00 0. -1.
        -13    1    5    5    0    0 -0.16059594680E+03  0.92900509735E+02 -0.11798110903E+03  0.21986610681E+03  0.00000000000E+00 0.  1.
         14    1    5    5    0    0 -0.11057783432E+02 -0.14497552098E+02 -0.15285442461E+02  0.23792821238E+02  0.00000000000E+00 0. -1.
          5    1    4    4  502    0 -0.69414335959E+01 -0.23201211710E+02  0.34619901513E+02  0.42510084756E+02  0.47000000000E+01 0. -1.
         -5    1    4    4    0  502  0.25335793485E+03 -0.17527101510E+03  0.11003318347E+03  0.32716901343E+03  0.47000000000E+01 0. -1.
          1    1    1    2  503    0 -0.31876430388E+02  0.38143554853E+02  0.92608804945E+03  0.92742121656E+03  0.00000000000E+00 0. -1.
         -2    1    1    2    0  501 -0.48948875652E+02  0.12161346022E+03 -0.68801475608E+03  0.70039284029E+03  0.00000000000E+00 0.  1.
<mgrwt>
<rscale>  0 0.70240526E+02</rscale>
<asrwt>0</asrwt>
<pdfrwt beam="1">  1        2 0.18399940E+00 0.49709532E+02</pdfrwt>
<pdfrwt beam="2">  1       -1 0.20147456E+00 0.99251215E+02</pdfrwt>
<totfact> 0.46044015E+00</totfact>
</mgrwt>
</event>
<event>
13    1  0.1589573E-008  0.9163060E+02  0.7546771E-02  0.1414416E+00
          2   -1    0    0  503    0  0.00000000000E+00  0.00000000000E+00  0.33185189647E+04  0.33185189647E+04  0.00000000000E+00 0. -1.
          2   -1    0    0  502    0 -0.00000000000E+00 -0.00000000000E+00 -0.12266283415E+04  0.12266283415E+04  0.00000000000E+00 0. -1.
         24    2    1    2    0    0  0.11355716117E+03 -0.91202354653E+02 -0.27942493699E+03  0.32664367552E+03  0.86050549089E+02 0.  0.
         25    2    1    2    0    0 -0.15937624458E+03  0.10099320711E+03 -0.32249528297E+03  0.39399136524E+03  0.12500229248E+03 0.  0.
         24    2    1    2    0    0 -0.35833129471E+01 -0.72437122091E+02  0.16938524062E+04  0.16973041591E+04  0.80283607907E+02 0.  0.
        -11    1    5    5    0    0 -0.21308252582E+02  0.96503624969E+01  0.28980844581E+03  0.29075093532E+03  0.00000000000E+00 0.  1.
         12    1    5    5    0    0  0.17724939635E+02 -0.82087484588E+02  0.14040439604E+04  0.14065532238E+04  0.00000000000E+00 0. -1.
        -13    1    3    3    0    0 -0.11981065324E+02 -0.19801646372E+02 -0.24870341004E+02  0.33973298147E+02  0.00000000000E+00 0.  1.
         14    1    3    3    0    0  0.12553822649E+03 -0.71400708281E+02 -0.25455459598E+03  0.29267037737E+03  0.00000000000E+00 0. -1.
          5    1    4    4  501    0 -0.40872390325E+02  0.56652857351E+02 -0.31760493607E+02  0.76882491447E+02  0.47000000000E+01 0. -1.
         -5    1    4    4    0  501 -0.11850385425E+03  0.44340349761E+02 -0.29073478937E+03  0.31710887379E+03  0.47000000000E+01 0. -1.
          1    1    1    2  502    0 -0.31488433053E+02 -0.14082081622E+02 -0.56110702397E+03  0.56216627325E+03  0.00000000000E+00 0. -1.
          1    1    1    2  503    0  0.80890829410E+02  0.76728351255E+02  0.15610654609E+04  0.15650418331E+04  0.00000000000E+00 0. -1.
<mgrwt>
<rscale>  0 0.56220043E+02</rscale>
<asrwt>0</asrwt>
<pdfrwt beam="1">  1        2 0.48801749E+00 0.91630601E+02</pdfrwt>
<pdfrwt beam="2">  1        2 0.18038652E+00 0.34493861E+02</pdfrwt>
<totfact> 0.72249373E+00</totfact>
</mgrwt>
</event>
<event>
13    1  0.1589573E-008  0.1249907E+03  0.7546771E-02  0.1273599E+00
          2   -1    0    0  503    0  0.00000000000E+00  0.00000000000E+00  0.16633327840E+04  0.16633327840E+04  0.00000000000E+00 0. -1.
          2   -1    0    0  502    0 -0.00000000000E+00 -0.00000000000E+00 -0.16030943159E+04  0.16030943159E+04  0.00000000000E+00 0. -1.
         24    2    1    2    0    0  0.10360334483E+02 -0.20811682283E+02 -0.37873825993E+03  0.38828207929E+03  0.82339789410E+02 0.  0.
         25    2    1    2    0    0  0.87191412084E+02  0.19693218860E+03 -0.10748015001E+03  0.27122082264E+03  0.12499649091E+03 0.  0.
         24    2    1    2    0    0  0.92066756519E+02 -0.20531890324E+02  0.28622471206E+03  0.31181358939E+03  0.80033009195E+02 0.  0.
        -11    1    5    5    0    0  0.72957380360E+02  0.16468168094E+02  0.22994045209E+03  0.24179865884E+03  0.00000000000E+00 0.  1.
         12    1    5    5    0    0  0.19109376159E+02 -0.37000058418E+02  0.56284259969E+02  0.70014930554E+02  0.00000000000E+00 0. -1.
        -13    1    3    3    0    0 -0.25900408636E+02 -0.31300355365E+02 -0.11737826851E+03  0.12421031089E+03  0.00000000000E+00 0.  1.
         14    1    3    3    0    0  0.36260743119E+02  0.10488673082E+02 -0.26135999142E+03  0.26407176841E+03  0.00000000000E+00 0. -1.
          5    1    4    4  501    0  0.86613938253E+02  0.17740851404E+03 -0.13348388838E+03  0.23836063771E+03  0.47000000000E+01 0. -1.
         -5    1    4    4    0  501  0.57747383148E+00  0.19523674562E+02  0.26003738369E+02  0.32860184929E+02  0.47000000000E+01 0. -1.
          1    1    1    2  502    0 -0.10793953644E+03 -0.13101143613E+03 -0.10089174564E+04  0.10230979297E+04  0.00000000000E+00 0. -1.
          1    1    1    2  503    0 -0.81678966646E+02 -0.24577179868E+02  0.12691496224E+04  0.12720126789E+04  0.00000000000E+00 0. -1.
<mgrwt>
<rscale>  0 0.10325342E+03</rscale>
<asrwt>0</asrwt>
<pdfrwt beam="1">  1        2 0.24460776E+00 0.85296491E+02</pdfrwt>
<pdfrwt beam="2">  1        2 0.23574916E+00 0.12499071E+03</pdfrwt>
<totfact> 0.29429458E+01</totfact>
</mgrwt>
</event>
<event>
13    1  0.1589573E-008  0.5991159E+02  0.7546771E-02  0.1421644E+00
          2   -1    0    0  503    0  0.00000000000E+00  0.00000000000E+00  0.12297222322E+04  0.12297222322E+04  0.00000000000E+00 0. -1.
         -1   -1    0    0    0  501 -0.00000000000E+00 -0.00000000000E+00 -0.10649823406E+04  0.10649823406E+04  0.00000000000E+00 0.  1.
         24    2    1    2    0    0 -0.21687797299E+02  0.22427764729E+03  0.65822982624E+02  0.24815425399E+03  0.80480091365E+02 0.  0.
         25    2    1    2    0    0 -0.79099016397E+02 -0.77788649267E+02  0.76384912335E+03  0.78192006222E+03  0.12500308843E+03 0.  0.
         24    2    1    2    0    0  0.78614477826E+02 -0.11398553766E+03  0.16809871548E+02  0.16105058544E+03  0.80509504847E+02 0.  0.
        -13    1    3    3    0    0 -0.48698931816E+02  0.18149800500E+03  0.59801143540E+02  0.19720367275E+03  0.00000000000E+00 0.  1.
         14    1    3    3    0    0  0.27011134517E+02  0.42779642294E+02  0.60218390840E+01  0.50950581240E+02  0.00000000000E+00 0. -1.
        -13    1    5    5    0    0  0.80465348271E+02 -0.47075835280E+02  0.10720097942E+02  0.93838835455E+02  0.00000000000E+00 0.  1.
         14    1    5    5    0    0 -0.18508704458E+01 -0.66909702377E+02  0.60897736065E+01  0.67211749986E+02  0.00000000000E+00 0. -1.
          5    1    4    4  502    0  0.25706177290E+02 -0.50744077380E+02  0.21280952891E+03  0.22033101129E+03  0.47000000000E+01 0. -1.
         -5    1    4    4    0  502 -0.10480519369E+03 -0.27044571887E+02  0.55103959444E+03  0.56158905094E+03  0.47000000000E+01 0. -1.
          1    1    1    2  503    0 -0.21288686550E+02 -0.57012391451E+02  0.20581361064E+03  0.21462260664E+03  0.00000000000E+00 0. -1.
         -2    1    1    2    0  501  0.43461022421E+02  0.24508931083E+02 -0.88755569648E+03  0.88895706451E+03  0.00000000000E+00 0.  1.
<mgrwt>
<rscale>  0 0.54674594E+02</rscale>
<asrwt>0</asrwt>
<pdfrwt beam="1">  1        2 0.18084151E+00 0.59911594E+02</pdfrwt>
<pdfrwt beam="2">  1       -1 0.15661505E+00 0.49895372E+02</pdfrwt>
<totfact> 0.99289514E+00</totfact>
</mgrwt>
</event>
<event>
13    1  0.1589573E-008  0.3441362E+02  0.7546771E-02  0.1587971E+00
          2   -1    0    0  502    0  0.00000000000E+00  0.00000000000E+00  0.16493049105E+04  0.16493049105E+04  0.00000000000E+00 0. -1.
          4   -1    0    0  503    0 -0.00000000000E+00 -0.00000000000E+00 -0.86434316307E+03  0.86434316307E+03  0.00000000000E+00 0. -1.
         24    2    1    2    0    0  0.30956554922E+01 -0.29509908925E+01 -0.50158486900E+03  0.50804637106E+03  0.80656325889E+02 0.  0.
         25    2    1    2    0    0 -0.43517403441E+02  0.19410302798E+02  0.82791143680E+02  0.15731470810E+03  0.12499207837E+03 0.  0.
         24    2    1    2    0    0  0.25830554046E+02 -0.89735105265E+01 -0.16788040075E+03  0.18556698639E+03  0.74185821195E+02 0.  0.
        -11    1    3    3    0    0 -0.23605119909E+02 -0.17789911491E+02 -0.78831053329E+02  0.84190365278E+02  0.00000000000E+00 0.  1.
         12    1    3    3    0    0  0.26700775401E+02  0.14838920598E+02 -0.42275381567E+03  0.42385600578E+03  0.00000000000E+00 0. -1.
        -13    1    5    5    0    0 -0.17019835881E+02 -0.20086948759E+02 -0.10762311261E+03  0.11079663665E+03  0.00000000000E+00 0.  1.
         14    1    5    5    0    0  0.42850389927E+02  0.11113438232E+02 -0.60257288141E+02  0.74770349740E+02  0.00000000000E+00 0. -1.
          5    1    4    4  501    0 -0.32851626847E+02 -0.20406019366E+02  0.10375772218E+03  0.11083045576E+03  0.47000000000E+01 0. -1.
         -5    1    4    4    0  501 -0.10665776594E+02  0.39816322164E+02 -0.20966578498E+02  0.46484252333E+02  0.47000000000E+01 0. -1.
          1    1    1    2  502    0  0.59177101752E+01 -0.33907768134E+02  0.15156523646E+04  0.15160431546E+04  0.00000000000E+00 0. -1.
          3    1    1    2  503    0  0.86734837273E+01  0.26421966755E+02 -0.14401649110E+03  0.14667685351E+03  0.00000000000E+00 0. -1.
<mgrwt>
<rscale>  0 0.30935642E+02</rscale>
<asrwt>0</asrwt>
<pdfrwt beam="1">  1        2 0.24254484E+00 0.34413617E+02</pdfrwt>
<pdfrwt beam="2">  1        4 0.12710929E+00 0.27809165E+02</pdfrwt>
<totfact> 0.34824079E+00</totfact>
</mgrwt>
</event>
<event>
13    1  0.1589573E-008  0.4479820E+02  0.7546771E-02  0.1554652E+00
         -3   -1    0    0    0  501 -0.00000000000E+00  0.00000000000E+00  0.70270994058E+03  0.70270994058E+03  0.00000000000E+00 0.  1.
          2   -1    0    0  503    0  0.00000000000E+00 -0.00000000000E+00 -0.28457462497E+04  0.28457462497E+04  0.00000000000E+00 0. -1.
         24    2    1    2    0    0 -0.98247329219E+02  0.47985927629E+02  0.48071739453E+02  0.14139825304E+03  0.75679501052E+02 0.  0.
         25    2    1    2    0    0  0.87955022831E+02 -0.85248422304E+02  0.22450680270E+03  0.28465728285E+03  0.12499233846E+03 0.  0.
         24    2    1    2    0    0 -0.54313538048E+01  0.26936019042E+02 -0.11246864121E+04  0.11278412324E+04  0.79694863676E+02 0.  0.
        -11    1    5    5    0    0  0.30572315288E+02 -0.79758101881E+01 -0.30796825474E+03  0.30958476374E+03  0.00000000000E+00 0.  1.
         12    1    5    5    0    0 -0.36003669093E+02  0.34911829231E+02 -0.81671815736E+03  0.81825646870E+03  0.00000000000E+00 0. -1.
        -11    1    3    3    0    0 -0.79044324479E+02  0.59500653986E+02  0.12997099891E+02  0.99786059460E+02  0.00000000000E+00 0.  1.
         12    1    3    3    0    0 -0.19203004740E+02 -0.11514726357E+02  0.35074639561E+02  0.41612193579E+02  0.00000000000E+00 0. -1.
          5    1    4    4  502    0  0.86606778173E+01 -0.99791101296E+01  0.15365109200E+03  0.15428978596E+03  0.47000000000E+01 0.  1.
         -5    1    4    4    0  502  0.79294345014E+02 -0.75269312174E+02  0.70855710702E+02  0.13036749689E+03  0.47000000000E+01 0.  1.
          1    1    1    2  503    0 -0.24688820163E+02 -0.90769654287E+01 -0.16412100448E+04  0.16414208297E+04  0.00000000000E+00 0. -1.
         -4    1    1    2    0  501  0.40412480356E+02  0.19403441061E+02  0.35028160561E+03  0.35313859223E+03  0.00000000000E+00 0.  1.
<mgrwt>
<rscale>  0 0.34327777E+02</rscale>
<asrwt>0</asrwt>
<pdfrwt beam="2">  1        2 0.41849210E+00 0.26304546E+02</pdfrwt>
<pdfrwt beam="1">  1       -3 0.10333970E+00 0.44798199E+02</pdfrwt>
<totfact> 0.21843259E+00</totfact>
</mgrwt>
</event>
<event>
13    1  0.1589573E-008  0.1402439E+03  0.7546771E-02  0.1233414E+00
          2   -1    0    0  502    0  0.00000000000E+00  0.00000000000E+00  0.18037907863E+04  0.18037907863E+04  0.00000000000E+00 0. -1.
          2   -1    0    0  503    0 -0.00000000000E+00 -0.00000000000E+00 -0.10717323722E+04  0.10717323722E+04  0.00000000000E+00 0. -1.
         24    2    1    2    0    0  0.39481016385E+02  0.22060744629E+02 -0.18511355972E+03  0.20691108778E+03  0.80620972143E+02 0.  0.
         25    2    1    2    0    0 -0.91064639996E+02  0.21340077063E+03  0.56357612205E+03  0.62215364782E+03  0.12499783436E+03 0.  0.
         24    2    1    2    0    0  0.82612259070E+02 -0.29132513367E+02  0.20294801408E+03  0.23530156208E+03  0.80656307968E+02 0.  0.
        -11    1    3    3    0    0 -0.21664498886E+02  0.22189103562E+02 -0.70124492496E+02  0.76675623745E+02  0.00000000000E+00 0.  1.
         12    1    3    3    0    0  0.61145515270E+02 -0.12835893284E+00 -0.11498906722E+03  0.13023546404E+03  0.00000000000E+00 0. -1.
        -13    1    5    5    0    0 -0.14329208869E+02 -0.14433947682E+02  0.45194802599E+02  0.49560420241E+02  0.00000000000E+00 0.  1.
         14    1    5    5    0    0  0.96941467939E+02 -0.14698565685E+02  0.15775321148E+03  0.18574114184E+03  0.00000000000E+00 0. -1.
          5    1    4    4  501    0 -0.50811230529E+02  0.13915973904E+02  0.66203016679E+02  0.84737033787E+02  0.47000000000E+01 0.  1.
         -5    1    4    4    0  501 -0.40253409467E+02  0.19948479672E+03  0.49737310537E+03  0.53741661404E+03  0.47000000000E+01 0.  1.
          1    1    1    2  502    0 -0.11692563334E+03 -0.12302355396E+03  0.96917784068E+03  0.98392686996E+03  0.00000000000E+00 0. -1.
          1    1    1    2  503    0  0.85896997877E+02 -0.83305447929E+02 -0.81853000300E+03  0.82722999082E+03  0.00000000000E+00 0. -1.
<mgrwt>
<rscale>  0 0.12606514E+03</rscale>
<asrwt>0</asrwt>
<pdfrwt beam="1">  1        2 0.26526335E+00 0.14024386E+03</pdfrwt>
<pdfrwt beam="2">  1        2 0.15760770E+00 0.11331990E+03</pdfrwt>
<totfact> 0.45689666E+01</totfact>
</mgrwt>
</event>
<event>
13    1  0.1589573E-008  0.6619302E+02  0.7546771E-02  0.1449330E+00
          2   -1    0    0  503    0  0.00000000000E+00  0.00000000000E+00  0.39160478322E+04  0.39160478322E+04  0.00000000000E+00 0. -1.
          2   -1    0    0  502    0 -0.00000000000E+00 -0.00000000000E+00 -0.16992895891E+04  0.16992895891E+04  0.00000000000E+00 0. -1.
         24    2    1    2    0    0 -0.13668326581E+03 -0.75578341798E+02  0.19190223254E+02  0.17793429180E+03  0.83053877866E+02 0.  0.
         25    2    1    2    0    0  0.16698347247E+03  0.55669699428E+02  0.16197557473E+03  0.26989536595E+03  0.12499930496E+03 0.  0.
         24    2    1    2    0    0 -0.44472666155E+01 -0.35064459548E+02  0.14216978348E+04  0.14232441142E+04  0.56122905960E+02 0.  0.
        -11    1    5    5    0    0  0.84305802741E+00 -0.47685670018E+02  0.81661088066E+03  0.81800242316E+03  0.00000000000E+00 0.  1.
         12    1    5    5    0    0 -0.52903246429E+01  0.12621210470E+02  0.60508695415E+03  0.60524169104E+03  0.00000000000E+00 0. -1.
        -13    1    3    3    0    0 -0.82902321573E+02 -0.10064647591E+02 -0.17909048908E+02  0.85409754045E+02  0.00000000000E+00 0.  1.
         14    1    3    3    0    0 -0.53780944233E+02 -0.65513694207E+02  0.37099272161E+02  0.92524537752E+02  0.00000000000E+00 0. -1.
          5    1    4    4  501    0  0.40820499208E+02  0.34452676298E+02 -0.10958908186E+02  0.54731049034E+02  0.47000000000E+01 0.  1.
         -5    1    4    4    0  501  0.12616297326E+03  0.21217023130E+02  0.17293448292E+03  0.21516431691E+03  0.47000000000E+01 0.  1.
          1    1    1    2  502    0 -0.35096388745E+02 -0.10629500811E+02 -0.15644660562E+04  0.15648957741E+04  0.00000000000E+00 0. -1.
          1    1    1    2  503    0  0.92434486991E+01  0.65602602729E+02  0.21783606665E+04  0.21793678754E+04  0.00000000000E+00 0. -1.
<mgrwt>
<rscale>  0 0.49268112E+02</rscale>
<asrwt>0</asrwt>
<pdfrwt beam="1">  1        2 0.57588939E+00 0.66193025E+02</pdfrwt>
<pdfrwt beam="2">  1        2 0.24989553E+00 0.36670735E+02</pdfrwt>
<totfact> 0.20007286E+00</totfact>
</mgrwt>
</event>
<event>
13    1  0.1589573E-008  0.3190108E+03  0.7546771E-02  0.1239388E+00
          2   -1    0    0  503    0  0.00000000000E+00  0.00000000000E+00  0.22706976353E+04  0.22706976353E+04  0.00000000000E+00 0. -1.
          2   -1    0    0  502    0 -0.00000000000E+00 -0.00000000000E+00 -0.36279307545E+04  0.36279307545E+04  0.00000000000E+00 0. -1.
         24    2    1    2    0    0  0.60264162083E+02 -0.77968428382E+02  0.11431516626E+03  0.17116165996E+03  0.80731106443E+02 0.  0.
         25    2    1    2    0    0 -0.19094183372E+03 -0.65494178820E+01  0.15596044039E+04  0.15762278167E+04  0.12500621858E+03 0.  0.
         24    2    1    2    0    0  0.21275976000E+03 -0.18131233017E+03 -0.45495036772E+01  0.29063511481E+03  0.79417853336E+02 0.  0.
        -11    1    5    5    0    0  0.17928817842E+03 -0.10741287116E+03  0.41551464186E+01  0.20904315596E+03  0.00000000000E+00 0.  1.
         12    1    5    5    0    0  0.33471581583E+02 -0.73899459008E+02 -0.87046500958E+01  0.81591958848E+02  0.00000000000E+00 0. -1.
        -13    1    3    3    0    0  0.76206254278E+02 -0.75470774357E+02  0.11162737683E+03  0.15480278496E+03  0.00000000000E+00 0.  1.
         14    1    3    3    0    0 -0.15942092194E+02 -0.24976540245E+01  0.26877894219E+01  0.16358874996E+02  0.00000000000E+00 0. -1.
          5    1    4    4  501    0 -0.50646956998E+02  0.32206134924E+02  0.20048704124E+03  0.20933106097E+03  0.47000000000E+01 0. -1.
         -5    1    4    4    0  501 -0.14029487672E+03 -0.38755552806E+02  0.13591173627E+04  0.13668967557E+04  0.47000000000E+01 0. -1.
          1    1    1    2  502    0 -0.83500880386E+02  0.31267710457E+03 -0.34346552176E+04  0.34498689588E+04  0.00000000000E+00 0. -1.
          1    1    1    2  503    0  0.14187920212E+01 -0.46846928141E+02  0.40805203200E+03  0.41073483961E+03  0.00000000000E+00 0. -1.
<mgrwt>
<rscale>  0 0.12227645E+03</rscale>
<asrwt>0</asrwt>
<pdfrwt beam="1">  1        2 0.33392613E+00 0.46868408E+02</pdfrwt>
<pdfrwt beam="2">  1        2 0.53351922E+00 0.31901083E+03</pdfrwt>
<totfact> 0.12082099E+00</totfact>
</mgrwt>
</event>
<event>
13    1  0.1589573E-008  0.1406648E+03  0.7546771E-02  0.1308180E+00
          2   -1    0    0  503    0  0.00000000000E+00  0.00000000000E+00  0.50435814840E+03  0.50435814840E+03  0.00000000000E+00 0. -1.
          2   -1    0    0  502    0 -0.00000000000E+00 -0.00000000000E+00 -0.22832752765E+04  0.22832752765E+04  0.00000000000E+00 0. -1.
         24    2    1    2    0    0  0.32745890385E+03 -0.70480068143E+02 -0.47124544155E+03  0.58399959732E+03  0.82380154031E+02 0.  0.
         25    2    1    2    0    0 -0.30404409098E+02  0.11239516772E+03 -0.26473798914E+03  0.31506674231E+03  0.12499498948E+03 0.  0.
         24    2    1    2    0    0 -0.14620427005E+03 -0.97952124369E+02 -0.68260499249E+03  0.70961458914E+03  0.81443121819E+02 0.  0.
        -11    1    3    3    0    0  0.25869581120E+03 -0.87059512142E+02 -0.39340388151E+03  0.47882094292E+03  0.00000000000E+00 0.  1.
         12    1    3    3    0    0  0.68763092643E+02  0.16579443999E+02 -0.77841560034E+02  0.10517865440E+03  0.00000000000E+00 0. -1.
        -11    1    5    5    0    0 -0.58926938984E+02 -0.16245609242E+02 -0.12263491479E+03  0.13702418139E+03  0.00000000000E+00 0.  1.
         12    1    5    5    0    0 -0.87277331062E+02 -0.81706515127E+02 -0.55997007770E+03  0.57259040775E+03  0.00000000000E+00 0. -1.
          5    1    4    4  501    0  0.39266378023E+02  0.25107592832E+01 -0.48148293827E+02  0.62357842760E+02  0.47000000000E+01 0. -1.
         -5    1    4    4    0  501 -0.69670787120E+02  0.10988440843E+03 -0.21658969531E+03  0.25270889955E+03  0.47000000000E+01 0. -1.
          1    1    1    2  502    0 -0.42966686227E+02 -0.34089298217E+02 -0.75654847722E+03  0.75853399051E+03  0.00000000000E+00 0. -1.
          1    1    1    2  503    0 -0.10788353848E+03  0.90126323011E+02  0.39621977226E+03  0.42041850566E+03  0.00000000000E+00 0. -1.
<mgrwt>
<rscale>  0 0.87835488E+02</rscale>
<asrwt>0</asrwt>
<pdfrwt beam="1">  1        2 0.74170317E-01 0.14066482E+03</pdfrwt>
<pdfrwt beam="2">  1        2 0.33577577E+00 0.54847209E+02</pdfrwt>
<totfact> 0.73187365E+01</totfact>
</mgrwt>
</event>
<event>
13    1  0.1589573E-008  0.8863048E+02  0.7546771E-02  0.1406262E+00
         -3   -1    0    0    0  501 -0.00000000000E+00  0.00000000000E+00  0.35389358797E+03  0.35389358797E+03  0.00000000000E+00 0.  1.
          2   -1    0    0  503    0  0.00000000000E+00 -0.00000000000E+00 -0.17646941394E+04  0.17646941394E+04  0.00000000000E+00 0. -1.
         24    2    1    2    0    0 -0.91624477577E+02 -0.52822635786E+02  0.10502605182E+03  0.17274095191E+03  0.87313739830E+02 0.  0.
         25    2    1    2    0    0  0.17012798324E+03  0.13868531793E+03 -0.55302114237E+03  0.60797755893E+03  0.12500872032E+03 0.  0.
         24    2    1    2    0    0  0.11329743464E+02 -0.86488722880E+01 -0.20358840733E+02  0.85586000005E+02  0.81898198528E+02 0.  0.
        -11    1    3    3    0    0 -0.10538776848E+03 -0.36252575467E+02  0.10183080551E+03  0.15096471085E+03  0.00000000000E+00 0.  1.
         12    1    3    3    0    0  0.13763290903E+02 -0.16570060319E+02  0.31952463103E+01  0.21776241054E+02  0.00000000000E+00 0. -1.
        -11    1    5    5    0    0 -0.27925045038E+02 -0.20631093043E+01  0.15506192371E+02  0.32007914056E+02  0.00000000000E+00 0.  1.
         12    1    5    5    0    0  0.39254788502E+02 -0.65857629837E+01 -0.35865033104E+02  0.53578085949E+02  0.00000000000E+00 0. -1.
          5    1    4    4  502    0  0.98230036713E+02  0.44934547290E+02 -0.40137631827E+03  0.41568412590E+03  0.47000000000E+01 0.  1.
         -5    1    4    4    0  502  0.71897946527E+02  0.93750770638E+02 -0.15164482410E+03  0.19229343303E+03  0.47000000000E+01 0.  1.
          1    1    1    2  503    0 -0.22056139486E+01 -0.37938734744E+02 -0.10821186185E+04  0.10827857206E+04  0.00000000000E+00 0. -1.
         -4    1    1    2    0  501 -0.87627635179E+02 -0.39275075110E+02  0.13967199838E+03  0.16949749586E+03  0.00000000000E+00 0.  1.
<mgrwt>
<rscale>  0 0.58036245E+02</rscale>
<asrwt>0</asrwt>
<pdfrwt beam="2">  1        2 0.25951384E+00 0.38002794E+02</pdfrwt>
<pdfrwt beam="1">  1       -3 0.52043176E-01 0.88630476E+02</pdfrwt>
<totfact> 0.28696272E+01</totfact>
</mgrwt>
</event>
<event>
13    1  0.1589573E-008  0.1225647E+03  0.7546771E-02  0.1389740E+00
          2   -1    0    0  502    0  0.00000000000E+00  0.00000000000E+00  0.18817146761E+04  0.18817146761E+04  0.00000000000E+00 0. -1.
          4   -1    0    0  503    0 -0.00000000000E+00 -0.00000000000E+00 -0.20360903743E+03  0.20360903743E+03  0.00000000000E+00 0. -1.
         24    2    1    2    0    0 -0.32665844758E+02  0.59110236391E+02 -0.17339470785E+02  0.10953641888E+03  0.84477762488E+02 0.  0.
         25    2    1    2    0    0  0.10399716045E+03 -0.33545464304E+01  0.44796718891E+03  0.47657742537E+03  0.12499911066E+03 0.  0.
         24    2    1    2    0    0 -0.16532792478E+01  0.64016438336E+02  0.21893893225E+03  0.24318339673E+03  0.84279716901E+02 0.  0.
        -11    1    5    5    0    0 -0.20104099755E+02  0.70192094923E+01  0.62125536136E+01  0.22181973565E+02  0.00000000000E+00 0.  1.
         12    1    5    5    0    0  0.18450820507E+02  0.56997228844E+02  0.21272637863E+03  0.22100142316E+03  0.00000000000E+00 0. -1.
        -11    1    3    3    0    0 -0.32922198238E+02  0.58937734445E+00 -0.35346478924E+02  0.48307267309E+02  0.00000000000E+00 0.  1.
         12    1    3    3    0    0  0.25635348065E+00  0.58520859046E+02  0.18007008139E+02  0.61229151576E+02  0.00000000000E+00 0. -1.
          5    1    4    4  501    0  0.12271155091E+03 -0.23193612675E+02  0.41564251197E+03  0.43402402716E+03  0.47000000000E+01 0. -1.
         -5    1    4    4    0  501 -0.18714390457E+02  0.19839066245E+02  0.32324676941E+02  0.42553398207E+02  0.47000000000E+01 0. -1.
          1    1    1    2  502    0  0.16288917886E+02  0.26767476514E+02  0.10784867825E+04  0.10789418737E+04  0.00000000000E+00 0. -1.
          3    1    1    2  503    0 -0.85966954332E+02 -0.14653960481E+03 -0.49947794232E+02  0.17708459889E+03  0.00000000000E+00 0. -1.
<mgrwt>
<rscale>  0 0.61971409E+02</rscale>
<asrwt>0</asrwt>
<pdfrwt beam="1">  1        2 0.27672274E+00 0.31334113E+02</pdfrwt>
<pdfrwt beam="2">  1        4 0.29942506E-01 0.12256468E+03</pdfrwt>
<totfact> 0.63606829E+01</totfact>
</mgrwt>
</event>
<event>
13    1  0.1589573E-008  0.1138072E+03  0.7546771E-02  0.1417579E+00
          2   -1    0    0  502    0  0.00000000000E+00  0.00000000000E+00  0.15219754998E+04  0.15219754998E+04  0.00000000000E+00 0. -1.
          2   -1    0    0  503    0 -0.00000000000E+00 -0.00000000000E+00 -0.11282945919E+04  0.11282945919E+04  0.00000000000E+00 0. -1.
         24    2    1    2    0    0 -0.23639233764E+03 -0.27337253139E+03  0.75233768428E+03  0.83612126440E+03  0.49728255390E+02 0.  0.
         25    2    1    2    0    0  0.47655094535E+02  0.27600236290E+03  0.11991276015E+03  0.32932056360E+03  0.12499860482E+03 0.  0.
         24    2    1    2    0    0  0.10244364408E+03 -0.11388372543E+03  0.19171345307E+03  0.25657858569E+03  0.74928762266E+02 0.  0.
        -11    1    5    5    0    0  0.15437384190E+02 -0.41260419352E+02  0.10503439578E+03  0.11389889961E+03  0.00000000000E+00 0.  1.
         12    1    5    5    0    0  0.87006259890E+02 -0.72623306080E+02  0.86679057289E+02  0.14267968608E+03  0.00000000000E+00 0. -1.
        -13    1    3    3    0    0 -0.55244333424E+02 -0.62084750244E+02  0.22482373408E+03  0.23969181044E+03  0.00000000000E+00 0.  1.
         14    1    3    3    0    0 -0.18114800422E+03 -0.21128778115E+03  0.52751395020E+03  0.59642945396E+03  0.00000000000E+00 0. -1.
          5    1    4    4  501    0 -0.37250705595E+02  0.37174265746E+02  0.14724846807E+02  0.54849359290E+02  0.47000000000E+01 0.  1.
         -5    1    4    4    0  501  0.84905800130E+02  0.23882809715E+03  0.10518791334E+03  0.27447120431E+03  0.47000000000E+01 0.  1.
          1    1    1    2  502    0  0.15593996509E+02  0.22165078635E+02  0.27490800460E+03  0.27624060967E+03  0.00000000000E+00 0. -1.
          1    1    1    2  503    0  0.70699602516E+02  0.89088815290E+02 -0.94519099421E+03  0.95200906842E+03  0.00000000000E+00 0. -1.
<mgrwt>
<rscale>  0 0.55536371E+02</rscale>
<asrwt>0</asrwt>
<pdfrwt beam="1">  1        2 0.22381993E+00 0.27100986E+02</pdfrwt>
<pdfrwt beam="2">  1        2 0.16592567E+00 0.11380724E+03</pdfrwt>
<totfact> 0.67095477E+01</totfact>
</mgrwt>
</event>
<event>
13    1  0.1589573E-008  0.2325877E+03  0.7546771E-02  0.1348437E+00
          2   -1    0    0  502    0  0.00000000000E+00  0.00000000000E+00  0.21947894246E+04  0.21947894246E+04  0.00000000000E+00 0. -1.
          2   -1    0    0  503    0 -0.00000000000E+00 -0.00000000000E+00 -0.43116360785E+04  0.43116360785E+04  0.00000000000E+00 0. -1.
         24    2    1    2    0    0  0.13764763497E+03  0.21810965938E+01 -0.12929619115E+04  0.13034442592E+04  0.90910965791E+02 0.  0.
         25    2    1    2    0    0 -0.36686585570E+03 -0.26784224463E+02  0.99820502792E+03  0.10711427347E+04  0.12500211860E+03 0.  0.
         24    2    1    2    0    0  0.27663189949E+02  0.84158154040E+02 -0.31810255570E+02  0.12666659362E+03  0.84762530694E+02 0.  0.
        -11    1    5    5    0    0  0.73551215331E+00  0.87757424049E+02 -0.42452825754E+02  0.97489224371E+02  0.00000000000E+00 0.  1.
         12    1    5    5    0    0  0.26927677796E+02 -0.35992700093E+01  0.10642570183E+02  0.29177369247E+02  0.00000000000E+00 0. -1.
        -13    1    3    3    0    0  0.15792937620E+02  0.10823272030E+02 -0.38000107034E+02  0.42550772387E+02  0.00000000000E+00 0.  1.
         14    1    3    3    0    0  0.12185469735E+03 -0.86421754365E+01 -0.12549618045E+04  0.12608934869E+04  0.00000000000E+00 0. -1.
          5    1    4    4  501    0 -0.24514355616E+02  0.30809935877E+02  0.13586803782E+03  0.14153593000E+03  0.47000000000E+01 0.  1.
         -5    1    4    4    0  501 -0.34235150008E+03 -0.57594160340E+02  0.86233699010E+03  0.92960680473E+03  0.47000000000E+01 0.  1.
          1    1    1    2  502    0  0.87919876797E+01 -0.21529144150E+02  0.11039931031E+04  0.11042380064E+04  0.00000000000E+00 0. -1.
          1    1    1    2  503    0  0.19276304310E+03 -0.38025882021E+02 -0.28942726178E+04  0.29009339090E+04  0.00000000000E+00 0. -1.
<mgrwt>
<rscale>  0 0.73544995E+02</rscale>
<asrwt>0</asrwt>
<pdfrwt beam="1">  1        2 0.32276315E+00 0.23255174E+02</pdfrwt>
<pdfrwt beam="2">  1        2 0.63406413E+00 0.23258766E+03</pdfrwt>
<totfact> 0.51382499E-01</totfact>
</mgrwt>
</event>
<event>
13    1  0.1589573E-008  0.8911757E+02  0.7546771E-02  0.1356597E+00
          4   -1    0    0  503    0 -0.00000000000E+00  0.00000000000E+00  0.90452502849E+03  0.90452502849E+03  0.00000000000E+00 0. -1.
          2   -1    0    0  502    0  0.00000000000E+00 -0.00000000000E+00 -0.99518095794E+03  0.99518095794E+03  0.00000000000E+00 0. -1.
         24    2    1    2    0    0 -0.24197571074E+02 -0.69228309544E+02  0.22428170354E+03  0.24976146093E+03  0.81856114829E+02 0.  0.
         25    2    1    2    0    0  0.10861937940E+03  0.13606254390E+02  0.48137218871E+02  0.17298951415E+03  0.12499952171E+03 0.  0.
         24    2    1    2    0    0  0.57921749645E+02 -0.44484076922E+02 -0.21896228270E+03  0.24359204615E+03  0.77838560631E+02 0.  0.
        -11    1    3    3    0    0  0.23070465943E+02 -0.26415712391E+02  0.33106303708E+02  0.48229281615E+02  0.00000000000E+00 0.  1.
         12    1    3    3    0    0 -0.47268037017E+02 -0.42812597153E+02  0.19117539983E+03  0.20153217931E+03  0.00000000000E+00 0. -1.
        -11    1    5    5    0    0  0.20294102424E+02 -0.61588893612E+02 -0.14559326494E+03  0.15938143307E+03  0.00000000000E+00 0.  1.
         12    1    5    5    0    0  0.37627647221E+02  0.17104816690E+02 -0.73369017760E+02  0.84210613087E+02  0.00000000000E+00 0. -1.
          5    1    4    4  501    0 -0.28229562028E+02  0.27893667476E+01  0.99005105986E+01  0.30410505574E+02  0.47000000000E+01 0. -1.
         -5    1    4    4    0  501  0.13684894143E+03  0.10816887642E+02  0.38236708272E+02  0.14257900858E+03  0.47000000000E+01 0. -1.
          1    1    1    2  502    0 -0.86028058699E+02  0.10603819517E+03 -0.68046479785E+03  0.69402973051E+03  0.00000000000E+00 0. -1.
          3    1    1    2  503    0 -0.56315499269E+02 -0.59320630923E+01  0.53635222869E+03  0.53933323470E+03  0.00000000000E+00 0. -1.
<mgrwt>
<rscale>  0 0.71038487E+02</rscale>
<asrwt>0</asrwt>
<pdfrwt beam="2">  1        2 0.14635014E+00 0.89117570E+02</pdfrwt>
<pdfrwt beam="1">  1        4 0.13301839E+00 0.56627068E+02</pdfrwt>
<totfact> 0.65291677E+00</totfact>
</mgrwt>
</event>
<event>
13    1  0.1589573E-008  0.1089711E+03  0.7546771E-02  0.1320578E+00
          2   -1    0    0  502    0  0.00000000000E+00  0.00000000000E+00  0.35834229456E+04  0.35834229456E+04  0.00000000000E+00 0. -1.
          2   -1    0    0  503    0 -0.00000000000E+00 -0.00000000000E+00 -0.19789687892E+04  0.19789687892E+04  0.00000000000E+00 0. -1.
         24    2    1    2    0    0  0.91382119840E+02 -0.33456293357E+02 -0.73090891826E+03  0.74170264338E+03  0.80155779684E+02 0.  0.
         25    2    1    2    0    0 -0.47804636522E+02 -0.27078212340E+02  0.59975438552E+03  0.61509962921E+03  0.12499487209E+03 0.  0.
         24    2    1    2    0    0 -0.51302758753E+01 -0.55587330765E+02  0.96665362221E+02  0.13601993867E+03  0.77723615393E+02 0.  0.
        -13    1    5    5    0    0  0.18712463403E+01 -0.74547318941E+02  0.83232584293E+02  0.11175181167E+03  0.00000000000E+00 0.  1.
         14    1    5    5    0    0 -0.70015222156E+01  0.18959988176E+02  0.13432777928E+02  0.24268126995E+02  0.00000000000E+00 0. -1.
        -13    1    3    3    0    0  0.53655928440E+02 -0.55658119451E+02 -0.35922168506E+03  0.36744660012E+03  0.00000000000E+00 0.  1.
         14    1    3    3    0    0  0.37726191400E+02  0.22201826094E+02 -0.37168723320E+03  0.37425604327E+03  0.00000000000E+00 0. -1.
          5    1    4    4  501    0  0.40445908108E+02 -0.10798322724E+02  0.12477217806E+03  0.13169153988E+03  0.47000000000E+01 0.  1.
         -5    1    4    4    0  501 -0.88250544630E+02 -0.16279889615E+02  0.47498220745E+03  0.48340808933E+03  0.47000000000E+01 0.  1.
          1    1    1    2  502    0  0.44412901580E+02  0.45123853189E+02  0.28514550337E+04  0.28521578633E+04  0.00000000000E+00 0. -1.
          1    1    1    2  503    0 -0.82860109023E+02  0.70997983273E+02 -0.12125117069E+04  0.12174116603E+04  0.00000000000E+00 0. -1.
<mgrwt>
<rscale>  0 0.83062630E+02</rscale>
<asrwt>0</asrwt>
<pdfrwt beam="1">  1        2 0.52697396E+00 0.63314042E+02</pdfrwt>
<pdfrwt beam="2">  1        2 0.29102482E+00 0.10897109E+03</pdfrwt>
<totfact> 0.21411363E+00</totfact>
</mgrwt>
</event>
<event>
13    1  0.1589573E-008  0.1117886E+03  0.7546771E-02  0.1304396E+00
          2   -1    0    0  502    0  0.00000000000E+00  0.00000000000E+00  0.15307538453E+04  0.15307538453E+04  0.00000000000E+00 0. -1.
          2   -1    0    0  503    0 -0.00000000000E+00 -0.00000000000E+00 -0.20145688184E+04  0.20145688184E+04  0.00000000000E+00 0. -1.
         24    2    1    2    0    0 -0.48559725364E+02 -0.38339479063E+02 -0.20232383023E+02  0.10329850259E+03  0.80207660065E+02 0.  0.
         25    2    1    2    0    0  0.67714119447E+02  0.15312897221E+03  0.51013168149E+03  0.55126575456E+03  0.12500366227E+03 0.  0.
         24    2    1    2    0    0 -0.25269855600E+01 -0.10676901723E+02  0.78138767473E+01  0.82425931576E+02  0.81317867901E+02 0.  0.
        -11    1    3    3    0    0  0.21685390259E+02 -0.16163357276E+02 -0.10424991622E+02  0.28986043528E+02  0.00000000000E+00 0.  1.
         12    1    3    3    0    0 -0.70245115623E+02 -0.22176121787E+02 -0.98073914007E+01  0.74312459066E+02  0.00000000000E+00 0. -1.
        -13    1    5    5    0    0  0.68332730905E+01  0.26884054164E+02 -0.20478420982E+02  0.34479148994E+02  0.00000000000E+00 0.  1.
         14    1    5    5    0    0 -0.93602586505E+01 -0.37560955887E+02  0.28292297729E+02  0.47946782582E+02  0.00000000000E+00 0. -1.
          5    1    4    4  501    0  0.12421238917E+02 -0.78376658173E+01  0.22253735402E+01  0.15580708235E+02  0.47000000000E+01 0. -1.
         -5    1    4    4    0  501  0.55292880530E+02  0.16096663802E+03  0.50790630795E+03  0.53568504632E+03  0.47000000000E+01 0. -1.
          1    1    1    2  502    0 -0.71145087315E+02 -0.64802668516E+01  0.91035184693E+03  0.91315064613E+03  0.00000000000E+00 0. -1.
          1    1    1    2  503    0  0.54517678792E+02 -0.97632324569E+02 -0.18918799952E+04  0.18951818288E+04  0.00000000000E+00 0. -1.
<mgrwt>
<rscale>  0 0.89365179E+02</rscale>
<asrwt>0</asrwt>
<pdfrwt beam="1">  1        2 0.22511086E+00 0.71439606E+02</pdfrwt>
<pdfrwt beam="2">  1        2 0.29626012E+00 0.11178862E+03</pdfrwt>
<totfact> 0.22050300E+01</totfact>
</mgrwt>
</event>
<event>
13    1  0.1589573E-008  0.1477188E+03  0.7546771E-02  0.1294368E+00
          2   -1    0    0  502    0  0.00000000000E+00  0.00000000000E+00  0.60521051490E+03  0.60521051490E+03  0.00000000000E+00 0. -1.
          2   -1    0    0  503    0 -0.00000000000E+00 -0.00000000000E+00 -0.20889188852E+04  0.20889188852E+04  0.00000000000E+00 0. -1.
         24    2    1    2    0    0  0.21383019264E+00  0.11912186479E+03 -0.16883140315E+03  0.22211960425E+03  0.81504671689E+02 0.  0.
         25    2    1    2    0    0 -0.12763466752E+03  0.76339037699E+02  0.10201298638E+02  0.19454585401E+03  0.12500306312E+03 0.  0.
         24    2    1    2    0    0  0.49218355471E+02 -0.48883771915E+02 -0.24187911339E+03  0.26427477607E+03  0.80768695066E+02 0.  0.
        -11    1    3    3    0    0  0.60859643010E+01 -0.42204496835E+01 -0.50677012549E+02  0.51215337136E+02  0.00000000000E+00 0.  1.
         12    1    3    3    0    0 -0.58721341084E+01  0.12334231447E+03 -0.11815439060E+03  0.17090426711E+03  0.00000000000E+00 0. -1.
        -13    1    5    5    0    0  0.60870268933E+02 -0.84643097901E+01 -0.17271661439E+03  0.18332447482E+03  0.00000000000E+00 0.  1.
         14    1    5    5    0    0 -0.11651913462E+02 -0.40419462125E+02 -0.69162499000E+02  0.80950301257E+02  0.00000000000E+00 0. -1.
          5    1    4    4  501    0 -0.26737365527E+02  0.16918897717E+02 -0.52620871512E+02  0.61580694490E+02  0.47000000000E+01 0. -1.
         -5    1    4    4    0  501 -0.10089730199E+03  0.59420139982E+02  0.62822170150E+02  0.13296515952E+03  0.47000000000E+01 0. -1.
          1    1    1    2  502    0  0.55638987836E+02  0.20525890876E+02  0.45848832976E+03  0.46230786030E+03  0.00000000000E+00 0. -1.
          1    1    1    2  503    0  0.22563494017E+02 -0.16710302145E+03 -0.15416874821E+04  0.15508813054E+04  0.00000000000E+00 0. -1.
<mgrwt>
<rscale>  0 0.93596864E+02</rscale>
<asrwt>0</asrwt>
<pdfrwt beam="1">  1        2 0.89001546E-01 0.59304377E+02</pdfrwt>
<pdfrwt beam="2">  1        2 0.30719395E+00 0.14771883E+03</pdfrwt>
<totfact> 0.67367619E+01</totfact>
</mgrwt>
</event>
<event>
13    1  0.1589573E-008  0.2180119E+03  0.7546771E-02  0.1174495E+00
          2   -1    0    0  503    0  0.00000000000E+00  0.00000000000E+00  0.15310105147E+04  0.15310105147E+04  0.00000000000E+00 0. -1.
          2   -1    0    0  502    0 -0.00000000000E+00 -0.00000000000E+00 -0.38875653201E+04  0.38875653201E+04  0.00000000000E+00 0. -1.
         24    2    1    2    0    0  0.13029102255E+03 -0.24447915515E+02 -0.10955861751E+03  0.18806777152E+03  0.76111397836E+02 0.  0.
         25    2    1    2    0    0  0.18265739748E+03  0.11443855097E+03  0.29441720501E+03  0.38570608682E+03  0.12501115150E+03 0.  0.
         24    2    1    2    0    0  0.64652555853E+02  0.95652780828E+02 -0.16128449503E+03  0.21380000607E+03  0.79801922289E+02 0.  0.
        -11    1    3    3    0    0  0.53934862613E+02 -0.27251409920E+02 -0.91337148745E+02  0.10951750312E+03  0.00000000000E+00 0.  1.
         12    1    3    3    0    0  0.76356159942E+02  0.28034944053E+01 -0.18221468769E+02  0.78550268402E+02  0.00000000000E+00 0. -1.
        -11    1    5    5    0    0  0.69853220940E+02  0.10565365204E+03 -0.15704806208E+03  0.20175792542E+03  0.00000000000E+00 0.  1.
         12    1    5    5    0    0 -0.52006650879E+01 -0.10000871213E+02 -0.42364329503E+01  0.12042080656E+02  0.00000000000E+00 0. -1.
          5    1    4    4  501    0  0.62201151236E+02 -0.14076933452E+02  0.37378294901E+02  0.74070035778E+02  0.47000000000E+01 0. -1.
         -5    1    4    4    0  501  0.12045624624E+03  0.12851548443E+03  0.25703891011E+03  0.31163605104E+03  0.47000000000E+01 0. -1.
          1    1    1    2  502    0 -0.19408951171E+03 -0.66875967327E+02 -0.34919081897E+04  0.34979373835E+04  0.00000000000E+00 0. -1.
          1    1    1    2  503    0 -0.18351146417E+03 -0.11876744896E+03  0.11117792918E+04  0.11330645869E+04  0.00000000000E+00 0. -1.
<mgrwt>
<rscale>  0 0.17325544E+03</rscale>
<asrwt>0</asrwt>
<pdfrwt beam="1">  1        2 0.22514861E+00 0.21801186E+03</pdfrwt>
<pdfrwt beam="2">  1        2 0.57170077E+00 0.13768722E+03</pdfrwt>
<totfact> 0.18674261E+00</totfact>
</mgrwt>
</event>
<event>
13    1  0.1589573E-008  0.1569109E+03  0.7546771E-02  0.1320253E+00
          2   -1    0    0  502    0  0.00000000000E+00  0.00000000000E+00  0.19859017831E+04  0.19859017831E+04  0.00000000000E+00 0. -1.
          2   -1    0    0  503    0 -0.00000000000E+00 -0.00000000000E+00 -0.31310250332E+04  0.31310250332E+04  0.00000000000E+00 0. -1.
         24    2    1    2    0    0 -0.49239197512E+02  0.14065154546E+02 -0.14335139592E+04  0.14366474527E+04  0.79820454100E+02 0.  0.
         25    2    1    2    0    0 -0.12764936477E+03  0.49009853095E+02  0.11303968155E+03  0.21703328113E+03  0.12501659685E+03 0.  0.
         24    2    1    2    0    0  0.19559535004E+02 -0.39420128005E+01 -0.33751923019E+02  0.89872393237E+02  0.80868658232E+02 0.  0.
        -13    1    5    5    0    0  0.41729758782E+02  0.11398040692E+02 -0.43362954992E+02  0.61250583387E+02  0.00000000000E+00 0.  1.
         14    1    5    5    0    0 -0.22170223779E+02 -0.15340053492E+02  0.96110319725E+01  0.28621809850E+02  0.00000000000E+00 0. -1.
        -13    1    3    3    0    0 -0.48669203024E+01 -0.25648466037E+02 -0.77697219339E+03  0.77741065083E+03  0.00000000000E+00 0.  1.
         14    1    3    3    0    0 -0.44372277209E+02  0.39713620582E+02 -0.65654176584E+03  0.65923680187E+03  0.00000000000E+00 0. -1.
          5    1    4    4  501    0 -0.13073965715E+03 -0.44626914148E+01  0.72016020496E+02  0.14940271341E+03  0.47000000000E+01 0. -1.
         -5    1    4    4    0  501  0.30902923850E+01  0.53472544510E+02  0.41023661049E+02  0.67630567714E+02  0.47000000000E+01 0. -1.
          1    1    1    2  502    0  0.15787881450E+03 -0.15038565287E+02  0.17874193513E+04  0.17944413660E+04  0.00000000000E+00 0. -1.
          1    1    1    2  503    0 -0.54978721874E+00 -0.44094429553E+02 -0.15783164007E+04  0.15789323233E+04  0.00000000000E+00 0. -1.
<mgrwt>
<rscale>  0 0.83183132E+02</rscale>
<asrwt>0</asrwt>
<pdfrwt beam="1">  1        2 0.29204438E+00 0.15691088E+03</pdfrwt>
<pdfrwt beam="2">  1        2 0.46044486E+00 0.44097857E+02</pdfrwt>
<totfact> 0.39157786E+00</totfact>
</mgrwt>
</event>
<event>
13    1  0.1589573E-008  0.1628188E+03  0.7546771E-02  0.1274687E+00
         -1   -1    0    0    0  501 -0.00000000000E+00  0.00000000000E+00  0.37631652362E+03  0.37631652362E+03  0.00000000000E+00 0.  1.
          2   -1    0    0  503    0  0.00000000000E+00 -0.00000000000E+00 -0.28357330780E+04  0.28357330780E+04  0.00000000000E+00 0. -1.
         24    2    1    2    0    0 -0.10145893113E+03  0.21596149538E+03 -0.24205288448E+03  0.34939910472E+03  0.80974399030E+02 0.  0.
         25    2    1    2    0    0  0.17873284699E+03 -0.91765540181E+02 -0.76727009107E+03  0.80292880898E+03  0.12499973873E+03 0.  0.
         24    2    1    2    0    0  0.42914762160E+02 -0.16746206555E+03 -0.25301673220E+03  0.31639975096E+03  0.78778902131E+02 0.  0.
        -13    1    3    3    0    0 -0.74709881468E+02  0.83509136007E+02 -0.76375150999E+02  0.13560422514E+03  0.00000000000E+00 0.  1.
         14    1    3    3    0    0 -0.26749049658E+02  0.13245235938E+03 -0.16567773348E+03  0.21379487958E+03  0.00000000000E+00 0. -1.
        -13    1    5    5    0    0 -0.33821745640E+01 -0.12850416830E+03 -0.15706938780E+03  0.20296687651E+03  0.00000000000E+00 0.  1.
         14    1    5    5    0    0  0.46296936724E+02 -0.38957897256E+02 -0.95947344400E+02  0.11343287445E+03  0.00000000000E+00 0. -1.
          5    1    4    4  502    0  0.10799032850E+03  0.12834448395E+02 -0.39904436664E+03  0.41362438355E+03  0.47000000000E+01 0.  1.
         -5    1    4    4    0  502  0.70742518482E+02 -0.10459998858E+03 -0.36822572443E+03  0.38930442543E+03  0.47000000000E+01 0.  1.
          1    1    1    2  503    0  0.43345768895E+02  0.48166852230E+02 -0.14449065478E+04  0.14463588190E+04  0.00000000000E+00 0. -1.
         -2    1    1    2    0  501 -0.16353444692E+03 -0.49007418802E+01  0.24782970123E+03  0.29696311793E+03  0.00000000000E+00 0.  1.
<mgrwt>
<rscale>  0 0.10271554E+03</rscale>
<asrwt>0</asrwt>
<pdfrwt beam="2">  1        2 0.41701958E+00 0.64798930E+02</pdfrwt>
<pdfrwt beam="1">  1       -1 0.55340664E-01 0.16281878E+03</pdfrwt>
<totfact> 0.14827249E+01</totfact>
</mgrwt>
</event>
<event>
13    1  0.1589573E-008  0.1148597E+03  0.7546771E-02  0.1294984E+00
         -3   -1    0    0    0  501 -0.00000000000E+00  0.00000000000E+00  0.71367852206E+03  0.71367852206E+03  0.00000000000E+00 0.  1.
          2   -1    0    0  503    0  0.00000000000E+00 -0.00000000000E+00 -0.31290051806E+04  0.31290051806E+04  0.00000000000E+00 0. -1.
         24    2    1    2    0    0 -0.33660410558E+02 -0.43189340276E+02  0.88048767479E+02  0.13170288199E+03  0.81207889502E+02 0.  0.
         25    2    1    2    0    0  0.11964987820E+02  0.56588939485E+02 -0.32757227786E+03  0.35534762785E+03  0.12499148128E+03 0.  0.
         24    2    1    2    0    0  0.91639335887E+02 -0.13156429334E+03  0.74363569434E+02  0.19243819562E+03  0.76128756144E+02 0.  0.
        -11    1    3    3    0    0 -0.34907587427E+02 -0.28387604962E+02  0.27033357212E+01  0.45074425115E+02  0.00000000000E+00 0.  1.
         12    1    3    3    0    0  0.12471768695E+01 -0.14801735314E+02  0.85345431758E+02  0.86628456875E+02  0.00000000000E+00 0. -1.
        -13    1    5    5    0    0  0.23743424202E+02 -0.30267442838E+02  0.57715109741E+02  0.69360667393E+02  0.00000000000E+00 0.  1.
         14    1    5    5    0    0  0.67895911685E+02 -0.10129685050E+03  0.16648459693E+02  0.12307752823E+03  0.00000000000E+00 0. -1.
          5    1    4    4  502    0 -0.40040401032E+02 -0.19779486237E+02 -0.96191008144E+02  0.10615677952E+03  0.47000000000E+01 0. -1.
         -5    1    4    4    0  502  0.52005388852E+02  0.76368425721E+02 -0.23138126971E+03  0.24919084833E+03  0.47000000000E+01 0. -1.
          1    1    1    2  503    0 -0.61973658255E+02 -0.43706008562E+02 -0.26917461802E+04  0.26928142246E+04  0.00000000000E+00 0. -1.
         -4    1    1    2    0  501 -0.79702548942E+01  0.16187070269E+03  0.44157946266E+03  0.47038077256E+03  0.00000000000E+00 0.  1.
<mgrwt>
<rscale>  0 0.93329455E+02</rscale>
<asrwt>0</asrwt>
<pdfrwt beam="2">  1        2 0.46014782E+00 0.75835015E+02</pdfrwt>
<pdfrwt beam="1">  1       -3 0.10495272E+00 0.11485970E+03</pdfrwt>
<totfact> 0.12837952E+00</totfact>
</mgrwt>
</event>
<event>
13    1  0.1589573E-008  0.1928026E+03  0.7546771E-02  0.1221510E+00
          2   -1    0    0  502    0  0.00000000000E+00  0.00000000000E+00  0.30372241048E+04  0.30372241048E+04  0.00000000000E+00 0. -1.
          2   -1    0    0  503    0 -0.00000000000E+00 -0.00000000000E+00 -0.11585358013E+04  0.11585358013E+04  0.00000000000E+00 0. -1.
         24    2    1    2    0    0 -0.74025668830E+02 -0.14889267362E+03 -0.42712147397E+03  0.46579713839E+03  0.82978266430E+02 0.  0.
         25    2    1    2    0    0  0.11371962222E+03  0.10543123800E+02 -0.22295567885E+03  0.27996125272E+03  0.12500303339E+03 0.  0.
         24    2    1    2    0    0  0.56250538659E+02 -0.35827115781E+02  0.21405235918E+02  0.10751260556E+03  0.81566358908E+02 0.  0.
        -13    1    3    3    0    0 -0.87925728236E+02 -0.93019427088E+02 -0.30575878677E+03  0.33146943025E+03  0.00000000000E+00 0.  1.
         14    1    3    3    0    0  0.13900059406E+02 -0.55873246535E+02 -0.12136268720E+03  0.13432770814E+03  0.00000000000E+00 0. -1.
        -13    1    5    5    0    0  0.58081285443E+02 -0.91605753335E+01  0.43249805638E+02  0.72992448560E+02  0.00000000000E+00 0.  1.
         14    1    5    5    0    0 -0.18307467841E+01 -0.26666540447E+02 -0.21844569720E+02  0.34520157002E+02  0.00000000000E+00 0. -1.
          5    1    4    4  501    0  0.10509382966E+03 -0.34211116124E+02 -0.20036784394E+03  0.22887655272E+03  0.47000000000E+01 0. -1.
         -5    1    4    4    0  501  0.86257925637E+01  0.44754239924E+02 -0.22587834910E+02  0.51084700004E+02  0.47000000000E+01 0. -1.
          1    1    1    2  502    0 -0.46225238708E+01  0.19307360292E+03  0.29164838317E+04  0.29228713151E+04  0.00000000000E+00 0. -1.
          1    1    1    2  503    0 -0.91321968178E+02 -0.18896937311E+02 -0.40912361132E+03  0.41961759431E+03  0.00000000000E+00 0. -1.
<mgrwt>
<rscale>  0 0.13408997E+03</rscale>
<asrwt>0</asrwt>
<pdfrwt beam="1">  1        2 0.44665060E+00 0.19280263E+03</pdfrwt>
<pdfrwt beam="2">  1        2 0.17037291E+00 0.93256614E+02</pdfrwt>
<totfact> 0.93906832E+00</totfact>
</mgrwt>
</event>
<event>
13    1  0.1589573E-008  0.2233059E+03  0.7546771E-02  0.1283489E+00
          2   -1    0    0  503    0  0.00000000000E+00  0.00000000000E+00  0.21814854287E+04  0.21814854287E+04  0.00000000000E+00 0. -1.
          2   -1    0    0  502    0 -0.00000000000E+00 -0.00000000000E+00 -0.23908093402E+04  0.23908093402E+04  0.00000000000E+00 0. -1.
         24    2    1    2    0    0 -0.94796513396E+02 -0.11573205434E+02 -0.18395242554E+03  0.22232544516E+03  0.80435008978E+02 0.  0.
         25    2    1    2    0    0  0.28700061834E+03 -0.11628014785E+03  0.84852936107E+03  0.91187614550E+03  0.12500240168E+03 0.  0.
         24    2    1    2    0    0  0.11676150188E+03  0.13099497495E+02 -0.11400915818E+03  0.18369678965E+03  0.83316128232E+02 0.  0.
        -11    1    5    5    0    0 -0.12510784238E+02  0.54949716768E+01 -0.54292230100E+01  0.14703431520E+02  0.00000000000E+00 0.  1.
         12    1    5    5    0    0  0.12927228612E+03  0.76045258186E+01 -0.10857993517E+03  0.16899335813E+03  0.00000000000E+00 0. -1.
        -13    1    3    3    0    0 -0.98489275045E+02 -0.29947601451E+02 -0.13402424010E+03  0.16899554156E+03  0.00000000000E+00 0.  1.
         14    1    3    3    0    0  0.36927616493E+01  0.18374396016E+02 -0.49928185433E+02  0.53329903602E+02  0.00000000000E+00 0. -1.
          5    1    4    4  501    0  0.55721625634E+02 -0.74129710700E+02  0.32423143236E+03  0.33726580809E+03  0.47000000000E+01 0. -1.
         -5    1    4    4    0  501  0.23127899270E+03 -0.42150437152E+02  0.52429792871E+03  0.57461033742E+03  0.47000000000E+01 0. -1.
          1    1    1    2  502    0 -0.28897074987E+03  0.15332467851E+03 -0.19934301214E+04  0.20200931167E+04  0.00000000000E+00 0. -1.
          1    1    1    2  503    0 -0.19994856945E+02 -0.38570822719E+02  0.12335384325E+04  0.12343032719E+04  0.00000000000E+00 0. -1.
<mgrwt>
<rscale>  0 0.98496779E+02</rscale>
<asrwt>0</asrwt>
<pdfrwt beam="1">  1        2 0.32080668E+00 0.43445399E+02</pdfrwt>
<pdfrwt beam="2">  1        2 0.35158961E+00 0.22330594E+03</pdfrwt>
<totfact> 0.69334660E+00</totfact>
</mgrwt>
</event>
<event>
13    1  0.1589573E-008  0.4041717E+03  0.7546771E-02  0.1172315E+00
          2   -1    0    0  502    0  0.00000000000E+00  0.00000000000E+00  0.23527505319E+04  0.23527505319E+04  0.00000000000E+00 0. -1.
          2   -1    0    0  503    0 -0.00000000000E+00 -0.00000000000E+00 -0.23557953393E+04  0.23557953393E+04  0.00000000000E+00 0. -1.
         24    2    1    2    0    0 -0.23574437548E+02  0.70472538797E+02  0.65218837691E+02  0.12807295500E+03  0.81406708468E+02 0.  0.
         25    2    1    2    0    0  0.74804229035E+02  0.29252141915E+03 -0.43797723496E+03  0.54645566254E+03  0.12500111775E+03 0.  0.
         24    2    1    2    0    0  0.47225780023E+02  0.75034697162E+02 -0.15222218946E+03  0.19388936479E+03  0.81000066272E+02 0.  0.
        -13    1    5    5    0    0  0.11065317027E+02  0.24161559093E+02  0.28504077714E+01  0.26727270777E+02  0.00000000000E+00 0.  1.
         14    1    5    5    0    0  0.36160462996E+02  0.50873138068E+02 -0.15507259724E+03  0.16716209401E+03  0.00000000000E+00 0. -1.
        -13    1    3    3    0    0 -0.20248971572E+02  0.86668171649E+02  0.67058874402E+02  0.11143736116E+03  0.00000000000E+00 0.  1.
         14    1    3    3    0    0 -0.33254659757E+01 -0.16195632851E+02 -0.18400367105E+01  0.16635593843E+02  0.00000000000E+00 0. -1.
          5    1    4    4  501    0 -0.13464552562E+02  0.19298975851E+03 -0.25119000991E+03  0.31708808262E+03  0.47000000000E+01 0. -1.
         -5    1    4    4    0  501  0.88268781597E+02  0.99531660643E+02 -0.18678722505E+03  0.22936757992E+03  0.47000000000E+01 0. -1.
          1    1    1    2  502    0 -0.69901379034E+02  0.30165665298E+02  0.21471899176E+04  0.21485392043E+04  0.00000000000E+00 0. -1.
          1    1    1    2  503    0 -0.28554192476E+02 -0.46819432041E+03 -0.16252541383E+04  0.16915886845E+04  0.00000000000E+00 0. -1.
<mgrwt>
<rscale>  0 0.17541560E+03</rscale>
<asrwt>0</asrwt>
<pdfrwt beam="1">  1        2 0.34599272E+00 0.76132583E+02</pdfrwt>
<pdfrwt beam="2">  1        2 0.34644049E+00 0.40417165E+03</pdfrwt>
<totfact> 0.52341854E+00</totfact>
</mgrwt>
</event>
<event>
13    1  0.1589573E-008  0.5139919E+02  0.7546771E-02  0.1448205E+00
          2   -1    0    0  503    0  0.00000000000E+00  0.00000000000E+00  0.11231482991E+04  0.11231482991E+04  0.00000000000E+00 0. -1.
          2   -1    0    0  502    0 -0.00000000000E+00 -0.00000000000E+00 -0.20258032560E+04  0.20258032560E+04  0.00000000000E+00 0. -1.
         24    2    1    2    0    0  0.71353264441E+02 -0.22086011978E+03 -0.66255986116E+03  0.70658542019E+03  0.80043148015E+02 0.  0.
         25    2    1    2    0    0 -0.14090304599E+03  0.30452414745E+02  0.31426153305E+03  0.36764850934E+03  0.12499638929E+03 0.  0.
         24    2    1    2    0    0  0.50699054807E+02  0.21883972663E+03 -0.13780431691E+03  0.27584428416E+03  0.81478949633E+02 0.  0.
        -13    1    3    3    0    0  0.25552578448E+01 -0.23615248734E+02 -0.20430313636E+02  0.31330608527E+02  0.00000000000E+00 0.  1.
         14    1    3    3    0    0  0.68798006596E+02 -0.19724487104E+03 -0.64212954753E+03  0.67525481166E+03  0.00000000000E+00 0. -1.
        -13    1    5    5    0    0 -0.14051366197E+02  0.11541696445E+03 -0.56953826997E+02  0.12946912754E+03  0.00000000000E+00 0.  1.
         14    1    5    5    0    0  0.64750421005E+02  0.10342276218E+03 -0.80850489909E+02  0.14637515662E+03  0.00000000000E+00 0. -1.
          5    1    4    4  501    0 -0.50683976159E+02  0.41456405391E+00  0.24418553968E+03  0.24943477122E+03  0.47000000000E+01 0.  1.
         -5    1    4    4    0  501 -0.90219069828E+02  0.30037850692E+02  0.70075993366E+02  0.11821373812E+03  0.47000000000E+01 0.  1.
          1    1    1    2  502    0 -0.32148638308E+02 -0.35128735616E+02 -0.11062429004E+04  0.11072673199E+04  0.00000000000E+00 0. -1.
          1    1    1    2  503    0  0.50999365046E+02  0.66967140133E+01  0.68969058852E+03  0.69160602160E+03  0.00000000000E+00 0. -1.
<mgrwt>
<rscale>  0 0.49472967E+02</rscale>
<asrwt>0</asrwt>
<pdfrwt beam="1">  1        2 0.16516887E+00 0.51399186E+02</pdfrwt>
<pdfrwt beam="2">  1        2 0.29791224E+00 0.47618935E+02</pdfrwt>
<totfact> 0.39155356E+01</totfact>
</mgrwt>
</event>
<event>
13    1  0.1589573E-008  0.2767483E+02  0.7546771E-02  0.1632412E+00
          2   -1    0    0  503    0  0.00000000000E+00  0.00000000000E+00  0.26908294934E+04  0.26908294934E+04  0.00000000000E+00 0. -1.
          2   -1    0    0  502    0 -0.00000000000E+00 -0.00000000000E+00 -0.27033003863E+04  0.27033003863E+04  0.00000000000E+00 0. -1.
         24    2    1    2    0    0 -0.12463616228E+04 -0.61039746854E+03 -0.63666346748E+03  0.15294740201E+04  0.89151797241E+02 0.  0.
         25    2    1    2    0    0  0.51334759045E+03 -0.41091422988E+02  0.58056999851E+03  0.78606600484E+03  0.12499594843E+03 0.  0.
         24    2    1    2    0    0  0.68191354278E+03  0.65910941571E+03  0.60401479110E+02  0.95368271290E+03  0.80193992978E+02 0.  0.
        -11    1    3    3    0    0 -0.44196045925E+03 -0.18076962057E+03 -0.18853352092E+03  0.51337276103E+03  0.00000000000E+00 0.  1.
         12    1    3    3    0    0 -0.80440116354E+03 -0.42962784797E+03 -0.44812994656E+03  0.10161012591E+04  0.00000000000E+00 0. -1.
        -13    1    5    5    0    0  0.38220574197E+03  0.34493810600E+03 -0.31838596473E+01  0.51485305003E+03  0.00000000000E+00 0.  1.
         14    1    5    5    0    0  0.29970780081E+03  0.31417130971E+03  0.63585338758E+02  0.43882966287E+03  0.00000000000E+00 0. -1.
          5    1    4    4  501    0  0.18523519571E+03 -0.19517759877E+02  0.30312673870E+03  0.35581024493E+03  0.47000000000E+01 0. -1.
         -5    1    4    4    0  501  0.32811239474E+03 -0.21573663111E+02  0.27744325982E+03  0.43025575991E+03  0.47000000000E+01 0. -1.
          1    1    1    2  502    0  0.27343811685E+02  0.42522288976E+01 -0.10704968987E+04  0.10708545073E+04  0.00000000000E+00 0. -1.
          1    1    1    2  503    0  0.23756677866E+02 -0.11872753075E+02  0.10537179957E+04  0.10540526346E+04  0.00000000000E+00 0. -1.
<mgrwt>
<rscale>  0 0.27110807E+02</rscale>
<asrwt>0</asrwt>
<pdfrwt beam="1">  1        2 0.39571022E+00 0.26558276E+02</pdfrwt>
<pdfrwt beam="2">  1        2 0.39754417E+00 0.27674833E+02</pdfrwt>
<totfact> 0.40113447E+00</totfact>
</mgrwt>
</event>
<event>
13    1  0.1589573E-008  0.6676735E+02  0.7546771E-02  0.1414260E+00
          2   -1    0    0  502    0  0.00000000000E+00  0.00000000000E+00  0.11879478970E+03  0.11879478970E+03  0.00000000000E+00 0. -1.
          2   -1    0    0  503    0 -0.00000000000E+00 -0.00000000000E+00 -0.43547388675E+04  0.43547388675E+04  0.00000000000E+00 0. -1.
         24    2    1    2    0    0 -0.90132242086E+02 -0.99700589382E+02 -0.23647500274E+04  0.23700710238E+04  0.84438956210E+02 0.  0.
         25    2    1    2    0    0  0.24597771234E+03  0.98003331791E+02 -0.50792976108E+03  0.58628286715E+03  0.12500108046E+03 0.  0.
         24    2    1    2    0    0 -0.10123846821E+03  0.54452053669E+02 -0.20895014765E+03  0.25165881375E+03  0.80360069319E+02 0.  0.
        -11    1    3    3    0    0 -0.25039940024E+02  0.10709522087E+02 -0.26008128899E+03  0.26150328744E+03  0.00000000000E+00 0.  1.
         12    1    3    3    0    0 -0.65092302062E+02 -0.11041011147E+03 -0.21046687384E+04  0.21085677364E+04  0.00000000000E+00 0. -1.
        -13    1    5    5    0    0 -0.36669115363E+02  0.63185346945E+02 -0.13164562494E+03  0.15055757256E+03  0.00000000000E+00 0.  1.
         14    1    5    5    0    0 -0.64569352843E+02 -0.87332932760E+01 -0.77304522715E+02  0.10110124119E+03  0.00000000000E+00 0. -1.
          5    1    4    4  501    0  0.21585917377E+03  0.75593087501E+02 -0.31283268853E+03  0.38755113055E+03  0.47000000000E+01 0.  1.
         -5    1    4    4    0  501  0.30118538567E+02  0.22410244290E+02 -0.19509707255E+03  0.19873173660E+03  0.47000000000E+01 0.  1.
          1    1    1    2  502    0 -0.91527319161E+01 -0.66182015408E+02  0.34889544454E+02  0.75373151567E+02  0.00000000000E+00 0. -1.
          1    1    1    2  503    0 -0.45454270132E+02  0.13427219329E+02 -0.11892036861E+04  0.11901478009E+04  0.00000000000E+00 0. -1.
<mgrwt>
<rscale>  0 0.56253935E+02</rscale>
<asrwt>0</asrwt>
<pdfrwt beam="1">  1        2 0.17469825E-01 0.66767346E+02</pdfrwt>
<pdfrwt beam="2">  1        2 0.64040266E+00 0.47396001E+02</pdfrwt>
<totfact> 0.23514159E+01</totfact>
</mgrwt>
</event>
<event>
13    1  0.1589573E-008  0.8159910E+02  0.7546771E-02  0.1438417E+00
          2   -1    0    0  503    0  0.00000000000E+00  0.00000000000E+00  0.49333169933E+03  0.49333169933E+03  0.00000000000E+00 0. -1.
          2   -1    0    0  502    0 -0.00000000000E+00 -0.00000000000E+00 -0.28015488861E+04  0.28015488861E+04  0.00000000000E+00 0. -1.
         24    2    1    2    0    0 -0.44779794692E+02 -0.38750500590E+02 -0.25889305531E+03  0.27807913491E+03  0.82435185911E+02 0.  0.
         25    2    1    2    0    0 -0.41984535750E+02 -0.21811735438E+02 -0.70457510533E+02  0.15108081637E+03  0.12499079662E+03 0.  0.
         24    2    1    2    0    0  0.32208106116E+02 -0.26875422149E+02  0.24656143479E+03  0.26272386915E+03  0.80446503235E+02 0.  0.
        -11    1    5    5    0    0  0.51516073180E+02  0.65554897894E+01  0.13296805679E+03  0.14274937607E+03  0.00000000000E+00 0.  1.
         12    1    5    5    0    0 -0.19307967064E+02 -0.33430911938E+02  0.11359337800E+03  0.11997449308E+03  0.00000000000E+00 0. -1.
        -13    1    3    3    0    0 -0.14402593606E+02 -0.60734996389E+02 -0.13701889660E+03  0.15056677095E+03  0.00000000000E+00 0.  1.
         14    1    3    3    0    0 -0.30377201086E+02  0.21984495799E+02 -0.12187415871E+03  0.12751236396E+03  0.00000000000E+00 0. -1.
          5    1    4    4  501    0 -0.23441740052E+02 -0.48948346924E+02  0.17377933912E+02  0.57179877845E+02  0.47000000000E+01 0. -1.
         -5    1    4    4    0  501 -0.18542795698E+02  0.27136611486E+02 -0.87835444445E+02  0.93900938526E+02  0.47000000000E+01 0. -1.
          1    1    1    2  502    0  0.25297116308E+02  0.10102552195E+03 -0.24117021673E+04  0.24139497600E+04  0.00000000000E+00 0. -1.
          1    1    1    2  503    0  0.29259108019E+02 -0.13587863772E+02  0.18627411158E+03  0.18904700498E+03  0.00000000000E+00 0. -1.
<mgrwt>
<rscale>  0 0.51307012E+02</rscale>
<asrwt>0</asrwt>
<pdfrwt beam="1">  1        2 0.72548780E-01 0.32260277E+02</pdfrwt>
<pdfrwt beam="2">  1        2 0.41199248E+00 0.81599098E+02</pdfrwt>
<totfact> 0.40064301E+01</totfact>
</mgrwt>
</event>
<event>
13    1  0.1589573E-008  0.3294356E+03  0.7546771E-02  0.1239057E+00
          2   -1    0    0  503    0  0.00000000000E+00  0.00000000000E+00  0.79711598870E+03  0.79711598870E+03  0.00000000000E+00 0. -1.
          2   -1    0    0  502    0 -0.00000000000E+00 -0.00000000000E+00 -0.27978967584E+04  0.27978967584E+04  0.00000000000E+00 0. -1.
         24    2    1    2    0    0  0.99503387730E+02  0.18655692501E+03 -0.23353819285E+03  0.32635882886E+03  0.85238413955E+02 0.  0.
         25    2    1    2    0    0 -0.20760591104E+02 -0.48622955565E+03  0.38294814000E+03  0.63176075581E+03  0.12498876638E+03 0.  0.
         24    2    1    2    0    0 -0.28543101005E+02  0.47266956693E+01  0.25252209190E+02  0.89450454064E+02  0.80787742859E+02 0.  0.
        -13    1    5    5    0    0 -0.34738914020E+01 -0.36893277143E+02  0.81553284388E+01  0.37943262930E+02  0.00000000000E+00 0.  1.
         14    1    5    5    0    0 -0.25069209603E+02  0.41619972813E+02  0.17096880752E+02  0.51507191134E+02  0.00000000000E+00 0. -1.
        -13    1    3    3    0    0  0.62477382868E+02  0.35883789774E+02 -0.86776518323E+02  0.11278844742E+03  0.00000000000E+00 0.  1.
         14    1    3    3    0    0  0.37026004862E+02  0.15067313524E+03 -0.14676167453E+03  0.21357038144E+03  0.00000000000E+00 0. -1.
          5    1    4    4  501    0 -0.72509899322E+02 -0.24318631812E+03  0.20040594815E+03  0.32339125664E+03  0.47000000000E+01 0. -1.
         -5    1    4    4    0  501  0.51749308218E+02 -0.24304323753E+03  0.18254219185E+03  0.30836949917E+03  0.47000000000E+01 0. -1.
          1    1    1    2  502    0 -0.95483510522E+02  0.29975404555E+03 -0.23479981386E+04  0.23689797060E+04  0.00000000000E+00 0. -1.
          1    1    1    2  503    0  0.45283814901E+02 -0.48081105792E+01  0.17255521258E+03  0.17846300235E+03  0.00000000000E+00 0. -1.
<mgrwt>
<rscale>  0 0.12248247E+03</rscale>
<asrwt>0</asrwt>
<pdfrwt beam="1">  1        2 0.11722294E+00 0.45538355E+02</pdfrwt>
<pdfrwt beam="2">  1        2 0.41145540E+00 0.32943561E+03</pdfrwt>
<totfact> 0.19685609E+01</totfact>
</mgrwt>
</event>
<event>
13    1  0.1589573E-008  0.9070983E+02  0.7546771E-02  0.1324969E+00
          2   -1    0    0  503    0  0.00000000000E+00  0.00000000000E+00  0.49829138068E+03  0.49829138068E+03  0.00000000000E+00 0. -1.
          2   -1    0    0  502    0 -0.00000000000E+00 -0.00000000000E+00 -0.40173574231E+04  0.40173574231E+04  0.00000000000E+00 0. -1.
         24    2    1    2    0    0 -0.96439925723E+02 -0.37048283580E+03 -0.20684506853E+04  0.21046343085E+04  0.66626902987E+02 0.  0.
         25    2    1    2    0    0 -0.31089838011E+03  0.16047193567E+03 -0.29413060049E+02  0.37269184460E+03  0.12500015213E+03 0.  0.
         24    2    1    2    0    0  0.27220218292E+03  0.26263477858E+03 -0.48215700776E+03  0.61885060382E+03  0.86195327057E+02 0.  0.
        -11    1    3    3    0    0 -0.52013722685E+02 -0.17393567739E+03 -0.80516041349E+03  0.82537405984E+03  0.00000000000E+00 0.  1.
         12    1    3    3    0    0 -0.44426203039E+02 -0.19654715841E+03 -0.12632902718E+04  0.12792602486E+04  0.00000000000E+00 0. -1.
        -13    1    5    5    0    0  0.23482984044E+03  0.19374333354E+03 -0.33893240645E+03  0.45558392135E+03  0.00000000000E+00 0.  1.
         14    1    5    5    0    0  0.37372342475E+02  0.68891445035E+02 -0.14322460132E+03  0.16326668247E+03  0.00000000000E+00 0. -1.
          5    1    4    4  501    0 -0.11644387106E+03  0.83793623574E+02 -0.70022225497E+02  0.15970519253E+03  0.47000000000E+01 0.  1.
         -5    1    4    4    0  501 -0.19445450906E+03  0.76678312099E+02  0.40609165449E+02  0.21298665207E+03  0.47000000000E+01 0.  1.
          1    1    1    2  502    0  0.44704399832E+02 -0.57896084036E+02 -0.11695352546E+04  0.11718204434E+04  0.00000000000E+00 0. -1.
          1    1    1    2  503    0  0.90431723090E+02  0.52722055832E+01  0.23048996516E+03  0.24765160354E+03  0.00000000000E+00 0. -1.
<mgrwt>
<rscale>  0 0.81456275E+02</rscale>
<asrwt>0</asrwt>
<pdfrwt beam="1">  1        2 0.73278148E-01 0.90709829E+02</pdfrwt>
<pdfrwt beam="2">  1        2 0.59078783E+00 0.73146701E+02</pdfrwt>
<totfact> 0.79625413E+00</totfact>
</mgrwt>
</event>
<event>
13    1  0.1589573E-008  0.1759690E+03  0.7546771E-02  0.1263374E+00
          2   -1    0    0  502    0  0.00000000000E+00  0.00000000000E+00  0.18679216488E+04  0.18679216488E+04  0.00000000000E+00 0. -1.
          2   -1    0    0  503    0 -0.00000000000E+00 -0.00000000000E+00 -0.30880207877E+04  0.30880207877E+04  0.00000000000E+00 0. -1.
         24    2    1    2    0    0  0.10703605526E+02  0.83055416016E+02 -0.67230858783E+03  0.68234246934E+03  0.81114973321E+02 0.  0.
         25    2    1    2    0    0  0.50455116168E+01  0.27323039775E+02  0.11928210801E+03  0.17499363223E+03  0.12499017697E+03 0.  0.
         24    2    1    2    0    0 -0.22269713587E+02 -0.38824394600E+00 -0.36129716044E+01  0.91065327676E+02  0.88225560153E+02 0.  0.
        -11    1    3    3    0    0 -0.17914329846E+02  0.85939242784E+02 -0.51370259945E+03  0.52114953453E+03  0.00000000000E+00 0.  1.
         12    1    3    3    0    0  0.28617935372E+02 -0.28838267678E+01 -0.15860598839E+03  0.16119293481E+03  0.00000000000E+00 0. -1.
        -13    1    5    5    0    0  0.32897920613E+02  0.74572147646E+01  0.67128597928E+01  0.34393977951E+02  0.00000000000E+00 0.  1.
         14    1    5    5    0    0 -0.55167634200E+02 -0.78454587106E+01 -0.10325831397E+02  0.56671349725E+02  0.00000000000E+00 0. -1.
          5    1    4    4  501    0 -0.48401609722E+02  0.48780768130E+02  0.52005003648E+02  0.86306949706E+02  0.47000000000E+01 0. -1.
         -5    1    4    4    0  501  0.53447121339E+02 -0.21457728355E+02  0.67277104362E+02  0.88686682523E+02  0.47000000000E+01 0. -1.
          1    1    1    2  502    0  0.39861194577E+00 -0.17660865060E+03  0.16668957104E+04  0.16762255468E+04  0.00000000000E+00 0. -1.
          1    1    1    2  503    0  0.61219844981E+01  0.66618438759E+02 -0.23303553979E+04  0.23313154604E+04  0.00000000000E+00 0. -1.
<mgrwt>
<rscale>  0 0.10849966E+03</rscale>
<asrwt>0</asrwt>
<pdfrwt beam="1">  1        2 0.27469437E+00 0.17596903E+03</pdfrwt>
<pdfrwt beam="2">  1        2 0.45412070E+00 0.66899141E+02</pdfrwt>
<totfact> 0.43407280E+00</totfact>
</mgrwt>
</event>
<event>
13    1  0.1589573E-008  0.1092385E+03  0.7546771E-02  0.1423425E+00
          2   -1    0    0  503    0  0.00000000000E+00  0.00000000000E+00  0.24800681790E+04  0.24800681790E+04  0.00000000000E+00 0. -1.
          2   -1    0    0  502    0 -0.00000000000E+00 -0.00000000000E+00 -0.27282347528E+04  0.27282347528E+04  0.00000000000E+00 0. -1.
         24    2    1    2    0    0 -0.11643293916E+02 -0.19048898451E+03 -0.61016645912E+03  0.64434608970E+03  0.80356430783E+02 0.  0.
         25    2    1    2    0    0 -0.41657334747E+03 -0.27948350274E+03 -0.28242585244E+03  0.58909609498E+03  0.12500185946E+03 0.  0.
         24    2    1    2    0    0  0.39200477462E+03  0.54400341058E+03  0.51020907359E+03  0.84644246799E+03  0.80895604267E+02 0.  0.
        -11    1    3    3    0    0 -0.13608756653E+02 -0.14742368695E+03 -0.34104748544E+03  0.37179608532E+03  0.00000000000E+00 0.  1.
         12    1    3    3    0    0  0.19654627374E+01 -0.43065297567E+02 -0.26911897367E+03  0.27255000438E+03  0.00000000000E+00 0. -1.
        -13    1    5    5    0    0  0.34884519572E+03  0.48257402068E+03  0.48254086894E+03  0.76643091418E+03  0.00000000000E+00 0.  1.
         14    1    5    5    0    0  0.43159578893E+02  0.61429389896E+02  0.27668204651E+02  0.80011553802E+02  0.00000000000E+00 0. -1.
          5    1    4    4  501    0 -0.99136235219E+02 -0.20779466388E+02 -0.94110144386E+02  0.13834228794E+03  0.47000000000E+01 0.  1.
         -5    1    4    4    0  501 -0.31743711225E+03 -0.25870403636E+03 -0.18831570805E+03  0.45075380704E+03  0.47000000000E+01 0.  1.
          1    1    1    2  502    0 -0.14507926338E+02  0.22764065433E+02 -0.14951487594E+04  0.14953924218E+04  0.00000000000E+00 0. -1.
          1    1    1    2  503    0  0.50719793107E+02 -0.96794988755E+02  0.16293654235E+04  0.16330258573E+04  0.00000000000E+00 0. -1.
<mgrwt>
<rscale>  0 0.54302822E+02</rscale>
<asrwt>0</asrwt>
<pdfrwt beam="1">  1        2 0.36471591E+00 0.10923847E+03</pdfrwt>
<pdfrwt beam="2">  1        2 0.40121099E+00 0.26994122E+02</pdfrwt>
<totfact> 0.40409171E+00</totfact>
</mgrwt>
</event>
<event>
13    1  0.1589573E-008  0.9135067E+02  0.7546771E-02  0.1474045E+00
          2   -1    0    0  503    0  0.00000000000E+00  0.00000000000E+00  0.17796203418E+04  0.17796203418E+04  0.00000000000E+00 0. -1.
         -1   -1    0    0    0  501 -0.00000000000E+00 -0.00000000000E+00 -0.18643236891E+03  0.18643236891E+03  0.00000000000E+00 0.  1.
         24    2    1    2    0    0 -0.56831961087E+01  0.40405592786E+02 -0.16706120887E+02  0.90108131169E+02  0.78584159862E+02 0.  0.
         25    2    1    2    0    0  0.85037314447E+02  0.75633674143E+02  0.85412632405E+03  0.87069369683E+03  0.12499575493E+03 0.  0.
         24    2    1    2    0    0 -0.99671794137E+01 -0.79099050257E+02  0.19159210815E+03  0.22173672892E+03  0.78125774427E+02 0.  0.
        -13    1    3    3    0    0  0.35040694037E+01 -0.23581235801E+02 -0.30015768188E+01  0.24028371724E+02  0.00000000000E+00 0.  1.
         14    1    3    3    0    0 -0.91872655124E+01  0.63986828587E+02 -0.13704544068E+02  0.66079759445E+02  0.00000000000E+00 0. -1.
        -13    1    5    5    0    0 -0.31581000589E+02 -0.64038342935E+02  0.80676586689E+02  0.10773569791E+03  0.00000000000E+00 0.  1.
         14    1    5    5    0    0  0.21613821175E+02 -0.15060707322E+02  0.11091552146E+03  0.11400103101E+03  0.00000000000E+00 0. -1.
          5    1    4    4  502    0  0.38487340117E+02 -0.32814844979E+02  0.24102496701E+03  0.24631933363E+03  0.47000000000E+01 0. -1.
         -5    1    4    4    0  502  0.46549974329E+02  0.10844851912E+03  0.61310135704E+03  0.62437436320E+03  0.47000000000E+01 0. -1.
          1    1    1    2  503    0  0.21301807505E+02 -0.63010981259E+01  0.65273163767E+03  0.65310953266E+03  0.00000000000E+00 0. -1.
         -2    1    1    2    0  501 -0.90688746429E+02 -0.30639118546E+02 -0.88555976083E+02  0.13040462114E+03  0.00000000000E+00 0.  1.
<mgrwt>
<rscale>  0 0.45047556E+02</rscale>
<asrwt>0</asrwt>
<pdfrwt beam="1">  1        2 0.26170886E+00 0.22214204E+02</pdfrwt>
<pdfrwt beam="2">  1       -1 0.27416526E-01 0.91350666E+02</pdfrwt>
<totfact> 0.18215919E+02</totfact>
</mgrwt>
</event>
<event>
13    1  0.1589573E-008  0.1549960E+03  0.7546771E-02  0.1345161E+00
          2   -1    0    0  502    0  0.00000000000E+00  0.00000000000E+00  0.17771281108E+04  0.17771281108E+04  0.00000000000E+00 0. -1.
          2   -1    0    0  503    0 -0.00000000000E+00 -0.00000000000E+00 -0.13958495738E+04  0.13958495738E+04  0.00000000000E+00 0. -1.
         24    2    1    2    0    0 -0.75464215605E+02  0.63936804584E+01 -0.99260152251E+03  0.99871646444E+03  0.80256257415E+02 0.  0.
         25    2    1    2    0    0  0.60110785737E+02  0.14138585536E+03  0.31193720684E+03  0.36950141755E+03  0.12499283939E+03 0.  0.
         24    2    1    2    0    0  0.58681851786E+01  0.10799213464E+03  0.61351018655E+02  0.15008493492E+03  0.84052385209E+02 0.  0.
        -11    1    3    3    0    0  0.16682711845E+02 -0.36882735362E+01 -0.12118347365E+03  0.12238198610E+03  0.00000000000E+00 0.  1.
         12    1    3    3    0    0 -0.92146927450E+02  0.10081953995E+02 -0.87141804887E+03  0.87633447834E+03  0.00000000000E+00 0. -1.
        -13    1    5    5    0    0 -0.30557447964E+02  0.86534088439E+02  0.27138528306E+02  0.95699560117E+02  0.00000000000E+00 0.  1.
         14    1    5    5    0    0  0.36425633143E+02  0.21458046196E+02  0.34212490349E+02  0.54385374802E+02  0.00000000000E+00 0. -1.
          5    1    4    4  501    0 -0.11369930963E+02  0.15213546069E+02  0.15320922266E+03  0.15445349857E+03  0.47000000000E+01 0. -1.
         -5    1    4    4    0  501  0.71480716700E+02  0.12617230929E+03  0.15872798418E+03  0.21504791897E+03  0.47000000000E+01 0. -1.
          1    1    1    2  502    0  0.12828667758E+02 -0.33519666039E+02  0.12895865824E+04  0.12900859259E+04  0.00000000000E+00 0. -1.
          1    1    1    2  503    0 -0.33434230684E+01 -0.22225200442E+03 -0.28899474836E+03  0.36458894186E+03  0.00000000000E+00 0. -1.
<mgrwt>
<rscale>  0 0.74584953E+02</rscale>
<asrwt>0</asrwt>
<pdfrwt beam="1">  1        2 0.26134237E+00 0.35890705E+02</pdfrwt>
<pdfrwt beam="2">  1        2 0.20527200E+00 0.15499599E+03</pdfrwt>
<totfact> 0.35356902E+01</totfact>
</mgrwt>
</event>
<event>
13    1  0.1589573E-008  0.1119335E+03  0.7546771E-02  0.1337813E+00
          2   -1    0    0  503    0  0.00000000000E+00  0.00000000000E+00  0.55646054105E+03  0.55646054105E+03  0.00000000000E+00 0. -1.
          2   -1    0    0  502    0 -0.00000000000E+00 -0.00000000000E+00 -0.26566190180E+04  0.26566190180E+04  0.00000000000E+00 0. -1.
         24    2    1    2    0    0 -0.45824152868E+02  0.73615714582E+01 -0.40333128668E+03  0.41447660378E+03  0.83430705077E+02 0.  0.
         25    2    1    2    0    0  0.74789298567E+02  0.36876312815E+02  0.20768888247E+03  0.25634423092E+03  0.12499756476E+03 0.  0.
         24    2    1    2    0    0  0.17044456302E+02  0.97160128765E+02 -0.85555772532E+02  0.15390008685E+03  0.81454541958E+02 0.  0.
        -11    1    5    5    0    0  0.15917847851E+02  0.11004140756E+03 -0.86592451200E+02  0.14092814433E+03  0.00000000000E+00 0.  1.
         12    1    5    5    0    0  0.11266084512E+01 -0.12881278798E+02  0.10366786675E+01  0.12971942520E+02  0.00000000000E+00 0. -1.
        -13    1    3    3    0    0 -0.32580125799E+02 -0.35876267982E+02 -0.24828424495E+03  0.25296963749E+03  0.00000000000E+00 0.  1.
         14    1    3    3    0    0 -0.13244027070E+02  0.43237839441E+02 -0.15504704173E+03  0.16150696629E+03  0.00000000000E+00 0. -1.
          5    1    4    4  501    0  0.61131775517E+01 -0.42314741246E+02  0.41272389043E+02  0.59610471930E+02  0.47000000000E+01 0. -1.
         -5    1    4    4    0  501  0.68676121015E+02  0.79191054060E+02  0.16641649342E+03  0.19673375898E+03  0.47000000000E+01 0. -1.
          1    1    1    2  502    0 -0.43575304299E+02 -0.30094022373E+02 -0.20924277672E+04  0.20930978043E+04  0.00000000000E+00 0. -1.
          1    1    1    2  503    0 -0.24342977023E+01 -0.11130399066E+03  0.27346746699E+03  0.29526083324E+03  0.00000000000E+00 0. -1.
<mgrwt>
<rscale>  0 0.76991416E+02</rscale>
<asrwt>0</asrwt>
<pdfrwt beam="1">  1        2 0.81832434E-01 0.11193353E+03</pdfrwt>
<pdfrwt beam="2">  1        2 0.39067926E+00 0.52957127E+02</pdfrwt>
<totfact> 0.43775919E+01</totfact>
</mgrwt>
</event>
<event>
13    1  0.1589573E-008  0.2677793E+02  0.7546771E-02  0.1637106E+00
          2   -1    0    0  503    0  0.00000000000E+00  0.00000000000E+00  0.14721158173E+04  0.14721158173E+04  0.00000000000E+00 0. -1.
          2   -1    0    0  502    0 -0.00000000000E+00 -0.00000000000E+00 -0.16991958139E+04  0.16991958139E+04  0.00000000000E+00 0. -1.
         24    2    1    2    0    0 -0.34792295675E+02 -0.84652281603E+02  0.38247167899E+02  0.12844272064E+03  0.81597634854E+02 0.  0.
         25    2    1    2    0    0  0.19311539677E+03  0.10956096461E+03 -0.11510134243E+03  0.27959023269E+03  0.12500087100E+03 0.  0.
         24    2    1    2    0    0 -0.14720084504E+03  0.44323461966E+01  0.55664734264E+03  0.58132872147E+03  0.79994274007E+02 0.  0.
        -11    1    3    3    0    0 -0.47550872147E+02 -0.87458392767E+02  0.49521803398E+02  0.11118662203E+03  0.00000000000E+00 0.  1.
         12    1    3    3    0    0  0.12758576472E+02  0.28061111633E+01 -0.11274635499E+02  0.17256098606E+02  0.00000000000E+00 0. -1.
        -11    1    5    5    0    0 -0.15937559354E+02 -0.20247274824E+02  0.39116117208E+02  0.46840458595E+02  0.00000000000E+00 0.  1.
         12    1    5    5    0    0 -0.13126328568E+03  0.24679621020E+02  0.51753122543E+03  0.53448826288E+03  0.00000000000E+00 0. -1.
          5    1    4    4  501    0  0.27176247491E+02 -0.24694039745E+02 -0.36761219570E+02  0.52171077149E+02  0.47000000000E+01 0. -1.
         -5    1    4    4    0  501  0.16593914928E+03  0.13425500436E+03 -0.78340122859E+02  0.22741915554E+03  0.47000000000E+01 0. -1.
          1    1    1    2  502    0 -0.25800469797E+02 -0.69349433369E+01 -0.14440447594E+04  0.14442918766E+04  0.00000000000E+00 0. -1.
          1    1    1    2  503    0  0.14678213741E+02 -0.22406085869E+02  0.73717159473E+03  0.73765807982E+03  0.00000000000E+00 0. -1.
<mgrwt>
<rscale>  0 0.26747067E+02</rscale>
<asrwt>0</asrwt>
<pdfrwt beam="1">  1        2 0.21648762E+00 0.26777925E+02</pdfrwt>
<pdfrwt beam="2">  1        2 0.24988174E+00 0.26716244E+02</pdfrwt>
<totfact> 0.41542247E+01</totfact>
</mgrwt>
</event>
<event>
13    1  0.1589573E-008  0.1428203E+03  0.7546771E-02  0.1240136E+00
          2   -1    0    0  503    0  0.00000000000E+00  0.00000000000E+00  0.44079507545E+04  0.44079507545E+04  0.00000000000E+00 0. -1.
          2   -1    0    0  502    0 -0.00000000000E+00 -0.00000000000E+00 -0.77912302524E+03  0.77912302524E+03  0.00000000000E+00 0. -1.
         24    2    1    2    0    0 -0.18649465896E+02  0.21327547831E+02 -0.13261851739E+03  0.15783111134E+03  0.80748508831E+02 0.  0.
         25    2    1    2    0    0 -0.41931629858E+02 -0.27181735839E+03  0.80983975150E+03  0.86434898613E+03  0.12496322988E+03 0.  0.
         24    2    1    2    0    0 -0.99292265649E+02 -0.69397146561E+02  0.19450699929E+03  0.24281702935E+03  0.80325705716E+02 0.  0.
        -11    1    5    5    0    0 -0.11515414823E+02  0.17834625733E+02  0.22678151156E+02  0.31064082047E+02  0.00000000000E+00 0.  1.
         12    1    5    5    0    0 -0.87776850826E+02 -0.87231772294E+02  0.17182884814E+03  0.21175294730E+03  0.00000000000E+00 0. -1.
        -13    1    3    3    0    0 -0.16299303834E+01 -0.24596999697E+02 -0.88649832954E+02  0.92013379189E+02  0.00000000000E+00 0.  1.
         14    1    3    3    0    0 -0.17019535512E+02  0.45924547528E+02 -0.43968684433E+02  0.65817732151E+02  0.00000000000E+00 0. -1.
          5    1    4    4  501    0 -0.80057527433E+02 -0.21382265813E+03  0.55404224480E+03  0.59926140861E+03  0.47000000000E+01 0. -1.
         -5    1    4    4    0  501  0.38125897575E+02 -0.57994700256E+02  0.25579750670E+03  0.26508757752E+03  0.47000000000E+01 0. -1.
          1    1    1    2  502    0  0.24276774292E+02  0.21726236567E+03 -0.55972123191E+03  0.60089945478E+03  0.00000000000E+00 0. -1.
          1    1    1    2  503    0  0.13559658711E+03  0.10262459145E+03  0.33168207277E+04  0.33211771981E+04  0.00000000000E+00 0. -1.
<mgrwt>
<rscale>  0 0.12181295E+03</rscale>
<asrwt>0</asrwt>
<pdfrwt beam="1">  1        2 0.64822804E+00 0.10389558E+03</pdfrwt>
<pdfrwt beam="2">  1        2 0.11457692E+00 0.14282028E+03</pdfrwt>
<totfact> 0.23121996E+00</totfact>
</mgrwt>
</event>
<event>
13    1  0.1589573E-008  0.1258367E+03  0.7546771E-02  0.1315010E+00
         -3   -1    0    0    0  501 -0.00000000000E+00  0.00000000000E+00  0.28622219874E+04  0.28622219874E+04  0.00000000000E+00 0.  1.
          2   -1    0    0  503    0  0.00000000000E+00 -0.00000000000E+00 -0.35680240276E+04  0.35680240276E+04  0.00000000000E+00 0. -1.
         24    2    1    2    0    0  0.40001340897E+02 -0.54290128118E+02 -0.77317681189E+02  0.12493640717E+03  0.71299065397E+02 0.  0.
         25    2    1    2    0    0  0.15840304335E+03  0.12404368575E+02  0.17540157150E+02  0.20292443560E+03  0.12500110779E+03 0.  0.
         24    2    1    2    0    0  0.64110676619E+02 -0.82256726983E+01 -0.13975857041E+04  0.14014502881E+04  0.81481710049E+02 0.  0.
        -11    1    3    3    0    0 -0.99499584634E+01 -0.45842103340E+02 -0.43895653139E+02  0.64244287501E+02  0.00000000000E+00 0.  1.
         12    1    3    3    0    0  0.49951299361E+02 -0.84480247787E+01 -0.33422028050E+02  0.60692119665E+02  0.00000000000E+00 0. -1.
        -13    1    5    5    0    0 -0.36219131023E+01  0.18840057805E+02 -0.10046514874E+03  0.10228055604E+03  0.00000000000E+00 0.  1.
         14    1    5    5    0    0  0.67732589721E+02 -0.27065730503E+02 -0.12971205554E+04  0.12991697321E+04  0.00000000000E+00 0. -1.
          5    1    4    4  502    0  0.50139926509E+02  0.39224080938E+02 -0.41993594606E+02  0.76407412884E+02  0.47000000000E+01 0. -1.
         -5    1    4    4    0  502  0.10826311684E+03 -0.26819712363E+02  0.59533751756E+02  0.12651702272E+03  0.47000000000E+01 0. -1.
          1    1    1    2  503    0 -0.20488371112E+03  0.49518124626E+02 -0.19687558787E+04  0.19800073459E+04  0.00000000000E+00 0. -1.
         -4    1    1    2    0  501 -0.57631349744E+02  0.59330761593E+00  0.27203170667E+04  0.27209275382E+04  0.00000000000E+00 0.  1.
<mgrwt>
<rscale>  0 0.85161761E+02</rscale>
<asrwt>0</asrwt>
<pdfrwt beam="2">  1        2 0.52470941E+00 0.12583674E+03</pdfrwt>
<pdfrwt beam="1">  1       -3 0.42091500E+00 0.57634404E+02</pdfrwt>
<totfact> 0.99291985E-03</totfact>
</mgrwt>
</event>
<event>
13    1  0.1589573E-008  0.1131763E+03  0.7546771E-02  0.1328581E+00
          2   -1    0    0  503    0  0.00000000000E+00  0.00000000000E+00  0.42168491381E+04  0.42168491381E+04  0.00000000000E+00 0. -1.
          2   -1    0    0  502    0 -0.00000000000E+00 -0.00000000000E+00 -0.26469343113E+04  0.26469343113E+04  0.00000000000E+00 0. -1.
         24    2    1    2    0    0 -0.17775769447E+03  0.73223635088E+03 -0.47126713379E+03  0.89192639218E+03  0.75313386447E+02 0.  0.
         25    2    1    2    0    0 -0.41453847738E+03 -0.36214742459E+03  0.49359125078E+03  0.74983409385E+03  0.12500375631E+03 0.  0.
         24    2    1    2    0    0  0.57651838372E+03 -0.20183123298E+03  0.41363560169E+03  0.74207592491E+03  0.80454794646E+02 0.  0.
        -11    1    3    3    0    0 -0.25771029312E+02  0.14730584547E+03 -0.12829779467E+03  0.19703675337E+03  0.00000000000E+00 0.  1.
         12    1    3    3    0    0 -0.15198666516E+03  0.58493050542E+03 -0.34296933912E+03  0.69488963881E+03  0.00000000000E+00 0. -1.
        -11    1    5    5    0    0  0.19526604011E+03 -0.63903678839E+02  0.18580329403E+03  0.27701149915E+03  0.00000000000E+00 0.  1.
         12    1    5    5    0    0  0.38125234361E+03 -0.13792755414E+03  0.22783230766E+03  0.46506442576E+03  0.00000000000E+00 0. -1.
          5    1    4    4  501    0 -0.73485552697E+02 -0.14040607741E+02  0.44884858154E+02  0.87372796753E+02  0.47000000000E+01 0.  1.
         -5    1    4    4    0  501 -0.34105292468E+03 -0.34810681685E+03  0.44870639262E+03  0.66246129710E+03  0.47000000000E+01 0.  1.
          1    1    1    2  502    0  0.23833847183E+01 -0.11307607291E+03 -0.16707967365E+04  0.16746204386E+04  0.00000000000E+00 0. -1.
          1    1    1    2  503    0  0.13394403406E+02 -0.55181620390E+02  0.28047518447E+04  0.28053265998E+04  0.00000000000E+00 0. -1.
<mgrwt>
<rscale>  0 0.80166081E+02</rscale>
<asrwt>0</asrwt>
<pdfrwt beam="1">  1        2 0.62012487E+00 0.56783988E+02</pdfrwt>
<pdfrwt beam="2">  1        2 0.38925505E+00 0.11317628E+03</pdfrwt>
<totfact> 0.40166419E-01</totfact>
</mgrwt>
</event>
<event>
13    1  0.1589573E-008  0.6953773E+02  0.7546771E-02  0.1505024E+00
          2   -1    0    0  502    0  0.00000000000E+00  0.00000000000E+00  0.27767433313E+04  0.27767433313E+04  0.00000000000E+00 0. -1.
          2   -1    0    0  503    0 -0.00000000000E+00 -0.00000000000E+00 -0.37019908315E+03  0.37019908315E+03  0.00000000000E+00 0. -1.
         24    2    1    2    0    0 -0.38190469310E+01 -0.16103985218E+03 -0.14495526132E+03  0.23123298833E+03  0.80673713166E+02 0.  0.
         25    2    1    2    0    0  0.94518372456E+02  0.15950939702E+03  0.19871828417E+04  0.19997244874E+04  0.12500163522E+03 0.  0.
         24    2    1    2    0    0 -0.12821881068E+02  0.49893899135E+02 -0.75662670600E+02  0.12290867287E+03  0.82023779109E+02 0.  0.
        -13    1    3    3    0    0  0.32187849517E+02 -0.31467427713E+02 -0.45204881368E+02  0.63794497904E+02  0.00000000000E+00 0.  1.
         14    1    3    3    0    0 -0.36006896448E+02 -0.12957242447E+03 -0.99750379957E+02  0.16743849043E+03  0.00000000000E+00 0. -1.
        -13    1    5    5    0    0  0.12961255976E+02  0.43324338450E+02 -0.27637658951E+01  0.45305969370E+02  0.00000000000E+00 0.  1.
         14    1    5    5    0    0 -0.25783137044E+02  0.65695606852E+01 -0.72898904705E+02  0.77602703501E+02  0.00000000000E+00 0. -1.
          5    1    4    4  501    0  0.94464191890E+02  0.17720367554E+03  0.16741735942E+04  0.16861802809E+04  0.47000000000E+01 0. -1.
         -5    1    4    4    0  501  0.54180565473E-01 -0.17694278527E+02  0.31300924751E+03  0.31354420654E+03  0.47000000000E+01 0. -1.
          1    1    1    2  502    0 -0.22619529361E+02 -0.64234618553E+01  0.70057311174E+03  0.70096760900E+03  0.00000000000E+00 0. -1.
          1    1    1    2  503    0 -0.55257915096E+02 -0.41939982113E+02 -0.60593773406E+02  0.92108656791E+02  0.00000000000E+00 0. -1.
<mgrwt>
<rscale>  0 0.40436417E+02</rscale>
<asrwt>0</asrwt>
<pdfrwt beam="1">  1        2 0.40834460E+00 0.23513910E+02</pdfrwt>
<pdfrwt beam="2">  1        2 0.54441043E-01 0.69537727E+02</pdfrwt>
<totfact> 0.67558906E+01</totfact>
</mgrwt>
</event>
<event>
13    1  0.1589573E-008  0.3871055E+02  0.7546771E-02  0.1590912E+00
          2   -1    0    0  503    0  0.00000000000E+00  0.00000000000E+00  0.15756744802E+04  0.15756744802E+04  0.00000000000E+00 0. -1.
          2   -1    0    0  502    0 -0.00000000000E+00 -0.00000000000E+00 -0.25808835477E+04  0.25808835477E+04  0.00000000000E+00 0. -1.
         24    2    1    2    0    0  0.15470098755E+03  0.70286566241E+03 -0.30663631534E+02  0.72600955805E+03  0.90537755302E+02 0.  0.
         25    2    1    2    0    0 -0.32822924646E+03  0.15054069809E+02 -0.66492216414E+03  0.75213563313E+03  0.12500185204E+03 0.  0.
         24    2    1    2    0    0  0.16483644134E+03 -0.69294216724E+03 -0.17811178883E+03  0.73872945021E+03  0.81593454114E+02 0.  0.
        -11    1    5    5    0    0  0.15645859410E+03 -0.67341552187E+03 -0.15737148122E+03  0.70903705113E+03  0.00000000000E+00 0.  1.
         12    1    5    5    0    0  0.83778472414E+01 -0.19526645370E+02 -0.20740307611E+02  0.29692399088E+02  0.00000000000E+00 0. -1.
        -13    1    3    3    0    0  0.29970733700E+02  0.25484676203E+03 -0.46026824853E+02  0.26069826543E+03  0.00000000000E+00 0.  1.
         14    1    3    3    0    0  0.12473025385E+03  0.44801890038E+03  0.15363193319E+02  0.46531129261E+03  0.00000000000E+00 0. -1.
          5    1    4    4  501    0 -0.44998804760E+02  0.47487808520E+02 -0.14561919677E+03  0.15970918839E+03  0.47000000000E+01 0.  1.
         -5    1    4    4    0  501 -0.28323044170E+03 -0.32433738711E+02 -0.51930296736E+03  0.59242644474E+03  0.47000000000E+01 0.  1.
          1    1    1    2  502    0  0.21322294861E+02  0.11619573228E+02 -0.10350404922E+04  0.10353252992E+04  0.00000000000E+00 0. -1.
          1    1    1    2  503    0 -0.12630477296E+02 -0.36597138203E+02  0.90352900920E+03  0.90435808723E+03  0.00000000000E+00 0. -1.
<mgrwt>
<rscale>  0 0.30659435E+02</rscale>
<asrwt>0</asrwt>
<pdfrwt beam="1">  1        2 0.23171684E+00 0.38710554E+02</pdfrwt>
<pdfrwt beam="2">  1        2 0.37954170E+00 0.24282808E+02</pdfrwt>
<totfact> 0.14554566E+01</totfact>
</mgrwt>
</event>
<event>
13    1  0.1589573E-008  0.6082116E+02  0.7546771E-02  0.1461424E+00
          2   -1    0    0  503    0  0.00000000000E+00  0.00000000000E+00  0.12018971186E+04  0.12018971186E+04  0.00000000000E+00 0. -1.
          2   -1    0    0  502    0 -0.00000000000E+00 -0.00000000000E+00 -0.21046228650E+04  0.21046228650E+04  0.00000000000E+00 0. -1.
         24    2    1    2    0    0 -0.58758422924E+01  0.21126871388E+03 -0.78595465550E+03  0.81935076269E+03  0.94561920646E+02 0.  0.
         25    2    1    2    0    0 -0.10361168143E+03 -0.25102949157E+03  0.22686307856E+03  0.37529251381E+03  0.12500571325E+03 0.  0.
         24    2    1    2    0    0  0.26250450392E+02  0.73091228066E+01  0.59640812526E+02  0.10925285526E+03  0.87387930760E+02 0.  0.
        -13    1    3    3    0    0  0.11358545713E+02  0.19526799132E+03 -0.75795042048E+03  0.78278186291E+03  0.00000000000E+00 0.  1.
         14    1    3    3    0    0 -0.17234388005E+02  0.16000722560E+02 -0.28004235025E+02  0.36568899788E+02  0.00000000000E+00 0. -1.
        -13    1    5    5    0    0  0.50526835706E+02 -0.20251663937E+02  0.40414804364E+02  0.67797104883E+02  0.00000000000E+00 0.  1.
         14    1    5    5    0    0 -0.24276385313E+02  0.27560786744E+02  0.19226008162E+02  0.41455750381E+02  0.00000000000E+00 0. -1.
          5    1    4    4  501    0 -0.56185828211E+02 -0.21900309137E+03  0.22322355967E+03  0.31775784634E+03  0.47000000000E+01 0. -1.
         -5    1    4    4    0  501 -0.47425853217E+02 -0.32026400200E+02  0.36395188882E+01  0.57534667470E+02  0.47000000000E+01 0. -1.
          1    1    1    2  502    0  0.47178263969E+02  0.38311775740E+02 -0.12017639144E+04  0.12032996662E+04  0.00000000000E+00 0. -1.
          1    1    1    2  503    0  0.36058809358E+02 -0.58601208537E+01  0.79848893237E+03  0.79932418572E+03  0.00000000000E+00 0. -1.
<mgrwt>
<rscale>  0 0.47137157E+02</rscale>
<asrwt>0</asrwt>
<pdfrwt beam="1">  1        2 0.17674958E+00 0.36531887E+02</pdfrwt>
<pdfrwt beam="2">  1        2 0.30950336E+00 0.60821156E+02</pdfrwt>
<totfact> 0.32532014E+01</totfact>
</mgrwt>
</event>
<event>
13    1  0.1589573E-008  0.1662237E+03  0.7546771E-02  0.1231908E+00
          2   -1    0    0  502    0  0.00000000000E+00  0.00000000000E+00  0.18684740304E+04  0.18684740304E+04  0.00000000000E+00 0. -1.
          2   -1    0    0  503    0 -0.00000000000E+00 -0.00000000000E+00 -0.10416845845E+04  0.10416845845E+04  0.00000000000E+00 0. -1.
         24    2    1    2    0    0 -0.58867784473E+02  0.19835456023E+02 -0.66036105917E+03  0.66833313572E+03  0.82058457655E+02 0.  0.
         25    2    1    2    0    0  0.23352459979E+03  0.84716472133E+02  0.87813086088E+03  0.92111237518E+03  0.12499431799E+03 0.  0.
         24    2    1    2    0    0 -0.93188699264E+02 -0.12561872165E+03 -0.77076358730E+02  0.19209603684E+03  0.80597303886E+02 0.  0.
        -11    1    5    5    0    0 -0.93680120961E+02 -0.66210027546E+02 -0.63635501918E+02  0.13118387826E+03  0.00000000000E+00 0.  1.
         12    1    5    5    0    0  0.49142169694E+00 -0.59408694109E+02 -0.13440856812E+02  0.60912158580E+02  0.00000000000E+00 0. -1.
        -13    1    3    3    0    0  0.34212841417E+01  0.29458210752E+02 -0.37119762332E+03  0.37238040620E+03  0.00000000000E+00 0.  1.
         14    1    3    3    0    0 -0.62289068614E+02 -0.96227547289E+01 -0.28916343585E+03  0.29595272952E+03  0.00000000000E+00 0. -1.
          5    1    4    4  501    0  0.10117035194E+03  0.97903610418E+02  0.53023664200E+03  0.54862878485E+03  0.47000000000E+01 0.  1.
         -5    1    4    4    0  501  0.13235424785E+03 -0.13187138286E+02  0.34789421888E+03  0.37248359034E+03  0.47000000000E+01 0.  1.
          1    1    1    2  502    0 -0.11387031437E+03  0.12388753209E+03  0.88581716766E+03  0.90165770868E+03  0.00000000000E+00 0. -1.
          1    1    1    2  503    0  0.32402198318E+02 -0.10282073859E+03 -0.19972116473E+03  0.22695935843E+03  0.00000000000E+00 0. -1.
<mgrwt>
<rscale>  0 0.12704488E+03</rscale>
<asrwt>0</asrwt>
<pdfrwt beam="1">  1        2 0.27477559E+00 0.16622372E+03</pdfrwt>
<pdfrwt beam="2">  1        2 0.15318891E+00 0.97100478E+02</pdfrwt>
<totfact> 0.43816167E+01</totfact>
</mgrwt>
</event>
<event>
13    1  0.1589573E-008  0.8255319E+02  0.7546771E-02  0.1444706E+00
          2   -1    0    0  503    0  0.00000000000E+00  0.00000000000E+00  0.10390267822E+04  0.10390267822E+04  0.00000000000E+00 0. -1.
         -1   -1    0    0    0  501 -0.00000000000E+00 -0.00000000000E+00 -0.11574147211E+04  0.11574147211E+04  0.00000000000E+00 0.  1.
         24    2    1    2    0    0  0.30252478297E+03  0.11148032040E+03 -0.58091475027E+03  0.66919271320E+03  0.80048948600E+02 0.  0.
         25    2    1    2    0    0 -0.29984707724E+03 -0.29105191243E+03  0.24761946701E+02  0.43687337730E+03  0.12500283330E+03 0.  0.
         24    2    1    2    0    0 -0.83158826774E+02  0.11001226550E+03 -0.68563442294E+02  0.17338404167E+03  0.79642898335E+02 0.  0.
        -11    1    5    5    0    0 -0.77028685796E+02  0.72808080798E+02 -0.13788477436E+02  0.10688572016E+03  0.00000000000E+00 0.  1.
         12    1    5    5    0    0 -0.61301409781E+01  0.37204184700E+02 -0.54774964857E+02  0.66498321503E+02  0.00000000000E+00 0. -1.
        -13    1    3    3    0    0  0.26149446146E+03  0.92055791851E+02 -0.54444595517E+03  0.61096237224E+03  0.00000000000E+00 0.  1.
         14    1    3    3    0    0  0.41030321510E+02  0.19424528548E+02 -0.36468795091E+02  0.58230340956E+02  0.00000000000E+00 0. -1.
          5    1    4    4  502    0 -0.15360233466E+03 -0.22927787722E+03  0.32119187937E+02  0.27787722906E+03  0.47000000000E+01 0. -1.
         -5    1    4    4    0  502 -0.14624474258E+03 -0.61774035216E+02 -0.73572412356E+01  0.15899614825E+03  0.47000000000E+01 0. -1.
          1    1    1    2  503    0  0.71957096345E+02  0.40351051694E+02  0.70812461986E+03  0.71291409604E+03  0.00000000000E+00 0. -1.
         -2    1    1    2    0  501  0.85240246981E+01  0.29208274842E+02 -0.20179631286E+03  0.20407727507E+03  0.00000000000E+00 0.  1.
<mgrwt>
<rscale>  0 0.50118047E+02</rscale>
<asrwt>0</asrwt>
<pdfrwt beam="1">  1        2 0.15279806E+00 0.82553187E+02</pdfrwt>
<pdfrwt beam="2">  1       -1 0.17020805E+00 0.30426671E+02</pdfrwt>
<totfact> 0.10291084E+01</totfact>
</mgrwt>
</event>
<event>
13    1  0.1589573E-008  0.9805338E+02  0.7546771E-02  0.1371666E+00
          2   -1    0    0  503    0  0.00000000000E+00  0.00000000000E+00  0.21995850844E+04  0.21995850844E+04  0.00000000000E+00 0. -1.
          2   -1    0    0  502    0 -0.00000000000E+00 -0.00000000000E+00 -0.31868022185E+04  0.31868022185E+04  0.00000000000E+00 0. -1.
         24    2    1    2    0    0  0.80219020491E+03 -0.80425021520E+02  0.18753211833E+03  0.83504542904E+03  0.11025091482E+03 0.  0.
         25    2    1    2    0    0  0.41135110189E+03  0.16175909352E+03 -0.51803932621E+02  0.46225957095E+03  0.12499812054E+03 0.  0.
         24    2    1    2    0    0 -0.11757586822E+04 -0.22132167318E+02 -0.21098808051E+03  0.11974314721E+04  0.80173865582E+02 0.  0.
        -11    1    5    5    0    0 -0.74127523811E+03 -0.40644590680E+02 -0.16144959805E+03  0.75974136000E+03  0.00000000000E+00 0.  1.
         12    1    5    5    0    0 -0.43448344411E+03  0.18512423361E+02 -0.49538482460E+02  0.43769011214E+03  0.00000000000E+00 0. -1.
        -11    1    3    3    0    0  0.44978005927E+03 -0.21125511402E+02  0.15498293345E+03  0.47620174151E+03  0.00000000000E+00 0.  1.
         12    1    3    3    0    0  0.35241014563E+03 -0.59299510119E+02  0.32549184873E+02  0.35884368753E+03  0.00000000000E+00 0. -1.
          5    1    4    4  501    0  0.13818236913E+03  0.11270329357E+03  0.70253340781E+01  0.17851567113E+03  0.47000000000E+01 0. -1.
         -5    1    4    4    0  501  0.27316873276E+03  0.49055799953E+02 -0.58829266699E+02  0.28374389982E+03  0.47000000000E+01 0. -1.
          1    1    1    2  502    0 -0.82701331419E+02 -0.52744705360E+02 -0.19000181077E+04  0.19025483762E+04  0.00000000000E+00 0. -1.
          1    1    1    2  503    0  0.44918706839E+02 -0.64571993247E+01  0.98806086848E+03  0.98910245449E+03  0.00000000000E+00 0. -1.
<mgrwt>
<rscale>  0 0.66706125E+02</rscale>
<asrwt>0</asrwt>
<pdfrwt beam="1">  1        2 0.32346840E+00 0.45380454E+02</pdfrwt>
<pdfrwt beam="2">  1        2 0.46864738E+00 0.98053385E+02</pdfrwt>
<totfact> 0.28891268E+00</totfact>
</mgrwt>
</event>
<event>
13    1  0.1589573E-008  0.4596217E+02  0.7546771E-02  0.1538450E+00
          2   -1    0    0  502    0  0.00000000000E+00  0.00000000000E+00  0.23088364512E+04  0.23088364512E+04  0.00000000000E+00 0. -1.
          2   -1    0    0  503    0 -0.00000000000E+00 -0.00000000000E+00 -0.19549641856E+04  0.19549641856E+04  0.00000000000E+00 0. -1.
         24    2    1    2    0    0  0.42636267018E+02 -0.17974260489E+03 -0.14099117299E+04  0.14243182693E+04  0.81891335502E+02 0.  0.
         25    2    1    2    0    0 -0.22919895026E+02  0.20875985798E+03  0.99851413416E+03  0.10279887714E+04  0.12499775286E+03 0.  0.
         24    2    1    2    0    0  0.10250006023E+02  0.37534083748E+02 -0.13067765021E+03  0.15827383090E+03  0.80374667745E+02 0.  0.
        -11    1    3    3    0    0  0.25274901663E+01  0.87339340315E+01 -0.49682670126E+02  0.50507796637E+02  0.00000000000E+00 0.  1.
         12    1    3    3    0    0  0.40108776852E+02 -0.18847653892E+03 -0.13602290597E+04  0.13738104726E+04  0.00000000000E+00 0. -1.
        -13    1    5    5    0    0  0.28623678527E+02  0.10606819886E+02 -0.12022592571E+03  0.12404069015E+03  0.00000000000E+00 0.  1.
         14    1    5    5    0    0 -0.18373672504E+02  0.26927263863E+02 -0.10451724509E+02  0.34233140750E+02  0.00000000000E+00 0. -1.
          5    1    4    4  501    0 -0.93975816931E+01  0.21493268169E+03  0.98190819816E+03  0.10052115060E+04  0.47000000000E+01 0. -1.
         -5    1    4    4    0  501 -0.13522313333E+02 -0.61728237124E+01  0.16605935996E+02  0.22777265437E+02  0.47000000000E+01 0. -1.
          1    1    1    2  502    0 -0.17697037930E+02 -0.22293636039E+02  0.12730312829E+04  0.12733494566E+04  0.00000000000E+00 0. -1.
          1    1    1    2  503    0 -0.12269340085E+02 -0.44257700798E+02 -0.37708377138E+03  0.37987030869E+03  0.00000000000E+00 0. -1.
<mgrwt>
<rscale>  0 0.36169889E+02</rscale>
<asrwt>0</asrwt>
<pdfrwt beam="1">  1        2 0.33953477E+00 0.28463861E+02</pdfrwt>
<pdfrwt beam="2">  1        2 0.28749473E+00 0.45962172E+02</pdfrwt>
<totfact> 0.12453024E+01</totfact>
</mgrwt>
</event>
<event>
13    1  0.1589573E-008  0.8078357E+02  0.7546771E-02  0.1434203E+00
          2   -1    0    0  502    0  0.00000000000E+00  0.00000000000E+00  0.28305330743E+04  0.28305330743E+04  0.00000000000E+00 0. -1.
          2   -1    0    0  503    0 -0.00000000000E+00 -0.00000000000E+00 -0.36001760660E+03  0.36001760660E+03  0.00000000000E+00 0. -1.
         24    2    1    2    0    0  0.11222660711E+03  0.14175579879E+03  0.12094204869E+04  0.12254882304E+04  0.80212037243E+02 0.  0.
         25    2    1    2    0    0 -0.24121606379E+03 -0.17842041989E+03  0.74476435055E+03  0.81259632049E+03  0.12497922452E+03 0.  0.
         24    2    1    2    0    0  0.53199301450E+02  0.21513174435E+02  0.45007348915E+03  0.46067725260E+03  0.79777209006E+02 0.  0.
        -11    1    3    3    0    0  0.78073706925E+02  0.34764172526E+02  0.53178497586E+03  0.53860868165E+03  0.00000000000E+00 0.  1.
         12    1    3    3    0    0  0.34152900182E+02  0.10699162626E+03  0.67763551101E+03  0.68687954873E+03  0.00000000000E+00 0. -1.
        -13    1    5    5    0    0  0.59518358433E+01 -0.16128344309E+02  0.19962515171E+02  0.26344825906E+02  0.00000000000E+00 0.  1.
         14    1    5    5    0    0  0.47247465607E+02  0.37641518744E+02  0.43011097398E+03  0.43433242669E+03  0.00000000000E+00 0. -1.
          5    1    4    4  501    0 -0.16823111829E+03 -0.15043402796E+03  0.40238625385E+03  0.46137717024E+03  0.47000000000E+01 0.  1.
         -5    1    4    4    0  501 -0.72984945499E+02 -0.27986391923E+02  0.34237809671E+03  0.35121915025E+03  0.47000000000E+01 0.  1.
          1    1    1    2  502    0  0.10202865879E+02 -0.32048974062E+02  0.37303453993E+03  0.37454773153E+03  0.00000000000E+00 0. -1.
          1    1    1    2  503    0  0.65587289356E+02  0.47200420728E+02 -0.30677739879E+03  0.31724114590E+03  0.00000000000E+00 0. -1.
<mgrwt>
<rscale>  0 0.52125441E+02</rscale>
<asrwt>0</asrwt>
<pdfrwt beam="1">  1        2 0.41625485E+00 0.33633840E+02</pdfrwt>
<pdfrwt beam="2">  1        2 0.52943767E-01 0.80783566E+02</pdfrwt>
<totfact> 0.61577398E+01</totfact>
</mgrwt>
</event>
<event>
13    1  0.1589573E-008  0.3303837E+02  0.7546771E-02  0.1575801E+00
         -1   -1    0    0    0  501 -0.00000000000E+00  0.00000000000E+00  0.12721564566E+03  0.12721564566E+03  0.00000000000E+00 0.  1.
          2   -1    0    0  503    0  0.00000000000E+00 -0.00000000000E+00 -0.41172879871E+04  0.41172879871E+04  0.00000000000E+00 0. -1.
         24    2    1    2    0    0 -0.10938957667E+02  0.27119357072E+02  0.58045438040E+01  0.80332324787E+02  0.74595370862E+02 0.  0.
         25    2    1    2    0    0  0.48381623028E+02 -0.58930115917E+02 -0.25919670552E+04  0.25960987429E+04  0.12498771038E+03 0.  0.
         24    2    1    2    0    0 -0.53810452975E+02 -0.18620314535E+02 -0.21974802999E+03  0.24318126099E+03  0.87210366643E+02 0.  0.
        -11    1    3    3    0    0  0.10778359559E+02 -0.20689645262E+02 -0.10165057666E+02  0.25447256300E+02  0.00000000000E+00 0.  1.
         12    1    3    3    0    0 -0.21717317225E+02  0.47809002335E+02  0.15969601470E+02  0.54885068487E+02  0.00000000000E+00 0. -1.
        -13    1    5    5    0    0 -0.30354798998E+02 -0.15879740217E+02 -0.21667557872E+03  0.21936701299E+03  0.00000000000E+00 0.  1.
         14    1    5    5    0    0 -0.23455653977E+02 -0.27405743179E+01 -0.30724512623E+01  0.23814248000E+02  0.00000000000E+00 0. -1.
          5    1    4    4  502    0  0.20292108486E+02  0.36642783739E+02 -0.10967896583E+04  0.10975992473E+04  0.47000000000E+01 0.  1.
         -5    1    4    4    0  502  0.28089514542E+02 -0.95572899656E+02 -0.14951773970E+04  0.14984994956E+04  0.47000000000E+01 0.  1.
          1    1    1    2  503    0  0.25735630632E+02  0.20648154624E+02 -0.12508349543E+04  0.12512700556E+04  0.00000000000E+00 0. -1.
         -2    1    1    2    0  501 -0.93678430194E+01  0.29782918756E+02  0.66673154263E+02  0.73621248507E+02  0.00000000000E+00 0.  1.
<mgrwt>
<rscale>  0 0.32117061E+02</rscale>
<asrwt>0</asrwt>
<pdfrwt beam="2">  1        2 0.60548345E+00 0.33038366E+02</pdfrwt>
<pdfrwt beam="1">  1       -1 0.18708186E-01 0.31221447E+02</pdfrwt>
<totfact> 0.18631434E+01</totfact>
</mgrwt>
</event>
<event>
13    1  0.1589573E-008  0.3159906E+03  0.7546771E-02  0.1190989E+00
          2   -1    0    0  502    0  0.00000000000E+00  0.00000000000E+00  0.26055921637E+04  0.26055921637E+04  0.00000000000E+00 0. -1.
          2   -1    0    0  503    0 -0.00000000000E+00 -0.00000000000E+00 -0.25650569567E+04  0.25650569567E+04  0.00000000000E+00 0. -1.
         24    2    1    2    0    0  0.21944989051E+03 -0.47363280213E+02 -0.42304204472E+03  0.48544188951E+03  0.79295155836E+02 0.  0.
         25    2    1    2    0    0 -0.26468449013E+03  0.35536598078E+03  0.28063813061E+03  0.53918978887E+03  0.12500003388E+03 0.  0.
         24    2    1    2    0    0 -0.43790691269E+02 -0.13991646630E+03  0.13544731769E+04  0.13648010900E+04  0.81179961193E+02 0.  0.
        -13    1    5    5    0    0  0.19738568388E+02 -0.82727234098E+01  0.16789780627E+03  0.16925638064E+03  0.00000000000E+00 0.  1.
         14    1    5    5    0    0 -0.63529259658E+02 -0.13164374289E+03  0.11865753706E+04  0.11955447093E+04  0.00000000000E+00 0. -1.
        -13    1    3    3    0    0  0.25693004829E+02 -0.35670807569E+00 -0.11981756706E+03  0.12254185862E+03  0.00000000000E+00 0.  1.
         14    1    3    3    0    0  0.19375688568E+03 -0.47006572137E+02 -0.30322447766E+03  0.36290003089E+03  0.00000000000E+00 0. -1.
          5    1    4    4  501    0 -0.18242726370E+03  0.14335727146E+03  0.12504741960E+03  0.26360948574E+03  0.47000000000E+01 0. -1.
         -5    1    4    4    0  501 -0.82257226422E+02  0.21200870931E+03  0.15559071101E+03  0.27558030313E+03  0.47000000000E+01 0. -1.
          1    1    1    2  502    0 -0.78320787401E+02  0.10254139620E+02  0.79531157309E+03  0.79922449375E+03  0.00000000000E+00 0. -1.
          1    1    1    2  503    0  0.16734607829E+03 -0.17834037389E+03 -0.19668456288E+04  0.19819918583E+04  0.00000000000E+00 0. -1.
<mgrwt>
<rscale>  0 0.15798684E+03</rscale>
<asrwt>0</asrwt>
<pdfrwt beam="1">  1        2 0.38317532E+00 0.78989196E+02</pdfrwt>
<pdfrwt beam="2">  1        2 0.37721426E+00 0.31599057E+03</pdfrwt>
<totfact> 0.31305418E+00</totfact>
</mgrwt>
</event>
<event>
13    1  0.1589573E-008  0.1174779E+03  0.7546771E-02  0.1271056E+00
          2   -1    0    0  502    0  0.00000000000E+00  0.00000000000E+00  0.46009726606E+03  0.46009726606E+03  0.00000000000E+00 0. -1.
          4   -1    0    0  503    0 -0.00000000000E+00 -0.00000000000E+00 -0.93493751154E+03  0.93493751154E+03  0.00000000000E+00 0. -1.
         24    2    1    2    0    0  0.10939190110E+03  0.58827711380E+02 -0.20476224119E+03  0.25182589649E+03  0.77855115920E+02 0.  0.
         25    2    1    2    0    0  0.80339192417E+02 -0.19996199906E+03  0.46116220738E+02  0.25335342099E+03  0.12498825228E+03 0.  0.
         24    2    1    2    0    0 -0.46242025097E+02 -0.22521958957E+02 -0.13273643972E+03  0.16381837029E+03  0.81067456445E+02 0.  0.
        -11    1    3    3    0    0  0.16843019531E+02 -0.14083024609E+02 -0.67251503269E+02  0.70744495058E+02  0.00000000000E+00 0.  1.
         12    1    3    3    0    0  0.92548881568E+02  0.72910735989E+02 -0.13751073792E+03  0.18108140144E+03  0.00000000000E+00 0. -1.
        -11    1    5    5    0    0 -0.66762043764E+02 -0.11111966811E+02 -0.72566145077E+02  0.99229490099E+02  0.00000000000E+00 0.  1.
         12    1    5    5    0    0  0.20520018668E+02 -0.11409992146E+02 -0.60170294639E+02  0.64588880187E+02  0.00000000000E+00 0. -1.
          5    1    4    4  501    0 -0.26850742507E+02 -0.72665532495E+01  0.95940381171E+01  0.29797663276E+02  0.47000000000E+01 0.  1.
         -5    1    4    4    0  501  0.10718993492E+03 -0.19269544581E+03  0.36522182621E+02  0.22355575772E+03  0.47000000000E+01 0.  1.
          1    1    1    2  502    0 -0.69806789567E+02  0.61453180580E+02  0.25416076888E+03  0.27064215804E+03  0.00000000000E+00 0. -1.
          3    1    1    2  503    0 -0.73682278852E+02  0.10220306606E+03 -0.43761855418E+03  0.45539493178E+03  0.00000000000E+00 0. -1.
<mgrwt>
<rscale>  0 0.10452631E+03</rscale>
<asrwt>0</asrwt>
<pdfrwt beam="1">  1        2 0.67661365E-01 0.93002587E+02</pdfrwt>
<pdfrwt beam="2">  1        4 0.13749081E+00 0.11747791E+03</pdfrwt>
<totfact> 0.14993662E+01</totfact>
</mgrwt>
</event>
<event>
13    1  0.1589573E-008  0.9067671E+02  0.7546771E-02  0.1399404E+00
          2   -1    0    0  503    0  0.00000000000E+00  0.00000000000E+00  0.12863976282E+04  0.12863976282E+04  0.00000000000E+00 0. -1.
          2   -1    0    0  502    0 -0.00000000000E+00 -0.00000000000E+00 -0.46493793026E+03  0.46493793026E+03  0.00000000000E+00 0. -1.
         24    2    1    2    0    0 -0.11900136311E+03  0.35040535266E+01  0.20459518246E+02  0.14476461093E+03  0.79778429903E+02 0.  0.
         25    2    1    2    0    0  0.10743390533E+03 -0.77308744874E+02 -0.18920021467E+03  0.26256264150E+03  0.12499493363E+03 0.  0.
         24    2    1    2    0    0 -0.17855846964E+02  0.20015570448E+02  0.61510770756E+02  0.10424678690E+03  0.79776959888E+02 0.  0.
        -11    1    3    3    0    0 -0.27742524973E+02  0.36839465222E+02  0.81381576202E+01  0.46829728796E+02  0.00000000000E+00 0.  1.
         12    1    3    3    0    0 -0.91258838132E+02 -0.33335411695E+02  0.12321360626E+02  0.97934882130E+02  0.00000000000E+00 0. -1.
        -13    1    5    5    0    0 -0.39214744643E+02 -0.13250269842E+02  0.45728677842E+02  0.61680449297E+02  0.00000000000E+00 0.  1.
         14    1    5    5    0    0  0.21358897679E+02  0.33265840290E+02  0.15782092914E+02  0.42566337604E+02  0.00000000000E+00 0. -1.
          5    1    4    4  501    0 -0.11709871252E+02  0.19799994458E+02 -0.49578694292E+02  0.54857066938E+02  0.47000000000E+01 0.  1.
         -5    1    4    4    0  501  0.11914377658E+03 -0.97108739332E+02 -0.13962152038E+03  0.20770557456E+03  0.47000000000E+01 0.  1.
          1    1    1    2  502    0  0.15664379358E+02 -0.35944497217E+02 -0.15112951288E+03  0.15613298602E+03  0.00000000000E+00 0. -1.
          1    1    1    2  503    0  0.13758925384E+02  0.89733618116E+02  0.10798191365E+04  0.10836285331E+04  0.00000000000E+00 0. -1.
<mgrwt>
<rscale>  0 0.59627027E+02</rscale>
<asrwt>0</asrwt>
<pdfrwt beam="1">  1        2 0.18917612E+00 0.90676708E+02</pdfrwt>
<pdfrwt beam="2">  1        2 0.68373225E-01 0.39209433E+02</pdfrwt>
<totfact> 0.23191838E+02</totfact>
</mgrwt>
</event>
<event>
13    1  0.1589573E-008  0.8428234E+02  0.7546771E-02  0.1374881E+00
          2   -1    0    0  503    0  0.00000000000E+00  0.00000000000E+00  0.21485674163E+04  0.21485674163E+04  0.00000000000E+00 0. -1.
          2   -1    0    0  502    0 -0.00000000000E+00 -0.00000000000E+00 -0.64642188310E+03  0.64642188310E+03  0.00000000000E+00 0. -1.
         24    2    1    2    0    0 -0.86717701244E+02 -0.57271946317E+02 -0.14894998261E+03  0.19869781928E+03  0.80589642782E+02 0.  0.
         25    2    1    2    0    0 -0.34191032488E+02  0.63811501424E+01  0.19176576011E+03  0.23153673529E+03  0.12500162903E+03 0.  0.
         24    2    1    2    0    0  0.45688163688E+02  0.15625682959E+02 -0.11375518669E+03  0.14794209491E+03  0.81332961816E+02 0.  0.
        -11    1    5    5    0    0  0.37683735585E+02 -0.29432294545E+02 -0.47332557482E+02  0.67280717056E+02  0.00000000000E+00 0.  1.
         12    1    5    5    0    0  0.80044281031E+01  0.45057977504E+02 -0.66422629212E+02  0.80661377855E+02  0.00000000000E+00 0. -1.
        -13    1    3    3    0    0  0.24830182117E+01 -0.21814787950E+02 -0.55407010086E+00  0.21962635234E+02  0.00000000000E+00 0.  1.
         14    1    3    3    0    0 -0.89200719456E+02 -0.35457158367E+02 -0.14839591251E+03  0.17673518405E+03  0.00000000000E+00 0. -1.
          5    1    4    4  501    0 -0.37014778856E+02 -0.33445465253E+02  0.18385845980E+03  0.19056420503E+03  0.47000000000E+01 0. -1.
         -5    1    4    4    0  501  0.28237463688E+01  0.39826615395E+02  0.79073003034E+01  0.40972530255E+02  0.47000000000E+01 0. -1.
          1    1    1    2  502    0 -0.76593923577E+01  0.50841934152E+02 -0.31886524746E+03  0.32298392313E+03  0.00000000000E+00 0. -1.
          1    1    1    2  503    0  0.82879962401E+02 -0.15576820936E+02  0.18919501898E+04  0.18938287268E+04  0.00000000000E+00 0. -1.
<mgrwt>
<rscale>  0 0.65828801E+02</rscale>
<asrwt>0</asrwt>
<pdfrwt beam="1">  1        2 0.31596579E+00 0.84282343E+02</pdfrwt>
<pdfrwt beam="2">  1        2 0.95062042E-01 0.51415645E+02</pdfrwt>
<totfact> 0.62519784E+01</totfact>
</mgrwt>
</event>
<event>
13    1  0.1589573E-008  0.8000704E+02  0.7546771E-02  0.1394340E+00
          2   -1    0    0  502    0  0.00000000000E+00  0.00000000000E+00  0.21257519394E+04  0.21257519394E+04  0.00000000000E+00 0. -1.
          4   -1    0    0  503    0 -0.00000000000E+00 -0.00000000000E+00 -0.11043930847E+04  0.11043930847E+04  0.00000000000E+00 0. -1.
         24    2    1    2    0    0  0.81552292002E+02  0.20730938867E+02 -0.17587561448E+03  0.21117212614E+03  0.81122665964E+02 0.  0.
         25    2    1    2    0    0 -0.17762592130E+02  0.12122443709E+03  0.58064190068E+03  0.60644797709E+03  0.12499303286E+03 0.  0.
         24    2    1    2    0    0 -0.11598095892E+02 -0.14139747414E+03  0.65084812896E+01  0.16490201989E+03  0.83800682058E+02 0.  0.
        -11    1    5    5    0    0 -0.74940146126E+01  0.85922339761E+01  0.94787436408E+01  0.14826777152E+02  0.00000000000E+00 0.  1.
         12    1    5    5    0    0 -0.41040812789E+01 -0.14998970812E+03 -0.29702623512E+01  0.15007524274E+03  0.00000000000E+00 0. -1.
        -13    1    3    3    0    0  0.97615122262E+02  0.18884851862E+02 -0.13891309744E+03  0.17082797887E+03  0.00000000000E+00 0.  1.
         14    1    3    3    0    0 -0.16062830260E+02  0.18460870053E+01 -0.36962517034E+02  0.40344147267E+02  0.00000000000E+00 0. -1.
          5    1    4    4  501    0  0.92240437891E+00 -0.11658777971E+02  0.24122519830E+01  0.12833039127E+02  0.47000000000E+01 0. -1.
         -5    1    4    4    0  501 -0.18684996509E+02  0.13288321506E+03  0.57822964870E+03  0.59361493796E+03  0.47000000000E+01 0. -1.
          1    1    1    2  502    0 -0.67596020178E+02  0.43067086862E+02  0.14270745502E+04  0.14293235350E+04  0.00000000000E+00 0. -1.
          3    1    1    2  503    0  0.15404416198E+02 -0.43624988670E+02 -0.81699046304E+03  0.81829936599E+03  0.00000000000E+00 0. -1.
<mgrwt>
<rscale>  0 0.60840062E+02</rscale>
<asrwt>0</asrwt>
<pdfrwt beam="1">  1        2 0.31261058E+00 0.80007040E+02</pdfrwt>
<pdfrwt beam="2">  1        4 0.16241075E+00 0.46264843E+02</pdfrwt>
<totfact> 0.10917894E+00</totfact>
</mgrwt>
</event>
<event>
13    1  0.1589573E-008  0.6715370E+02  0.7546771E-02  0.1402111E+00
          2   -1    0    0  503    0  0.00000000000E+00  0.00000000000E+00  0.41365156316E+04  0.41365156316E+04  0.00000000000E+00 0. -1.
         -1   -1    0    0    0  501 -0.00000000000E+00 -0.00000000000E+00 -0.16213111788E+03  0.16213111788E+03  0.00000000000E+00 0.  1.
         24    2    1    2    0    0 -0.10011580171E+02  0.27088253420E+03  0.18478943937E+03  0.33542318768E+03  0.69885612675E+02 0.  0.
         25    2    1    2    0    0  0.15944544135E+03 -0.35478425624E+03  0.25788672656E+04  0.26110296881E+04  0.12499976615E+03 0.  0.
         24    2    1    2    0    0 -0.35513316175E+02  0.70414929196E+02  0.95717810912E+03  0.96377706569E+03  0.80354476434E+02 0.  0.
        -13    1    3    3    0    0 -0.36910732053E+02  0.20754499924E+03  0.14608227060E+03  0.25647097035E+03  0.00000000000E+00 0.  1.
         14    1    3    3    0    0  0.26899151882E+02  0.63337534964E+02  0.38707168774E+02  0.78952217333E+02  0.00000000000E+00 0. -1.
        -13    1    5    5    0    0  0.25227216411E+02  0.11585385387E+02  0.26647987895E+03  0.26792192797E+03  0.00000000000E+00 0.  1.
         14    1    5    5    0    0 -0.60740532586E+02  0.58829543809E+02  0.69069823017E+03  0.69585513772E+03  0.00000000000E+00 0. -1.
          5    1    4    4  502    0  0.11068694765E+03 -0.11079731365E+03  0.84635436291E+03  0.86073540808E+03  0.47000000000E+01 0.  1.
         -5    1    4    4    0  502  0.48758493705E+02 -0.24398694259E+03  0.17325129027E+04  0.17502942800E+04  0.47000000000E+01 0.  1.
          1    1    1    2  503    0 -0.65331099597E+02 -0.45300096012E+01  0.30703649871E+03  0.31394280547E+03  0.00000000000E+00 0. -1.
         -2    1    1    2    0  501 -0.48589445411E+02  0.18016802439E+02 -0.53486799067E+02  0.74474002511E+02  0.00000000000E+00 0.  1.
<mgrwt>
<rscale>  0 0.58991964E+02</rscale>
<asrwt>0</asrwt>
<pdfrwt beam="1">  1        2 0.60831105E+00 0.67153700E+02</pdfrwt>
<pdfrwt beam="2">  1       -1 0.23842814E-01 0.51822190E+02</pdfrwt>
<totfact> 0.10721035E+01</totfact>
</mgrwt>
</event>
<event>
13    1  0.1589573E-008  0.2227919E+03  0.7546771E-02  0.1204285E+00
          2   -1    0    0  503    0  0.00000000000E+00  0.00000000000E+00  0.34253857160E+04  0.34253857160E+04  0.00000000000E+00 0. -1.
          2   -1    0    0  502    0 -0.00000000000E+00 -0.00000000000E+00 -0.79757449306E+03  0.79757449306E+03  0.00000000000E+00 0. -1.
         24    2    1    2    0    0  0.67804002969E+02  0.25518054410E+02 -0.21845721225E+02  0.11076697733E+03  0.80892112169E+02 0.  0.
         25    2    1    2    0    0  0.19705716884E+03 -0.14583946630E+03  0.21509189185E+03  0.34926428794E+03  0.12498137126E+03 0.  0.
         24    2    1    2    0    0 -0.45699259604E+01 -0.56738181457E+02  0.22379764869E+03  0.24461778019E+03  0.80699227798E+02 0.  0.
        -11    1    3    3    0    0  0.62173055532E+02 -0.60412161998E+01  0.12586751588E+02  0.63721357824E+02  0.00000000000E+00 0.  1.
         12    1    3    3    0    0  0.56309474364E+01  0.31559270610E+02 -0.34432472814E+02  0.47045619504E+02  0.00000000000E+00 0. -1.
        -11    1    5    5    0    0  0.20729817807E+02 -0.58175298943E+02  0.94711912573E+02  0.11306828528E+03  0.00000000000E+00 0.  1.
         12    1    5    5    0    0 -0.25299743767E+02  0.14371174859E+01  0.12908573612E+03  0.13154949491E+03  0.00000000000E+00 0. -1.
          5    1    4    4  501    0  0.24774122877E+02 -0.90818179808E+02  0.72793892679E+02  0.11909130850E+03  0.47000000000E+01 0.  1.
         -5    1    4    4    0  501  0.17228304597E+03 -0.55021286491E+02  0.14229799918E+03  0.23017297944E+03  0.47000000000E+01 0.  1.
          1    1    1    2  502    0 -0.65694375452E+02  0.71247762091E+02 -0.64586927364E+03  0.65309961966E+03  0.00000000000E+00 0. -1.
          1    1    1    2  503    0 -0.19459687040E+03  0.10581183125E+03  0.28566366773E+04  0.28652115439E+04  0.00000000000E+00 0. -1.
<mgrwt>
<rscale>  0 0.14693972E+03</rscale>
<asrwt>0</asrwt>
<pdfrwt beam="1">  1        2 0.50373319E+00 0.22279195E+03</pdfrwt>
<pdfrwt beam="2">  1        2 0.11729037E+00 0.96912303E+02</pdfrwt>
<totfact> 0.89521499E+00</totfact>
</mgrwt>
</event>
<event>
13    1  0.1589573E-008  0.2406325E+03  0.7546771E-02  0.1191585E+00
          2   -1    0    0  502    0  0.00000000000E+00  0.00000000000E+00  0.43525480668E+04  0.43525480668E+04  0.00000000000E+00 0. -1.
          2   -1    0    0  503    0 -0.00000000000E+00 -0.00000000000E+00 -0.12363790215E+04  0.12363790215E+04  0.00000000000E+00 0. -1.
         24    2    1    2    0    0  0.94463283514E+02 -0.22280386547E+03 -0.57739733150E+03  0.63099628048E+03  0.78763907678E+02 0.  0.
         25    2    1    2    0    0 -0.13287592287E+03  0.51636769240E+03  0.33072996543E+03  0.63976531557E+03  0.12500297729E+03 0.  0.
         24    2    1    2    0    0 -0.12216027562E+03 -0.31181761028E+03  0.44976490400E+03  0.56440236552E+03  0.64095290879E+02 0.  0.
        -13    1    3    3    0    0  0.40909658722E+02 -0.14774773877E+03 -0.43623664387E+03  0.46239096438E+03  0.00000000000E+00 0.  1.
         14    1    3    3    0    0  0.53553624792E+02 -0.75056126694E+02 -0.14116068764E+03  0.16860531610E+03  0.00000000000E+00 0. -1.
        -13    1    5    5    0    0  0.67012947564E+01 -0.20122494484E+02  0.38886797472E+02  0.44294527352E+02  0.00000000000E+00 0.  1.
         14    1    5    5    0    0 -0.12886157038E+03 -0.29169511579E+03  0.41087810653E+03  0.52010783817E+03  0.00000000000E+00 0. -1.
          5    1    4    4  501    0 -0.55712958329E+02  0.21982111160E+03  0.69926162172E+02  0.23735419311E+03  0.47000000000E+01 0.  1.
         -5    1    4    4    0  501 -0.77162964543E+02  0.29654658080E+03  0.26080380326E+03  0.40241112246E+03  0.47000000000E+01 0.  1.
          1    1    1    2  502    0 -0.78102284805E+02  0.67220210348E+02  0.32972382852E+04  0.32988481070E+04  0.00000000000E+00 0. -1.
          1    1    1    2  503    0  0.23867519978E+03 -0.48966427010E+02 -0.38416677786E+03  0.45491501973E+03  0.00000000000E+00 0. -1.
<mgrwt>
<rscale>  0 0.15746833E+03</rscale>
<asrwt>0</asrwt>
<pdfrwt beam="1">  1        2 0.64008059E+00 0.10304622E+03</pdfrwt>
<pdfrwt beam="2">  1        2 0.18182045E+00 0.24063254E+03</pdfrwt>
<totfact> 0.13293994E+00</totfact>
</mgrwt>
</event>
<event>
13    1  0.1589573E-008  0.2519490E+03  0.7546771E-02  0.1229155E+00
          2   -1    0    0  503    0  0.00000000000E+00  0.00000000000E+00  0.26137027508E+04  0.26137027508E+04  0.00000000000E+00 0. -1.
         -3   -1    0    0    0  501 -0.00000000000E+00 -0.00000000000E+00 -0.71599721780E+03  0.71599721780E+03  0.00000000000E+00 0.  1.
         24    2    1    2    0    0  0.11222935245E+03 -0.25286677061E+03  0.34081430906E+03  0.44708974905E+03  0.84839962333E+02 0.  0.
         25    2    1    2    0    0 -0.13606460695E+03 -0.77346841952E+02  0.13664956790E+04  0.13810984590E+04  0.12500560623E+03 0.  0.
         24    2    1    2    0    0  0.18540608447E+03  0.77308408641E+02  0.50747900443E+01  0.21261795499E+03  0.69488380953E+02 0.  0.
        -11    1    5    5    0    0  0.30832549803E+02  0.43362403475E+02 -0.80732509319E+01  0.53815625455E+02  0.00000000000E+00 0.  1.
         12    1    5    5    0    0  0.15457353466E+03  0.33946005166E+02  0.13148040976E+02  0.15880232954E+03  0.00000000000E+00 0. -1.
        -13    1    3    3    0    0  0.77103702167E+02 -0.22717258904E+03  0.31679685462E+03  0.39738220040E+03  0.00000000000E+00 0.  1.
         14    1    3    3    0    0  0.35125650280E+02 -0.25694181578E+02  0.24017454443E+02  0.49707548647E+02  0.00000000000E+00 0. -1.
          5    1    4    4  502    0 -0.15025417668E+03 -0.86202369463E+02  0.10565907971E+04  0.10707069481E+04  0.47000000000E+01 0.  1.
         -5    1    4    4    0  502  0.14189569736E+02  0.88555275114E+01  0.30990488183E+03  0.31039151090E+03  0.47000000000E+01 0.  1.
          1    1    1    2  503    0 -0.65865723797E+02 -0.23488061201E+01  0.70179905650E+03  0.70488703079E+03  0.00000000000E+00 0. -1.
         -4    1    1    2    0  501 -0.95705106173E+02  0.25525401005E+03 -0.51647830157E+03  0.58400677478E+03  0.00000000000E+00 0.  1.
<mgrwt>
<rscale>  0 0.12886175E+03</rscale>
<asrwt>0</asrwt>
<pdfrwt beam="1">  1        2 0.38436805E+00 0.65907590E+02</pdfrwt>
<pdfrwt beam="2">  1       -3 0.10529371E+00 0.25194897E+03</pdfrwt>
<totfact> 0.24079539E+00</totfact>
</mgrwt>
</event>
<event>
13    1  0.1589573E-008  0.6905374E+02  0.7546771E-02  0.1408698E+00
          2   -1    0    0  502    0  0.00000000000E+00  0.00000000000E+00  0.14260989836E+04  0.14260989836E+04  0.00000000000E+00 0. -1.
          2   -1    0    0  503    0 -0.00000000000E+00 -0.00000000000E+00 -0.23429200300E+04  0.23429200300E+04  0.00000000000E+00 0. -1.
         24    2    1    2    0    0  0.10365364260E+03  0.13067078339E+03 -0.15833023320E+03  0.24285461490E+03  0.78044666558E+02 0.  0.
         25    2    1    2    0    0 -0.27799362508E+03 -0.13299425091E+03  0.29242907352E+03  0.44283422954E+03  0.12497785986E+03 0.  0.
         24    2    1    2    0    0  0.62183256898E+02  0.29337505346E+02 -0.33790049520E+03  0.35404849075E+03  0.80287872592E+02 0.  0.
        -11    1    5    5    0    0  0.32032304137E+02 -0.23392050608E+02 -0.82713602890E+02  0.91732200687E+02  0.00000000000E+00 0.  1.
         12    1    5    5    0    0  0.30150952762E+02  0.52729555954E+02 -0.25518689231E+03  0.26231629006E+03  0.00000000000E+00 0. -1.
        -13    1    3    3    0    0  0.45183798063E+02  0.95696026037E+02 -0.55488306324E+02  0.11949166141E+03  0.00000000000E+00 0.  1.
         14    1    3    3    0    0  0.58469844533E+02  0.34974757355E+02 -0.10284192688E+03  0.12336295350E+03  0.00000000000E+00 0. -1.
          5    1    4    4  501    0 -0.15632798775E+02 -0.41093418926E+02  0.77140374240E+01  0.44884851007E+02  0.47000000000E+01 0. -1.
         -5    1    4    4    0  501 -0.26236082630E+03 -0.91900831981E+02  0.28471503609E+03  0.39794937853E+03  0.47000000000E+01 0. -1.
          1    1    1    2  502    0  0.47805655588E+02 -0.21742748285E+01  0.10068714979E+04  0.10080080959E+04  0.00000000000E+00 0. -1.
          1    1    1    2  503    0  0.64351069997E+02 -0.24839763002E+02 -0.17198908895E+04  0.17212735825E+04  0.00000000000E+00 0. -1.
<mgrwt>
<rscale>  0 0.57485405E+02</rscale>
<asrwt>0</asrwt>
<pdfrwt beam="1">  1        2 0.20972044E+00 0.47855075E+02</pdfrwt>
<pdfrwt beam="2">  1        2 0.34454706E+00 0.69053739E+02</pdfrwt>
<totfact> 0.18782021E+01</totfact>
</mgrwt>
</event>
<event>
13    1  0.1589573E-008  0.3076955E+02  0.7546771E-02  0.1648276E+00
         -1   -1    0    0    0  501 -0.00000000000E+00  0.00000000000E+00  0.11385830361E+04  0.11385830361E+04  0.00000000000E+00 0.  1.
          2   -1    0    0  503    0  0.00000000000E+00 -0.00000000000E+00 -0.18531742109E+04  0.18531742109E+04  0.00000000000E+00 0. -1.
         24    2    1    2    0    0  0.51016003849E+03  0.58825596351E+03  0.14425929055E+03  0.79572087287E+03  0.77798593423E+02 0.  0.
         25    2    1    2    0    0 -0.45174781688E+03 -0.23829776669E+03 -0.36632040366E+03  0.64084188615E+03  0.12500307691E+03 0.  0.
         24    2    1    2    0    0 -0.52437308625E+02 -0.39385798709E+03 -0.13949097223E+03  0.42844291479E+03  0.78941842960E+02 0.  0.
        -11    1    5    5    0    0 -0.64370781179E+02 -0.38102176100E+03 -0.12640560381E+03  0.40657048159E+03  0.00000000000E+00 0.  1.
         12    1    5    5    0    0  0.11933472554E+02 -0.12836226092E+02 -0.13085368424E+02  0.21872433204E+02  0.00000000000E+00 0. -1.
        -11    1    3    3    0    0  0.20354637237E+03  0.29371498330E+03  0.63198687809E+02  0.36289625413E+03  0.00000000000E+00 0.  1.
         12    1    3    3    0    0  0.30661366612E+03  0.29454098021E+03  0.81060602744E+02  0.43282461874E+03  0.00000000000E+00 0. -1.
          5    1    4    4  502    0 -0.44490550413E+03 -0.24841924602E+03 -0.36659715139E+03  0.62774882780E+03  0.47000000000E+01 0. -1.
         -5    1    4    4    0  502 -0.68423127569E+01  0.10121479328E+02  0.27674773315E+00  0.13093058350E+02  0.47000000000E+01 0. -1.
          1    1    1    2  503    0  0.11469139087E+02  0.18558651146E+02 -0.73912248114E+03  0.73944439062E+03  0.00000000000E+00 0. -1.
         -2    1    1    2    0  501 -0.17444052064E+02  0.25341139133E+02  0.38608339167E+03  0.38730718249E+03  0.00000000000E+00 0.  1.
<mgrwt>
<rscale>  0 0.25909216E+02</rscale>
<asrwt>0</asrwt>
<pdfrwt beam="2">  1        2 0.27252562E+00 0.21816615E+02</pdfrwt>
<pdfrwt beam="1">  1       -1 0.16743868E+00 0.30769552E+02</pdfrwt>
<totfact> 0.48243651E+00</totfact>
</mgrwt>
</event>
<event>
13    1  0.1589573E-008  0.9848495E+02  0.7546771E-02  0.1326546E+00
          2   -1    0    0  503    0  0.00000000000E+00  0.00000000000E+00  0.31918093939E+04  0.31918093939E+04  0.00000000000E+00 0. -1.
          2   -1    0    0  502    0 -0.00000000000E+00 -0.00000000000E+00 -0.16117117503E+04  0.16117117503E+04  0.00000000000E+00 0. -1.
         24    2    1    2    0    0  0.60041002525E+02 -0.23265568539E+03 -0.77279233133E+02  0.26487523812E+03  0.80331948590E+02 0.  0.
         25    2    1    2    0    0  0.24078461892E+03 -0.34455996376E+03  0.71238279414E+02  0.44429566455E+03  0.12499977499E+03 0.  0.
         24    2    1    2    0    0 -0.44560452297E+03  0.63956682408E+03  0.92587243237E+03  0.12151209127E+04  0.10802758001E+03 0.  0.
        -13    1    5    5    0    0 -0.11067050699E+03  0.95725335668E+02  0.20700180370E+03  0.25349762867E+03  0.00000000000E+00 0.  1.
         14    1    5    5    0    0 -0.33493401598E+03  0.54384148842E+03  0.71887062867E+03  0.96162328401E+03  0.00000000000E+00 0. -1.
        -13    1    3    3    0    0  0.23064755590E+02 -0.24483628602E+02 -0.36339555706E+02  0.49517616349E+02  0.00000000000E+00 0.  1.
         14    1    3    3    0    0  0.36976246935E+02 -0.20817205679E+03 -0.40939677427E+02  0.21535762177E+03  0.00000000000E+00 0. -1.
          5    1    4    4  501    0  0.69045622361E+02 -0.12336226358E+03  0.82939562172E+02  0.16397136035E+03  0.47000000000E+01 0.  1.
         -5    1    4    4    0  501  0.17173899656E+03 -0.22119770019E+03 -0.11701282758E+02  0.28032430420E+03  0.47000000000E+01 0.  1.
          1    1    1    2  502    0  0.66369687722E+02 -0.30044601815E+01 -0.11071189668E+04  0.11091106207E+04  0.00000000000E+00 0. -1.
          1    1    1    2  503    0  0.78409213805E+02 -0.59346714746E+02  0.17673851318E+04  0.17701187083E+04  0.00000000000E+00 0. -1.
<mgrwt>
<rscale>  0 0.80889489E+02</rscale>
<asrwt>0</asrwt>
<pdfrwt beam="1">  1        2 0.46938374E+00 0.98484951E+02</pdfrwt>
<pdfrwt beam="2">  1        2 0.23701643E+00 0.66437657E+02</pdfrwt>
<totfact> 0.51962073E+00</totfact>
</mgrwt>
</event>
<event>
13    1  0.1589573E-008  0.6635265E+02  0.7546771E-02  0.1419927E+00
          2   -1    0    0  502    0  0.00000000000E+00  0.00000000000E+00  0.19765450141E+04  0.19765450141E+04  0.00000000000E+00 0. -1.
          2   -1    0    0  503    0 -0.00000000000E+00 -0.00000000000E+00 -0.30502194520E+04  0.30502194520E+04  0.00000000000E+00 0. -1.
         24    2    1    2    0    0  0.67392389272E+03 -0.65721221039E+02  0.22786545874E+03  0.71921409113E+03  0.82786167488E+02 0.  0.
         25    2    1    2    0    0  0.28446903201E+03 -0.21128835127E+03 -0.15816819853E+03  0.40768515937E+03  0.12499845035E+03 0.  0.
         24    2    1    2    0    0 -0.95702237780E+03  0.22940328334E+03  0.76791902432E+03  0.12504313730E+04  0.73220848061E+02 0.  0.
        -13    1    5    5    0    0 -0.44359806172E+03  0.70370538565E+02  0.36267136109E+03  0.57728828952E+03  0.00000000000E+00 0.  1.
         14    1    5    5    0    0 -0.51342431609E+03  0.15903274478E+03  0.40524766323E+03  0.67314308346E+03  0.00000000000E+00 0. -1.
        -13    1    3    3    0    0  0.13344758430E+03  0.19000569164E+02  0.36705162910E+02  0.13970164054E+03  0.00000000000E+00 0.  1.
         14    1    3    3    0    0  0.54047630841E+03 -0.84721790203E+02  0.19116029583E+03  0.57951245059E+03  0.00000000000E+00 0. -1.
          5    1    4    4  501    0  0.23910016290E+03 -0.13085532753E+03 -0.73571154618E+02  0.28235936222E+03  0.47000000000E+01 0. -1.
         -5    1    4    4    0  501  0.45368869110E+02 -0.80433023746E+02 -0.84597043914E+02  0.12532579715E+03  0.47000000000E+01 0. -1.
          1    1    1    2  502    0 -0.45612419050E+02 -0.18568102802E+01  0.36717498872E+03  0.37000190927E+03  0.00000000000E+00 0. -1.
          1    1    1    2  503    0  0.44241872126E+02  0.49463099252E+02 -0.22784657112E+04  0.22794319333E+04  0.00000000000E+00 0. -1.
<mgrwt>
<rscale>  0 0.55036456E+02</rscale>
<asrwt>0</asrwt>
<pdfrwt beam="1">  1        2 0.29066839E+00 0.45650197E+02</pdfrwt>
<pdfrwt beam="2">  1        2 0.44856168E+00 0.66352648E+02</pdfrwt>
<totfact> 0.46302802E+00</totfact>
</mgrwt>
</event>
<event>
13    1  0.1589573E-008  0.1006487E+03  0.7546771E-02  0.1362345E+00
          2   -1    0    0  503    0  0.00000000000E+00  0.00000000000E+00  0.23823402267E+04  0.23823402267E+04  0.00000000000E+00 0. -1.
          2   -1    0    0  502    0 -0.00000000000E+00 -0.00000000000E+00 -0.18182952591E+04  0.18182952591E+04  0.00000000000E+00 0. -1.
         24    2    1    2    0    0  0.96249313508E+03 -0.21227125806E+03 -0.12984429100E+04  0.16321068097E+04  0.79790511548E+02 0.  0.
         25    2    1    2    0    0 -0.82419093972E+03  0.13505570635E+02  0.96866553088E+03  0.12780503105E+04  0.12500631897E+03 0.  0.
         24    2    1    2    0    0 -0.22148340768E+02  0.15940482960E+03  0.15208354432E+01  0.18052267318E+03  0.81765970273E+02 0.  0.
        -11    1    5    5    0    0  0.27936597224E+02  0.94311774305E+02 -0.58136184627E+00  0.98364130752E+02  0.00000000000E+00 0.  1.
         12    1    5    5    0    0 -0.50084937991E+02  0.65093055295E+02  0.21021972894E+01  0.82158542433E+02  0.00000000000E+00 0. -1.
        -11    1    3    3    0    0  0.20269944350E+03 -0.27211253359E+02 -0.22558420373E+03  0.30449261021E+03  0.00000000000E+00 0.  1.
         12    1    3    3    0    0  0.75979369159E+03 -0.18506000470E+03 -0.10728587062E+04  0.13276141995E+04  0.00000000000E+00 0. -1.
          5    1    4    4  501    0 -0.67146719962E+03  0.93227842693E+01  0.70766989920E+03  0.97558899681E+03  0.47000000000E+01 0. -1.
         -5    1    4    4    0  501 -0.15272374010E+03  0.41827863658E+01  0.26099563168E+03  0.30246131364E+03  0.47000000000E+01 0. -1.
          1    1    1    2  502    0 -0.39889136208E+02 -0.26289280118E+02 -0.10091645988E+03  0.11165303986E+03  0.00000000000E+00 0. -1.
          1    1    1    2  503    0 -0.76264718387E+02  0.65650137942E+02  0.99321797114E+03  0.99830265255E+03  0.00000000000E+00 0. -1.
<mgrwt>
<rscale>  0 0.69341914E+02</rscale>
<asrwt>0</asrwt>
<pdfrwt beam="1">  1        2 0.35034415E+00 0.10064871E+03</pdfrwt>
<pdfrwt beam="2">  1        2 0.26739636E+00 0.47773104E+02</pdfrwt>
<totfact> 0.11208671E+01</totfact>
</mgrwt>
</event>
<event>
13    1  0.1589573E-008  0.3726316E+02  0.7546771E-02  0.1550694E+00
          2   -1    0    0  503    0  0.00000000000E+00  0.00000000000E+00  0.17274237695E+04  0.17274237695E+04  0.00000000000E+00 0. -1.
         -3   -1    0    0    0  501 -0.00000000000E+00 -0.00000000000E+00 -0.30182457249E+03  0.30182457249E+03  0.00000000000E+00 0.  1.
         24    2    1    2    0    0 -0.96116027278E+01  0.43933914327E+01  0.78881636700E+02  0.11386590892E+03  0.81433701935E+02 0.  0.
         25    2    1    2    0    0 -0.14235929367E+02  0.62781886355E+02  0.58316011545E+03  0.59987136205E+03  0.12500281525E+03 0.  0.
         24    2    1    2    0    0  0.52266802730E+02 -0.87384756390E+02  0.28144419452E+03  0.31067692273E+03  0.83315072884E+02 0.  0.
        -11    1    3    3    0    0 -0.32750021170E+02  0.31292938344E+02  0.33917208203E+02  0.56587886416E+02  0.00000000000E+00 0.  1.
         12    1    3    3    0    0  0.23138418442E+02 -0.26899546911E+02  0.44964428498E+02  0.57278022505E+02  0.00000000000E+00 0. -1.
        -11    1    5    5    0    0  0.36299184283E+02  0.27516904222E+01  0.11623620183E+03  0.12180335461E+03  0.00000000000E+00 0.  1.
         12    1    5    5    0    0  0.15967618448E+02 -0.90136446812E+02  0.16520799269E+03  0.18887356811E+03  0.00000000000E+00 0. -1.
          5    1    4    4  502    0  0.21747169825E+02 -0.29360002820E+02  0.97717029359E+02  0.10443015363E+03  0.47000000000E+01 0.  1.
         -5    1    4    4    0  502 -0.35983099191E+02  0.92141889174E+02  0.48544308609E+03  0.49544120842E+03  0.47000000000E+01 0.  1.
          1    1    1    2  503    0 -0.27582004453E+02 -0.17066479682E+02  0.74178773267E+03  0.74249651315E+03  0.00000000000E+00 0. -1.
         -4    1    1    2    0  501 -0.83726618233E+00  0.37275958284E+02 -0.25967448228E+03  0.26233763518E+03  0.00000000000E+00 0.  1.
<mgrwt>
<rscale>  0 0.34765384E+02</rscale>
<asrwt>0</asrwt>
<pdfrwt beam="1">  1        2 0.25403290E+00 0.32435038E+02</pdfrwt>
<pdfrwt beam="2">  1       -3 0.44385967E-01 0.37263157E+02</pdfrwt>
<totfact> 0.38886643E+01</totfact>
</mgrwt>
</event>
<event>
13    1  0.1589573E-008  0.8243242E+02  0.7546771E-02  0.1350436E+00
          2   -1    0    0  503    0  0.00000000000E+00  0.00000000000E+00  0.63772116429E+03  0.63772116429E+03  0.00000000000E+00 0. -1.
          2   -1    0    0  502    0 -0.00000000000E+00 -0.00000000000E+00 -0.11612737554E+04  0.11612737554E+04  0.00000000000E+00 0. -1.
         24    2    1    2    0    0 -0.24694120626E+02 -0.30020293195E+02 -0.14176653359E+03  0.16861281513E+03  0.82592455978E+02 0.  0.
         25    2    1    2    0    0 -0.58120990189E+02  0.69898910188E+02  0.48403441829E+03  0.50811264346E+03  0.12500093284E+03 0.  0.
         24    2    1    2    0    0  0.42541847096E+02 -0.46317686902E+02 -0.27411139837E+03  0.29171745157E+03  0.77504038345E+02 0.  0.
        -11    1    5    5    0    0  0.25208730262E+01 -0.21830978914E+02 -0.21560590067E+03  0.21672298181E+03  0.00000000000E+00 0.  1.
         12    1    5    5    0    0  0.40020974070E+02 -0.24486707988E+02 -0.58505497708E+02  0.74994469767E+02  0.00000000000E+00 0. -1.
        -11    1    3    3    0    0  0.28731370237E+02  0.11767908897E+01 -0.54788448143E+02  0.61876090070E+02  0.00000000000E+00 0.  1.
         12    1    3    3    0    0 -0.53425490863E+02 -0.31197084085E+02 -0.86978085445E+02  0.10673672506E+03  0.00000000000E+00 0. -1.
          5    1    4    4  501    0 -0.97448578152E+02  0.42788777381E+02  0.33840694712E+03  0.35477944799E+03  0.47000000000E+01 0. -1.
         -5    1    4    4    0  501  0.39327587964E+02  0.27110132806E+02  0.14562747116E+03  0.15333319547E+03  0.47000000000E+01 0. -1.
          1    1    1    2  502    0  0.42559708106E+02  0.70903692164E+02 -0.69980410781E+03  0.70467329424E+03  0.00000000000E+00 0. -1.
          1    1    1    2  503    0 -0.22864443870E+01 -0.64464622255E+02  0.10809503041E+03  0.12587871524E+03  0.00000000000E+00 0. -1.
<mgrwt>
<rscale>  0 0.72919930E+02</rscale>
<asrwt>0</asrwt>
<pdfrwt beam="1">  1        2 0.93782525E-01 0.64505158E+02</pdfrwt>
<pdfrwt beam="2">  1        2 0.17077555E+00 0.82432419E+02</pdfrwt>
<totfact> 0.19264187E+02</totfact>
</mgrwt>
</event>
<event>
13    1  0.1589573E-008  0.2459664E+03  0.7546771E-02  0.1319863E+00
          2   -1    0    0  503    0  0.00000000000E+00  0.00000000000E+00  0.19578876250E+04  0.19578876250E+04  0.00000000000E+00 0. -1.
          2   -1    0    0  502    0 -0.00000000000E+00 -0.00000000000E+00 -0.58881017158E+03  0.58881017158E+03  0.00000000000E+00 0. -1.
         24    2    1    2    0    0  0.30408676287E+03 -0.55604977047E+00  0.37282016826E+02  0.31745116728E+03  0.83163852041E+02 0.  0.
         25    2    1    2    0    0 -0.72310657174E+02  0.22953843264E+03  0.38305191905E+03  0.46932963516E+03  0.12499924220E+03 0.  0.
         24    2    1    2    0    0 -0.16245050915E+02 -0.12403329012E+03  0.20947641394E+03  0.25687561695E+03  0.80352696570E+02 0.  0.
        -11    1    5    5    0    0 -0.84227695643E+00 -0.47085497808E+01  0.79943358620E+02  0.80086331286E+02  0.00000000000E+00 0.  1.
         12    1    5    5    0    0 -0.15402773959E+02 -0.11932474034E+03  0.12953305532E+03  0.17678928566E+03  0.00000000000E+00 0. -1.
        -11    1    3    3    0    0  0.85122111243E+02  0.30603463607E+02  0.32848890327E+02  0.96236143953E+02  0.00000000000E+00 0.  1.
         12    1    3    3    0    0  0.21896465163E+03 -0.31159513377E+02  0.44331264986E+01  0.22121502333E+03  0.00000000000E+00 0. -1.
          5    1    4    4  501    0 -0.18731978488E+02  0.11931377577E+02 -0.30215915138E+01  0.22901196568E+02  0.47000000000E+01 0. -1.
         -5    1    4    4    0  501 -0.53578678686E+02  0.21760705506E+03  0.38607351057E+03  0.44642843859E+03  0.47000000000E+01 0. -1.
          1    1    1    2  502    0 -0.20350916082E+03 -0.13049132166E+03 -0.34342473884E+03  0.41998156485E+03  0.00000000000E+00 0. -1.
          1    1    1    2  503    0 -0.12021893966E+02  0.25542228915E+02  0.10826918424E+04  0.10830598123E+04  0.00000000000E+00 0. -1.
<mgrwt>
<rscale>  0 0.83328414E+02</rscale>
<asrwt>0</asrwt>
<pdfrwt beam="1">  1        2 0.28792465E+00 0.28229973E+02</pdfrwt>
<pdfrwt beam="2">  1        2 0.86589731E-01 0.24596639E+03</pdfrwt>
<totfact> 0.93471369E+01</totfact>
</mgrwt>
</event>
<event>
13    1  0.1589573E-008  0.9990041E+02  0.7546771E-02  0.1432552E+00
          2   -1    0    0  502    0  0.00000000000E+00  0.00000000000E+00  0.89839889575E+03  0.89839889575E+03  0.00000000000E+00 0. -1.
          2   -1    0    0  503    0 -0.00000000000E+00 -0.00000000000E+00 -0.10871019859E+04  0.10871019859E+04  0.00000000000E+00 0. -1.
         24    2    1    2    0    0  0.15208716061E+03  0.27553845286E+03  0.20375262061E+03  0.38339899475E+03  0.80173033806E+02 0.  0.
         25    2    1    2    0    0 -0.10235163124E+03 -0.39213372854E+03 -0.26825276212E+03  0.50182652034E+03  0.12500237862E+03 0.  0.
         24    2    1    2    0    0 -0.22011698683E+02  0.24979509160E+01  0.84710718410E+02  0.11809704661E+03  0.79248040770E+02 0.  0.
        -11    1    3    3    0    0  0.24305938553E+02  0.11476983878E+02  0.11917019068E+01  0.26905760746E+02  0.00000000000E+00 0.  1.
         12    1    3    3    0    0  0.12778122206E+03  0.26406146898E+03  0.20256091870E+03  0.35649323401E+03  0.00000000000E+00 0. -1.
        -13    1    5    5    0    0  0.25670361647E+02  0.16699067607E+02  0.20435129009E+02  0.36816040304E+02  0.00000000000E+00 0.  1.
         14    1    5    5    0    0 -0.47682060330E+02 -0.14201116691E+02  0.64275589401E+02  0.81281006301E+02  0.00000000000E+00 0. -1.
          5    1    4    4  501    0 -0.43542618582E+02 -0.16969916604E+03 -0.19065702766E+03  0.25897096127E+03  0.47000000000E+01 0. -1.
         -5    1    4    4    0  501 -0.58809012660E+02 -0.22243456250E+03 -0.77595734461E+02  0.24285555907E+03  0.47000000000E+01 0. -1.
          1    1    1    2  502    0 -0.52770833886E+02  0.10265054261E+03  0.37768803259E+03  0.39493055689E+03  0.00000000000E+00 0. -1.
          1    1    1    2  503    0  0.25047003201E+02  0.11446782155E+02 -0.58660169959E+03  0.58724776300E+03  0.00000000000E+00 0. -1.
<mgrwt>
<rscale>  0 0.52451210E+02</rscale>
<asrwt>0</asrwt>
<pdfrwt beam="1">  1        2 0.13211749E+00 0.99900405E+02</pdfrwt>
<pdfrwt beam="2">  1        2 0.15986794E+00 0.27538722E+02</pdfrwt>
<totfact> 0.14803779E+02</totfact>
</mgrwt>
</event>
<event>
13    1  0.1589573E-008  0.3243925E+03  0.7546771E-02  0.1217631E+00
          2   -1    0    0  503    0  0.00000000000E+00  0.00000000000E+00  0.19639312680E+04  0.19639312680E+04  0.00000000000E+00 0. -1.
          2   -1    0    0  502    0 -0.00000000000E+00 -0.00000000000E+00 -0.18894293413E+04  0.18894293413E+04  0.00000000000E+00 0. -1.
         24    2    1    2    0    0 -0.98546963543E+01  0.11727067237E+02 -0.47641647939E+03  0.48320154383E+03  0.79223929351E+02 0.  0.
         25    2    1    2    0    0  0.17708323706E+03 -0.31160098742E+03  0.17061478329E+03  0.41615680012E+03  0.12499371902E+03 0.  0.
         24    2    1    2    0    0  0.62899945654E+02  0.54217956062E+02 -0.86069826525E+02  0.14403400094E+03  0.80260752966E+02 0.  0.
        -11    1    5    5    0    0 -0.89312024759E+01  0.59266643167E+00  0.94664008540E+01  0.13028061110E+02  0.00000000000E+00 0.  1.
         12    1    5    5    0    0  0.71831148130E+02  0.53625289630E+02 -0.95536227379E+02  0.13100593983E+03  0.00000000000E+00 0. -1.
        -11    1    3    3    0    0 -0.38725037726E+02 -0.38845969391E+01 -0.14393430374E+03  0.14910332804E+03  0.00000000000E+00 0.  1.
         12    1    3    3    0    0  0.28870341372E+02  0.15611664176E+02 -0.33248217565E+03  0.33409821579E+03  0.00000000000E+00 0. -1.
          5    1    4    4  501    0 -0.12920828189E+02 -0.26715528540E+01  0.17589140788E+02  0.22484502872E+02  0.47000000000E+01 0. -1.
         -5    1    4    4    0  501  0.19000406525E+03 -0.30892943457E+03  0.15302564250E+03  0.39367229724E+03  0.47000000000E+01 0. -1.
          1    1    1    2  502    0  0.27733226536E+02  0.50635110176E+02 -0.11551178678E+04  0.11565596979E+04  0.00000000000E+00 0. -1.
          1    1    1    2  503    0 -0.25786171289E+03  0.19502085395E+03  0.16214913171E+04  0.16534085665E+04  0.00000000000E+00 0. -1.
<mgrwt>
<rscale>  0 0.13685029E+03</rscale>
<asrwt>0</asrwt>
<pdfrwt beam="1">  1        2 0.28881342E+00 0.32439246E+03</pdfrwt>
<pdfrwt beam="2">  1        2 0.27785726E+00 0.57732541E+02</pdfrwt>
<totfact> 0.14526289E+01</totfact>
</mgrwt>
</event>
<event>
13    1  0.1589573E-008  0.8149713E+02  0.7546771E-02  0.1483726E+00
          2   -1    0    0  503    0  0.00000000000E+00  0.00000000000E+00  0.30472420383E+04  0.30472420383E+04  0.00000000000E+00 0. -1.
          2   -1    0    0  502    0 -0.00000000000E+00 -0.00000000000E+00 -0.12046791751E+04  0.12046791751E+04  0.00000000000E+00 0. -1.
         24    2    1    2    0    0 -0.95649143285E+02  0.98563479350E+01  0.10835302090E+03  0.16510327291E+03  0.79201056696E+02 0.  0.
         25    2    1    2    0    0  0.61757625475E+02  0.73485677078E+02  0.11834249240E+04  0.11938734556E+04  0.12500051302E+03 0.  0.
         24    2    1    2    0    0  0.93077660074E+02 -0.15565629521E+01  0.48032878075E+03  0.49580565997E+03  0.80259835186E+02 0.  0.
        -11    1    5    5    0    0 -0.12733436692E+02  0.24154807176E+01  0.23208412464E+02  0.26582049699E+02  0.00000000000E+00 0.  1.
         12    1    5    5    0    0  0.10581109677E+03 -0.39720436696E+01  0.45712036829E+03  0.46922361027E+03  0.00000000000E+00 0. -1.
        -13    1    3    3    0    0 -0.10019284504E+03  0.24102815670E+02  0.71765788391E+02  0.12557818403E+03  0.00000000000E+00 0.  1.
         14    1    3    3    0    0  0.45437017553E+01 -0.14246467735E+02  0.36587232504E+02  0.39525088879E+02  0.00000000000E+00 0. -1.
          5    1    4    4  501    0 -0.12574949851E+02 -0.95732340432E+01  0.57925471573E+03  0.57948933715E+03  0.47000000000E+01 0. -1.
         -5    1    4    4    0  501  0.74332575326E+02  0.83058911121E+02  0.60417020824E+03  0.61438411845E+03  0.47000000000E+01 0. -1.
          1    1    1    2  502    0 -0.56527328040E+02 -0.58686237914E+02 -0.11618047355E+04  0.11646586009E+04  0.00000000000E+00 0. -1.
          1    1    1    2  503    0 -0.26588142231E+01 -0.23099224146E+02  0.12322608730E+04  0.12324802240E+04  0.00000000000E+00 0. -1.
<mgrwt>
<rscale>  0 0.43531024E+02</rscale>
<asrwt>0</asrwt>
<pdfrwt beam="1">  1        2 0.44812383E+00 0.23251741E+02</pdfrwt>
<pdfrwt beam="2">  1        2 0.17715870E+00 0.81497127E+02</pdfrwt>
<totfact> 0.12571152E+01</totfact>
</mgrwt>
</event>
<event>
13    1  0.1589573E-008  0.1038643E+03  0.7546771E-02  0.1423557E+00
          2   -1    0    0  502    0  0.00000000000E+00  0.00000000000E+00  0.16267793052E+04  0.16267793052E+04  0.00000000000E+00 0. -1.
          2   -1    0    0  503    0 -0.00000000000E+00 -0.00000000000E+00 -0.22135546347E+04  0.22135546347E+04  0.00000000000E+00 0. -1.
         24    2    1    2    0    0 -0.51553927503E+03  0.55089410232E+02 -0.70163455433E+03  0.87600078311E+03  0.79187984890E+02 0.  0.
         25    2    1    2    0    0 -0.17237531654E+03  0.53519341347E+03 -0.57723369214E+03  0.81545568525E+03  0.12499599877E+03 0.  0.
         24    2    1    2    0    0  0.61244587142E+03 -0.61326977847E+03  0.87544234843E+03  0.12347951443E+04  0.84439187997E+02 0.  0.
        -13    1    3    3    0    0 -0.60192202496E+02 -0.68206311565E+00 -0.12832664165E+03  0.14174375968E+03  0.00000000000E+00 0.  1.
         14    1    3    3    0    0 -0.45534707254E+03  0.55771473347E+02 -0.57330791268E+03  0.73425702343E+03  0.00000000000E+00 0. -1.
        -13    1    5    5    0    0  0.43524395211E+03 -0.42387258437E+03  0.55840025758E+03  0.82517641344E+03  0.00000000000E+00 0.  1.
         14    1    5    5    0    0  0.17720191931E+03 -0.18939719410E+03  0.31704209084E+03  0.40961873090E+03  0.00000000000E+00 0. -1.
          5    1    4    4  501    0  0.15795894574E+00  0.18051162719E+02 -0.64135361528E+02  0.66792993831E+02  0.47000000000E+01 0. -1.
         -5    1    4    4    0  501 -0.17253327548E+03  0.51714225075E+03 -0.51309833061E+03  0.74866269142E+03  0.47000000000E+01 0. -1.
          1    1    1    2  502    0 -0.27342181082E+02  0.75378522182E+01  0.35987892288E+03  0.36099481051E+03  0.00000000000E+00 0. -1.
          1    1    1    2  503    0  0.10281090123E+03  0.15449102552E+02 -0.54322835429E+03  0.55308751666E+03  0.00000000000E+00 0. -1.
<mgrwt>
<rscale>  0 0.54275400E+02</rscale>
<asrwt>0</asrwt>
<pdfrwt beam="1">  1        2 0.23923225E+00 0.28362195E+02</pdfrwt>
<pdfrwt beam="2">  1        2 0.32552274E+00 0.10386428E+03</pdfrwt>
<totfact> 0.17415783E+01</totfact>
</mgrwt>
</event>
<event>
13    1  0.1589573E-008  0.5796412E+02  0.7546771E-02  0.1511496E+00
          2   -1    0    0  503    0  0.00000000000E+00  0.00000000000E+00  0.17837808835E+04  0.17837808835E+04  0.00000000000E+00 0. -1.
          2   -1    0    0  502    0 -0.00000000000E+00 -0.00000000000E+00 -0.36509326234E+04  0.36509326234E+04  0.00000000000E+00 0. -1.
         24    2    1    2    0    0 -0.30554243339E+03  0.78595244418E+03 -0.38914804319E+03  0.93366607128E+03  0.96014113629E+02 0.  0.
         25    2    1    2    0    0  0.19970967716E+03 -0.57933928120E+03  0.33520092932E+02  0.62632286076E+03  0.12505507345E+03 0.  0.
         24    2    1    2    0    0  0.15187266391E+03 -0.19396431436E+03 -0.68607544676E+03  0.73343376383E+03  0.80858555433E+02 0.  0.
        -11    1    5    5    0    0  0.83673030698E+02 -0.13804226078E+03 -0.34116861889E+03  0.37742928920E+03  0.00000000000E+00 0.  1.
         12    1    5    5    0    0  0.68199633211E+02 -0.55922053583E+02 -0.34490682786E+03  0.35600447463E+03  0.00000000000E+00 0. -1.
        -11    1    3    3    0    0 -0.16116626371E+03  0.48891479340E+03 -0.27887076445E+03  0.58547514297E+03  0.00000000000E+00 0.  1.
         12    1    3    3    0    0 -0.14437616968E+03  0.29703765078E+03 -0.11027727875E+03  0.34819092831E+03  0.00000000000E+00 0. -1.
          5    1    4    4  501    0  0.11530517356E+03 -0.20871492728E+03  0.57824917560E+02  0.24540377954E+03  0.47000000000E+01 0. -1.
         -5    1    4    4    0  501  0.84404503599E+02 -0.37062435391E+03 -0.24304824628E+02  0.38091908123E+03  0.47000000000E+01 0. -1.
          1    1    1    2  502    0 -0.42516415574E+02 -0.39413427941E+02 -0.19827884882E+04  0.19836358669E+04  0.00000000000E+00 0. -1.
          1    1    1    2  503    0 -0.35234921011E+01  0.26764579319E+02  0.11573401453E+04  0.11576549441E+04  0.00000000000E+00 0. -1.
<mgrwt>
<rscale>  0 0.39557189E+02</rscale>
<asrwt>0</asrwt>
<pdfrwt beam="1">  1        2 0.26232072E+00 0.26995513E+02</pdfrwt>
<pdfrwt beam="2">  1        2 0.53690185E+00 0.57964124E+02</pdfrwt>
<totfact> 0.28376649E+00</totfact>
</mgrwt>
</event>
<event>
13    1  0.1589573E-008  0.3052342E+03  0.7546771E-02  0.1251999E+00
          2   -1    0    0  502    0  0.00000000000E+00  0.00000000000E+00  0.12401970305E+04  0.12401970305E+04  0.00000000000E+00 0. -1.
          2   -1    0    0  503    0 -0.00000000000E+00 -0.00000000000E+00 -0.26623454727E+04  0.26623454727E+04  0.00000000000E+00 0. -1.
         24    2    1    2    0    0 -0.48560057897E+03 -0.31701678352E+03 -0.18946851110E+04  0.19831452009E+04  0.82010088758E+02 0.  0.
         25    2    1    2    0    0  0.49880472843E+03  0.77666112614E+02  0.48109532269E+03  0.70846076607E+03  0.12500306154E+03 0.  0.
         24    2    1    2    0    0 -0.17031389986E+03 -0.90978316397E+01  0.89460358546E+02  0.20096138176E+03  0.57382281066E+02 0.  0.
        -11    1    3    3    0    0 -0.14492721077E+03 -0.13020660916E+03 -0.71870167891E+03  0.74464069239E+03  0.00000000000E+00 0.  1.
         12    1    3    3    0    0 -0.34067336820E+03 -0.18681017436E+03 -0.11759834321E+04  0.12385045085E+04  0.00000000000E+00 0. -1.
        -13    1    5    5    0    0 -0.41721062781E+02 -0.27101056405E+02  0.19223459317E+02  0.53335314061E+02  0.00000000000E+00 0.  1.
         14    1    5    5    0    0 -0.12859283708E+03  0.18003224766E+02  0.70236899230E+02  0.14762606770E+03  0.00000000000E+00 0. -1.
          5    1    4    4  501    0  0.39407834061E+03  0.52731234985E+02  0.30143234640E+03  0.49896079118E+03  0.47000000000E+01 0. -1.
         -5    1    4    4    0  501  0.10472638782E+03  0.24934877630E+02  0.17966297630E+03  0.20949997489E+03  0.47000000000E+01 0. -1.
          1    1    1    2  502    0  0.26196015271E+02 -0.34285204731E+02  0.41095169232E+03  0.41321059994E+03  0.00000000000E+00 0. -1.
          1    1    1    2  503    0  0.13091373513E+03  0.28273370728E+03 -0.50897070474E+03  0.59676455454E+03  0.00000000000E+00 0. -1.
<mgrwt>
<rscale>  0 0.11476102E+03</rscale>
<asrwt>0</asrwt>
<pdfrwt beam="1">  1        2 0.18238192E+00 0.43147497E+02</pdfrwt>
<pdfrwt beam="2">  1        2 0.39152139E+00 0.30523422E+03</pdfrwt>
<totfact> 0.13391374E+01</totfact>
</mgrwt>
</event>
<event>
13    1  0.1589573E-008  0.3260267E+03  0.7546771E-02  0.1204308E+00
          2   -1    0    0  503    0  0.00000000000E+00  0.00000000000E+00  0.23343592417E+04  0.23343592417E+04  0.00000000000E+00 0. -1.
          2   -1    0    0  502    0 -0.00000000000E+00 -0.00000000000E+00 -0.11666838307E+04  0.11666838307E+04  0.00000000000E+00 0. -1.
         24    2    1    2    0    0 -0.36366010724E+02  0.58860924738E+03  0.71056751121E+03  0.92578142257E+03  0.66194573415E+02 0.  0.
         25    2    1    2    0    0  0.11618297621E+03 -0.19920755101E+03  0.33993250949E+03  0.42937133877E+03  0.12499401268E+03 0.  0.
         24    2    1    2    0    0 -0.12665399124E+03 -0.87945535661E+01  0.27615740568E+03  0.31447279147E+03  0.80694771785E+02 0.  0.
        -11    1    3    3    0    0  0.10075348349E+01  0.24228471970E+03  0.33638591584E+03  0.41455805974E+03  0.00000000000E+00 0.  1.
         12    1    3    3    0    0 -0.37373545559E+02  0.34632452768E+03  0.37418159537E+03  0.51122336282E+03  0.00000000000E+00 0. -1.
        -13    1    5    5    0    0 -0.97190837197E+02 -0.82284224742E+01  0.11568395458E+03  0.15131603721E+03  0.00000000000E+00 0.  1.
         14    1    5    5    0    0 -0.29463154046E+02 -0.56613109187E+00  0.16047345110E+03  0.16315675426E+03  0.00000000000E+00 0. -1.
          5    1    4    4  501    0 -0.80609608477E+01 -0.10226414536E+03  0.10900359299E+03  0.14975582727E+03  0.47000000000E+01 0.  1.
         -5    1    4    4    0  501  0.12424393706E+03 -0.96943405646E+02  0.23092891650E+03  0.27961551150E+03  0.47000000000E+01 0.  1.
          1    1    1    2  502    0  0.47040638526E+02 -0.31439883714E+03 -0.96842688885E+03  0.10192693901E+04  0.00000000000E+00 0. -1.
          1    1    1    2  503    0 -0.20361277086E+00 -0.66208305661E+02  0.80944487347E+03  0.81214812958E+03  0.00000000000E+00 0. -1.
<mgrwt>
<rscale>  0 0.14692100E+03</rscale>
<asrwt>0</asrwt>
<pdfrwt beam="1">  1        2 0.34328812E+00 0.66208619E+02</pdfrwt>
<pdfrwt beam="2">  1        2 0.17157115E+00 0.32602673E+03</pdfrwt>
<totfact> 0.22984724E+01</totfact>
</mgrwt>
</event>
<event>
13    1  0.1589573E-008  0.1032319E+03  0.7546771E-02  0.1347363E+00
          2   -1    0    0  502    0  0.00000000000E+00  0.00000000000E+00  0.98923759623E+03  0.98923759623E+03  0.00000000000E+00 0. -1.
          2   -1    0    0  503    0 -0.00000000000E+00 -0.00000000000E+00 -0.32705554163E+04  0.32705554163E+04  0.00000000000E+00 0. -1.
         24    2    1    2    0    0 -0.48026057453E+03 -0.74119958940E+02 -0.23118609368E+04  0.23638549750E+04  0.83458758501E+02 0.  0.
         25    2    1    2    0    0  0.37289608355E+03  0.16462439891E+03  0.30150919726E+03  0.52220063839E+03  0.12503211129E+03 0.  0.
         24    2    1    2    0    0  0.69564837046E+02  0.23605494158E+02  0.31950637483E+00  0.10840632053E+03  0.79720401021E+02 0.  0.
        -11    1    3    3    0    0 -0.15433888771E+03 -0.63470092233E+02 -0.76189570646E+03  0.77995769910E+03  0.00000000000E+00 0.  1.
         12    1    3    3    0    0 -0.32592168682E+03 -0.10649866707E+02 -0.15499652303E+04  0.15838972759E+04  0.00000000000E+00 0. -1.
        -13    1    5    5    0    0 -0.43592468026E+01 -0.20126729003E+02  0.81751588035E+01  0.22156747833E+02  0.00000000000E+00 0.  1.
         14    1    5    5    0    0  0.73924083849E+02  0.43732223162E+02 -0.78556524287E+01  0.86249572698E+02  0.00000000000E+00 0. -1.
          5    1    4    4  501    0  0.19765607164E+03  0.57019786142E+02  0.82358973529E+02  0.22163995396E+03  0.47000000000E+01 0. -1.
         -5    1    4    4    0  501  0.17524001190E+03  0.10760461277E+03  0.21915022374E+03  0.30056068443E+03  0.47000000000E+01 0. -1.
          1    1    1    2  502    0 -0.34282903163E+02 -0.40260371112E+02  0.49213467733E+03  0.49496742878E+03  0.00000000000E+00 0. -1.
          1    1    1    2  503    0  0.72082557101E+02 -0.73849563015E+02 -0.76342026430E+03  0.77036364981E+03  0.00000000000E+00 0. -1.
<mgrwt>
<rscale>  0 0.73883858E+02</rscale>
<asrwt>0</asrwt>
<pdfrwt beam="1">  1        2 0.14547612E+00 0.52879249E+02</pdfrwt>
<pdfrwt beam="2">  1        2 0.48096404E+00 0.10323189E+03</pdfrwt>
<totfact> 0.97972740E+00</totfact>
</mgrwt>
</event>
<event>
13    1  0.1589573E-008  0.6704244E+02  0.7546771E-02  0.1452506E+00
         -1   -1    0    0    0  501 -0.00000000000E+00  0.00000000000E+00  0.13924053804E+04  0.13924053804E+04  0.00000000000E+00 0.  1.
          2   -1    0    0  503    0  0.00000000000E+00 -0.00000000000E+00 -0.16690031535E+04  0.16690031535E+04  0.00000000000E+00 0. -1.
         24    2    1    2    0    0 -0.57702448455E+02 -0.37823946314E+02 -0.23544932927E+03  0.25835957063E+03  0.80950958067E+02 0.  0.
         25    2    1    2    0    0  0.17321938674E+03  0.34227500259E+01 -0.48224686514E+03  0.52745087879E+03  0.12500287771E+03 0.  0.
         24    2    1    2    0    0 -0.22242502408E+02  0.30447178379E+02 -0.71494240948E+02  0.11435021310E+03  0.80887484587E+02 0.  0.
        -11    1    5    5    0    0  0.22074419444E+02  0.33854718115E+02 -0.16535653825E+02  0.43667491110E+02  0.00000000000E+00 0.  1.
         12    1    5    5    0    0 -0.44316921852E+02 -0.34075397360E+01 -0.54958587123E+02  0.70682721990E+02  0.00000000000E+00 0. -1.
        -11    1    3    3    0    0 -0.21347018163E+01  0.13364142771E+02 -0.28937911741E+01  0.13839483054E+02  0.00000000000E+00 0.  1.
         12    1    3    3    0    0 -0.55567746639E+02 -0.51188089085E+02 -0.23255553810E+03  0.24452008758E+03  0.00000000000E+00 0. -1.
          5    1    4    4  502    0  0.48652513226E+02 -0.39144668001E+02 -0.66536450322E+02  0.91370461844E+02  0.47000000000E+01 0.  1.
         -5    1    4    4    0  502  0.12456687352E+03  0.42567418027E+02 -0.41571041481E+03  0.43608041694E+03  0.47000000000E+01 0.  1.
          1    1    1    2  503    0 -0.30134187926E+02 -0.18519119649E+02 -0.82310763012E+03  0.82386722100E+03  0.00000000000E+00 0. -1.
         -2    1    1    2    0  501 -0.63140247953E+02  0.22473137557E+02  0.13357002924E+04  0.13373806503E+04  0.00000000000E+00 0.  1.
<mgrwt>
<rscale>  0 0.48695807E+02</rscale>
<asrwt>0</asrwt>
<pdfrwt beam="2">  1        2 0.24544164E+00 0.35369861E+02</pdfrwt>
<pdfrwt beam="1">  1       -1 0.20476550E+00 0.67042436E+02</pdfrwt>
<totfact> 0.29488304E+00</totfact>
</mgrwt>
</event>
<event>
13    1  0.1589573E-008  0.1607930E+03  0.7546771E-02  0.1299043E+00
          2   -1    0    0  503    0  0.00000000000E+00  0.00000000000E+00  0.19484028184E+04  0.19484028184E+04  0.00000000000E+00 0. -1.
          2   -1    0    0  502    0 -0.00000000000E+00 -0.00000000000E+00 -0.14443235515E+04  0.14443235515E+04  0.00000000000E+00 0. -1.
         24    2    1    2    0    0 -0.28462702348E+03 -0.12585838832E+03 -0.80810030709E+02  0.33145897842E+03  0.80510352803E+02 0.  0.
         25    2    1    2    0    0  0.70033351730E+02 -0.11255129006E+03  0.40931897742E+03  0.44803344814E+03  0.12497792655E+03 0.  0.
         24    2    1    2    0    0  0.27749778489E+03  0.14917564748E+03 -0.14209704508E+03  0.35516264259E+03  0.81795709216E+02 0.  0.
        -13    1    5    5    0    0  0.14788086528E+03  0.12486976095E+03 -0.80818770498E+02  0.20974480013E+03  0.00000000000E+00 0.  1.
         14    1    5    5    0    0  0.12961691961E+03  0.24305886536E+02 -0.61278274577E+02  0.14541784246E+03  0.00000000000E+00 0. -1.
        -13    1    3    3    0    0 -0.13307846162E+03 -0.87115824165E+02 -0.72542316869E+02  0.17481828138E+03  0.00000000000E+00 0.  1.
         14    1    3    3    0    0 -0.15154856185E+03 -0.38742564158E+02 -0.82677138394E+01  0.15664069704E+03  0.00000000000E+00 0. -1.
          5    1    4    4  501    0 -0.35747731659E+02 -0.28805345070E+02  0.84578998976E+02  0.96350118273E+02  0.47000000000E+01 0.  1.
         -5    1    4    4    0  501  0.10578108339E+03 -0.83745944994E+02  0.32473997845E+03  0.35168332987E+03  0.47000000000E+01 0.  1.
          1    1    1    2  502    0  0.30861955009E+02 -0.42065722307E+02 -0.96444087927E+03  0.96585102105E+03  0.00000000000E+00 0. -1.
          1    1    1    2  503    0 -0.93766068157E+02  0.13129975321E+03  0.12821082445E+04  0.12922202797E+04  0.00000000000E+00 0. -1.
<mgrwt>
<rscale>  0 0.91591459E+02</rscale>
<asrwt>0</asrwt>
<pdfrwt beam="1">  1        2 0.28652983E+00 0.16079297E+03</pdfrwt>
<pdfrwt beam="2">  1        2 0.21240052E+00 0.52172649E+02</pdfrwt>
<totfact> 0.25865690E+01</totfact>
</mgrwt>
</event>
<event>
13    1  0.1589573E-008  0.8636347E+02  0.7546771E-02  0.1374220E+00
         -3   -1    0    0    0  501 -0.00000000000E+00  0.00000000000E+00  0.42603346775E+03  0.42603346775E+03  0.00000000000E+00 0.  1.
          2   -1    0    0  503    0  0.00000000000E+00 -0.00000000000E+00 -0.11936730356E+04  0.11936730356E+04  0.00000000000E+00 0. -1.
         24    2    1    2    0    0  0.12191682828E+02 -0.53256741305E+02  0.30648171468E+02  0.99614262976E+02  0.77451748524E+02 0.  0.
         25    2    1    2    0    0  0.60677685984E+02  0.54592751988E+02 -0.80455307508E+03  0.81828777950E+03  0.12500835702E+03 0.  0.
         24    2    1    2    0    0  0.41052803440E+02 -0.11501415359E+03 -0.24312403050E+03  0.28658167542E+03  0.90034295050E+02 0.  0.
        -11    1    3    3    0    0 -0.28663475073E+02 -0.30762548671E+02  0.32184498689E+02  0.52950648342E+02  0.00000000000E+00 0.  1.
         12    1    3    3    0    0  0.40855157901E+02 -0.22494192634E+02 -0.15363272217E+01  0.46663614634E+02  0.00000000000E+00 0. -1.
        -11    1    5    5    0    0 -0.27233645611E+02 -0.17030965823E+02 -0.46120512775E+02  0.56203442499E+02  0.00000000000E+00 0.  1.
         12    1    5    5    0    0  0.68286449051E+02 -0.97983187766E+02 -0.19700351772E+03  0.23037823292E+03  0.00000000000E+00 0. -1.
          5    1    4    4  502    0  0.50578015863E+02  0.84398770796E+02 -0.38055155629E+03  0.39309396485E+03  0.47000000000E+01 0.  1.
         -5    1    4    4    0  502  0.10099670120E+02 -0.29806018808E+02 -0.42400151878E+03  0.42519381466E+03  0.47000000000E+01 0.  1.
          1    1    1    2  503    0 -0.28924016077E+02  0.41335052607E+02 -0.64611166552E+02  0.81974313802E+02  0.00000000000E+00 0. -1.
         -4    1    1    2    0  501 -0.84998156175E+02  0.72343090299E+02  0.31400053280E+03  0.33324847166E+03  0.00000000000E+00 0.  1.
<mgrwt>
<rscale>  0 0.66007745E+02</rscale>
<asrwt>0</asrwt>
<pdfrwt beam="2">  1        2 0.17554015E+00 0.50449829E+02</pdfrwt>
<pdfrwt beam="1">  1       -3 0.62651982E-01 0.86363472E+02</pdfrwt>
<totfact> 0.36112954E+01</totfact>
</mgrwt>
</event>
<event>
13    1  0.1589573E-008  0.1439375E+03  0.7546771E-02  0.1352107E+00
          2   -1    0    0  503    0  0.00000000000E+00  0.00000000000E+00  0.31246253166E+03  0.31246253166E+03  0.00000000000E+00 0. -1.
          2   -1    0    0  502    0 -0.00000000000E+00 -0.00000000000E+00 -0.12556498579E+04  0.12556498579E+04  0.00000000000E+00 0. -1.
         24    2    1    2    0    0  0.10907002156E+02 -0.49888705119E+02 -0.87147552206E+02  0.12900908025E+03  0.80254603213E+02 0.  0.
         25    2    1    2    0    0  0.17127317269E+03  0.13305086340E+02  0.92827117113E+01  0.21265716265E+03  0.12500150032E+03 0.  0.
         24    2    1    2    0    0 -0.30298525480E+02 -0.56831671728E+02 -0.71803147428E+02  0.12603757447E+03  0.81129147911E+02 0.  0.
        -11    1    5    5    0    0  0.23521030064E+02 -0.24290220228E+01 -0.31972730266E+02  0.39766750985E+02  0.00000000000E+00 0.  1.
         12    1    5    5    0    0 -0.53819555544E+02 -0.54402649705E+02 -0.39830417162E+02  0.86270823488E+02  0.00000000000E+00 0. -1.
        -11    1    3    3    0    0  0.15539806036E+02 -0.68649555634E+02 -0.47534805252E+02  0.84934120180E+02  0.00000000000E+00 0.  1.
         12    1    3    3    0    0 -0.46328038805E+01  0.18760850516E+02 -0.39612746954E+02  0.44074960069E+02  0.00000000000E+00 0. -1.
          5    1    4    4  501    0  0.63334506114E+01 -0.23890986705E+02 -0.29853844720E+02  0.39041438075E+02  0.47000000000E+01 0.  1.
         -5    1    4    4    0  501  0.16493972208E+03  0.37196073045E+02  0.39136556431E+02  0.17361572458E+03  0.47000000000E+01 0.  1.
          1    1    1    2  502    0 -0.28996859572E+02  0.22036235049E+02 -0.91361936457E+03  0.91434498786E+03  0.00000000000E+00 0. -1.
          1    1    1    2  503    0 -0.12288478980E+03  0.71379055458E+02  0.12010002622E+03  0.18606358435E+03  0.00000000000E+00 0. -1.
<mgrwt>
<rscale>  0 0.72403016E+02</rscale>
<asrwt>0</asrwt>
<pdfrwt beam="1">  1        2 0.45950372E-01 0.14393746E+03</pdfrwt>
<pdfrwt beam="2">  1        2 0.18465439E+00 0.36419960E+02</pdfrwt>
<totfact> 0.38677435E+02</totfact>
</mgrwt>
</event>
<event>
13    1  0.1589573E-008  0.1041492E+03  0.7546771E-02  0.1379341E+00
          2   -1    0    0  503    0  0.00000000000E+00  0.00000000000E+00  0.11908226894E+04  0.11908226894E+04  0.00000000000E+00 0. -1.
         -1   -1    0    0    0  501 -0.00000000000E+00 -0.00000000000E+00 -0.11197719047E+04  0.11197719047E+04  0.00000000000E+00 0.  1.
         24    2    1    2    0    0  0.31109607270E+02  0.10781592355E+02 -0.28218769481E+03  0.29485488181E+03  0.78901557822E+02 0.  0.
         25    2    1    2    0    0 -0.39404226524E+02 -0.10798148733E+03  0.10033743353E+03  0.19724560173E+03  0.12500212863E+03 0.  0.
         24    2    1    2    0    0  0.12580586320E+03  0.49431920604E+02  0.58521899863E+03  0.60593904386E+03  0.80063840344E+02 0.  0.
        -11    1    3    3    0    0  0.56173468229E+02 -0.41346189654E+01 -0.18719965901E+03  0.19548981032E+03  0.00000000000E+00 0.  1.
         12    1    3    3    0    0 -0.25063860959E+02  0.14916211320E+02 -0.94988035803E+02  0.99365071489E+02  0.00000000000E+00 0. -1.
        -13    1    5    5    0    0  0.13683280862E+03  0.43519526899E+02  0.51634622500E+03  0.53593898049E+03  0.00000000000E+00 0.  1.
         14    1    5    5    0    0 -0.11026945425E+02  0.59123937052E+01  0.68872773629E+02  0.70000063372E+02  0.00000000000E+00 0. -1.
          5    1    4    4  502    0  0.15682587025E+02 -0.68015489653E+02 -0.67409900754E+01  0.70282155031E+02  0.47000000000E+01 0. -1.
         -5    1    4    4    0  502 -0.55086813549E+02 -0.39965997675E+02  0.10707842360E+03  0.12696344670E+03  0.47000000000E+01 0. -1.
          1    1    1    2  503    0 -0.65314983564E+01 -0.39579912424E+02  0.43272748397E+03  0.43458290961E+03  0.00000000000E+00 0. -1.
         -2    1    1    2    0  501 -0.11097974559E+03  0.87347886794E+02 -0.76504543659E+03  0.77797215715E+03  0.00000000000E+00 0.  1.
<mgrwt>
<rscale>  0 0.64637181E+02</rscale>
<asrwt>0</asrwt>
<pdfrwt beam="1">  1        2 0.17512098E+00 0.40115208E+02</pdfrwt>
<pdfrwt beam="2">  1       -1 0.16467234E+00 0.10414916E+03</pdfrwt>
<totfact> 0.88633669E+00</totfact>
</mgrwt>
</event>
<event>
13    1  0.1589573E-008  0.1126116E+03  0.7546771E-02  0.1293632E+00
          2   -1    0    0  503    0  0.00000000000E+00  0.00000000000E+00  0.42767718164E+04  0.42767718164E+04  0.00000000000E+00 0. -1.
          2   -1    0    0  502    0 -0.00000000000E+00 -0.00000000000E+00 -0.13497783127E+04  0.13497783127E+04  0.00000000000E+00 0. -1.
         24    2    1    2    0    0 -0.60301685730E+03  0.23222187910E+03 -0.42014597281E+03  0.77457992588E+03  0.76779501077E+02 0.  0.
         25    2    1    2    0    0  0.10694077006E+04  0.17477663545E+03  0.17347961774E+04  0.20492248857E+04  0.12500061150E+03 0.  0.
         24    2    1    2    0    0 -0.55317202285E+03 -0.34993883580E+03  0.19347100503E+04  0.20445832650E+04  0.93601672700E+02 0.  0.
        -11    1    5    5    0    0 -0.47346383011E+03 -0.29310681373E+03  0.17350061356E+04  0.18221761422E+04  0.00000000000E+00 0.  1.
         12    1    5    5    0    0 -0.79708192741E+02 -0.56832022076E+02  0.19970391475E+03  0.22240712284E+03  0.00000000000E+00 0. -1.
        -11    1    3    3    0    0 -0.21814094866E+03  0.10135665801E+03 -0.11703868323E+03  0.26750083921E+03  0.00000000000E+00 0.  1.
         12    1    3    3    0    0 -0.38487590864E+03  0.13086522109E+03 -0.30310728958E+03  0.50707908667E+03  0.00000000000E+00 0. -1.
          5    1    4    4  501    0  0.70903948651E+03  0.11192458950E+03  0.10349430037E+04  0.12595210273E+04  0.47000000000E+01 0. -1.
         -5    1    4    4    0  501  0.36036821406E+03  0.62852045949E+02  0.69985317367E+03  0.78970385847E+03  0.47000000000E+01 0. -1.
          1    1    1    2  502    0  0.11132401736E+03  0.17323473008E+02 -0.52707426888E+03  0.53898091290E+03  0.00000000000E+00 0. -1.
          1    1    1    2  503    0 -0.24542837783E+02 -0.74383151752E+02  0.20470751767E+03  0.21918113957E+03  0.00000000000E+00 0. -1.
<mgrwt>
<rscale>  0 0.93918001E+02</rscale>
<asrwt>0</asrwt>
<pdfrwt beam="1">  1        2 0.62893703E+00 0.78327544E+02</pdfrwt>
<pdfrwt beam="2">  1        2 0.19849681E+00 0.11261161E+03</pdfrwt>
<totfact> 0.14706219E+00</totfact>
</mgrwt>
</event>
<event>
13    1  0.1589573E-008  0.6106856E+02  0.7546771E-02  0.1508571E+00
          2   -1    0    0  503    0  0.00000000000E+00  0.00000000000E+00  0.16727948829E+04  0.16727948829E+04  0.00000000000E+00 0. -1.
         -1   -1    0    0    0  501 -0.00000000000E+00 -0.00000000000E+00 -0.11019517410E+04  0.11019517410E+04  0.00000000000E+00 0.  1.
         24    2    1    2    0    0 -0.10434312522E+03 -0.47666508015E+03  0.24689231157E+02  0.49510254791E+03  0.80124206058E+02 0.  0.
         25    2    1    2    0    0  0.28716295481E+02  0.20451715695E+03  0.45736749706E+03  0.51716746271E+03  0.12500105601E+03 0.  0.
         24    2    1    2    0    0  0.74470044000E+02  0.23447659993E+03  0.23881439107E+03  0.35069899017E+03  0.73704850291E+02 0.  0.
        -11    1    5    5    0    0  0.77848568757E+02  0.23877822268E+03  0.23150745455E+03  0.34157157492E+03  0.00000000000E+00 0.  1.
         12    1    5    5    0    0 -0.33785247566E+01 -0.43016227489E+01  0.73069365159E+01  0.91274152449E+01  0.00000000000E+00 0. -1.
        -11    1    3    3    0    0 -0.66875303520E+02 -0.22003767031E+03  0.47233992579E+02  0.23477634598E+03  0.00000000000E+00 0.  1.
         12    1    3    3    0    0 -0.37467821704E+02 -0.25662740984E+03 -0.22544761422E+02  0.26032620193E+03  0.00000000000E+00 0. -1.
          5    1    4    4  502    0 -0.49524852979E+02  0.84512656684E+02  0.18423328754E+03  0.20870815614E+03  0.47000000000E+01 0. -1.
         -5    1    4    4    0  502  0.78241148460E+02  0.12000450027E+03  0.27313420953E+03  0.30845930657E+03  0.47000000000E+01 0. -1.
          1    1    1    2  503    0  0.14023889158E+02 -0.22055044248E+02  0.62940817297E+03  0.62995058746E+03  0.00000000000E+00 0. -1.
         -2    1    1    2    0  501 -0.12867103416E+02  0.59726367516E+02 -0.77943615030E+03  0.78182703568E+03  0.00000000000E+00 0.  1.
<mgrwt>
<rscale>  0 0.39951127E+02</rscale>
<asrwt>0</asrwt>
<pdfrwt beam="1">  1        2 0.24599925E+00 0.26136076E+02</pdfrwt>
<pdfrwt beam="2">  1       -1 0.16205173E+00 0.61068563E+02</pdfrwt>
<totfact> 0.58915423E+00</totfact>
</mgrwt>
</event>
<event>
13    1  0.1589573E-008  0.1554644E+03  0.7546771E-02  0.1267847E+00
          2   -1    0    0  502    0  0.00000000000E+00  0.00000000000E+00  0.50633322043E+03  0.50633322043E+03  0.00000000000E+00 0. -1.
          2   -1    0    0  503    0 -0.00000000000E+00 -0.00000000000E+00 -0.13911600661E+04  0.13911600661E+04  0.00000000000E+00 0. -1.
         24    2    1    2    0    0 -0.71828818461E+02  0.40238883195E+02 -0.88831833917E+03  0.89569100745E+03  0.79839603249E+02 0.  0.
         25    2    1    2    0    0  0.69845062198E+02 -0.12670474500E+03  0.22782369797E+03  0.29742430121E+03  0.12500060990E+03 0.  0.
         24    2    1    2    0    0  0.23991129401E+02 -0.13609675076E+02  0.76670062274E+01  0.83138551581E+02  0.78054072468E+02 0.  0.
        -11    1    3    3    0    0 -0.20727861495E+02  0.42356808208E+02 -0.20037748091E+03  0.20585159290E+03  0.00000000000E+00 0.  1.
         12    1    3    3    0    0 -0.51100956966E+02 -0.21179250125E+01 -0.68794085826E+03  0.68983941455E+03  0.00000000000E+00 0. -1.
        -13    1    5    5    0    0 -0.55452864836E+01 -0.41567775169E+02  0.66175031042E+01  0.42454934719E+02  0.00000000000E+00 0.  1.
         14    1    5    5    0    0  0.29536415885E+02  0.27958100093E+02  0.10495031232E+01  0.40683616862E+02  0.00000000000E+00 0. -1.
          5    1    4    4  501    0 -0.10454828068E+02 -0.10794275472E+03  0.13287851450E+03  0.17158010182E+03  0.47000000000E+01 0. -1.
         -5    1    4    4    0  501  0.80299890265E+02 -0.18761990282E+02  0.94945183470E+02  0.12584419939E+03  0.47000000000E+01 0. -1.
          1    1    1    2  502    0 -0.10337852030E+01 -0.72487621229E+02  0.16915807585E+03  0.18403798132E+03  0.00000000000E+00 0. -1.
          1    1    1    2  503    0 -0.20973587935E+02  0.17256315811E+03 -0.40115728653E+03  0.43720144495E+03  0.00000000000E+00 0. -1.
<mgrwt>
<rscale>  0 0.10616209E+03</rscale>
<asrwt>0</asrwt>
<pdfrwt beam="1">  1        2 0.74460769E-01 0.72494993E+02</pdfrwt>
<pdfrwt beam="2">  1        2 0.20458236E+00 0.15546438E+03</pdfrwt>
<totfact> 0.17981575E+02</totfact>
</mgrwt>
</event>
<event>
13    1  0.1589573E-008  0.3983854E+02  0.7546771E-02  0.1541249E+00
          2   -1    0    0  503    0  0.00000000000E+00  0.00000000000E+00  0.86436779237E+03  0.86436779237E+03  0.00000000000E+00 0. -1.
          2   -1    0    0  502    0 -0.00000000000E+00 -0.00000000000E+00 -0.11566818796E+04  0.11566818796E+04  0.00000000000E+00 0. -1.
         24    2    1    2    0    0  0.54120523333E+02 -0.27454260157E+02 -0.49249779669E+03  0.50273002993E+03  0.80626520443E+02 0.  0.
         25    2    1    2    0    0 -0.60029678404E+02  0.80326831706E+02  0.17248705527E+03  0.23544131692E+03  0.12499946918E+03 0.  0.
         24    2    1    2    0    0  0.52046286905E+02 -0.24022478765E+01 -0.93505429883E+02  0.13522659661E+03  0.82634013799E+02 0.  0.
        -11    1    3    3    0    0  0.56900792823E+01  0.87296938658E+01 -0.51076564500E+01  0.11604857243E+02  0.00000000000E+00 0.  1.
         12    1    3    3    0    0  0.48430444050E+02 -0.36183954023E+02 -0.48739014024E+03  0.49112517269E+03  0.00000000000E+00 0. -1.
        -13    1    5    5    0    0  0.17095893457E+02 -0.39790897293E+02 -0.60215449032E+02  0.74171998642E+02  0.00000000000E+00 0.  1.
         14    1    5    5    0    0  0.34950393448E+02  0.37388649417E+02 -0.33289980851E+02  0.61054597964E+02  0.00000000000E+00 0. -1.
          5    1    4    4  501    0 -0.19992340942E+01 -0.17809515927E+02 -0.93607322943E+01  0.20757868475E+02  0.47000000000E+01 0. -1.
         -5    1    4    4    0  501 -0.58030444310E+02  0.98136347633E+02  0.18184778757E+03  0.21468344844E+03  0.47000000000E+01 0. -1.
          1    1    1    2  502    0 -0.12040968902E+02 -0.29913829064E+02 -0.51209256498E+03  0.51310682827E+03  0.00000000000E+00 0. -1.
          1    1    1    2  503    0 -0.34096162933E+02 -0.20556494607E+02  0.63329464911E+03  0.63454490021E+03  0.00000000000E+00 0. -1.
<mgrwt>
<rscale>  0 0.35841937E+02</rscale>
<asrwt>0</asrwt>
<pdfrwt beam="1">  1        2 0.12711291E+00 0.39838541E+02</pdfrwt>
<pdfrwt beam="2">  1        2 0.17010028E+00 0.32246273E+02</pdfrwt>
<totfact> 0.14709897E+02</totfact>
</mgrwt>
</event>
<event>
13    1  0.1589573E-008  0.1422134E+03  0.7546771E-02  0.1301176E+00
          2   -1    0    0  503    0  0.00000000000E+00  0.00000000000E+00  0.25524634922E+04  0.25524634922E+04  0.00000000000E+00 0. -1.
          2   -1    0    0  502    0 -0.00000000000E+00 -0.00000000000E+00 -0.15207500638E+04  0.15207500638E+04  0.00000000000E+00 0. -1.
         24    2    1    2    0    0  0.49418515673E+02 -0.18020649916E+02 -0.12527154474E+03  0.15758700822E+03  0.79835904988E+02 0.  0.
         25    2    1    2    0    0 -0.26315858147E+03  0.17263068432E+03  0.10841692066E+04  0.11358266067E+04  0.12500167854E+03 0.  0.
         24    2    1    2    0    0  0.69134558599E+02 -0.13056229593E+03  0.55848397644E+02  0.17750595102E+03  0.81013695253E+02 0.  0.
        -11    1    3    3    0    0  0.48917838452E+02 -0.44880315223E+02 -0.10371960205E+03  0.12314606556E+03  0.00000000000E+00 0.  1.
         12    1    3    3    0    0  0.50067722029E+00  0.26859665307E+02 -0.21551942694E+02  0.34440942670E+02  0.00000000000E+00 0. -1.
        -11    1    5    5    0    0  0.16477240305E+02 -0.10966646432E+03  0.45737378956E+02  0.11995891246E+03  0.00000000000E+00 0.  1.
         12    1    5    5    0    0  0.52657318294E+02 -0.20895831606E+02  0.10111018688E+02  0.57547038563E+02  0.00000000000E+00 0. -1.
          5    1    4    4  501    0 -0.10662735966E+02  0.57244425263E+02  0.24707475841E+03  0.25388707018E+03  0.47000000000E+01 0. -1.
         -5    1    4    4    0  501 -0.25249584550E+03  0.11538625906E+03  0.83709444822E+03  0.88193953649E+03  0.47000000000E+01 0. -1.
          1    1    1    2  502    0  0.13868193068E+03 -0.81583859125E+02 -0.12870129067E+04  0.12970315440E+04  0.00000000000E+00 0. -1.
          1    1    1    2  503    0  0.59235765201E+01  0.57536120646E+02  0.13039802756E+04  0.13052624460E+04  0.00000000000E+00 0. -1.
<mgrwt>
<rscale>  0 0.90695402E+02</rscale>
<asrwt>0</asrwt>
<pdfrwt beam="1">  1        2 0.37536228E+00 0.57840245E+02</pdfrwt>
<pdfrwt beam="2">  1        2 0.22363972E+00 0.14221337E+03</pdfrwt>
<totfact> 0.12575282E+01</totfact>
</mgrwt>
</event>
<event>
13    1  0.1589573E-008  0.1705599E+03  0.7546771E-02  0.1307574E+00
          2   -1    0    0  503    0  0.00000000000E+00  0.00000000000E+00  0.12531996918E+04  0.12531996918E+04  0.00000000000E+00 0. -1.
          2   -1    0    0  502    0 -0.00000000000E+00 -0.00000000000E+00 -0.38052580360E+04  0.38052580360E+04  0.00000000000E+00 0. -1.
         24    2    1    2    0    0  0.14674524321E+03  0.34854140619E+02 -0.15065564903E+04  0.15162413174E+04  0.80785497585E+02 0.  0.
         25    2    1    2    0    0 -0.27313216052E+03  0.10998942242E+03 -0.20907438448E+03  0.38214771562E+03  0.12500371256E+03 0.  0.
         24    2    1    2    0    0  0.22136355177E+03  0.45855804108E+01 -0.55675432642E+03  0.60446003698E+03  0.79835497862E+02 0.  0.
        -11    1    3    3    0    0  0.14739473051E+03  0.49947738624E+02 -0.13423725984E+04  0.13513638208E+04  0.00000000000E+00 0.  1.
         12    1    3    3    0    0 -0.64948729701E+00 -0.15093598006E+02 -0.16418389187E+03  0.16487749660E+03  0.00000000000E+00 0. -1.
        -13    1    5    5    0    0  0.19050858320E+03  0.26906212562E+02 -0.50335366919E+03  0.53887139545E+03  0.00000000000E+00 0.  1.
         14    1    5    5    0    0  0.30854968571E+02 -0.22320632151E+02 -0.53400657224E+02  0.65588641525E+02  0.00000000000E+00 0. -1.
          5    1    4    4  501    0 -0.10732773004E+03 -0.19219731846E+02 -0.61525123605E+02  0.12528395972E+03  0.47000000000E+01 0.  1.
         -5    1    4    4    0  501 -0.16580443047E+03  0.12920915426E+03 -0.14754926087E+03  0.25686375590E+03  0.47000000000E+01 0.  1.
          1    1    1    2  502    0 -0.10479149386E+03 -0.19384145870E+03 -0.14086174190E+04  0.14257485057E+04  0.00000000000E+00 0. -1.
          1    1    1    2  503    0  0.98148593941E+01  0.44412315250E+02  0.11289442759E+04  0.11298601521E+04  0.00000000000E+00 0. -1.
<mgrwt>
<rscale>  0 0.88077985E+02</rscale>
<asrwt>0</asrwt>
<pdfrwt beam="1">  1        2 0.18429408E+00 0.45483901E+02</pdfrwt>
<pdfrwt beam="2">  1        2 0.55959676E+00 0.17055994E+03</pdfrwt>
<totfact> 0.31333205E+00</totfact>
</mgrwt>
</event>
<event>
13    1  0.1589573E-008  0.2774499E+03  0.7546771E-02  0.1229896E+00
          2   -1    0    0  503    0  0.00000000000E+00  0.00000000000E+00  0.15932395492E+04  0.15932395492E+04  0.00000000000E+00 0. -1.
          2   -1    0    0  502    0 -0.00000000000E+00 -0.00000000000E+00 -0.39250064388E+04  0.39250064388E+04  0.00000000000E+00 0. -1.
         24    2    1    2    0    0 -0.13038256401E+03 -0.20993091764E+03 -0.18716137334E+04  0.18896346759E+04  0.81918484504E+02 0.  0.
         25    2    1    2    0    0  0.53868680442E+02 -0.23740851607E+02 -0.19614526785E+03  0.23992493340E+03  0.12500217918E+03 0.  0.
         24    2    1    2    0    0  0.45921258545E+02 -0.34043678417E+02  0.10208734634E+04  0.10256011524E+04  0.80045996495E+02 0.  0.
        -11    1    5    5    0    0  0.24623022036E+02 -0.94271810040E+01  0.81392516756E+02  0.85556453525E+02  0.00000000000E+00 0.  1.
         12    1    5    5    0    0  0.21298236509E+02 -0.24616497413E+02  0.93948094664E+03  0.94004469889E+03  0.00000000000E+00 0. -1.
        -11    1    3    3    0    0 -0.90955745923E+02 -0.19969037355E+03 -0.15518276233E+04  0.15672645487E+04  0.00000000000E+00 0.  1.
         12    1    3    3    0    0 -0.39426818090E+02 -0.10240544088E+02 -0.31978611009E+03  0.32237012723E+03  0.00000000000E+00 0. -1.
          5    1    4    4  501    0  0.45887222786E+02 -0.65406036031E+02 -0.68547301163E+02  0.10537746088E+03  0.47000000000E+01 0. -1.
         -5    1    4    4    0  501  0.79814576562E+01  0.41665184424E+02 -0.12759796669E+03  0.13454747253E+03  0.47000000000E+01 0. -1.
          1    1    1    2  502    0  0.88788272803E+02  0.27958318150E+03 -0.18105057259E+04  0.18341158895E+04  0.00000000000E+00 0. -1.
          1    1    1    2  503    0 -0.58195647777E+02 -0.11867733839E+02  0.52562437417E+03  0.52896933678E+03  0.00000000000E+00 0. -1.
<mgrwt>
<rscale>  0 0.12836937E+03</rscale>
<asrwt>0</asrwt>
<pdfrwt beam="1">  1        2 0.23429994E+00 0.59393405E+02</pdfrwt>
<pdfrwt beam="2">  1        2 0.57720682E+00 0.27744990E+03</pdfrwt>
<totfact> 0.16003941E+00</totfact>
</mgrwt>
</event>
<event>
13    1  0.1589573E-008  0.1199947E+03  0.7546771E-02  0.1392487E+00
          2   -1    0    0  502    0  0.00000000000E+00  0.00000000000E+00  0.25833206086E+04  0.25833206086E+04  0.00000000000E+00 0. -1.
          2   -1    0    0  503    0 -0.00000000000E+00 -0.00000000000E+00 -0.25777210726E+04  0.25777210726E+04  0.00000000000E+00 0. -1.
         24    2    1    2    0    0  0.44185775787E+03 -0.11397290449E+04  0.12787396662E+03  0.12315488378E+04  0.78359521334E+02 0.  0.
         25    2    1    2    0    0  0.77475463071E+02  0.46866501112E+02 -0.18331605638E+03  0.23965306499E+03  0.12501959338E+03 0.  0.
         24    2    1    2    0    0 -0.63045959330E+03  0.11145278143E+04  0.18468260926E+03  0.12949800272E+04  0.56692653950E+02 0.  0.
        -11    1    5    5    0    0 -0.46581401066E+03  0.87150574482E+03  0.14517537730E+03  0.99878969055E+03  0.00000000000E+00 0.  1.
         12    1    5    5    0    0 -0.16464558264E+03  0.24302206950E+03  0.39507231967E+02  0.29619033665E+03  0.00000000000E+00 0. -1.
        -13    1    3    3    0    0  0.28243305108E+03 -0.68168345417E+03  0.11169795350E+03  0.74628224744E+03  0.00000000000E+00 0.  1.
         14    1    3    3    0    0  0.15942470679E+03 -0.45804559072E+03  0.16176013112E+02  0.48526659036E+03  0.00000000000E+00 0. -1.
          5    1    4    4  501    0 -0.28813501699E+02  0.26458004639E+02 -0.83579106286E+02  0.92400221305E+02  0.47000000000E+01 0. -1.
         -5    1    4    4    0  501  0.10628896477E+03  0.20408496473E+02 -0.99736950093E+02  0.14725284369E+03  0.47000000000E+01 0. -1.
          1    1    1    2  502    0 -0.85922075262E+01 -0.30105658695E+02  0.11325329717E+04  0.11329656256E+04  0.00000000000E+00 0. -1.
          1    1    1    2  503    0  0.11971857988E+03  0.84403881627E+01 -0.12561739553E+04  0.12618941257E+04  0.00000000000E+00 0. -1.
<mgrwt>
<rscale>  0 0.61292466E+02</rscale>
<asrwt>0</asrwt>
<pdfrwt beam="1">  1        2 0.37990009E+00 0.31307774E+02</pdfrwt>
<pdfrwt beam="2">  1        2 0.37907663E+00 0.11999468E+03</pdfrwt>
<totfact> 0.40817720E+00</totfact>
</mgrwt>
</event>
<event>
13    1  0.1589573E-008  0.8398413E+02  0.7546771E-02  0.1334224E+00
          2   -1    0    0  502    0  0.00000000000E+00  0.00000000000E+00  0.11131822716E+04  0.11131822716E+04  0.00000000000E+00 0. -1.
          2   -1    0    0  503    0 -0.00000000000E+00 -0.00000000000E+00 -0.18700500347E+04  0.18700500347E+04  0.00000000000E+00 0. -1.
         24    2    1    2    0    0  0.70644671407E+01 -0.74992689244E+02 -0.83657329169E+02  0.13875419564E+03  0.81119467127E+02 0.  0.
         25    2    1    2    0    0 -0.16568112131E+02  0.12296334483E+02  0.52439020729E+03  0.53947707238E+03  0.12499887974E+03 0.  0.
         24    2    1    2    0    0  0.60993819664E+01 -0.59669746422E+02  0.23477468634E+03  0.25581366358E+03  0.81998756253E+02 0.  0.
        -11    1    5    5    0    0  0.34993944215E+02  0.24053959711E+00  0.76005476529E+02  0.83674765930E+02  0.00000000000E+00 0.  1.
         12    1    5    5    0    0 -0.28894562248E+02 -0.59910286019E+02  0.15876920982E+03  0.17213889765E+03  0.00000000000E+00 0. -1.
        -11    1    3    3    0    0  0.24618501000E+02  0.64805334147E+01 -0.31236413767E+02  0.40296171653E+02  0.00000000000E+00 0.  1.
         12    1    3    3    0    0 -0.17554033860E+02 -0.81473222659E+02 -0.52420915403E+02  0.98458023984E+02  0.00000000000E+00 0. -1.
          5    1    4    4  501    0  0.13784975770E+02  0.25202203608E+02  0.49249615470E+03  0.49335558071E+03  0.47000000000E+01 0. -1.
         -5    1    4    4    0  501 -0.30353087901E+02 -0.12905869125E+02  0.31894052597E+02  0.46121491672E+02  0.47000000000E+01 0. -1.
          1    1    1    2  502    0  0.70495616054E+02  0.18266579057E+02  0.30186782767E+03  0.31052775267E+03  0.00000000000E+00 0. -1.
          1    1    1    2  503    0 -0.67091353030E+02  0.10409952213E+03 -0.17342431551E+04  0.17386596220E+04  0.00000000000E+00 0. -1.
<mgrwt>
<rscale>  0 0.78205113E+02</rscale>
<asrwt>0</asrwt>
<pdfrwt beam="1">  1        2 0.16370328E+00 0.72823758E+02</pdfrwt>
<pdfrwt beam="2">  1        2 0.27500736E+00 0.83984127E+02</pdfrwt>
<totfact> 0.43293616E+01</totfact>
</mgrwt>
</event>
<event>
13    1  0.1589573E-008  0.1198451E+03  0.7546771E-02  0.1341556E+00
          2   -1    0    0  502    0  0.00000000000E+00  0.00000000000E+00  0.51769936147E+03  0.51769936147E+03  0.00000000000E+00 0. -1.
          2   -1    0    0  503    0 -0.00000000000E+00 -0.00000000000E+00 -0.11933314118E+04  0.11933314118E+04  0.00000000000E+00 0. -1.
         24    2    1    2    0    0  0.12645828493E+03  0.15384234879E+02 -0.29783433749E+03  0.33338993180E+03  0.78836422583E+02 0.  0.
         25    2    1    2    0    0 -0.11173218300E+03 -0.24397695815E+03  0.13949815817E+03  0.32725084345E+03  0.12499816630E+03 0.  0.
         24    2    1    2    0    0 -0.62448996916E+02  0.15044636189E+03 -0.20054124595E+02  0.18272874348E+03  0.80334555210E+02 0.  0.
        -11    1    3    3    0    0  0.19310804754E+02 -0.24191840361E+02 -0.10290887187E+03  0.10746342741E+03  0.00000000000E+00 0.  1.
         12    1    3    3    0    0  0.10714748017E+03  0.39576075240E+02 -0.19492546562E+03  0.22592650439E+03  0.00000000000E+00 0. -1.
        -13    1    5    5    0    0 -0.65905105678E+02  0.55573791918E+02 -0.16182545413E+02  0.87714332230E+02  0.00000000000E+00 0.  1.
         14    1    5    5    0    0  0.34561087620E+01  0.94872569971E+02 -0.38715791824E+01  0.95014411254E+02  0.00000000000E+00 0. -1.
          5    1    4    4  501    0 -0.21550604639E+02 -0.13252988756E+03  0.12425446368E+03  0.18300235354E+03  0.47000000000E+01 0.  1.
         -5    1    4    4    0  501 -0.90181578363E+02 -0.11144707059E+03  0.15243694490E+02  0.14424848991E+03  0.47000000000E+01 0.  1.
          1    1    1    2  502    0  0.22766585199E+02  0.11901069228E+03  0.16443374393E+03  0.20425552238E+03  0.00000000000E+00 0. -1.
          1    1    1    2  503    0  0.24956309789E+02 -0.40864330896E+02 -0.66167549035E+03  0.66340573216E+03  0.00000000000E+00 0. -1.
<mgrwt>
<rscale>  0 0.75752594E+02</rscale>
<asrwt>0</asrwt>
<pdfrwt beam="1">  1        2 0.76132260E-01 0.11984512E+03</pdfrwt>
<pdfrwt beam="2">  1        2 0.17548991E+00 0.47882261E+02</pdfrwt>
<totfact> 0.23816130E+02</totfact>
</mgrwt>
</event>
<event>
13    1  0.1589573E-008  0.1163022E+03  0.7546771E-02  0.1272069E+00
          2   -1    0    0  502    0  0.00000000000E+00  0.00000000000E+00  0.40769770604E+04  0.40769770604E+04  0.00000000000E+00 0. -1.
          2   -1    0    0  503    0 -0.00000000000E+00 -0.00000000000E+00 -0.37517350306E+03  0.37517350306E+03  0.00000000000E+00 0. -1.
         24    2    1    2    0    0 -0.17033001499E+02 -0.14819451983E+01 -0.15266396024E+02  0.85087222240E+02  0.81941767368E+02 0.  0.
         25    2    1    2    0    0  0.24695180992E+03 -0.26713187007E+02  0.69826116489E+03  0.75159344021E+03  0.12500101677E+03 0.  0.
         24    2    1    2    0    0 -0.31593214586E+01  0.22679656501E+01  0.43623284909E+03  0.44358577964E+03  0.80337539754E+02 0.  0.
        -13    1    3    3    0    0  0.99463784227E+01 -0.15079570931E+02  0.27392861604E+02  0.32812996968E+02  0.00000000000E+00 0.  1.
         14    1    3    3    0    0 -0.26979379922E+02  0.13597625732E+02 -0.42659257627E+02  0.52274225272E+02  0.00000000000E+00 0. -1.
        -13    1    5    5    0    0 -0.28496964343E+02  0.29661512844E+02  0.17930809374E+03  0.18396541741E+03  0.00000000000E+00 0.  1.
         14    1    5    5    0    0  0.25337642884E+02 -0.27393547193E+02  0.25692475535E+03  0.25962036223E+03  0.00000000000E+00 0. -1.
          5    1    4    4  501    0  0.63359234456E+02  0.36597411960E+02  0.29509740378E+03  0.30406961517E+03  0.47000000000E+01 0.  1.
         -5    1    4    4    0  501  0.18359257546E+03 -0.63310598967E+02  0.40316376111E+03  0.44752382504E+03  0.47000000000E+01 0.  1.
          1    1    1    2  502    0 -0.98921557828E+02 -0.37161224582E+02  0.28589537793E+04  0.28609060005E+04  0.00000000000E+00 0. -1.
          1    1    1    2  503    0 -0.12783792914E+03  0.63088391137E+02 -0.27637783998E+03  0.31097812086E+03  0.00000000000E+00 0. -1.
<mgrwt>
<rscale>  0 0.10401667E+03</rscale>
<asrwt>0</asrwt>
<pdfrwt beam="1">  1        2 0.59955543E+00 0.93028893E+02</pdfrwt>
<pdfrwt beam="2">  1        2 0.55172576E-01 0.11630222E+03</pdfrwt>
<totfact> 0.93025160E+00</totfact>
</mgrwt>
</event>
<event>
13    1  0.1589573E-008  0.1391750E+03  0.7546771E-02  0.1264662E+00
          2   -1    0    0  502    0  0.00000000000E+00  0.00000000000E+00  0.10259362502E+04  0.10259362502E+04  0.00000000000E+00 0. -1.
          2   -1    0    0  503    0 -0.00000000000E+00 -0.00000000000E+00 -0.11739494780E+04  0.11739494780E+04  0.00000000000E+00 0. -1.
         24    2    1    2    0    0  0.54634557224E+02  0.76096628285E+01 -0.13255764707E+03  0.16608019839E+03  0.83476108499E+02 0.  0.
         25    2    1    2    0    0  0.19879539350E+03 -0.10665312752E+03 -0.86957919989E+02  0.27217830874E+03  0.12499941526E+03 0.  0.
         24    2    1    2    0    0 -0.20325190890E+03 -0.94326907290E+02 -0.20238992858E+03  0.31244736565E+03  0.80329130452E+02 0.  0.
        -11    1    5    5    0    0 -0.82695221361E+02 -0.48669532813E+02 -0.37208536869E+02  0.10291597678E+03  0.00000000000E+00 0.  1.
         12    1    5    5    0    0 -0.12055668754E+03 -0.45657374477E+02 -0.16518139171E+03  0.20953138887E+03  0.00000000000E+00 0. -1.
        -13    1    3    3    0    0  0.39952896513E+00  0.32762555223E+02 -0.19338570021E+02  0.38046352501E+02  0.00000000000E+00 0.  1.
         14    1    3    3    0    0  0.54235028259E+02 -0.25152892395E+02 -0.11321907705E+03  0.12803384589E+03  0.00000000000E+00 0. -1.
          5    1    4    4  501    0  0.31766651939E+02 -0.22309901229E+02 -0.75049532530E+02  0.84624902961E+02  0.47000000000E+01 0.  1.
         -5    1    4    4    0  501  0.16702874156E+03 -0.84343226294E+02 -0.11908387459E+02  0.18755340578E+03  0.47000000000E+01 0.  1.
          1    1    1    2  502    0  0.12227718876E+02  0.13784982602E+03  0.85296246821E+03  0.86411634854E+03  0.00000000000E+00 0. -1.
          1    1    1    2  503    0 -0.62405760695E+02  0.55520545967E+02 -0.57907020043E+03  0.58506350683E+03  0.00000000000E+00 0. -1.
<mgrwt>
<rscale>  0 0.10781964E+03</rscale>
<asrwt>0</asrwt>
<pdfrwt beam="1">  1        2 0.15087298E+00 0.13917495E+03</pdfrwt>
<pdfrwt beam="2">  1        2 0.17263963E+00 0.83528498E+02</pdfrwt>
<totfact> 0.10339505E+02</totfact>
</mgrwt>
</event>
<event>
13    1  0.1589573E-008  0.7116428E+02  0.7546771E-02  0.1522817E+00
          2   -1    0    0  503    0  0.00000000000E+00  0.00000000000E+00  0.25569997204E+03  0.25569997204E+03  0.00000000000E+00 0. -1.
          2   -1    0    0  502    0 -0.00000000000E+00 -0.00000000000E+00 -0.38933707371E+04  0.38933707371E+04  0.00000000000E+00 0. -1.
         24    2    1    2    0    0 -0.50886095862E+02  0.31133962707E+03 -0.28518620525E+04  0.28710221157E+04  0.10064325331E+03 0.  0.
         25    2    1    2    0    0  0.78078743018E+02 -0.23650369071E+03 -0.10020427609E+02  0.27884631849E+03  0.12499829814E+03 0.  0.
         24    2    1    2    0    0  0.39367591206E+02 -0.13303514766E+03 -0.64064642272E+03  0.66035366928E+03  0.79943554076E+02 0.  0.
        -13    1    5    5    0    0 -0.18483698619E+01 -0.10368917996E+03 -0.50592763913E+03  0.51644713044E+03  0.00000000000E+00 0.  1.
         14    1    5    5    0    0  0.41215961068E+02 -0.29345967694E+02 -0.13471878359E+03  0.14390653883E+03  0.00000000000E+00 0. -1.
        -13    1    3    3    0    0 -0.94350663376E+01 -0.87329742643E+00 -0.26182767442E+02  0.27844576422E+02  0.00000000000E+00 0.  1.
         14    1    3    3    0    0 -0.41451029524E+02  0.31221292450E+03 -0.28256792850E+04  0.28431775393E+04  0.00000000000E+00 0. -1.
          5    1    4    4  501    0  0.29710146102E+02 -0.12695931995E+03 -0.66409818017E+02  0.14640258069E+03  0.47000000000E+01 0.  1.
         -5    1    4    4    0  501  0.48368596916E+02 -0.10954437076E+03  0.56389390408E+02  0.13244373781E+03  0.47000000000E+01 0.  1.
          1    1    1    2  502    0 -0.71860388006E+01  0.19070155098E+02 -0.22406527773E+03  0.22499013012E+03  0.00000000000E+00 0. -1.
          1    1    1    2  503    0 -0.59374199561E+02  0.39129056197E+02  0.88923415516E+02  0.11385847548E+03  0.00000000000E+00 0. -1.
<mgrwt>
<rscale>  0 0.38082383E+02</rscale>
<asrwt>0</asrwt>
<pdfrwt beam="1">  1        2 0.37602939E-01 0.71164280E+02</pdfrwt>
<pdfrwt beam="2">  1        2 0.57255450E+00 0.20379155E+02</pdfrwt>
<totfact> 0.25918188E+01</totfact>
</mgrwt>
</event>
<event>
13    1  0.1589573E-008  0.8715835E+02  0.7546771E-02  0.1331468E+00
          2   -1    0    0  502    0  0.00000000000E+00  0.00000000000E+00  0.25911287025E+04  0.25911287025E+04  0.00000000000E+00 0. -1.
          2   -1    0    0  503    0 -0.00000000000E+00 -0.00000000000E+00 -0.38060354567E+03  0.38060354567E+03  0.00000000000E+00 0. -1.
         24    2    1    2    0    0  0.57362443229E+01 -0.97421944450E+01  0.29116577812E+02  0.86645048319E+02  0.80819393980E+02 0.  0.
         25    2    1    2    0    0 -0.14371284781E+02 -0.14612009899E+03  0.88747817764E+03  0.90818556079E+03  0.12500351949E+03 0.  0.
         24    2    1    2    0    0  0.68865028544E+02 -0.12585758795E+01 -0.71014584781E+02  0.12643479193E+03  0.78731881651E+02 0.  0.
        -13    1    3    3    0    0 -0.12083285242E+02  0.27877056905E+02  0.32977318063E+02  0.44840156005E+02  0.00000000000E+00 0.  1.
         14    1    3    3    0    0  0.17819529565E+02 -0.37619251350E+02 -0.38607402515E+01  0.41804892314E+02  0.00000000000E+00 0. -1.
        -13    1    5    5    0    0 -0.13121612013E+02  0.15853581812E+02 -0.17767669198E+02  0.27188284735E+02  0.00000000000E+00 0.  1.
         14    1    5    5    0    0  0.81986640558E+02 -0.17112157691E+02 -0.53246915583E+02  0.99246507193E+02  0.00000000000E+00 0. -1.
          5    1    4    4  501    0 -0.17216338022E+02 -0.44458794397E+02  0.72662087040E+02  0.87033646293E+02  0.47000000000E+01 0. -1.
         -5    1    4    4    0  501  0.28450532408E+01 -0.10166130459E+03  0.81481609060E+03  0.82115191450E+03  0.47000000000E+01 0. -1.
          1    1    1    2  502    0 -0.35167792274E+02  0.62695651909E+02  0.15970357162E+04  0.15986527444E+04  0.00000000000E+00 0. -1.
          1    1    1    2  503    0 -0.25062195812E+02  0.94425217405E+02 -0.23209073006E+03  0.25181410271E+03  0.00000000000E+00 0. -1.
<mgrwt>
<rscale>  0 0.79154391E+02</rscale>
<asrwt>0</asrwt>
<pdfrwt beam="1">  1        2 0.38104833E+00 0.71885453E+02</pdfrwt>
<pdfrwt beam="2">  1        2 0.55971111E-01 0.87158351E+02</pdfrwt>
<totfact> 0.67859642E+01</totfact>
</mgrwt>
</event>
<event>
13    1  0.1589573E-008  0.1013493E+03  0.7546771E-02  0.1387927E+00
          2   -1    0    0  503    0  0.00000000000E+00  0.00000000000E+00  0.19742460572E+04  0.19742460572E+04  0.00000000000E+00 0. -1.
          2   -1    0    0  502    0 -0.00000000000E+00 -0.00000000000E+00 -0.67212402660E+03  0.67212402660E+03  0.00000000000E+00 0. -1.
         24    2    1    2    0    0 -0.14862573820E+03  0.74360258300E+02 -0.76505339283E+02  0.19969467239E+03  0.80036474013E+02 0.  0.
         25    2    1    2    0    0 -0.70150336113E+02 -0.17250864740E+03  0.11399744230E+04  0.11618288523E+04  0.12499717534E+03 0.  0.
         24    2    1    2    0    0  0.19919694010E+03 -0.85695094991E+01  0.12366011328E+03  0.24803623543E+03  0.80481631663E+02 0.  0.
        -11    1    3    3    0    0  0.83451558227E+01  0.62372616324E+01  0.32380751147E+01  0.10910095729E+02  0.00000000000E+00 0.  1.
         12    1    3    3    0    0 -0.15697089402E+03  0.68122996668E+02 -0.79743414398E+02  0.18878457666E+03  0.00000000000E+00 0. -1.
        -11    1    5    5    0    0  0.19189587558E+02 -0.24087605788E+02  0.35509217117E+02  0.47003803288E+02  0.00000000000E+00 0.  1.
         12    1    5    5    0    0  0.18000735254E+03  0.15518096289E+02  0.88150896160E+02  0.20103243215E+03  0.00000000000E+00 0. -1.
          5    1    4    4  501    0 -0.66463271872E+01 -0.60871282603E+02  0.72037005792E+03  0.72298312363E+03  0.47000000000E+01 0. -1.
         -5    1    4    4    0  501 -0.63504008925E+02 -0.11163736480E+03  0.41960436503E+03  0.43884572862E+03  0.47000000000E+01 0. -1.
          1    1    1    2  502    0 -0.18224581943E+02  0.99696687328E+02 -0.45468147198E+03  0.46583989290E+03  0.00000000000E+00 0. -1.
          1    1    1    2  503    0  0.37803716157E+02  0.70212112711E+01  0.56967430561E+03  0.57097043079E+03  0.00000000000E+00 0. -1.
<mgrwt>
<rscale>  0 0.62425160E+02</rscale>
<asrwt>0</asrwt>
<pdfrwt beam="1">  1        2 0.29033030E+00 0.38450206E+02</pdfrwt>
<pdfrwt beam="2">  1        2 0.98841769E-01 0.10134928E+03</pdfrwt>
<totfact> 0.77735307E+01</totfact>
</mgrwt>
</event>
<event>
13    1  0.1589573E-008  0.1154352E+03  0.7546771E-02  0.1286870E+00
          2   -1    0    0  502    0  0.00000000000E+00  0.00000000000E+00  0.24952803130E+04  0.24952803130E+04  0.00000000000E+00 0. -1.
          2   -1    0    0  503    0 -0.00000000000E+00 -0.00000000000E+00 -0.36268177435E+04  0.36268177435E+04  0.00000000000E+00 0. -1.
         24    2    1    2    0    0 -0.54937164537E+02 -0.14339210861E+02 -0.13633229672E+04  0.13669097098E+04  0.81048978580E+02 0.  0.
         25    2    1    2    0    0  0.10547486612E+02 -0.54187823417E+02  0.21034674646E+03  0.25084770969E+03  0.12502499762E+03 0.  0.
         24    2    1    2    0    0 -0.46349034091E+02 -0.19197055591E+02 -0.27967793983E+03  0.29520125293E+03  0.80045423380E+02 0.  0.
        -11    1    3    3    0    0 -0.76218342088E+02 -0.11406474042E+02 -0.10116574249E+04  0.10145886302E+04  0.00000000000E+00 0.  1.
         12    1    3    3    0    0  0.21281177551E+02 -0.29327368189E+01 -0.35166554234E+03  0.35232107960E+03  0.00000000000E+00 0. -1.
        -13    1    5    5    0    0 -0.65701491945E+01  0.20340146672E+02 -0.19130093718E+02  0.28685343169E+02  0.00000000000E+00 0.  1.
         14    1    5    5    0    0 -0.39778884897E+02 -0.39537202263E+02 -0.26054784611E+03  0.26651590977E+03  0.00000000000E+00 0. -1.
          5    1    4    4  501    0 -0.44387459319E+02 -0.59924314021E+02  0.15719126991E+03  0.17404699162E+03  0.47000000000E+01 0.  1.
         -5    1    4    4    0  501  0.54934945931E+02  0.57364906043E+01  0.53155476552E+02  0.76800718071E+02  0.47000000000E+01 0.  1.
          1    1    1    2  502    0  0.11506772680E+03  0.10040020684E+02  0.22528000179E+04  0.22557591415E+04  0.00000000000E+00 0. -1.
          1    1    1    2  503    0 -0.24329014782E+02  0.77684069185E+02 -0.19516832879E+04  0.19533802425E+04  0.00000000000E+00 0. -1.
<mgrwt>
<rscale>  0 0.96937938E+02</rscale>
<asrwt>0</asrwt>
<pdfrwt beam="1">  1        2 0.36695299E+00 0.11543523E+03</pdfrwt>
<pdfrwt beam="2">  1        2 0.53335555E+00 0.81404641E+02</pdfrwt>
<totfact> 0.10667183E+00</totfact>
</mgrwt>
</event>
<event>
13    1  0.1589573E-008  0.1080490E+03  0.7546771E-02  0.1292402E+00
          2   -1    0    0  503    0  0.00000000000E+00  0.00000000000E+00  0.25151749051E+04  0.25151749051E+04  0.00000000000E+00 0. -1.
         -1   -1    0    0    0  501 -0.00000000000E+00 -0.00000000000E+00 -0.13953742767E+04  0.13953742767E+04  0.00000000000E+00 0.  1.
         24    2    1    2    0    0  0.34794419334E+02  0.27404181891E+03  0.90427199148E+03  0.94896811961E+03  0.80765632036E+02 0.  0.
         25    2    1    2    0    0  0.60436502655E+02 -0.19024175549E+03 -0.43698156475E+03  0.49640832533E+03  0.12499536449E+03 0.  0.
         24    2    1    2    0    0 -0.79786707720E+02 -0.19465083160E+03  0.33479502863E+03  0.40371715152E+03  0.81516637952E+02 0.  0.
        -11    1    3    3    0    0 -0.97091953222E+01  0.12327271292E+03  0.29775837609E+03  0.32241352446E+03  0.00000000000E+00 0.  1.
         12    1    3    3    0    0  0.44503614656E+02  0.15076910600E+03  0.60651361539E+03  0.62655459514E+03  0.00000000000E+00 0. -1.
        -11    1    5    5    0    0 -0.60544319211E+01 -0.12175196874E+03  0.17810672788E+03  0.21582910961E+03  0.00000000000E+00 0.  1.
         12    1    5    5    0    0 -0.73732275798E+02 -0.72898862858E+02  0.15668830075E+03  0.18788804191E+03  0.00000000000E+00 0. -1.
          5    1    4    4  502    0  0.22925059965E+02 -0.18170602386E+03 -0.41033084734E+03  0.44937304298E+03  0.47000000000E+01 0.  1.
         -5    1    4    4    0  502  0.37511442690E+02 -0.85357316244E+01 -0.26650717411E+02  0.47035282348E+02  0.47000000000E+01 0.  1.
          1    1    1    2  503    0  0.63734656594E+02  0.87409488268E+02  0.11851611896E+04  0.11900880516E+04  0.00000000000E+00 0. -1.
         -2    1    1    2    0  501 -0.79178870863E+02  0.23441279906E+02 -0.86744601658E+03  0.87136753375E+03  0.00000000000E+00 0.  1.
<mgrwt>
<rscale>  0 0.94457676E+02</rscale>
<asrwt>0</asrwt>
<pdfrwt beam="1">  1        2 0.36987866E+00 0.10804905E+03</pdfrwt>
<pdfrwt beam="2">  1       -1 0.20520210E+00 0.82575948E+02</pdfrwt>
<totfact> 0.10046684E+00</totfact>
</mgrwt>
</event>
<event>
13    1  0.1589573E-008  0.5761987E+02  0.7546771E-02  0.1433419E+00
          2   -1    0    0  502    0  0.00000000000E+00  0.00000000000E+00  0.61129755888E+03  0.61129755888E+03  0.00000000000E+00 0. -1.
          2   -1    0    0  503    0 -0.00000000000E+00 -0.00000000000E+00 -0.74056106582E+03  0.74056106582E+03  0.00000000000E+00 0. -1.
         24    2    1    2    0    0 -0.40495087985E+02 -0.31966095437E+02 -0.94046722592E+02  0.14511130537E+03  0.97728304529E+02 0.  0.
         25    2    1    2    0    0  0.39298644200E+02 -0.39646891880E+01 -0.19160481886E+03  0.23215793909E+03  0.12499919950E+03 0.  0.
         24    2    1    2    0    0  0.13817194830E+02 -0.10903197702E+02  0.18531311125E+03  0.20381370568E+03  0.83001703767E+02 0.  0.
        -13    1    5    5    0    0  0.15293523989E+02  0.33783156047E+02  0.11160834761E+03  0.11760789415E+03  0.00000000000E+00 0.  1.
         14    1    5    5    0    0 -0.14763291587E+01 -0.44686353750E+02  0.73704763638E+02  0.86205811534E+02  0.00000000000E+00 0. -1.
        -13    1    3    3    0    0 -0.50981540470E+02  0.13614024859E+02 -0.80793489279E+02  0.96498948447E+02  0.00000000000E+00 0.  1.
         14    1    3    3    0    0  0.10486452485E+02 -0.45580120296E+02 -0.13253233313E+02  0.48612356918E+02  0.00000000000E+00 0. -1.
          5    1    4    4  501    0  0.11410776091E+02 -0.16215071373E+02 -0.19934236551E+03  0.20038114442E+03  0.47000000000E+01 0. -1.
         -5    1    4    4    0  501  0.27887868109E+02  0.12250382185E+02  0.77375466517E+01  0.31776794670E+02  0.47000000000E+01 0. -1.
          1    1    1    2  502    0 -0.47430563676E+02  0.61405364463E+00  0.36729885621E+03  0.37034913960E+03  0.00000000000E+00 0. -1.
          1    1    1    2  503    0  0.34809812631E+02  0.46219928682E+02 -0.39622393295E+03  0.40042653496E+03  0.00000000000E+00 0. -1.
<mgrwt>
<rscale>  0 0.52279747E+02</rscale>
<asrwt>0</asrwt>
<pdfrwt beam="1">  1        2 0.89896701E-01 0.47434538E+02</pdfrwt>
<pdfrwt beam="2">  1        2 0.10890604E+00 0.57619870E+02</pdfrwt>
<totfact> 0.36464824E+02</totfact>
</mgrwt>
</event>
<event>
13    1  0.1589573E-008  0.1178656E+03  0.7546771E-02  0.1288695E+00
          2   -1    0    0  503    0  0.00000000000E+00  0.00000000000E+00  0.16940929799E+04  0.16940929799E+04  0.00000000000E+00 0. -1.
          2   -1    0    0  502    0 -0.00000000000E+00 -0.00000000000E+00 -0.28494111121E+04  0.28494111121E+04  0.00000000000E+00 0. -1.
         24    2    1    2    0    0 -0.16352176747E+02 -0.56351916450E+03 -0.11552059468E+04  0.12878897756E+04  0.79611884570E+02 0.  0.
         25    2    1    2    0    0  0.14935654967E+03  0.30055472136E+03 -0.80457022983E+03  0.88068170080E+03  0.12500593554E+03 0.  0.
         24    2    1    2    0    0 -0.25499648347E+02  0.37363438708E+03 -0.27335203479E+03  0.47318888620E+03  0.94517193270E+02 0.  0.
        -11    1    5    5    0    0 -0.56038459884E+02  0.20199445816E+03 -0.12348610226E+03  0.24329177455E+03  0.00000000000E+00 0.  1.
         12    1    5    5    0    0  0.30538811537E+02  0.17163992892E+03 -0.14986593254E+03  0.22989711165E+03  0.00000000000E+00 0. -1.
        -13    1    3    3    0    0 -0.34710562449E+02 -0.12012142318E+03 -0.27770025379E+03  0.30455116222E+03  0.00000000000E+00 0.  1.
         14    1    3    3    0    0  0.18358385702E+02 -0.44339774132E+03 -0.87750569304E+03  0.98333861343E+03  0.00000000000E+00 0. -1.
          5    1    4    4  501    0  0.33002479337E+02  0.18931402376E+03 -0.36470900242E+03  0.41226655174E+03  0.47000000000E+01 0. -1.
         -5    1    4    4    0  501  0.11635407034E+03  0.11124069760E+03 -0.43986122741E+03  0.46841514906E+03  0.47000000000E+01 0. -1.
          1    1    1    2  502    0  0.57719310614E+01 -0.78157375251E+02 -0.40588184834E+03  0.41337871899E+03  0.00000000000E+00 0. -1.
          1    1    1    2  503    0 -0.11327665564E+03 -0.32512568687E+02  0.14836919276E+04  0.14883650103E+04  0.00000000000E+00 0. -1.
<mgrwt>
<rscale>  0 0.96110086E+02</rscale>
<asrwt>0</asrwt>
<pdfrwt beam="1">  1        2 0.24913132E+00 0.11786555E+03</pdfrwt>
<pdfrwt beam="2">  1        2 0.41903104E+00 0.78370214E+02</pdfrwt>
<totfact> 0.71161029E+00</totfact>
</mgrwt>
</event>
<event>
13    1  0.1589573E-008  0.1070115E+03  0.7546771E-02  0.1283077E+00
          2   -1    0    0  503    0  0.00000000000E+00  0.00000000000E+00  0.23761005525E+04  0.23761005525E+04  0.00000000000E+00 0. -1.
          2   -1    0    0  502    0 -0.00000000000E+00 -0.00000000000E+00 -0.16252972734E+04  0.16252972734E+04  0.00000000000E+00 0. -1.
         24    2    1    2    0    0 -0.62162943531E+02  0.23095288690E+03  0.10361387636E+03  0.27958498355E+03  0.10113584992E+03 0.  0.
         25    2    1    2    0    0 -0.54545859332E+02 -0.33718607516E+03  0.88425485033E+03  0.95613914561E+03  0.12500290153E+03 0.  0.
         24    2    1    2    0    0  0.38160244066E+02  0.43148901215E+02 -0.55752944472E+00  0.99673507223E+02  0.81341657838E+02 0.  0.
        -11    1    5    5    0    0 -0.19018023330E+02  0.27580137059E+02 -0.17825915462E+02  0.37948813336E+02  0.00000000000E+00 0.  1.
         12    1    5    5    0    0  0.57178267396E+02  0.15568764156E+02  0.17268386017E+02  0.61724693887E+02  0.00000000000E+00 0. -1.
        -13    1    3    3    0    0 -0.89997549503E+02  0.18734750955E+03  0.86067303076E+02  0.22495828260E+03  0.00000000000E+00 0.  1.
         14    1    3    3    0    0  0.27834605971E+02  0.43605377343E+02  0.17546573286E+02  0.54626700952E+02  0.00000000000E+00 0. -1.
          5    1    4    4  501    0 -0.82444941541E+02 -0.21391367554E+03  0.46904607563E+03  0.52209437847E+03  0.47000000000E+01 0. -1.
         -5    1    4    4    0  501  0.27899082209E+02 -0.12327239963E+03  0.41520877469E+03  0.43404476714E+03  0.47000000000E+01 0. -1.
          1    1    1    2  502    0 -0.26350750669E+02  0.87115427875E+02 -0.14474384532E+04  0.14502970508E+04  0.00000000000E+00 0. -1.
          1    1    1    2  503    0  0.10489930947E+03 -0.24031140822E+02  0.12109305350E+04  0.12157031387E+04  0.00000000000E+00 0. -1.
<mgrwt>
<rscale>  0 0.98688891E+02</rscale>
<asrwt>0</asrwt>
<pdfrwt beam="1">  1        2 0.34942655E+00 0.10701155E+03</pdfrwt>
<pdfrwt beam="2">  1        2 0.23901430E+00 0.91013515E+02</pdfrwt>
<totfact> 0.13022316E+01</totfact>
</mgrwt>
</event>
<event>
13    1  0.1589573E-008  0.5050519E+02  0.7546771E-02  0.1534256E+00
          2   -1    0    0  503    0  0.00000000000E+00  0.00000000000E+00  0.36625013555E+03  0.36625013555E+03  0.00000000000E+00 0. -1.
          2   -1    0    0  502    0 -0.00000000000E+00 -0.00000000000E+00 -0.19828487721E+04  0.19828487721E+04  0.00000000000E+00 0. -1.
         24    2    1    2    0    0 -0.80485032836E+01 -0.20580513291E+02 -0.30363592334E+02  0.88499241154E+02  0.80136333913E+02 0.  0.
         25    2    1    2    0    0  0.33753307400E+02 -0.45466845449E+02  0.66639869635E+02  0.15255208363E+03  0.12499898480E+03 0.  0.
         24    2    1    2    0    0  0.80528982782E+01  0.69104270023E+01 -0.20501888605E+02  0.85278800980E+02  0.82094721439E+02 0.  0.
        -13    1    5    5    0    0  0.26351658379E+02  0.37038149907E+02 -0.20892210599E+02  0.50027181727E+02  0.00000000000E+00 0.  1.
         14    1    5    5    0    0 -0.18298760101E+02 -0.30127722905E+02  0.39032199487E+00  0.35251619252E+02  0.00000000000E+00 0. -1.
        -13    1    3    3    0    0  0.31357616858E+02 -0.28571978559E+02 -0.20412363318E+02  0.47077836293E+02  0.00000000000E+00 0.  1.
         14    1    3    3    0    0 -0.39406120142E+02  0.79914652674E+01 -0.99512290159E+01  0.41421404862E+02  0.00000000000E+00 0. -1.
          5    1    4    4  501    0  0.39279615741E+02 -0.82672594364E+02  0.68775762864E+02  0.11458552103E+03  0.47000000000E+01 0.  1.
         -5    1    4    4    0  501 -0.55263083402E+01  0.37205748915E+02 -0.21358932291E+01  0.37966562605E+02  0.47000000000E+01 0.  1.
          1    1    1    2  502    0 -0.88650493855E+01  0.49692801006E+02 -0.18263127176E+04  0.18270101548E+04  0.00000000000E+00 0. -1.
          1    1    1    2  503    0 -0.24892653010E+02  0.94441307323E+01  0.19393969235E+03  0.19575862700E+03  0.00000000000E+00 0. -1.
<mgrwt>
<rscale>  0 0.36669451E+02</rscale>
<asrwt>0</asrwt>
<pdfrwt beam="1">  1        2 0.53860314E-01 0.26623970E+02</pdfrwt>
<pdfrwt beam="2">  1        2 0.29159541E+00 0.50505188E+02</pdfrwt>
<totfact> 0.14322367E+02</totfact>
</mgrwt>
</event>
<event>
13    1  0.1589573E-008  0.4738389E+02  0.7546771E-02  0.1463991E+00
          2   -1    0    0  503    0  0.00000000000E+00  0.00000000000E+00  0.13961924246E+04  0.13961924246E+04  0.00000000000E+00 0. -1.
          2   -1    0    0  502    0 -0.00000000000E+00 -0.00000000000E+00 -0.30730079012E+04  0.30730079012E+04  0.00000000000E+00 0. -1.
         24    2    1    2    0    0  0.93876337896E+03 -0.25187120079E+03 -0.26715033458E+03  0.10113848080E+04  0.82547835015E+02 0.  0.
         25    2    1    2    0    0 -0.26540246205E+02  0.41649334419E+03 -0.61757697951E+03  0.75577701669E+03  0.12500593149E+03 0.  0.
         24    2    1    2    0    0 -0.91287001759E+03 -0.16898226001E+03  0.23163094576E+03  0.95940428689E+03  0.70121447822E+02 0.  0.
        -11    1    3    3    0    0  0.60848222077E+03 -0.12883283919E+03 -0.19285825741E+03  0.65118570385E+03  0.00000000000E+00 0.  1.
         12    1    3    3    0    0  0.33028115819E+03 -0.12303836159E+03 -0.74292077165E+02  0.36019910412E+03  0.00000000000E+00 0. -1.
        -13    1    5    5    0    0 -0.40164080974E+03 -0.97075273492E+02  0.13056691086E+03  0.43334358999E+03  0.00000000000E+00 0.  1.
         14    1    5    5    0    0 -0.51122920785E+03 -0.71906986518E+02  0.10106403491E+03  0.52606069690E+03  0.00000000000E+00 0. -1.
          5    1    4    4  501    0 -0.66858393130E+02  0.31202943724E+03 -0.40672854313E+03  0.51699382224E+03  0.47000000000E+01 0.  1.
         -5    1    4    4    0  501  0.40318146925E+02  0.10446390695E+03 -0.21084843638E+03  0.23878319445E+03  0.47000000000E+01 0.  1.
          1    1    1    2  502    0  0.46320251160E+02  0.10068305013E+02 -0.13812949425E+04  0.13821080474E+04  0.00000000000E+00 0. -1.
          1    1    1    2  503    0 -0.45673366318E+02 -0.57081884076E+01  0.35757583419E+03  0.36052616687E+03  0.00000000000E+00 0. -1.
<mgrwt>
<rscale>  0 0.46701372E+02</rscale>
<asrwt>0</asrwt>
<pdfrwt beam="1">  1        2 0.20532242E+00 0.46028685E+02</pdfrwt>
<pdfrwt beam="2">  1        2 0.45191292E+00 0.47383891E+02</pdfrwt>
<totfact> 0.89122082E+00</totfact>
</mgrwt>
</event>
<event>
13    1  0.1589573E-008  0.1400707E+03  0.7546771E-02  0.1280276E+00
          2   -1    0    0  502    0  0.00000000000E+00  0.00000000000E+00  0.43822286197E+04  0.43822286197E+04  0.00000000000E+00 0. -1.
          2   -1    0    0  503    0 -0.00000000000E+00 -0.00000000000E+00 -0.10314851642E+04  0.10314851642E+04  0.00000000000E+00 0. -1.
         24    2    1    2    0    0  0.73621969117E+02 -0.48708764823E+02 -0.75818525595E+02  0.14268064904E+03  0.82562586444E+02 0.  0.
         25    2    1    2    0    0  0.76696897205E+02  0.10444275124E+02  0.12991455821E+04  0.13074385155E+04  0.12499892599E+03 0.  0.
         24    2    1    2    0    0 -0.12972036744E+02  0.76785036746E+02 -0.70530217319E+02  0.13172937780E+03  0.79460064274E+02 0.  0.
        -11    1    3    3    0    0  0.88627189251E+02 -0.30797549812E+02 -0.73525138055E+02  0.11920240633E+03  0.00000000000E+00 0.  1.
         12    1    3    3    0    0 -0.15005220134E+02 -0.17911215011E+02 -0.22933875404E+01  0.23478242712E+02  0.00000000000E+00 0. -1.
        -13    1    5    5    0    0  0.45929175942E+01 -0.75503680039E+01  0.10319666688E+02  0.13586701939E+02  0.00000000000E+00 0.  1.
         14    1    5    5    0    0 -0.17564954338E+02  0.84335404750E+02 -0.80849884006E+02  0.11814267586E+03  0.00000000000E+00 0. -1.
          5    1    4    4  501    0 -0.31242362923E+02 -0.12351539363E+02  0.21161906056E+03  0.21432070026E+03  0.47000000000E+01 0. -1.
         -5    1    4    4    0  501  0.10793926013E+03  0.22795814487E+02  0.10875265215E+04  0.10931178153E+04  0.47000000000E+01 0. -1.
          1    1    1    2  502    0  0.27182051474E+01 -0.71354457784E+02  0.30081456226E+04  0.30089930099E+04  0.00000000000E+00 0. -1.
          1    1    1    2  503    0 -0.14006503473E+03  0.32833910738E+02 -0.81019900625E+03  0.82287223150E+03  0.00000000000E+00 0. -1.
<mgrwt>
<rscale>  0 0.10000959E+03</rscale>
<asrwt>0</asrwt>
<pdfrwt beam="1">  1        2 0.64444538E+00 0.71406213E+02</pdfrwt>
<pdfrwt beam="2">  1        2 0.15168900E+00 0.14007071E+03</pdfrwt>
<totfact> 0.18429980E+00</totfact>
</mgrwt>
</event>
<event>
13    1  0.1589573E-008  0.3868870E+02  0.7546771E-02  0.1542129E+00
          2   -1    0    0  503    0  0.00000000000E+00  0.00000000000E+00  0.60322456353E+03  0.60322456353E+03  0.00000000000E+00 0. -1.
          2   -1    0    0  502    0 -0.00000000000E+00 -0.00000000000E+00 -0.10726849748E+04  0.10726849748E+04  0.00000000000E+00 0. -1.
         24    2    1    2    0    0 -0.24560093696E+02  0.70182299058E+02 -0.53062397221E+03  0.54245576580E+03  0.84662297770E+02 0.  0.
         25    2    1    2    0    0 -0.55407421503E+02 -0.12315037775E+03  0.34603648065E+03  0.39192219871E+03  0.12500306398E+03 0.  0.
         24    2    1    2    0    0  0.50327097717E+02  0.10287509033E+02 -0.38973254905E+02  0.10247078078E+03  0.79641049142E+02 0.  0.
        -11    1    5    5    0    0  0.33119412115E+02 -0.26323603041E+02 -0.44778341041E+02  0.61602981765E+02  0.00000000000E+00 0.  1.
         12    1    5    5    0    0  0.17207685602E+02  0.36611112074E+02  0.58050861363E+01  0.40867799012E+02  0.00000000000E+00 0. -1.
        -11    1    3    3    0    0  0.12072976410E+02 -0.10045503252E+02 -0.18827075139E+03  0.18892470650E+03  0.00000000000E+00 0.  1.
         12    1    3    3    0    0 -0.36633070106E+02  0.80227802310E+02 -0.34235322082E+03  0.35353105930E+03  0.00000000000E+00 0. -1.
          5    1    4    4  501    0  0.27037506643E+02 -0.24163952227E+02  0.20792941831E+02  0.42063758542E+02  0.47000000000E+01 0.  1.
         -5    1    4    4    0  501 -0.82444928145E+02 -0.98986425519E+02  0.32524353882E+03  0.34985844017E+03  0.47000000000E+01 0.  1.
          1    1    1    2  502    0  0.32757066411E+02  0.41221932712E+01 -0.43995258127E+03  0.44118963229E+03  0.00000000000E+00 0. -1.
          1    1    1    2  503    0 -0.31166489302E+01  0.38558376385E+02  0.19405291643E+03  0.19787116077E+03  0.00000000000E+00 0. -1.
<mgrwt>
<rscale>  0 0.35739663E+02</rscale>
<asrwt>0</asrwt>
<pdfrwt beam="1">  1        2 0.88709495E-01 0.38688697E+02</pdfrwt>
<pdfrwt beam="2">  1        2 0.15774779E+00 0.33015419E+02</pdfrwt>
<totfact> 0.24278629E+02</totfact>
</mgrwt>
</event>
<event>
13    1  0.1589573E-008  0.1541874E+03  0.7546771E-02  0.1299625E+00
          2   -1    0    0  502    0  0.00000000000E+00  0.00000000000E+00  0.36180224766E+04  0.36180224766E+04  0.00000000000E+00 0. -1.
          2   -1    0    0  503    0 -0.00000000000E+00 -0.00000000000E+00 -0.73125619072E+03  0.73125619072E+03  0.00000000000E+00 0. -1.
         24    2    1    2    0    0  0.21475248548E+03 -0.34907109938E+03 -0.40892614149E+03  0.58454082776E+03  0.80610965041E+02 0.  0.
         25    2    1    2    0    0 -0.20756683346E+03  0.14568338975E+03  0.40805980469E+03  0.49643335146E+03  0.12500251132E+03 0.  0.
         24    2    1    2    0    0 -0.85932105919E+02  0.17792695680E+02  0.35679668433E+03  0.37613374003E+03  0.80447558043E+02 0.  0.
        -11    1    5    5    0    0  0.12231974317E+02  0.23706795899E+01  0.11979768013E+02  0.17284564185E+02  0.00000000000E+00 0.  1.
         12    1    5    5    0    0 -0.98164080236E+02  0.15422016090E+02  0.34481691631E+03  0.35884917585E+03  0.00000000000E+00 0. -1.
        -13    1    3    3    0    0  0.10608568957E+02 -0.18795203076E+02 -0.55314947718E+02  0.59376298596E+02  0.00000000000E+00 0.  1.
         14    1    3    3    0    0  0.20414391653E+03 -0.33027589630E+03 -0.35361119377E+03  0.52516452916E+03  0.00000000000E+00 0. -1.
          5    1    4    4  501    0  0.78894076753E+01  0.16919833766E+02  0.24331089347E+01  0.19404472351E+02  0.47000000000E+01 0.  1.
         -5    1    4    4    0  501 -0.21545624114E+03  0.12876355599E+03  0.40562669576E+03  0.47702887911E+03  0.47000000000E+01 0.  1.
          1    1    1    2  502    0  0.36789867926E+02  0.39687044074E+02  0.26792868816E+04  0.26798333437E+04  0.00000000000E+00 0. -1.
          1    1    1    2  503    0  0.41956585971E+02  0.14590796987E+03 -0.14845094323E+03  0.21233740444E+03  0.00000000000E+00 0. -1.
<mgrwt>
<rscale>  0 0.91345642E+02</rscale>
<asrwt>0</asrwt>
<pdfrwt beam="1">  1        2 0.53206212E+00 0.54116133E+02</pdfrwt>
<pdfrwt beam="2">  1        2 0.10753768E+00 0.15418741E+03</pdfrwt>
<totfact> 0.96931264E+00</totfact>
</mgrwt>
</event>
<event>
13    1  0.1589573E-008  0.2165301E+03  0.7546771E-02  0.1231029E+00
          2   -1    0    0  503    0  0.00000000000E+00  0.00000000000E+00  0.13932078810E+04  0.13932078810E+04  0.00000000000E+00 0. -1.
          2   -1    0    0  502    0 -0.00000000000E+00 -0.00000000000E+00 -0.16016173527E+04  0.16016173527E+04  0.00000000000E+00 0. -1.
         24    2    1    2    0    0  0.73413295988E+02 -0.90821399419E+02 -0.22394597793E+02  0.14335731199E+03  0.80073480447E+02 0.  0.
         25    2    1    2    0    0  0.44841648615E+02  0.12135578446E+03 -0.30976786343E+02  0.18254868245E+03  0.12500584107E+03 0.  0.
         24    2    1    2    0    0  0.12621424046E+03  0.23632298233E+01  0.15737392331E+03  0.21698162627E+03  0.79867734717E+02 0.  0.
        -13    1    5    5    0    0 -0.91929511786E+01  0.91718325441E+00 -0.16762065414E+00  0.92401121843E+01  0.00000000000E+00 0.  1.
         14    1    5    5    0    0  0.13540719164E+03  0.14460465689E+01  0.15754154397E+03  0.20774151408E+03  0.00000000000E+00 0. -1.
        -13    1    3    3    0    0  0.88428093537E+00 -0.56273601838E+02  0.92066191056E+01  0.57028607312E+02  0.00000000000E+00 0.  1.
         14    1    3    3    0    0  0.72529015052E+02 -0.34547797582E+02 -0.31601216898E+02  0.86328704680E+02  0.00000000000E+00 0. -1.
          5    1    4    4  501    0  0.67644254808E+02  0.13462573757E+03 -0.36711072071E+02  0.15514389204E+03  0.47000000000E+01 0. -1.
         -5    1    4    4    0  501 -0.22802606193E+02 -0.13269953113E+02  0.57342857278E+01  0.27404790414E+02  0.47000000000E+01 0. -1.
          1    1    1    2  502    0 -0.35991957357E+02  0.66049196560E+02 -0.13686850058E+04  0.13707503648E+04  0.00000000000E+00 0. -1.
          1    1    1    2  503    0 -0.20847722770E+03 -0.98946811419E+02  0.10562729949E+04  0.10811872482E+04  0.00000000000E+00 0. -1.
<mgrwt>
<rscale>  0 0.12762135E+03</rscale>
<asrwt>0</asrwt>
<pdfrwt beam="1">  1        2 0.20488351E+00 0.21653014E+03</pdfrwt>
<pdfrwt beam="2">  1        2 0.23553196E+00 0.75219129E+02</pdfrwt>
<totfact> 0.39098268E+01</totfact>
</mgrwt>
</event>
<event>
13    1  0.1589573E-008  0.5619610E+02  0.7546771E-02  0.1475578E+00
          2   -1    0    0  503    0  0.00000000000E+00  0.00000000000E+00  0.28533682850E+04  0.28533682850E+04  0.00000000000E+00 0. -1.
         -1   -1    0    0    0  501 -0.00000000000E+00 -0.00000000000E+00 -0.17120361686E+04  0.17120361686E+04  0.00000000000E+00 0.  1.
         24    2    1    2    0    0 -0.60156180956E+03 -0.24217554402E+03 -0.11091643576E+04  0.12889751520E+04  0.10337197624E+03 0.  0.
         25    2    1    2    0    0  0.22234069710E+03  0.39703994046E+03  0.15944935687E+04  0.16628623376E+04  0.12500125269E+03 0.  0.
         24    2    1    2    0    0  0.32946213950E+03 -0.94949187757E+02  0.11757403642E+03  0.37147163789E+03  0.81282680158E+02 0.  0.
        -11    1    3    3    0    0 -0.51807612930E+03 -0.18053509413E+03 -0.98175666424E+03  0.11246519212E+04  0.00000000000E+00 0.  1.
         12    1    3    3    0    0 -0.83485680257E+02 -0.61640449891E+02 -0.12740769334E+03  0.16432323084E+03  0.00000000000E+00 0. -1.
        -11    1    5    5    0    0  0.40079168564E+02 -0.27696104013E+02 -0.71847566226E+01  0.49244640906E+02  0.00000000000E+00 0.  1.
         12    1    5    5    0    0  0.28938297094E+03 -0.67253083745E+02  0.12475879304E+03  0.32222699698E+03  0.00000000000E+00 0. -1.
          5    1    4    4  502    0  0.49764814728E+02  0.80429514159E+02  0.18324739678E+03  0.20626958564E+03  0.47000000000E+01 0.  1.
         -5    1    4    4    0  502  0.17257588237E+03  0.31661042630E+03  0.14112461719E+04  0.14565927520E+04  0.47000000000E+01 0.  1.
          1    1    1    2  503    0  0.50703820964E+02 -0.24208661690E+02  0.88846580706E+03  0.89024065683E+03  0.00000000000E+00 0. -1.
         -2    1    1    2    0  501 -0.94484801102E+00 -0.35706546990E+02 -0.35003693823E+03  0.35185466938E+03  0.00000000000E+00 0.  1.
<mgrwt>
<rscale>  0 0.44802580E+02</rscale>
<asrwt>0</asrwt>
<pdfrwt beam="1">  1        2 0.41961299E+00 0.56196103E+02</pdfrwt>
<pdfrwt beam="2">  1       -1 0.25177002E+00 0.35719046E+02</pdfrwt>
<totfact> 0.41978763E-01</totfact>
</mgrwt>
</event>
<event>
13    1  0.1589573E-008  0.8153616E+02  0.7546771E-02  0.1417038E+00
          2   -1    0    0  503    0  0.00000000000E+00  0.00000000000E+00  0.74305413615E+03  0.74305413615E+03  0.00000000000E+00 0. -1.
          2   -1    0    0  502    0 -0.00000000000E+00 -0.00000000000E+00 -0.15297543312E+04  0.15297543312E+04  0.00000000000E+00 0. -1.
         24    2    1    2    0    0 -0.26566590757E+02 -0.78612102476E+02 -0.27620964857E+03  0.29755753155E+03  0.73232972200E+02 0.  0.
         25    2    1    2    0    0  0.11363838512E+03  0.15335560349E+03 -0.84545889083E+02  0.24332276372E+03  0.12500534505E+03 0.  0.
         24    2    1    2    0    0 -0.49436496377E+02  0.37974004852E+02 -0.19164690066E+03  0.21663704130E+03  0.79480066147E+02 0.  0.
        -13    1    5    5    0    0 -0.19273313193E+02 -0.12102900635E+02 -0.12883635999E+03  0.13083099197E+03  0.00000000000E+00 0.  1.
         14    1    5    5    0    0 -0.30163183184E+02  0.50076905487E+02 -0.62810540669E+02  0.85806049332E+02  0.00000000000E+00 0. -1.
        -13    1    3    3    0    0 -0.32177213980E+02 -0.15856425118E+01 -0.10274017777E+03  0.10767279828E+03  0.00000000000E+00 0.  1.
         14    1    3    3    0    0  0.56106232233E+01 -0.77026459964E+02 -0.17346947080E+03  0.18988473327E+03  0.00000000000E+00 0. -1.
          5    1    4    4  501    0  0.45703859403E+02  0.51348033064E+02  0.30325370838E+02  0.75280683978E+02  0.47000000000E+01 0. -1.
         -5    1    4    4    0  501  0.67934525715E+02  0.10200757043E+03 -0.11487125992E+03  0.16804207974E+03  0.47000000000E+01 0. -1.
          1    1    1    2  502    0 -0.26191215967E+02 -0.76496794470E+02 -0.87236002497E+03  0.87609916821E+03  0.00000000000E+00 0. -1.
          1    1    1    2  503    0 -0.11444082016E+02 -0.36220711400E+02  0.63806226821E+03  0.63919196260E+03  0.00000000000E+00 0. -1.
<mgrwt>
<rscale>  0 0.55652503E+02</rscale>
<asrwt>0</asrwt>
<pdfrwt beam="1">  1        2 0.10927267E+00 0.37985615E+02</pdfrwt>
<pdfrwt beam="2">  1        2 0.22496387E+00 0.81536158E+02</pdfrwt>
<totfact> 0.10730255E+02</totfact>
</mgrwt>
</event>
<event>
13    1  0.1589573E-008  0.6273800E+02  0.7546771E-02  0.1399099E+00
          2   -1    0    0  502    0  0.00000000000E+00  0.00000000000E+00  0.88779838124E+03  0.88779838124E+03  0.00000000000E+00 0. -1.
          2   -1    0    0  503    0 -0.00000000000E+00 -0.00000000000E+00 -0.46093982914E+04  0.46093982914E+04  0.00000000000E+00 0. -1.
         24    2    1    2    0    0 -0.35957933306E+02  0.65416762538E+02 -0.31896468435E+04  0.31915486763E+04  0.81016303422E+02 0.  0.
         25    2    1    2    0    0  0.99145080370E+02 -0.17205327726E+02  0.14712829854E+02  0.16114329016E+03  0.12499968935E+03 0.  0.
         24    2    1    2    0    0  0.31902971878E+02  0.22468866445E+02 -0.10441571760E+03  0.13738156292E+03  0.80301943781E+02 0.  0.
        -11    1    3    3    0    0  0.19823726286E+02  0.29492782977E+02 -0.59957162065E+03  0.60062378629E+03  0.00000000000E+00 0.  1.
         12    1    3    3    0    0 -0.55781659592E+02  0.35923979560E+02 -0.25900752228E+04  0.25909248900E+04  0.00000000000E+00 0. -1.
        -11    1    5    5    0    0  0.45851867191E+02  0.78043974989E+01 -0.20096291457E+02  0.50667181445E+02  0.00000000000E+00 0.  1.
         12    1    5    5    0    0 -0.13948895313E+02  0.14664468946E+02 -0.84319426143E+02  0.86714381478E+02  0.00000000000E+00 0. -1.
          5    1    4    4  501    0  0.69835543120E+02 -0.23016946139E+02 -0.50453232149E+02  0.89299504627E+02  0.47000000000E+01 0. -1.
         -5    1    4    4    0  501  0.29309537251E+02  0.58116184122E+01  0.65166062003E+02  0.71843785530E+02  0.47000000000E+01 0. -1.
          1    1    1    2  502    0 -0.54633032150E+02 -0.30801515132E+02  0.78051917394E+03  0.78303491776E+03  0.00000000000E+00 0. -1.
          1    1    1    2  503    0 -0.40457086791E+02 -0.39878786124E+02 -0.12227693529E+04  0.12240882256E+04  0.00000000000E+00 0. -1.
<mgrwt>
<rscale>  0 0.59699161E+02</rscale>
<asrwt>0</asrwt>
<pdfrwt beam="1">  1        2 0.13055858E+00 0.62738002E+02</pdfrwt>
<pdfrwt beam="2">  1        2 0.67785272E+00 0.56807512E+02</pdfrwt>
<totfact> 0.16364946E+00</totfact>
</mgrwt>
</event>
<event>
13    1  0.1589573E-008  0.5817748E+02  0.7546771E-02  0.1467566E+00
          2   -1    0    0  502    0  0.00000000000E+00  0.00000000000E+00  0.34994253442E+04  0.34994253442E+04  0.00000000000E+00 0. -1.
          2   -1    0    0  503    0 -0.00000000000E+00 -0.00000000000E+00 -0.33513547615E+03  0.33513547615E+03  0.00000000000E+00 0. -1.
         24    2    1    2    0    0 -0.60302992195E+02  0.61607737245E+02  0.97651870363E+02  0.15441157329E+03  0.82916114383E+02 0.  0.
         25    2    1    2    0    0 -0.19924380994E+02 -0.11649419088E+03  0.24602300032E+03  0.30020312333E+03  0.12500688423E+03 0.  0.
         24    2    1    2    0    0  0.29988554851E+02 -0.54994723305E+01  0.20706532461E+04  0.20725130243E+04  0.82315325462E+02 0.  0.
        -11    1    5    5    0    0 -0.19046132287E+02 -0.93333680320E+01  0.13575200248E+04  0.13576857091E+04  0.00000000000E+00 0.  1.
         12    1    5    5    0    0  0.49034687138E+02  0.38338957015E+01  0.71313322127E+03  0.71482731522E+03  0.00000000000E+00 0. -1.
        -13    1    3    3    0    0 -0.34839164589E+02 -0.15684211116E+02  0.29683388584E+02  0.48382490897E+02  0.00000000000E+00 0.  1.
         14    1    3    3    0    0 -0.25463827605E+02  0.77291948361E+02  0.67968481779E+02  0.10602908239E+03  0.00000000000E+00 0. -1.
          5    1    4    4  501    0 -0.67885860366E+02 -0.90722273644E+02  0.13390669796E+03  0.17547682107E+03  0.47000000000E+01 0.  1.
         -5    1    4    4    0  501  0.47961479372E+02 -0.25771917234E+02  0.11211630236E+03  0.12472630226E+03  0.47000000000E+01 0.  1.
          1    1    1    2  502    0 -0.27613274998E+01  0.36431425632E+02  0.10253344226E+04  0.10259851616E+04  0.00000000000E+00 0. -1.
          1    1    1    2  503    0  0.53000145838E+02  0.23954500331E+02 -0.27537267135E+03  0.28144793777E+03  0.00000000000E+00 0. -1.
<mgrwt>
<rscale>  0 0.46103883E+02</rscale>
<asrwt>0</asrwt>
<pdfrwt beam="1">  1        2 0.51462136E+00 0.36535923E+02</pdfrwt>
<pdfrwt beam="2">  1        2 0.49284631E-01 0.58177482E+02</pdfrwt>
<totfact> 0.29014229E+01</totfact>
</mgrwt>
</event>
<event>
13    1  0.1589573E-008  0.1100734E+03  0.7546771E-02  0.1347380E+00
          2   -1    0    0  503    0  0.00000000000E+00  0.00000000000E+00  0.23944129980E+04  0.23944129980E+04  0.00000000000E+00 0. -1.
         -1   -1    0    0    0  501 -0.00000000000E+00 -0.00000000000E+00 -0.47534394480E+03  0.47534394480E+03  0.00000000000E+00 0.  1.
         24    2    1    2    0    0 -0.25314491160E+02 -0.87336466135E+02  0.58091004665E+03  0.59365272315E+03  0.81844924260E+02 0.  0.
         25    2    1    2    0    0  0.88488509177E+02  0.12810265921E+03  0.43486524511E+03  0.47851048088E+03  0.12499596536E+03 0.  0.
         24    2    1    2    0    0  0.63423444218E+02 -0.33546373764E+02  0.11266435378E+03  0.16125885667E+03  0.90350815001E+02 0.  0.
        -11    1    5    5    0    0 -0.22522976775E+02 -0.14419672723E+02  0.33400114634E+02  0.42787604534E+02  0.00000000000E+00 0.  1.
         12    1    5    5    0    0  0.85946420993E+02 -0.19126701041E+02  0.79264239146E+02  0.11847125213E+03  0.00000000000E+00 0. -1.
        -13    1    3    3    0    0  0.16138351874E+02 -0.78215648005E+02  0.37276981017E+03  0.38122888842E+03  0.00000000000E+00 0.  1.
         14    1    3    3    0    0 -0.41452843034E+02 -0.91208181294E+01  0.20814023648E+03  0.21242383473E+03  0.00000000000E+00 0. -1.
          5    1    4    4  502    0  0.11281011502E+03  0.12752854589E+03  0.40710375210E+03  0.44129945280E+03  0.47000000000E+01 0.  1.
         -5    1    4    4    0  502 -0.24321605840E+02  0.57411331680E+00  0.27761493005E+02  0.37211028078E+02  0.47000000000E+01 0.  1.
          1    1    1    2  503    0 -0.22890051312E+02 -0.43985477320E+02  0.12058060723E+04  0.12068251575E+04  0.00000000000E+00 0. -1.
         -2    1    1    2    0  501 -0.10370741092E+03  0.36765658006E+02 -0.41517666465E+03  0.42950972464E+03  0.00000000000E+00 0.  1.
<mgrwt>
<rscale>  0 0.73878249E+02</rscale>
<asrwt>0</asrwt>
<pdfrwt beam="1">  1        2 0.35211955E+00 0.49585045E+02</pdfrwt>
<pdfrwt beam="2">  1       -1 0.69903523E-01 0.11007343E+03</pdfrwt>
<totfact> 0.16351451E+01</totfact>
</mgrwt>
</event>
<event>
13    1  0.1589573E-008  0.4473304E+02  0.7546771E-02  0.1482678E+00
         -3   -1    0    0    0  501 -0.00000000000E+00  0.00000000000E+00  0.23386601187E+04  0.23386601187E+04  0.00000000000E+00 0.  1.
          2   -1    0    0  503    0  0.00000000000E+00 -0.00000000000E+00 -0.19920896545E+04  0.19920896545E+04  0.00000000000E+00 0. -1.
         24    2    1    2    0    0  0.35692089983E+02 -0.66679588586E+02  0.84044090294E+03  0.84766138188E+03  0.80428938627E+02 0.  0.
         25    2    1    2    0    0 -0.46394395559E+02  0.10133081778E+03 -0.11174826860E+04  0.11299609496E+04  0.12499527807E+03 0.  0.
         24    2    1    2    0    0 -0.70644633150E+02 -0.15424184666E+02  0.13985512258E+03  0.17685986140E+03  0.80569135512E+02 0.  0.
        -13    1    3    3    0    0 -0.15743163882E+02 -0.25103979945E+02  0.49869880100E+03  0.49957837336E+03  0.00000000000E+00 0.  1.
         14    1    3    3    0    0  0.51435253865E+02 -0.41575608641E+02  0.34174210194E+03  0.34808300851E+03  0.00000000000E+00 0. -1.
        -13    1    5    5    0    0 -0.21408621382E+02  0.15561733732E+01 -0.57487262492E+01  0.22221579569E+02  0.00000000000E+00 0.  1.
         14    1    5    5    0    0 -0.49236011769E+02 -0.16980358039E+02  0.14560384883E+03  0.15463828183E+03  0.00000000000E+00 0. -1.
          5    1    4    4  502    0 -0.68176478477E+02  0.54480846475E+01 -0.50097568744E+03  0.50564458195E+03  0.47000000000E+01 0. -1.
         -5    1    4    4    0  502  0.21782082918E+02  0.95882733128E+02 -0.61650699856E+03  0.62431636766E+03  0.47000000000E+01 0. -1.
          1    1    1    2  503    0  0.42565863595E+02  0.30447705027E+01 -0.84534090427E+03  0.84641737210E+03  0.00000000000E+00 0. -1.
         -4    1    1    2    0  501  0.38781075132E+02 -0.22271815027E+02  0.13290980289E+04  0.13298502081E+04  0.00000000000E+00 0.  1.
<mgrwt>
<rscale>  0 0.43691709E+02</rscale>
<asrwt>0</asrwt>
<pdfrwt beam="2">  1        2 0.29295436E+00 0.42674622E+02</pdfrwt>
<pdfrwt beam="1">  1       -3 0.34392061E+00 0.44733036E+02</pdfrwt>
<totfact> 0.19106851E-01</totfact>
</mgrwt>
</event>
<event>
13    1  0.1589573E-008  0.1198198E+03  0.7546771E-02  0.1347019E+00
          2   -1    0    0  503    0  0.00000000000E+00  0.00000000000E+00  0.16818931863E+04  0.16818931863E+04  0.00000000000E+00 0. -1.
          2   -1    0    0  502    0 -0.00000000000E+00 -0.00000000000E+00 -0.18088061756E+04  0.18088061756E+04  0.00000000000E+00 0. -1.
         24    2    1    2    0    0 -0.56884922780E+02  0.19492820506E+02 -0.94514937829E+03  0.95056957100E+03  0.81604519124E+02 0.  0.
         25    2    1    2    0    0  0.67902427165E+01  0.14006953540E+03  0.29169729131E+03  0.34695403936E+03  0.12499685405E+03 0.  0.
         24    2    1    2    0    0 -0.79164463104E+02 -0.44350383482E+02 -0.11724534573E+02  0.12137537576E+03  0.79753046313E+02 0.  0.
        -11    1    5    5    0    0 -0.97715818214E+01  0.22451696839E+02 -0.23759249328E+01  0.24600965866E+02  0.00000000000E+00 0.  1.
         12    1    5    5    0    0 -0.69392881283E+02 -0.66802080322E+02 -0.93486096401E+01  0.96774409894E+02  0.00000000000E+00 0. -1.
        -11    1    3    3    0    0 -0.53923641668E+02  0.48032975260E+02 -0.63376588414E+03  0.63786685268E+03  0.00000000000E+00 0.  1.
         12    1    3    3    0    0 -0.29612811114E+01 -0.28540154754E+02 -0.31138349414E+03  0.31270271832E+03  0.00000000000E+00 0. -1.
          5    1    4    4  501    0  0.54602877388E+02  0.72679392470E+02  0.21758648693E+03  0.23585957179E+03  0.47000000000E+01 0.  1.
         -5    1    4    4    0  501 -0.47812634671E+02  0.67390142928E+02  0.74110804381E+02  0.11109446757E+03  0.47000000000E+01 0.  1.
          1    1    1    2  502    0  0.10022158850E+03 -0.15049162381E+03 -0.75570045744E+03  0.77702977872E+03  0.00000000000E+00 0. -1.
          1    1    1    2  503    0  0.29037554665E+02  0.35279651393E+02  0.12939640897E+04  0.12947705970E+04  0.00000000000E+00 0. -1.
<mgrwt>
<rscale>  0 0.73992582E+02</rscale>
<asrwt>0</asrwt>
<pdfrwt beam="1">  1        2 0.24733723E+00 0.45692815E+02</pdfrwt>
<pdfrwt beam="2">  1        2 0.26600091E+00 0.11981976E+03</pdfrwt>
<totfact> 0.24296873E+01</totfact>
</mgrwt>
</event>
<event>
13    1  0.1589573E-008  0.8032944E+02  0.7546771E-02  0.1360803E+00
          2   -1    0    0  503    0  0.00000000000E+00  0.00000000000E+00  0.31125089653E+04  0.31125089653E+04  0.00000000000E+00 0. -1.
          2   -1    0    0  502    0 -0.00000000000E+00 -0.00000000000E+00 -0.27556489139E+04  0.27556489139E+04  0.00000000000E+00 0. -1.
         24    2    1    2    0    0  0.14282011206E+03  0.19044241913E+03 -0.13089477819E+04  0.13329776206E+04  0.82578094909E+02 0.  0.
         25    2    1    2    0    0 -0.27507668778E+03 -0.14510923951E+03  0.35800565901E+03  0.49042454303E+03  0.12499721986E+03 0.  0.
         24    2    1    2    0    0  0.11289315857E+03 -0.55885446228E+02  0.31950242371E+02  0.15179973496E+03  0.78449303341E+02 0.  0.
        -11    1    3    3    0    0 -0.86733964828E+01  0.69165324778E+01 -0.28107143952E+02  0.30217176725E+02  0.00000000000E+00 0.  1.
         12    1    3    3    0    0  0.15149350854E+03  0.18352588665E+03 -0.12808406380E+04  0.13027604439E+04  0.00000000000E+00 0. -1.
        -11    1    5    5    0    0 -0.10589236815E+02 -0.88306741161E+01  0.11760089268E+02  0.18122153329E+02  0.00000000000E+00 0.  1.
         12    1    5    5    0    0  0.12348239539E+03 -0.47054772112E+02  0.20190153103E+02  0.13367758163E+03  0.00000000000E+00 0. -1.
          5    1    4    4  501    0 -0.15748324245E+03 -0.72963367013E+02  0.10695865753E+03  0.20392858799E+03  0.47000000000E+01 0. -1.
         -5    1    4    4    0  501 -0.11759344533E+03 -0.72145872502E+02  0.25104700148E+03  0.28649595505E+03  0.47000000000E+01 0. -1.
          1    1    1    2  502    0  0.79976908970E+02  0.88931774151E+01 -0.13069587208E+04  0.13094336533E+04  0.00000000000E+00 0. -1.
          1    1    1    2  503    0 -0.60613491823E+02  0.16590891994E+01  0.25828106527E+04  0.25835223273E+04  0.00000000000E+00 0. -1.
<mgrwt>
<rscale>  0 0.69791628E+02</rscale>
<asrwt>0</asrwt>
<pdfrwt beam="1">  1        2 0.45772191E+00 0.60636194E+02</pdfrwt>
<pdfrwt beam="2">  1        2 0.40524249E+00 0.80329437E+02</pdfrwt>
<totfact> 0.17065107E+00</totfact>
</mgrwt>
</event>
<event>
13    1  0.1589573E-008  0.1288091E+03  0.7546771E-02  0.1235358E+00
          2   -1    0    0  502    0  0.00000000000E+00  0.00000000000E+00  0.29563009457E+04  0.29563009457E+04  0.00000000000E+00 0. -1.
          2   -1    0    0  503    0 -0.00000000000E+00 -0.00000000000E+00 -0.13733919254E+04  0.13733919254E+04  0.00000000000E+00 0. -1.
         24    2    1    2    0    0  0.33494783339E+02  0.49716947528E+01 -0.38343433049E+03  0.39337787904E+03  0.81102722907E+02 0.  0.
         25    2    1    2    0    0  0.17594507921E+03 -0.82809696877E+02 -0.27588966687E+03  0.35993962782E+03  0.12500924203E+03 0.  0.
         24    2    1    2    0    0 -0.73255786641E+02 -0.82942152833E+02  0.88831586241E+02  0.16259958929E+03  0.79383655308E+02 0.  0.
        -11    1    5    5    0    0 -0.85569992031E+02 -0.55241516862E+02  0.50366920250E+02  0.11362515292E+03  0.00000000000E+00 0.  1.
         12    1    5    5    0    0  0.12314205390E+02 -0.27700635972E+02  0.38464665991E+02  0.48974436367E+02  0.00000000000E+00 0. -1.
        -13    1    3    3    0    0  0.58095652453E+02  0.27447333633E+00 -0.20083916795E+03  0.20907307706E+03  0.00000000000E+00 0.  1.
         14    1    3    3    0    0 -0.24600869114E+02  0.46972214164E+01 -0.18259516254E+03  0.18430480198E+03  0.00000000000E+00 0. -1.
          5    1    4    4  501    0  0.37725458413E+02 -0.83765868442E+02 -0.12580154246E+03  0.15584623516E+03  0.47000000000E+01 0. -1.
         -5    1    4    4    0  501  0.13821962079E+03  0.95617156539E+00 -0.15008812441E+03  0.20409339265E+03  0.47000000000E+01 0. -1.
          1    1    1    2  502    0  0.36032997580E+02  0.12364417872E+03  0.27697500873E+04  0.27727426505E+04  0.00000000000E+00 0. -1.
          1    1    1    2  503    0 -0.17221707349E+03  0.37135976236E+02 -0.61634865580E+03  0.64103312445E+03  0.00000000000E+00 0. -1.
<mgrwt>
<rscale>  0 0.12481517E+03</rscale>
<asrwt>0</asrwt>
<pdfrwt beam="1">  1        2 0.43475014E+00 0.12880915E+03</pdfrwt>
<pdfrwt beam="2">  1        2 0.20196940E+00 0.12094502E+03</pdfrwt>
<totfact> 0.83709348E+00</totfact>
</mgrwt>
</event>
<event>
13    1  0.1589573E-008  0.5380149E+02  0.7546771E-02  0.1485471E+00
         -3   -1    0    0    0  501 -0.00000000000E+00  0.00000000000E+00  0.24235821798E+03  0.24235821798E+03  0.00000000000E+00 0.  1.
          2   -1    0    0  503    0  0.00000000000E+00 -0.00000000000E+00 -0.31345941841E+04  0.31345941841E+04  0.00000000000E+00 0. -1.
         24    2    1    2    0    0 -0.12279881556E+02 -0.25923391241E+02  0.53466976480E+02  0.10061025099E+03  0.80255138942E+02 0.  0.
         25    2    1    2    0    0  0.12811535481E+02  0.20827599245E+03 -0.79674212204E+03  0.83304388528E+03  0.12498432419E+03 0.  0.
         24    2    1    2    0    0 -0.84769355633E+02 -0.15642196656E+03 -0.63365987950E+03  0.66309180597E+03  0.80698357953E+02 0.  0.
        -13    1    5    5    0    0 -0.43992138574E+02 -0.13860866230E+03 -0.40942094028E+03  0.43448035153E+03  0.00000000000E+00 0.  1.
         14    1    5    5    0    0 -0.40777217059E+02 -0.17813304256E+02 -0.22423893922E+03  0.22861145444E+03  0.00000000000E+00 0. -1.
        -13    1    3    3    0    0  0.29682235028E+01 -0.51998774628E+02  0.46013824176E+02  0.69497877154E+02  0.00000000000E+00 0.  1.
         14    1    3    3    0    0 -0.15248105058E+02  0.26075383387E+02  0.74531523043E+01  0.31112373840E+02  0.00000000000E+00 0. -1.
          5    1    4    4  502    0  0.56698558408E+01  0.12136298027E+03 -0.23537092929E+03  0.26492014759E+03  0.47000000000E+01 0.  1.
         -5    1    4    4    0  502  0.71416796402E+01  0.86913012186E+02 -0.56137119275E+03  0.56812373768E+03  0.47000000000E+01 0.  1.
          1    1    1    2  503    0  0.52249818523E+02 -0.12245521181E+02 -0.16450237707E+04  0.16458989041E+04  0.00000000000E+00 0. -1.
         -4    1    1    2    0  501  0.31987883184E+02 -0.13685113472E+02  0.12972282964E+03  0.13430755575E+03  0.00000000000E+00 0.  1.
<mgrwt>
<rscale>  0 0.43265225E+02</rscale>
<asrwt>0</asrwt>
<pdfrwt beam="2">  1        2 0.46096969E+00 0.53801488E+02</pdfrwt>
<pdfrwt beam="1">  1       -3 0.35640917E-01 0.34792341E+02</pdfrwt>
<totfact> 0.11435292E+01</totfact>
</mgrwt>
</event>
<event>
13    1  0.1589573E-008  0.1337562E+03  0.7546771E-02  0.1244278E+00
          2   -1    0    0  502    0  0.00000000000E+00  0.00000000000E+00  0.13149541102E+04  0.13149541102E+04  0.00000000000E+00 0. -1.
          2   -1    0    0  503    0 -0.00000000000E+00 -0.00000000000E+00 -0.15071840050E+04  0.15071840050E+04  0.00000000000E+00 0. -1.
         24    2    1    2    0    0 -0.11022667882E+03  0.28679282698E+02 -0.41097760838E+03  0.43405336407E+03  0.80791746440E+02 0.  0.
         25    2    1    2    0    0  0.18179991342E+03  0.58701594003E+02  0.91129634716E+03  0.93945980001E+03  0.12500639115E+03 0.  0.
         24    2    1    2    0    0 -0.19550611559E+02 -0.41321034576E+02 -0.79476909406E+02  0.12043654690E+03  0.78094355684E+02 0.  0.
        -11    1    3    3    0    0 -0.48599073392E+02  0.47303211076E+02 -0.14039791944E+03  0.15591997786E+03  0.00000000000E+00 0.  1.
         12    1    3    3    0    0 -0.61627605425E+02 -0.18623928379E+02 -0.27057968894E+03  0.27813338621E+03  0.00000000000E+00 0. -1.
        -13    1    5    5    0    0  0.25448204666E+02 -0.36808066396E+02 -0.33106334676E+02  0.55663940466E+02  0.00000000000E+00 0.  1.
         14    1    5    5    0    0 -0.44998816225E+02 -0.45129681797E+01 -0.46370574730E+02  0.64772606434E+02  0.00000000000E+00 0. -1.
          5    1    4    4  501    0  0.14637053571E+03  0.78225426086E+02  0.84866006886E+03  0.86474826018E+03  0.47000000000E+01 0. -1.
         -5    1    4    4    0  501  0.35429377708E+02 -0.19523832083E+02  0.62636278298E+02  0.74711539825E+02  0.47000000000E+01 0. -1.
          1    1    1    2  502    0  0.23958897807E+02  0.10391477574E+03  0.34209867187E+03  0.35833477461E+03  0.00000000000E+00 0. -1.
          1    1    1    2  503    0 -0.75981520846E+02 -0.14997461787E+03 -0.95517039604E+03  0.96985362967E+03  0.00000000000E+00 0. -1.
<mgrwt>
<rscale>  0 0.11928722E+03</rscale>
<asrwt>0</asrwt>
<pdfrwt beam="1">  1        2 0.19337561E+00 0.10638343E+03</pdfrwt>
<pdfrwt beam="2">  1        2 0.22164471E+00 0.13375618E+03</pdfrwt>
<totfact> 0.47823465E+01</totfact>
</mgrwt>
</event>
<event>
13    1  0.1589573E-008  0.2644561E+03  0.7546771E-02  0.1283840E+00
          2   -1    0    0  503    0  0.00000000000E+00  0.00000000000E+00  0.21811548482E+04  0.21811548482E+04  0.00000000000E+00 0. -1.
          2   -1    0    0  502    0 -0.00000000000E+00 -0.00000000000E+00 -0.35628946619E+04  0.35628946619E+04  0.00000000000E+00 0. -1.
         24    2    1    2    0    0 -0.12340145771E+03  0.20166995001E+03 -0.61173137188E+03  0.66072410478E+03  0.80264455367E+02 0.  0.
         25    2    1    2    0    0 -0.48901629068E+03  0.10109850740E+03  0.13088542239E+04  0.14064432730E+04  0.12500183932E+03 0.  0.
         24    2    1    2    0    0  0.19338200621E+03 -0.37911894470E+02 -0.79929347736E+02  0.23469619991E+03  0.99295989607E+02 0.  0.
        -13    1    5    5    0    0  0.42250503814E+02  0.10479331490E+02 -0.60916521270E+02  0.74871516778E+02  0.00000000000E+00 0.  1.
         14    1    5    5    0    0  0.15113150240E+03 -0.48391225960E+02 -0.19012826467E+02  0.15982468313E+03  0.00000000000E+00 0. -1.
        -13    1    3    3    0    0 -0.52255069997E+02  0.36444798012E+02 -0.23114845721E+03  0.23976743922E+03  0.00000000000E+00 0.  1.
         14    1    3    3    0    0 -0.71146387718E+02  0.16522515199E+03 -0.38058291467E+03  0.42095666556E+03  0.00000000000E+00 0. -1.
          5    1    4    4  501    0 -0.15462376667E+02  0.63450014357E+01  0.14964564407E+03  0.15064943719E+03  0.47000000000E+01 0.  1.
         -5    1    4    4    0  501 -0.47355391401E+03  0.94753505967E+02  0.11592085799E+04  0.12557938358E+04  0.47000000000E+01 0.  1.
          1    1    1    2  502    0  0.38312789527E+03 -0.25796290591E+03 -0.27004764315E+04  0.27396906399E+04  0.00000000000E+00 0. -1.
          1    1    1    2  503    0  0.35907846909E+02 -0.68936570276E+01  0.70154311355E+03  0.70249529262E+03  0.00000000000E+00 0. -1.
<mgrwt>
<rscale>  0 0.98333435E+02</rscale>
<asrwt>0</asrwt>
<pdfrwt beam="1">  1        2 0.32075807E+00 0.36563588E+02</pdfrwt>
<pdfrwt beam="2">  1        2 0.52395509E+00 0.26445612E+03</pdfrwt>
<totfact> 0.15542059E+00</totfact>
</mgrwt>
</event>
<event>
13    1  0.1589573E-008  0.1151408E+03  0.7546771E-02  0.1320789E+00
          2   -1    0    0  503    0  0.00000000000E+00  0.00000000000E+00  0.17914070297E+04  0.17914070297E+04  0.00000000000E+00 0. -1.
          2   -1    0    0  502    0 -0.00000000000E+00 -0.00000000000E+00 -0.23823051495E+04  0.23823051495E+04  0.00000000000E+00 0. -1.
         24    2    1    2    0    0  0.34919614001E+01  0.81619688261E+02 -0.18688011747E+03  0.21980885058E+03  0.81962095992E+02 0.  0.
         25    2    1    2    0    0 -0.13804725096E+03  0.38955085454E+02  0.36033736438E+03  0.40748386811E+03  0.12500217768E+03 0.  0.
         24    2    1    2    0    0  0.15950085033E+02 -0.31723125535E+02 -0.65081032163E+03  0.65642410892E+03  0.77960080319E+02 0.  0.
        -13    1    5    5    0    0 -0.11169679097E+02 -0.49339311346E+02 -0.31207593222E+03  0.31614951660E+03  0.00000000000E+00 0.  1.
         14    1    5    5    0    0  0.27119764130E+02  0.17616185811E+02 -0.33873438941E+03  0.34027459232E+03  0.00000000000E+00 0. -1.
        -13    1    3    3    0    0 -0.33496037512E+02  0.50377644291E+02 -0.65680199414E+02  0.89296025490E+02  0.00000000000E+00 0.  1.
         14    1    3    3    0    0  0.36987998912E+02  0.31242043970E+02 -0.12119991806E+03  0.13051282509E+03  0.00000000000E+00 0. -1.
          5    1    4    4  501    0 -0.11803863469E+03  0.41472643970E+02  0.36532628594E+03  0.38618452154E+03  0.47000000000E+01 0.  1.
         -5    1    4    4    0  501 -0.20008616267E+02 -0.25175585155E+01 -0.49889215666E+01  0.21299346568E+02  0.47000000000E+01 0.  1.
          1    1    1    2  502    0  0.62054817372E+02 -0.10832285025E+03 -0.14985293167E+04  0.15037203042E+04  0.00000000000E+00 0. -1.
          1    1    1    2  503    0  0.56550387152E+02  0.19471202073E+02  0.13849842717E+04  0.13862750474E+04  0.00000000000E+00 0. -1.
<mgrwt>
<rscale>  0 0.82984421E+02</rscale>
<asrwt>0</asrwt>
<pdfrwt beam="1">  1        2 0.26344221E+00 0.59808645E+02</pdfrwt>
<pdfrwt beam="2">  1        2 0.35033899E+00 0.11514078E+03</pdfrwt>
<totfact> 0.11095642E+01</totfact>
</mgrwt>
</event>
<event>
13    1  0.1589573E-008  0.9885069E+02  0.7546771E-02  0.1382100E+00
          2   -1    0    0  503    0  0.00000000000E+00  0.00000000000E+00  0.85987819094E+03  0.85987819094E+03  0.00000000000E+00 0. -1.
         -3   -1    0    0    0  501 -0.00000000000E+00 -0.00000000000E+00 -0.32342700159E+03  0.32342700159E+03  0.00000000000E+00 0.  1.
         24    2    1    2    0    0 -0.26331561656E+02 -0.61146574947E+02 -0.30097176475E+02  0.10897145787E+03  0.80849760857E+02 0.  0.
         25    2    1    2    0    0  0.16035401422E+02  0.13810009809E+03  0.39968522057E+03  0.44124568904E+03  0.12498284427E+03 0.  0.
         24    2    1    2    0    0  0.75872626488E+02 -0.56098640696E+01  0.40232060519E+02  0.11784074112E+03  0.80496556136E+02 0.  0.
        -11    1    3    3    0    0 -0.45933400071E+02 -0.63591669275E+02 -0.38644124834E+02  0.87447961825E+02  0.00000000000E+00 0.  1.
         12    1    3    3    0    0  0.19601838415E+02  0.24450943281E+01  0.85469483588E+01  0.21523496040E+02  0.00000000000E+00 0. -1.
        -11    1    5    5    0    0 -0.14986815093E+02  0.95614741504E+01  0.12170266145E+02  0.21543950256E+02  0.00000000000E+00 0.  1.
         12    1    5    5    0    0  0.90859441581E+02 -0.15171338220E+02  0.28061794374E+02  0.96296790867E+02  0.00000000000E+00 0. -1.
          5    1    4    4  502    0 -0.34970136807E+02  0.24515291930E+02  0.20963065033E+03  0.21398833978E+03  0.47000000000E+01 0. -1.
         -5    1    4    4    0  502  0.51005538229E+02  0.11358480616E+03  0.19005457024E+03  0.22725734925E+03  0.47000000000E+01 0. -1.
          1    1    1    2  503    0 -0.34499029589E+02  0.22752298562E+02  0.30682880637E+03  0.30959936459E+03  0.00000000000E+00 0. -1.
         -4    1    1    2    0  501 -0.31077436665E+02 -0.94095957631E+02 -0.18019772163E+03  0.20564793992E+03  0.00000000000E+00 0.  1.
<mgrwt>
<rscale>  0 0.63914927E+02</rscale>
<asrwt>0</asrwt>
<pdfrwt beam="1">  1        2 0.12645267E+00 0.41326143E+02</pdfrwt>
<pdfrwt beam="2">  1       -3 0.47562795E-01 0.98850693E+02</pdfrwt>
<totfact> 0.97398001E+01</totfact>
</mgrwt>
</event>
<event>
13    1  0.1589573E-008  0.5148944E+02  0.7546771E-02  0.1477060E+00
          2   -1    0    0  503    0  0.00000000000E+00  0.00000000000E+00  0.24540390217E+04  0.24540390217E+04  0.00000000000E+00 0. -1.
         -3   -1    0    0    0  501 -0.00000000000E+00 -0.00000000000E+00 -0.35318413135E+03  0.35318413135E+03  0.00000000000E+00 0.  1.
         24    2    1    2    0    0  0.33314852805E+03  0.17771762677E+03  0.11288526474E+03  0.39870914101E+03  0.60451629610E+02 0.  0.
         25    2    1    2    0    0  0.65209805339E+02  0.52089051360E+02  0.84860037373E+03  0.86180745597E+03  0.12499563547E+03 0.  0.
         24    2    1    2    0    0 -0.47550397912E+03 -0.21105281591E+03  0.43490098556E+03  0.68276574073E+03  0.79892829502E+02 0.  0.
        -11    1    5    5    0    0 -0.93741557828E+02 -0.10439528077E+02  0.64430960363E+02  0.11422701985E+03  0.00000000000E+00 0.  1.
         12    1    5    5    0    0 -0.38176242129E+03 -0.20061328784E+03  0.37047002520E+03  0.56853872088E+03  0.00000000000E+00 0. -1.
        -13    1    3    3    0    0  0.26751830669E+03  0.11779287094E+03  0.99843199806E+02  0.30888488051E+03  0.00000000000E+00 0.  1.
         14    1    3    3    0    0  0.65630221355E+02  0.59924755825E+02  0.13042064930E+02  0.89824260495E+02  0.00000000000E+00 0. -1.
          5    1    4    4  502    0  0.79078054823E+02  0.57683765726E+02  0.83592290404E+03  0.84164716306E+03  0.47000000000E+01 0. -1.
         -5    1    4    4    0  502 -0.13868249484E+02 -0.55947143658E+01  0.12677469690E+02  0.20160292913E+02  0.47000000000E+01 0. -1.
          1    1    1    2  503    0  0.36452773763E+02  0.12621649997E+02  0.77539663484E+03  0.77635562217E+03  0.00000000000E+00 0. -1.
         -4    1    1    2    0  501  0.40692871967E+02 -0.31375512215E+02 -0.70928368533E+02  0.87585193146E+02  0.00000000000E+00 0.  1.
<mgrwt>
<rscale>  0 0.44567460E+02</rscale>
<asrwt>0</asrwt>
<pdfrwt beam="1">  1        2 0.36088808E+00 0.38576039E+02</pdfrwt>
<pdfrwt beam="2">  1       -3 0.51938844E-01 0.51489435E+02</pdfrwt>
<totfact> 0.13379206E+01</totfact>
</mgrwt>
</event>
<event>
13    1  0.1589573E-008  0.1036584E+03  0.7546771E-02  0.1396753E+00
          2   -1    0    0  503    0  0.00000000000E+00  0.00000000000E+00  0.24653829293E+04  0.24653829293E+04  0.00000000000E+00 0. -1.
         -1   -1    0    0    0  501 -0.00000000000E+00 -0.00000000000E+00 -0.50898563821E+03  0.50898563821E+03  0.00000000000E+00 0.  1.
         24    2    1    2    0    0 -0.19451635721E+02 -0.14097754228E+03 -0.15988494430E+03  0.22910060090E+03  0.81675310595E+02 0.  0.
         25    2    1    2    0    0  0.12489958109E+03  0.10674970406E+03  0.60013816546E+03  0.63465759485E+03  0.12501616048E+03 0.  0.
         24    2    1    2    0    0 -0.16973548923E+02  0.11444183236E+02 -0.46518452485E+01  0.83471283327E+02  0.80788271321E+02 0.  0.
        -11    1    5    5    0    0 -0.48939302047E+02  0.13759854226E+02 -0.70911540758E+01  0.51329069145E+02  0.00000000000E+00 0.  1.
         12    1    5    5    0    0  0.31965753125E+02 -0.23156709898E+01  0.24393088273E+01  0.32142214182E+02  0.00000000000E+00 0. -1.
        -11    1    3    3    0    0 -0.33083225749E+02 -0.12173355826E+03 -0.16211356315E+03  0.20541267339E+03  0.00000000000E+00 0.  1.
         12    1    3    3    0    0  0.13631590027E+02 -0.19243984021E+02  0.22286188546E+01  0.23687927509E+02  0.00000000000E+00 0. -1.
          5    1    4    4  502    0  0.78891679323E+02  0.86630647344E+02  0.55409434755E+03  0.56636684411E+03  0.47000000000E+01 0.  1.
         -5    1    4    4    0  502  0.46007901765E+02  0.20119056716E+02  0.46043817917E+02  0.68290750738E+02  0.47000000000E+01 0.  1.
          1    1    1    2  503    0  0.32319306288E+02  0.13507980353E+02  0.17592898812E+04  0.17596385678E+04  0.00000000000E+00 0. -1.
         -2    1    1    2    0  501 -0.12079370273E+03  0.92756746284E+01 -0.23849396599E+03  0.26750052070E+03  0.00000000000E+00 0.  1.
<mgrwt>
<rscale>  0 0.60257855E+02</rscale>
<asrwt>0</asrwt>
<pdfrwt beam="1">  1        2 0.36255631E+00 0.35028604E+02</pdfrwt>
<pdfrwt beam="2">  1       -1 0.74850830E-01 0.10365840E+03</pdfrwt>
<totfact> 0.13903854E+01</totfact>
</mgrwt>
</event>
<event>
13    1  0.1589573E-008  0.1051704E+03  0.7546771E-02  0.1344754E+00
          2   -1    0    0  502    0  0.00000000000E+00  0.00000000000E+00  0.69662776152E+03  0.69662776152E+03  0.00000000000E+00 0. -1.
          2   -1    0    0  503    0 -0.00000000000E+00 -0.00000000000E+00 -0.20753009249E+04  0.20753009249E+04  0.00000000000E+00 0. -1.
         24    2    1    2    0    0 -0.46453462047E+02 -0.10557075533E+03 -0.86705335607E+03  0.87848449432E+03  0.81549837381E+02 0.  0.
         25    2    1    2    0    0  0.22968536521E+02  0.15662189676E+03 -0.21339069192E+03  0.29362973858E+03  0.12499945506E+03 0.  0.
         24    2    1    2    0    0  0.39849276270E+02 -0.11287923163E+03 -0.30055479866E+03  0.33354517259E+03  0.81175793242E+02 0.  0.
        -11    1    5    5    0    0 -0.14326886903E+02 -0.44858995092E+02 -0.51686982520E+02  0.69922337569E+02  0.00000000000E+00 0.  1.
         12    1    5    5    0    0  0.54176163173E+02 -0.68020236533E+02 -0.24886781614E+03  0.26362283502E+03  0.00000000000E+00 0. -1.
        -13    1    3    3    0    0 -0.69984062579E+02 -0.73690626167E+02 -0.62016561330E+03  0.62843732012E+03  0.00000000000E+00 0.  1.
         14    1    3    3    0    0  0.23530600533E+02 -0.31880129164E+02 -0.24688774277E+03  0.25004717420E+03  0.00000000000E+00 0. -1.
          5    1    4    4  501    0  0.59493575180E+02  0.58109324342E+02 -0.43890105273E+02  0.94152060010E+02  0.47000000000E+01 0. -1.
         -5    1    4    4    0  501 -0.36525038660E+02  0.98512572416E+02 -0.16950058665E+03  0.19947767857E+03  0.47000000000E+01 0. -1.
          1    1    1    2  502    0 -0.65151654420E+02  0.82739048506E+02  0.62879623256E+03  0.63755406853E+03  0.00000000000E+00 0. -1.
          1    1    1    2  503    0  0.48787303676E+02 -0.20910958306E+02 -0.62647054925E+03  0.62871521236E+03  0.00000000000E+00 0. -1.
<mgrwt>
<rscale>  0 0.74715656E+02</rscale>
<asrwt>0</asrwt>
<pdfrwt beam="1">  1        2 0.10244526E+00 0.10517043E+03</pdfrwt>
<pdfrwt beam="2">  1        2 0.30519132E+00 0.53079838E+02</pdfrwt>
<totfact> 0.64462766E+01</totfact>
</mgrwt>
</event>
<event>
13    1  0.1589573E-008  0.4614055E+02  0.7546771E-02  0.1541584E+00
          2   -1    0    0  502    0  0.00000000000E+00  0.00000000000E+00  0.27853908268E+03  0.27853908268E+03  0.00000000000E+00 0. -1.
          2   -1    0    0  503    0 -0.00000000000E+00 -0.00000000000E+00 -0.10422414957E+04  0.10422414957E+04  0.00000000000E+00 0. -1.
         24    2    1    2    0    0 -0.26585256639E+02 -0.17804490220E+03 -0.47315850993E+03  0.51247149828E+03  0.79632267084E+02 0.  0.
         25    2    1    2    0    0  0.35314043565E+02  0.25396302627E+03 -0.17446521430E+01  0.28526047308E+03  0.12500477313E+03 0.  0.
         24    2    1    2    0    0 -0.50899111248E+02 -0.37472259225E+02  0.17821772264E+02  0.11798905309E+03  0.98025054686E+02 0.  0.
        -13    1    3    3    0    0 -0.21690526878E+02 -0.41056347622E+01 -0.40368575979E+02  0.46010402298E+02  0.00000000000E+00 0.  1.
         14    1    3    3    0    0 -0.48947297607E+01 -0.17393926744E+03 -0.43278993395E+03  0.46646109598E+03  0.00000000000E+00 0. -1.
        -13    1    5    5    0    0 -0.55709287960E+02 -0.30148304589E+02 -0.29490464847E+02  0.69872258812E+02  0.00000000000E+00 0.  1.
         14    1    5    5    0    0  0.48101767118E+01 -0.73239546361E+01  0.47312237112E+02  0.48116794283E+02  0.00000000000E+00 0. -1.
          5    1    4    4  501    0  0.72245030693E+02  0.21269494506E+03  0.20026083934E+02  0.22556954172E+03  0.47000000000E+01 0.  1.
         -5    1    4    4    0  501 -0.36930987129E+02  0.41268081210E+02 -0.21770736077E+02  0.59690931358E+02  0.47000000000E+01 0.  1.
          1    1    1    2  502    0  0.27290057783E+02  0.52021695756E+01  0.43663595287E+02  0.51752481829E+02  0.00000000000E+00 0. -1.
          1    1    1    2  503    0  0.14880266539E+02 -0.43648034426E+02 -0.35028461850E+03  0.35330707211E+03  0.00000000000E+00 0. -1.
<mgrwt>
<rscale>  0 0.35802962E+02</rscale>
<asrwt>0</asrwt>
<pdfrwt beam="1">  1        2 0.40961630E-01 0.27781465E+02</pdfrwt>
<pdfrwt beam="2">  1        2 0.15327081E+00 0.46140550E+02</pdfrwt>
<totfact> 0.54147028E+02</totfact>
</mgrwt>
</event>
<event>
13    1  0.1589573E-008  0.1866471E+03  0.7546771E-02  0.1194145E+00
          2   -1    0    0  503    0  0.00000000000E+00  0.00000000000E+00  0.15770774872E+04  0.15770774872E+04  0.00000000000E+00 0. -1.
          2   -1    0    0  502    0 -0.00000000000E+00 -0.00000000000E+00 -0.24306076057E+04  0.24306076057E+04  0.00000000000E+00 0. -1.
         24    2    1    2    0    0  0.33873054932E+03  0.30415414694E+03 -0.12571200190E+01  0.46205335939E+03  0.79016431407E+02 0.  0.
         25    2    1    2    0    0  0.35162554895E+02 -0.95888198510E+02  0.11496478945E+03  0.19817319203E+03  0.12499903739E+03 0.  0.
         24    2    1    2    0    0 -0.20763012306E+03 -0.61432937003E+02 -0.17723730803E+03  0.29102926148E+03  0.80004336925E+02 0.  0.
        -13    1    5    5    0    0  0.28030473779E+01  0.84254613482E+01 -0.95015417584E+01  0.13004797935E+02  0.00000000000E+00 0.  1.
         14    1    5    5    0    0 -0.21043317044E+03 -0.69858398351E+02 -0.16773576627E+03  0.27802446354E+03  0.00000000000E+00 0. -1.
        -13    1    3    3    0    0  0.19315961271E+03  0.16913122747E+03 -0.39768784958E+02  0.25980293367E+03  0.00000000000E+00 0.  1.
         14    1    3    3    0    0  0.14557093661E+03  0.13502291948E+03  0.38511664939E+02  0.20225042572E+03  0.00000000000E+00 0. -1.
          5    1    4    4  501    0  0.11160324645E+02  0.29411773497E+02  0.11416462472E+02  0.33793947414E+02  0.47000000000E+01 0.  1.
         -5    1    4    4    0  501  0.24002230251E+02 -0.12529997201E+03  0.10354832697E+03  0.16437924462E+03  0.47000000000E+01 0.  1.
          1    1    1    2  502    0 -0.18572211903E+03 -0.19142151228E+02 -0.19149793945E+04  0.19240595648E+04  0.00000000000E+00 0. -1.
          1    1    1    2  503    0  0.19459137878E+02 -0.12769086020E+03  0.11249789145E+04  0.11323697152E+04  0.00000000000E+00 0. -1.
<mgrwt>
<rscale>  0 0.15526844E+03</rscale>
<asrwt>0</asrwt>
<pdfrwt beam="1">  1        2 0.23192316E+00 0.12916506E+03</pdfrwt>
<pdfrwt beam="2">  1        2 0.35744229E+00 0.18664713E+03</pdfrwt>
<totfact> 0.11744110E+01</totfact>
</mgrwt>
</event>
<event>
13    1  0.1589573E-008  0.1689850E+03  0.7546771E-02  0.1229256E+00
          2   -1    0    0  503    0  0.00000000000E+00  0.00000000000E+00  0.20159617767E+04  0.20159617767E+04  0.00000000000E+00 0. -1.
          2   -1    0    0  502    0 -0.00000000000E+00 -0.00000000000E+00 -0.15282716060E+04  0.15282716060E+04  0.00000000000E+00 0. -1.
         24    2    1    2    0    0 -0.34982671010E+02 -0.53628684231E+02 -0.99846294567E+03  0.10037644337E+04  0.80715310730E+02 0.  0.
         25    2    1    2    0    0 -0.78257767056E+02  0.57125057693E+02  0.52042491883E+03  0.54392561671E+03  0.12500172017E+03 0.  0.
         24    2    1    2    0    0 -0.14264825262E+03 -0.11908601089E+03  0.45373805733E+01  0.20311526858E+03  0.81885423254E+02 0.  0.
        -13    1    5    5    0    0 -0.89547481372E+02 -0.11497880769E+03  0.21291694623E+02  0.14728276851E+03  0.00000000000E+00 0.  1.
         14    1    5    5    0    0 -0.53100771249E+02 -0.41072032010E+01 -0.16754314050E+02  0.55832500075E+02  0.00000000000E+00 0. -1.
        -13    1    3    3    0    0 -0.58893247628E+02 -0.35555598772E+02 -0.54724117111E+03  0.55154828853E+03  0.00000000000E+00 0.  1.
         14    1    3    3    0    0  0.23910576618E+02 -0.18073085459E+02 -0.45122177456E+03  0.45221614514E+03  0.00000000000E+00 0. -1.
          5    1    4    4  501    0 -0.85053351618E+02  0.84921032781E+02  0.32862322341E+03  0.34994423469E+03  0.47000000000E+01 0. -1.
         -5    1    4    4    0  501  0.67955845622E+01 -0.27795975088E+02  0.19180169543E+03  0.19398138202E+03  0.47000000000E+01 0. -1.
          1    1    1    2  502    0  0.35403722975E+03  0.11721477333E+03 -0.33032150730E+03  0.49819068771E+03  0.00000000000E+00 0. -1.
          1    1    1    2  503    0 -0.98148539062E+02 -0.16251358928E+01  0.12915123242E+04  0.12952373761E+04  0.00000000000E+00 0. -1.
<mgrwt>
<rscale>  0 0.12879404E+03</rscale>
<asrwt>0</asrwt>
<pdfrwt beam="1">  1        2 0.29646497E+00 0.98161993E+02</pdfrwt>
<pdfrwt beam="2">  1        2 0.22474582E+00 0.16898501E+03</pdfrwt>
<totfact> 0.20925558E+01</totfact>
</mgrwt>
</event>
<event>
13    1  0.1589573E-008  0.8481473E+02  0.7546771E-02  0.1361395E+00
          2   -1    0    0  502    0  0.00000000000E+00  0.00000000000E+00  0.20904518896E+04  0.20904518896E+04  0.00000000000E+00 0. -1.
          4   -1    0    0  503    0 -0.00000000000E+00 -0.00000000000E+00 -0.81327965652E+03  0.81327965652E+03  0.00000000000E+00 0. -1.
         24    2    1    2    0    0 -0.23480133402E+02  0.57281141343E+02  0.16036079312E+02  0.10255152299E+03  0.80169902138E+02 0.  0.
         25    2    1    2    0    0  0.17758176186E+03 -0.17667006607E+03  0.11658830181E+04  0.11990227082E+04  0.12499859428E+03 0.  0.
         24    2    1    2    0    0 -0.12971351690E+03 -0.47463979323E+00  0.87941557488E+02  0.17568444204E+03  0.79407077103E+02 0.  0.
        -11    1    5    5    0    0 -0.22758492998E+02  0.13576173375E+02 -0.11575267010E+02  0.28917957975E+02  0.00000000000E+00 0.  1.
         12    1    5    5    0    0 -0.10695502390E+03 -0.14050813169E+02  0.99516824498E+02  0.14676648407E+03  0.00000000000E+00 0. -1.
        -11    1    3    3    0    0 -0.22456044045E+02  0.66705272236E+02 -0.13381332453E+02  0.71644450702E+02  0.00000000000E+00 0.  1.
         12    1    3    3    0    0 -0.10240893566E+01 -0.94241308934E+01  0.29417411765E+02  0.30907072283E+02  0.00000000000E+00 0. -1.
          5    1    4    4  501    0  0.33006180885E+02 -0.11979394158E+03  0.49737801080E+03  0.51268603652E+03  0.47000000000E+01 0. -1.
         -5    1    4    4    0  501  0.14457558097E+03 -0.56876124489E+02  0.66850500730E+03  0.68633667171E+03  0.47000000000E+01 0. -1.
          1    1    1    2  502    0 -0.43340994382E+02  0.37243935036E+02  0.71321381146E+03  0.71549947124E+03  0.00000000000E+00 0. -1.
          3    1    1    2  503    0  0.18952882826E+02  0.82619629485E+02 -0.70590223325E+03  0.71097340165E+03  0.00000000000E+00 0. -1.
<mgrwt>
<rscale>  0 0.69618524E+02</rscale>
<asrwt>0</asrwt>
<pdfrwt beam="1">  1        2 0.30741940E+00 0.57145013E+02</pdfrwt>
<pdfrwt beam="2">  1        4 0.11959995E+00 0.84814730E+02</pdfrwt>
<totfact> 0.25381351E+00</totfact>
</mgrwt>
</event>
<event>
13    1  0.1589573E-008  0.2388358E+03  0.7546771E-02  0.1278394E+00
          2   -1    0    0  503    0  0.00000000000E+00  0.00000000000E+00  0.28014624521E+04  0.28014624521E+04  0.00000000000E+00 0. -1.
          2   -1    0    0  502    0 -0.00000000000E+00 -0.00000000000E+00 -0.11916579059E+04  0.11916579059E+04  0.00000000000E+00 0. -1.
         24    2    1    2    0    0 -0.19057748468E+03  0.95427957417E+02 -0.51720671788E+03  0.56527333335E+03  0.81270410647E+02 0.  0.
         25    2    1    2    0    0  0.40448500671E+02 -0.59706277897E+02  0.18687857184E+04  0.18743492878E+04  0.12499708205E+03 0.  0.
         24    2    1    2    0    0 -0.79892368195E+02 -0.17855036220E+02  0.75461943697E+02  0.13700197300E+03  0.79833845236E+02 0.  0.
        -11    1    3    3    0    0 -0.16917176297E+03  0.75093607583E+02 -0.35450901692E+03  0.39991846465E+03  0.00000000000E+00 0.  1.
         12    1    3    3    0    0 -0.21405721710E+02  0.20334349834E+02 -0.16269770096E+03  0.16535486870E+03  0.00000000000E+00 0. -1.
        -11    1    5    5    0    0 -0.51087598591E+02 -0.48367478232E+02  0.59390977285E+02  0.92068691004E+02  0.00000000000E+00 0.  1.
         12    1    5    5    0    0 -0.28804769604E+02  0.30512442012E+02  0.16070966412E+02  0.44933281996E+02  0.00000000000E+00 0. -1.
          5    1    4    4  501    0  0.23658922288E+02 -0.79536092240E+02  0.17742412554E+04  0.17761868868E+04  0.47000000000E+01 0. -1.
         -5    1    4    4    0  501  0.16789578383E+02  0.19829814343E+02  0.94544462997E+02  0.98162400962E+02  0.47000000000E+01 0. -1.
          1    1    1    2  502    0  0.25365467164E+03  0.17618818510E+02 -0.59005207868E+03  0.64250491886E+03  0.00000000000E+00 0. -1.
          1    1    1    2  503    0 -0.23633319434E+02 -0.35485461810E+02  0.77281568064E+03  0.77399084493E+03  0.00000000000E+00 0. -1.
<mgrwt>
<rscale>  0 0.10090980E+03</rscale>
<asrwt>0</asrwt>
<pdfrwt beam="1">  1        2 0.41197977E+00 0.42635100E+02</pdfrwt>
<pdfrwt beam="2">  1        2 0.17524381E+00 0.23883578E+03</pdfrwt>
<totfact> 0.14283811E+01</totfact>
</mgrwt>
</event>
<event>
13    1  0.1589573E-008  0.1324201E+03  0.7546771E-02  0.1264527E+00
          2   -1    0    0  503    0  0.00000000000E+00  0.00000000000E+00  0.17508063323E+04  0.17508063323E+04  0.00000000000E+00 0. -1.
          2   -1    0    0  502    0 -0.00000000000E+00 -0.00000000000E+00 -0.31098025112E+03  0.31098025112E+03  0.00000000000E+00 0. -1.
         24    2    1    2    0    0 -0.65840324408E+02 -0.18515917120E+02  0.28131936784E+02  0.11010968371E+03  0.81577871225E+02 0.  0.
         25    2    1    2    0    0 -0.15717700452E+02 -0.15167217458E+02  0.45614153165E+03  0.47346250124E+03  0.12499821034E+03 0.  0.
         24    2    1    2    0    0  0.12343159661E+03  0.66758560696E+01  0.43334811884E+03  0.45724810125E+03  0.77493921684E+02 0.  0.
        -11    1    3    3    0    0 -0.95746486224E+01  0.21079410359E+02  0.33917087667E+02  0.41065609373E+02  0.00000000000E+00 0.  1.
         12    1    3    3    0    0 -0.56265675785E+02 -0.39595327479E+02 -0.57851508832E+01  0.69044074333E+02  0.00000000000E+00 0. -1.
        -11    1    5    5    0    0  0.68736572295E+01  0.90550835427E+01  0.35359850730E+01  0.11905666387E+02  0.00000000000E+00 0.  1.
         12    1    5    5    0    0  0.11655793938E+03 -0.23792274732E+01  0.42981213377E+03  0.44534243486E+03  0.00000000000E+00 0. -1.
          5    1    4    4  501    0 -0.45057588527E+02  0.29090808995E+02  0.10205103492E+03  0.11538182344E+03  0.47000000000E+01 0.  1.
         -5    1    4    4    0  501  0.29339888075E+02 -0.44258026453E+02  0.35409049673E+03  0.35808067780E+03  0.47000000000E+01 0.  1.
          1    1    1    2  502    0 -0.11911046725E+03 -0.14964856644E+02 -0.23223255580E+03  0.26142534367E+03  0.00000000000E+00 0. -1.
          1    1    1    2  503    0  0.77236895497E+02  0.41972135153E+02  0.75443704973E+03  0.75954095358E+03  0.00000000000E+00 0. -1.
<mgrwt>
<rscale>  0 0.10789033E+03</rscale>
<asrwt>0</asrwt>
<pdfrwt beam="1">  1        2 0.25747151E+00 0.87904483E+02</pdfrwt>
<pdfrwt beam="2">  1        2 0.45732391E-01 0.13242013E+03</pdfrwt>
<totfact> 0.20858303E+02</totfact>
</mgrwt>
</event>
<event>
13    1  0.1589573E-008  0.1301783E+03  0.7546771E-02  0.1306153E+00
          2   -1    0    0  502    0  0.00000000000E+00  0.00000000000E+00  0.97535613451E+03  0.97535613451E+03  0.00000000000E+00 0. -1.
          2   -1    0    0  503    0 -0.00000000000E+00 -0.00000000000E+00 -0.56751828994E+03  0.56751828994E+03  0.00000000000E+00 0. -1.
         24    2    1    2    0    0 -0.10220192307E+03 -0.27789184099E+02  0.19061426692E+03  0.23263148658E+03  0.81031709609E+02 0.  0.
         25    2    1    2    0    0 -0.96987708533E+02  0.24865989116E+02  0.12796397614E+03  0.20499424100E+03  0.12499170625E+03 0.  0.
         24    2    1    2    0    0  0.10866679599E+02  0.32679168300E+01  0.44883606527E+02  0.90978436957E+02  0.78318413227E+02 0.  0.
        -11    1    5    5    0    0 -0.18012002097E+02 -0.14208836384E+02 -0.11192670147E+02  0.25526439547E+02  0.00000000000E+00 0.  1.
         12    1    5    5    0    0  0.28878681696E+02  0.17476753214E+02  0.56076276673E+02  0.65451997410E+02  0.00000000000E+00 0. -1.
        -13    1    3    3    0    0 -0.40062290546E+02 -0.39323104370E+02  0.38950097357E+02  0.68325718037E+02  0.00000000000E+00 0.  1.
         14    1    3    3    0    0 -0.62139632529E+02  0.11533920271E+02  0.15166416956E+03  0.16430576854E+03  0.00000000000E+00 0. -1.
          5    1    4    4  501    0 -0.57560067796E+02  0.40738572089E+02  0.63581294509E+00  0.70677343743E+02  0.47000000000E+01 0. -1.
         -5    1    4    4    0  501 -0.39427640737E+02 -0.15872582973E+02  0.12732816320E+03  0.13431689725E+03  0.47000000000E+01 0. -1.
          1    1    1    2  502    0  0.57724859897E+02  0.17674546074E+02  0.51857955719E+03  0.52208170449E+03  0.00000000000E+00 0. -1.
          1    1    1    2  503    0  0.13059809211E+03 -0.18019267920E+02 -0.47420356221E+03  0.49218855543E+03  0.00000000000E+00 0. -1.
<mgrwt>
<rscale>  0 0.88650312E+02</rscale>
<asrwt>0</asrwt>
<pdfrwt beam="1">  1        2 0.14343473E+00 0.60370100E+02</pdfrwt>
<pdfrwt beam="2">  1        2 0.83458571E-01 0.13017831E+03</pdfrwt>
<totfact> 0.27793017E+02</totfact>
</mgrwt>
</event>
<event>
13    1  0.1589573E-008  0.7827970E+02  0.7546771E-02  0.1352305E+00
          2   -1    0    0  503    0  0.00000000000E+00  0.00000000000E+00  0.29413069358E+04  0.29413069358E+04  0.00000000000E+00 0. -1.
          2   -1    0    0  502    0 -0.00000000000E+00 -0.00000000000E+00 -0.30494255700E+03  0.30494255700E+03  0.00000000000E+00 0. -1.
         24    2    1    2    0    0  0.35079810213E+02 -0.47524521316E+02  0.32182799079E+03  0.33764262617E+03  0.83307347469E+02 0.  0.
         25    2    1    2    0    0  0.60935618565E+02  0.13000570199E+03  0.11956716195E+04  0.12107311304E+04  0.12499846589E+03 0.  0.
         24    2    1    2    0    0  0.38379985212E+02 -0.47050593678E+02  0.37348346688E+03  0.38682925141E+03  0.80375295247E+02 0.  0.
        -13    1    5    5    0    0 -0.15970561727E+02  0.57823211321E+01  0.25176505457E+02  0.30370224013E+02  0.00000000000E+00 0.  1.
         14    1    5    5    0    0  0.54350546939E+02 -0.52832914810E+02  0.34830696142E+03  0.35645902740E+03  0.00000000000E+00 0. -1.
        -13    1    3    3    0    0  0.54369107636E+02 -0.55175152955E+02  0.28533213600E+03  0.29565981331E+03  0.00000000000E+00 0.  1.
         14    1    3    3    0    0 -0.19289297423E+02  0.76506316382E+01  0.36495854786E+02  0.41982812865E+02  0.00000000000E+00 0. -1.
          5    1    4    4  501    0 -0.29141824785E+02  0.90921394596E+01  0.98265646811E+02  0.10300553526E+03  0.47000000000E+01 0. -1.
         -5    1    4    4    0  501  0.90077443350E+02  0.12091356253E+03  0.10974059726E+04  0.11077255952E+04  0.47000000000E+01 0. -1.
          1    1    1    2  502    0 -0.59959222515E+02 -0.29571732791E+02 -0.27750197102E+03  0.28544165720E+03  0.00000000000E+00 0. -1.
          1    1    1    2  503    0 -0.74436191475E+02 -0.58588542049E+01  0.10228832727E+04  0.10256048275E+04  0.00000000000E+00 0. -1.
<mgrwt>
<rscale>  0 0.72342186E+02</rscale>
<asrwt>0</asrwt>
<pdfrwt beam="1">  1        2 0.43254512E+00 0.78279696E+02</pdfrwt>
<pdfrwt beam="2">  1        2 0.44844495E-01 0.66855035E+02</pdfrwt>
<totfact> 0.55931399E+01</totfact>
</mgrwt>
</event>
<event>
13    1  0.1589573E-008  0.1205830E+03  0.7546771E-02  0.1298567E+00
          2   -1    0    0  502    0  0.00000000000E+00  0.00000000000E+00  0.21957915548E+04  0.21957915548E+04  0.00000000000E+00 0. -1.
          2   -1    0    0  503    0 -0.00000000000E+00 -0.00000000000E+00 -0.26399771530E+04  0.26399771530E+04  0.00000000000E+00 0. -1.
         24    2    1    2    0    0  0.31752732462E+02 -0.15321759288E+02 -0.10182390885E+03  0.13393375316E+03  0.79543381211E+02 0.  0.
         25    2    1    2    0    0 -0.46077664970E+02  0.14922397173E+02  0.44816214288E+03  0.46778159505E+03  0.12499794085E+03 0.  0.
         24    2    1    2    0    0 -0.52994654920E+02  0.19317371168E+02  0.35566402084E+02  0.10311962051E+03  0.78658075854E+02 0.  0.
        -11    1    5    5    0    0  0.76157954178E+01 -0.16865179984E+02 -0.80093218430E+01  0.20163925018E+02  0.00000000000E+00 0.  1.
         12    1    5    5    0    0 -0.60610450338E+02  0.36182551153E+02  0.43575723927E+02  0.82955695488E+02  0.00000000000E+00 0. -1.
        -13    1    3    3    0    0  0.57279642247E+02 -0.58760408409E+01 -0.82275341931E+02  0.10042269246E+03  0.00000000000E+00 0.  1.
         14    1    3    3    0    0 -0.25526909784E+02 -0.94457184468E+01 -0.19548566918E+02  0.33511060691E+02  0.00000000000E+00 0. -1.
          5    1    4    4  501    0 -0.47966940403E+02 -0.39855090623E+02  0.12287220524E+03  0.13787285607E+03  0.47000000000E+01 0.  1.
         -5    1    4    4    0  501  0.18892754331E+01  0.54777487797E+02  0.32528993764E+03  0.32990873899E+03  0.47000000000E+01 0.  1.
          1    1    1    2  502    0 -0.68800261538E+02  0.12216937473E+02  0.16497148575E+04  0.16511940651E+04  0.00000000000E+00 0. -1.
          1    1    1    2  503    0  0.13611984897E+03 -0.31134946527E+02 -0.24758050918E+04  0.24797396740E+04  0.00000000000E+00 0. -1.
<mgrwt>
<rscale>  0 0.91792801E+02</rscale>
<asrwt>0</asrwt>
<pdfrwt beam="1">  1        2 0.32291052E+00 0.69876531E+02</pdfrwt>
<pdfrwt beam="2">  1        2 0.38823193E+00 0.12058295E+03</pdfrwt>
<totfact> 0.51898303E+00</totfact>
</mgrwt>
</event>
<event>
13    1  0.1589573E-008  0.1096027E+03  0.7546771E-02  0.1292188E+00
         -1   -1    0    0    0  501 -0.00000000000E+00  0.00000000000E+00  0.24594449921E+04  0.24594449921E+04  0.00000000000E+00 0.  1.
          2   -1    0    0  503    0  0.00000000000E+00 -0.00000000000E+00 -0.12829527357E+04  0.12829527357E+04  0.00000000000E+00 0. -1.
         24    2    1    2    0    0  0.22176366021E+02 -0.69772314547E+01  0.14986118463E+03  0.17120628807E+03  0.79452787538E+02 0.  0.
         25    2    1    2    0    0 -0.63550261540E+02  0.16959400651E+03  0.56906376594E+03  0.61012879096E+03  0.12499123597E+03 0.  0.
         24    2    1    2    0    0 -0.52114649394E+02  0.89502602835E+01 -0.25140846099E+03  0.26880580552E+03  0.79084151273E+02 0.  0.
        -11    1    3    3    0    0  0.48453223676E+02 -0.20038619736E+02  0.82794012571E+02  0.98000559606E+02  0.00000000000E+00 0.  1.
         12    1    3    3    0    0 -0.26276857655E+02  0.13061388281E+02  0.67067172061E+02  0.73205728466E+02  0.00000000000E+00 0. -1.
        -11    1    5    5    0    0 -0.31353778768E+00 -0.29360506960E+02 -0.59108695588E+02  0.65999814917E+02  0.00000000000E+00 0.  1.
         12    1    5    5    0    0 -0.51801111606E+02  0.38310767244E+02 -0.19229976540E+03  0.20280599060E+03  0.00000000000E+00 0. -1.
          5    1    4    4  502    0 -0.35832247744E+01 -0.15518123008E+02  0.13325020083E+02  0.21290791476E+02  0.47000000000E+01 0.  1.
         -5    1    4    4    0  502 -0.59967036766E+02  0.18511212952E+03  0.55573874586E+03  0.58883799949E+03  0.47000000000E+01 0.  1.
          1    1    1    2  503    0  0.22033316740E+02 -0.13222890217E+03 -0.98612500203E+03  0.99519468911E+03  0.00000000000E+00 0. -1.
         -2    1    1    2    0  501  0.71455228173E+02 -0.39338133172E+02  0.16951007689E+04  0.16970621542E+04  0.00000000000E+00 0.  1.
<mgrwt>
<rscale>  0 0.94551960E+02</rscale>
<asrwt>0</asrwt>
<pdfrwt beam="2">  1        2 0.18866952E+00 0.10960270E+03</pdfrwt>
<pdfrwt beam="1">  1       -1 0.36168309E+00 0.81567998E+02</pdfrwt>
<totfact> 0.44247243E-01</totfact>
</mgrwt>
</event>
<event>
13    1  0.1589573E-008  0.7811401E+02  0.7546771E-02  0.1478168E+00
          2   -1    0    0  503    0  0.00000000000E+00  0.00000000000E+00  0.35382263895E+04  0.35382263895E+04  0.00000000000E+00 0. -1.
          2   -1    0    0  502    0 -0.00000000000E+00 -0.00000000000E+00 -0.49565664350E+02  0.49565664350E+02  0.00000000000E+00 0. -1.
         24    2    1    2    0    0 -0.49966770118E+02 -0.23322302143E+01  0.24413687626E+03  0.26159267166E+03  0.79534860931E+02 0.  0.
         25    2    1    2    0    0 -0.26100535360E+02 -0.63572272780E+01  0.18237118219E+04  0.18281851004E+04  0.12495719160E+03 0.  0.
         24    2    1    2    0    0 -0.23853711547E+02  0.43709240166E+02  0.42966593449E+03  0.43599510721E+03  0.54766970147E+02 0.  0.
        -11    1    5    5    0    0 -0.21306756183E+02 -0.22455609599E+01  0.65088280851E+02  0.68523752868E+02  0.00000000000E+00 0.  1.
         12    1    5    5    0    0 -0.25469553639E+01  0.45954801126E+02  0.36457765364E+03  0.36747135434E+03  0.00000000000E+00 0. -1.
        -11    1    3    3    0    0 -0.71783526043E+02 -0.40499076580E+01  0.18016937332E+03  0.19398525575E+03  0.00000000000E+00 0.  1.
         12    1    3    3    0    0  0.21816755924E+02  0.17176774438E+01  0.63967502935E+02  0.67607415914E+02  0.00000000000E+00 0. -1.
          5    1    4    4  501    0  0.36730974523E+02 -0.35685916555E+02  0.49684942902E+03  0.49950384808E+03  0.47000000000E+01 0.  1.
         -5    1    4    4    0  501 -0.62831509883E+02  0.29328689277E+02  0.13268623929E+04  0.13286812523E+04  0.47000000000E+01 0.  1.
          1    1    1    2  502    0  0.11029176479E+03 -0.12020988321E+02  0.51986731801E+02  0.12252100973E+03  0.00000000000E+00 0. -1.
          1    1    1    2  503    0 -0.10370747768E+02 -0.22998794353E+02  0.93915936065E+03  0.93949816480E+03  0.00000000000E+00 0. -1.
<mgrwt>
<rscale>  0 0.44392904E+02</rscale>
<asrwt>0</asrwt>
<pdfrwt beam="1">  1        2 0.52032724E+00 0.25228891E+02</pdfrwt>
<pdfrwt beam="2">  1        2 0.72890707E-02 0.78114013E+02</pdfrwt>
<totfact> 0.25741731E+02</totfact>
</mgrwt>
</event>
<event>
13    1  0.1589573E-008  0.6706071E+02  0.7546771E-02  0.1482651E+00
          2   -1    0    0  503    0  0.00000000000E+00  0.00000000000E+00  0.24760732474E+04  0.24760732474E+04  0.00000000000E+00 0. -1.
          2   -1    0    0  502    0 -0.00000000000E+00 -0.00000000000E+00 -0.16626022417E+04  0.16626022417E+04  0.00000000000E+00 0. -1.
         24    2    1    2    0    0 -0.13794275194E+02  0.28636772998E+03 -0.69877265958E+03  0.76186730276E+03  0.99808809396E+02 0.  0.
         25    2    1    2    0    0 -0.14128055497E+03 -0.15657930335E+03  0.46245150811E+03  0.52341593052E+03  0.12500226205E+03 0.  0.
         24    2    1    2    0    0  0.19210036820E+03 -0.11752442226E+03  0.13805817015E+04  0.14011686926E+04  0.80952636947E+02 0.  0.
        -11    1    3    3    0    0  0.26927312428E+02  0.10875021205E+03 -0.36219099170E+03  0.37912267572E+03  0.00000000000E+00 0.  1.
         12    1    3    3    0    0 -0.40721587621E+02  0.17761751793E+03 -0.33658166788E+03  0.38274462704E+03  0.00000000000E+00 0. -1.
        -13    1    5    5    0    0  0.14424386839E+03 -0.95706568607E+02  0.81697742801E+03  0.83511565590E+03  0.00000000000E+00 0.  1.
         14    1    5    5    0    0  0.47856499803E+02 -0.21817853649E+02  0.56360427348E+03  0.56605303674E+03  0.00000000000E+00 0. -1.
          5    1    4    4  501    0 -0.10730496649E+03 -0.12185822272E+03  0.44125897311E+03  0.47020777708E+03  0.47000000000E+01 0. -1.
         -5    1    4    4    0  501 -0.33975588477E+02 -0.34721080628E+02  0.21192535001E+02  0.53208153437E+02  0.47000000000E+01 0. -1.
          1    1    1    2  502    0 -0.61454776603E+02 -0.26887628039E+02 -0.88988198991E+03  0.89240662821E+03  0.00000000000E+00 0. -1.
          1    1    1    2  503    0  0.24429238568E+02  0.14623623663E+02  0.55909244550E+03  0.55981693497E+03  0.00000000000E+00 0. -1.
<mgrwt>
<rscale>  0 0.43695914E+02</rscale>
<asrwt>0</asrwt>
<pdfrwt beam="1">  1        2 0.36412842E+00 0.28471706E+02</pdfrwt>
<pdfrwt beam="2">  1        2 0.24450033E+00 0.67060711E+02</pdfrwt>
<totfact> 0.13759472E+01</totfact>
</mgrwt>
</event>
<event>
13    1  0.1589573E-008  0.1283158E+03  0.7546771E-02  0.1292412E+00
          2   -1    0    0  502    0  0.00000000000E+00  0.00000000000E+00  0.50293819325E+03  0.50293819325E+03  0.00000000000E+00 0. -1.
          2   -1    0    0  503    0 -0.00000000000E+00 -0.00000000000E+00 -0.17023850906E+04  0.17023850906E+04  0.00000000000E+00 0. -1.
         24    2    1    2    0    0  0.15601536723E+03  0.22648406682E+01 -0.43844298651E+03  0.47206620975E+03  0.79172783537E+02 0.  0.
         25    2    1    2    0    0  0.70112386208E+02 -0.28345702626E+03  0.10349080382E+03  0.33406440609E+03  0.12500019401E+03 0.  0.
         24    2    1    2    0    0 -0.10852384192E+03  0.14524959117E+03 -0.44372433837E+03  0.48568356884E+03  0.78245591415E+02 0.  0.
        -11    1    5    5    0    0 -0.48679927373E+02  0.12198107659E+03 -0.32841598366E+03  0.35370351525E+03  0.00000000000E+00 0.  1.
         12    1    5    5    0    0 -0.59843914548E+02  0.23268514571E+02 -0.11530835471E+03  0.13198005359E+03  0.00000000000E+00 0. -1.
        -13    1    3    3    0    0  0.86600381622E+02  0.12128065387E+02 -0.34091892582E+03  0.35195515347E+03  0.00000000000E+00 0.  1.
         14    1    3    3    0    0  0.69414985607E+02 -0.98632247189E+01 -0.97524060686E+02  0.12011105628E+03  0.00000000000E+00 0. -1.
          5    1    4    4  501    0  0.19372830502E+02  0.62865716478E+01 -0.31576939268E+01  0.21139739253E+02  0.47000000000E+01 0.  1.
         -5    1    4    4    0  501  0.50739555706E+02 -0.28974359791E+03  0.10664849775E+03  0.31292466683E+03  0.47000000000E+01 0.  1.
          1    1    1    2  502    0 -0.94231004352E+01  0.68885531431E+02  0.23522251532E+03  0.24528278166E+03  0.00000000000E+00 0. -1.
          1    1    1    2  503    0 -0.10818081108E+03  0.67057062995E+02 -0.65599289161E+03  0.66822631752E+03  0.00000000000E+00 0. -1.
<mgrwt>
<rscale>  0 0.94453281E+02</rscale>
<asrwt>0</asrwt>
<pdfrwt beam="1">  1        2 0.73961500E-01 0.69527054E+02</pdfrwt>
<pdfrwt beam="2">  1        2 0.25035075E+00 0.12831584E+03</pdfrwt>
<totfact> 0.12842219E+02</totfact>
</mgrwt>
</event>
<event>
13    1  0.1589573E-008  0.2226113E+03  0.7546771E-02  0.1202104E+00
          2   -1    0    0  503    0  0.00000000000E+00  0.00000000000E+00  0.25116870291E+04  0.25116870291E+04  0.00000000000E+00 0. -1.
          2   -1    0    0  502    0 -0.00000000000E+00 -0.00000000000E+00 -0.16164983528E+04  0.16164983528E+04  0.00000000000E+00 0. -1.
         24    2    1    2    0    0  0.25506472804E+03  0.33177389492E+03 -0.12605384043E+03  0.44406782372E+03  0.78579440919E+02 0.  0.
         25    2    1    2    0    0 -0.24794148307E+03 -0.37228341756E+03  0.49587559955E+03  0.67940223689E+03  0.12499946898E+03 0.  0.
         24    2    1    2    0    0  0.13786982088E+03 -0.36869967069E+02  0.47176542750E+03  0.49931200804E+03  0.79889804178E+02 0.  0.
        -11    1    5    5    0    0  0.75756189782E+01  0.19399674894E+02  0.78683132927E+02  0.81392707266E+02  0.00000000000E+00 0.  1.
         12    1    5    5    0    0  0.13029420190E+03 -0.56269641963E+02  0.39308229457E+03  0.41791930078E+03  0.00000000000E+00 0. -1.
        -13    1    3    3    0    0  0.11652144492E+03  0.11983125301E+03 -0.15767960877E+02  0.16788509437E+03  0.00000000000E+00 0.  1.
         14    1    3    3    0    0  0.13854328313E+03  0.21194264192E+03 -0.11028587956E+03  0.27618272935E+03  0.00000000000E+00 0. -1.
          5    1    4    4  501    0 -0.40257374177E+02 -0.16894289771E+03  0.18513964516E+03  0.25389197914E+03  0.47000000000E+01 0. -1.
         -5    1    4    4    0  501 -0.20768410889E+03 -0.20334051985E+03  0.31073595438E+03  0.42551025775E+03  0.47000000000E+01 0. -1.
          1    1    1    2  502    0 -0.22481971384E+03  0.18315103468E+02 -0.12135660530E+04  0.12343508058E+04  0.00000000000E+00 0. -1.
          1    1    1    2  503    0  0.79826647988E+02  0.59064386240E+02  0.12671675427E+04  0.12710525074E+04  0.00000000000E+00 0. -1.
<mgrwt>
<rscale>  0 0.14868005E+03</rscale>
<asrwt>0</asrwt>
<pdfrwt beam="1">  1        2 0.36936574E+00 0.99302042E+02</pdfrwt>
<pdfrwt beam="2">  1        2 0.23772035E+00 0.22261132E+03</pdfrwt>
<totfact> 0.10583512E+01</totfact>
</mgrwt>
</event>
<event>
13    1  0.1589573E-008  0.2335514E+03  0.7546771E-02  0.1160525E+00
          2   -1    0    0  502    0  0.00000000000E+00  0.00000000000E+00  0.19357519507E+04  0.19357519507E+04  0.00000000000E+00 0. -1.
          2   -1    0    0  503    0 -0.00000000000E+00 -0.00000000000E+00 -0.33479636145E+04  0.33479636145E+04  0.00000000000E+00 0. -1.
         24    2    1    2    0    0  0.49401358923E+03  0.95656879093E+02 -0.10195594880E+04  0.11389029290E+04  0.66322449211E+02 0.  0.
         25    2    1    2    0    0 -0.54151477274E+02  0.54788797349E+03 -0.32920254547E+03  0.65353893961E+03  0.12500086263E+03 0.  0.
         24    2    1    2    0    0 -0.30103809987E+03 -0.46309695297E+03  0.20449736249E+03  0.59442437088E+03  0.80239865448E+02 0.  0.
        -11    1    5    5    0    0 -0.16880326555E+03 -0.32229739851E+03  0.15163916567E+03  0.39416315418E+03  0.00000000000E+00 0.  1.
         12    1    5    5    0    0 -0.13223483432E+03 -0.14079955446E+03  0.52858196824E+02  0.20026121671E+03  0.00000000000E+00 0. -1.
        -13    1    3    3    0    0  0.44783158620E+03  0.75326986535E+02 -0.87563186811E+03  0.98638656365E+03  0.00000000000E+00 0.  1.
         14    1    3    3    0    0  0.46182003029E+02  0.20329892558E+02 -0.14392761985E+03  0.15251636532E+03  0.00000000000E+00 0. -1.
          5    1    4    4  501    0 -0.55990321809E+02  0.17401435323E+03 -0.58729811597E+02  0.19206038644E+03  0.47000000000E+01 0.  1.
         -5    1    4    4    0  501  0.18388445351E+01  0.37387362026E+03 -0.27047273387E+03  0.46147855318E+03  0.47000000000E+01 0.  1.
          1    1    1    2  502    0 -0.22663445061E+03 -0.57730961404E+02  0.13003983203E+04  0.13212614539E+04  0.00000000000E+00 0. -1.
          1    1    1    2  503    0  0.87810438529E+02 -0.12271693821E+03 -0.15683453132E+04  0.15755878718E+04  0.00000000000E+00 0. -1.
<mgrwt>
<rscale>  0 0.18772953E+03</rscale>
<asrwt>0</asrwt>
<pdfrwt beam="1">  1        2 0.28466941E+00 0.23355142E+03</pdfrwt>
<pdfrwt beam="2">  1        2 0.49234758E+00 0.15089771E+03</pdfrwt>
<totfact> 0.24545027E+00</totfact>
</mgrwt>
</event>
<event>
13    1  0.1589573E-008  0.1131013E+03  0.7546771E-02  0.1274750E+00
          2   -1    0    0  502    0  0.00000000000E+00  0.00000000000E+00  0.18887358465E+04  0.18887358465E+04  0.00000000000E+00 0. -1.
          2   -1    0    0  503    0 -0.00000000000E+00 -0.00000000000E+00 -0.49320721270E+03  0.49320721270E+03  0.00000000000E+00 0. -1.
         24    2    1    2    0    0 -0.80540192882E+01 -0.28154105873E+02 -0.23258870523E+03  0.24832468473E+03  0.81915336430E+02 0.  0.
         25    2    1    2    0    0 -0.40361660061E+02  0.11254675107E+03  0.13394270219E+04  0.13505501709E+04  0.12500073017E+03 0.  0.
         24    2    1    2    0    0 -0.55921454057E+01 -0.63769168131E+02  0.24727291610E+02  0.10319906650E+03  0.77076776537E+02 0.  0.
        -11    1    5    5    0    0 -0.86607555141E+01 -0.76468457101E+02  0.36896156532E+02  0.85344947034E+02  0.00000000000E+00 0.  1.
         12    1    5    5    0    0  0.30686101084E+01  0.12699288970E+02 -0.12168864922E+02  0.17854119464E+02  0.00000000000E+00 0. -1.
        -13    1    3    3    0    0  0.20634357218E+01  0.27247385144E+02 -0.46859392994E+02  0.54244635457E+02  0.00000000000E+00 0.  1.
         14    1    3    3    0    0 -0.10117455010E+02 -0.55401491016E+02 -0.18572931223E+03  0.19408004927E+03  0.00000000000E+00 0. -1.
          5    1    4    4  501    0 -0.56979162130E+02  0.46626947775E+02  0.10734590594E+04  0.10759912357E+04  0.47000000000E+01 0. -1.
         -5    1    4    4    0  501  0.16617502069E+02  0.65919803296E+02  0.26596796247E+03  0.27455893521E+03  0.47000000000E+01 0. -1.
          1    1    1    2  502    0 -0.24357283995E+02 -0.11227514617E+03  0.44653008345E+03  0.46107277208E+03  0.00000000000E+00 0. -1.
          1    1    1    2  503    0  0.78365108750E+02  0.91651669106E+02 -0.18256705786E+03  0.21879636499E+03  0.00000000000E+00 0. -1.
<mgrwt>
<rscale>  0 0.10268463E+03</rscale>
<asrwt>0</asrwt>
<pdfrwt beam="1">  1        2 0.27775527E+00 0.11310134E+03</pdfrwt>
<pdfrwt beam="2">  1        2 0.72530473E-01 0.93227315E+02</pdfrwt>
<totfact> 0.10728485E+02</totfact>
</mgrwt>
</event>
<event>
13    1  0.1589573E-008  0.1057471E+03  0.7546771E-02  0.1274006E+00
          2   -1    0    0  502    0  0.00000000000E+00  0.00000000000E+00  0.50266745684E+03  0.50266745684E+03  0.00000000000E+00 0. -1.
          2   -1    0    0  503    0 -0.00000000000E+00 -0.00000000000E+00 -0.38717885925E+04  0.38717885925E+04  0.00000000000E+00 0. -1.
         24    2    1    2    0    0  0.54853895705E+02 -0.10934912055E+03 -0.14739343245E+03  0.20767233080E+03  0.80229626764E+02 0.  0.
         25    2    1    2    0    0 -0.77016019146E+02 -0.82958756258E+02 -0.75019342152E+03  0.76891280526E+03  0.12499243958E+03 0.  0.
         24    2    1    2    0    0  0.12995605901E+02 -0.30510113061E+02  0.85226566722E+02  0.12177875420E+03  0.80416071329E+02 0.  0.
        -13    1    3    3    0    0  0.61623487377E+02 -0.93418895161E+02 -0.78656517092E+02  0.13678958970E+03  0.00000000000E+00 0.  1.
         14    1    3    3    0    0 -0.67695916718E+01 -0.15930225386E+02 -0.68736915359E+02  0.70882741097E+02  0.00000000000E+00 0. -1.
        -13    1    5    5    0    0 -0.95518147935E+01  0.10562153600E+02 -0.87891869237E+01  0.16734576818E+02  0.00000000000E+00 0.  1.
         14    1    5    5    0    0  0.22547420695E+02 -0.41072266660E+02  0.94015753646E+02  0.10504417738E+03  0.00000000000E+00 0. -1.
          5    1    4    4  501    0 -0.54099290592E+02 -0.10165331229E+02 -0.57642599448E+03  0.57906742639E+03  0.47000000000E+01 0. -1.
         -5    1    4    4    0  501 -0.22916728554E+02 -0.72793425028E+02 -0.17376742704E+03  0.18984537887E+03  0.47000000000E+01 0. -1.
          1    1    1    2  502    0  0.56956184172E+02  0.13441075365E+03  0.34394699384E+03  0.37364393771E+03  0.00000000000E+00 0. -1.
          1    1    1    2  503    0 -0.47789666633E+02  0.88407236212E+02 -0.29007078423E+04  0.29024482214E+04  0.00000000000E+00 0. -1.
<mgrwt>
<rscale>  0 0.10305182E+03</rscale>
<asrwt>0</asrwt>
<pdfrwt beam="1">  1        2 0.73921684E-01 0.10574711E+03</pdfrwt>
<pdfrwt beam="2">  1        2 0.56938068E+00 0.10042524E+03</pdfrwt>
<totfact> 0.91855138E+00</totfact>
</mgrwt>
</event>
<event>
13    1  0.1589573E-008  0.9637794E+02  0.7546771E-02  0.1474021E+00
          2   -1    0    0  503    0  0.00000000000E+00  0.00000000000E+00  0.12621249196E+04  0.12621249196E+04  0.00000000000E+00 0. -1.
          2   -1    0    0  502    0 -0.00000000000E+00 -0.00000000000E+00 -0.51378235190E+03  0.51378235190E+03  0.00000000000E+00 0. -1.
         24    2    1    2    0    0  0.14040535183E+02 -0.67686847687E+02  0.71496282961E+02  0.12787676138E+03  0.80387198272E+02 0.  0.
         25    2    1    2    0    0 -0.24306967143E+02  0.52480483376E+02  0.26715396067E+03  0.30057010199E+03  0.12500447081E+03 0.  0.
         24    2    1    2    0    0 -0.63366032932E+02 -0.44634337591E+01  0.16495973542E+03  0.19397716035E+03  0.79876454951E+02 0.  0.
        -11    1    5    5    0    0  0.15813107336E+01 -0.10826996051E+02 -0.49178726337E+01  0.11996243510E+02  0.00000000000E+00 0.  1.
         12    1    5    5    0    0 -0.64947343665E+02  0.63635622914E+01  0.16987760806E+03  0.18198091684E+03  0.00000000000E+00 0. -1.
        -13    1    3    3    0    0 -0.31523990243E+01  0.15949772836E+02  0.27190901173E+02  0.31680877194E+02  0.00000000000E+00 0.  1.
         14    1    3    3    0    0  0.17192934208E+02 -0.83636620523E+02  0.44305381788E+02  0.96195884188E+02  0.00000000000E+00 0. -1.
          5    1    4    4  501    0 -0.27524456948E+02  0.18296914846E+02  0.23045017355E+01  0.33463017667E+02  0.47000000000E+01 0.  1.
         -5    1    4    4    0  501  0.32174898049E+01  0.34183568530E+02  0.26484945893E+03  0.26710708432E+03  0.47000000000E+01 0.  1.
          1    1    1    2  502    0  0.94680113318E+02  0.18976597419E+02 -0.44908340351E+03  0.45934773148E+03  0.00000000000E+00 0. -1.
          1    1    1    2  503    0 -0.21047648427E+02  0.69320065108E+00  0.69381599217E+03  0.69413551632E+03  0.00000000000E+00 0. -1.
<mgrwt>
<rscale>  0 0.45051402E+02</rscale>
<asrwt>0</asrwt>
<pdfrwt beam="1">  1        2 0.18560661E+00 0.21059061E+02</pdfrwt>
<pdfrwt beam="2">  1        2 0.75556228E-01 0.96377936E+02</pdfrwt>
<totfact> 0.23553839E+02</totfact>
</mgrwt>
</event>
<event>
13    1  0.1589573E-008  0.8556619E+02  0.7546771E-02  0.1477133E+00
          2   -1    0    0  502    0  0.00000000000E+00  0.00000000000E+00  0.19862524396E+04  0.19862524396E+04  0.00000000000E+00 0. -1.
          2   -1    0    0  503    0 -0.00000000000E+00 -0.00000000000E+00 -0.73266623753E+03  0.73266623753E+03  0.00000000000E+00 0. -1.
         24    2    1    2    0    0  0.52808144099E+02 -0.18604756878E+02  0.21871964263E+02  0.95832962085E+02  0.74637368252E+02 0.  0.
         25    2    1    2    0    0  0.81817093806E+02 -0.54189620285E+02 -0.24758272072E+02  0.16090022981E+03  0.12508141401E+03 0.  0.
         24    2    1    2    0    0 -0.50129185356E+02  0.71196595027E+01  0.38447972182E+03  0.39601527092E+03  0.80248448831E+02 0.  0.
        -13    1    5    5    0    0 -0.68830139861E+02 -0.24696452983E+01  0.22934856905E+03  0.23946701950E+03  0.00000000000E+00 0.  1.
         14    1    5    5    0    0  0.18700954504E+02  0.95893048011E+01  0.15513115277E+03  0.15654825143E+03  0.00000000000E+00 0. -1.
        -13    1    3    3    0    0  0.30413942439E+01  0.25958140164E+02  0.23751839452E+01  0.26243410954E+02  0.00000000000E+00 0.  1.
         14    1    3    3    0    0  0.49766749855E+02 -0.44562897042E+02  0.19496780318E+02  0.69589551131E+02  0.00000000000E+00 0. -1.
          5    1    4    4  501    0  0.91706334644E+01 -0.61404170742E+02 -0.53706799084E+02  0.82225804772E+02  0.47000000000E+01 0. -1.
         -5    1    4    4    0  501  0.72646460342E+02  0.72145504575E+01  0.28948527012E+02  0.78674425036E+02  0.47000000000E+01 0. -1.
          1    1    1    2  502    0 -0.21976921632E+02  0.74366323426E+01  0.14659326076E+04  0.14661161955E+04  0.00000000000E+00 0. -1.
          1    1    1    2  503    0 -0.62519130916E+02  0.58238085317E+02 -0.59393981953E+03  0.60005401885E+03  0.00000000000E+00 0. -1.
<mgrwt>
<rscale>  0 0.44555867E+02</rscale>
<asrwt>0</asrwt>
<pdfrwt beam="1">  1        2 0.29209595E+00 0.23201047E+02</pdfrwt>
<pdfrwt beam="2">  1        2 0.10774503E+00 0.85566192E+02</pdfrwt>
<totfact> 0.74176074E+01</totfact>
</mgrwt>
</event>
<event>
13    1  0.1589573E-008  0.1068953E+03  0.7546771E-02  0.1373738E+00
          2   -1    0    0  503    0  0.00000000000E+00  0.00000000000E+00  0.22883669750E+04  0.22883669750E+04  0.00000000000E+00 0. -1.
          2   -1    0    0  502    0 -0.00000000000E+00 -0.00000000000E+00 -0.14506660758E+04  0.14506660758E+04  0.00000000000E+00 0. -1.
         24    2    1    2    0    0 -0.16601394476E+02 -0.70009178524E+02 -0.41110553810E+02  0.11571763542E+03  0.80768819084E+02 0.  0.
         25    2    1    2    0    0  0.18681538511E+03  0.26729892477E+03  0.17684976821E+04  0.18026536758E+04  0.12501007949E+03 0.  0.
         24    2    1    2    0    0 -0.78991863768E+02 -0.87982035641E+02 -0.47171323178E+02  0.15090796053E+03  0.81040271998E+02 0.  0.
        -11    1    3    3    0    0  0.86608029335E+01 -0.79941209444E+02 -0.35983235557E+02  0.88093130924E+02  0.00000000000E+00 0.  1.
         12    1    3    3    0    0 -0.25262197410E+02  0.99320309194E+01 -0.51273182533E+01  0.27624504496E+02  0.00000000000E+00 0. -1.
        -13    1    5    5    0    0 -0.22671445747E+02 -0.83121488651E+02 -0.35505670443E+02  0.93187064346E+02  0.00000000000E+00 0.  1.
         14    1    5    5    0    0 -0.56320418021E+02 -0.48605469891E+01 -0.11665652734E+02  0.57720896188E+02  0.00000000000E+00 0. -1.
          5    1    4    4  501    0  0.19247544685E+03  0.27673386383E+03  0.16969707132E+04  0.17301329777E+04  0.47000000000E+01 0. -1.
         -5    1    4    4    0  501 -0.56600617407E+01 -0.94349390612E+01  0.71526968864E+02  0.72520698072E+02  0.47000000000E+01 0. -1.
          1    1    1    2  502    0 -0.54061818159E+02 -0.92169519345E+02 -0.12528423095E+04  0.12573908513E+04  0.00000000000E+00 0. -1.
          1    1    1    2  503    0 -0.37160308704E+02 -0.17138191262E+02  0.41032740355E+03  0.41236292783E+03  0.00000000000E+00 0. -1.
<mgrwt>
<rscale>  0 0.66138968E+02</rscale>
<asrwt>0</asrwt>
<pdfrwt beam="1">  1        2 0.33652456E+00 0.40921952E+02</pdfrwt>
<pdfrwt beam="2">  1        2 0.21333324E+00 0.10689527E+03</pdfrwt>
<totfact> 0.19519483E+01</totfact>
</mgrwt>
</event>
<event>
13    1  0.1589573E-008  0.2026451E+03  0.7546771E-02  0.1256695E+00
          2   -1    0    0  503    0  0.00000000000E+00  0.00000000000E+00  0.29856463116E+04  0.29856463116E+04  0.00000000000E+00 0. -1.
          2   -1    0    0  502    0 -0.00000000000E+00 -0.00000000000E+00 -0.25177624456E+04  0.25177624456E+04  0.00000000000E+00 0. -1.
         24    2    1    2    0    0  0.37854874737E+03  0.56298961149E+03 -0.20422969639E+03  0.71710238152E+03  0.11076822610E+03 0.  0.
         25    2    1    2    0    0 -0.28719475938E+03 -0.76149774001E+03 -0.16193884673E+03  0.83917141519E+03  0.12499934455E+03 0.  0.
         24    2    1    2    0    0  0.91160899382E+02  0.18631459988E+03 -0.16860721255E+03  0.27918111519E+03  0.80562170103E+02 0.  0.
        -11    1    3    3    0    0  0.90432250310E+02  0.85947378284E+02 -0.73055666540E+02  0.14457549635E+03  0.00000000000E+00 0.  1.
         12    1    3    3    0    0  0.28811649706E+03  0.47704223320E+03 -0.13117402985E+03  0.57252688517E+03  0.00000000000E+00 0. -1.
        -13    1    5    5    0    0  0.13502591463E+01  0.80581787628E+02 -0.85349559470E+02  0.11738737155E+03  0.00000000000E+00 0.  1.
         14    1    5    5    0    0  0.89810640235E+02  0.10573281226E+03 -0.83257653077E+02  0.16179374365E+03  0.00000000000E+00 0. -1.
          5    1    4    4  501    0 -0.14227002602E+03 -0.24397906051E+03 -0.92647544308E+02  0.29727462007E+03  0.47000000000E+01 0. -1.
         -5    1    4    4    0  501 -0.14492473336E+03 -0.51751867950E+03 -0.69291302417E+02  0.54189679512E+03  0.47000000000E+01 0. -1.
          1    1    1    2  502    0 -0.19720393277E+03 -0.48075682565E+02 -0.13245022905E+04  0.13399652905E+04  0.00000000000E+00 0. -1.
          1    1    1    2  503    0  0.14689045397E+02  0.60269211201E+02  0.23271619121E+04  0.23279885547E+04  0.00000000000E+00 0. -1.
<mgrwt>
<rscale>  0 0.11211945E+03</rscale>
<asrwt>0</asrwt>
<pdfrwt beam="1">  1        2 0.43906563E+00 0.62033425E+02</pdfrwt>
<pdfrwt beam="2">  1        2 0.37025918E+00 0.20264512E+03</pdfrwt>
<totfact> 0.23197586E+00</totfact>
</mgrwt>
</event>
<event>
13    1  0.1589573E-008  0.1106622E+03  0.7546771E-02  0.1375531E+00
          2   -1    0    0  502    0  0.00000000000E+00  0.00000000000E+00  0.15288659133E+04  0.15288659133E+04  0.00000000000E+00 0. -1.
          2   -1    0    0  503    0 -0.00000000000E+00 -0.00000000000E+00 -0.73003610217E+03  0.73003610217E+03  0.00000000000E+00 0. -1.
         24    2    1    2    0    0  0.26910143107E+02  0.33716514032E+02 -0.16371248297E+03  0.18815422309E+03  0.82093090259E+02 0.  0.
         25    2    1    2    0    0  0.14819372159E+03 -0.91921687911E+02  0.10269712509E+04  0.10491458745E+04  0.12500455948E+03 0.  0.
         24    2    1    2    0    0  0.10538797823E+01  0.16358905829E+02  0.60819579115E+02  0.10069033067E+03  0.78554420775E+02 0.  0.
        -11    1    5    5    0    0 -0.21155281762E+02 -0.74832704282E+01 -0.85784468960E+01  0.24023634901E+02  0.00000000000E+00 0.  1.
         12    1    5    5    0    0  0.22209161544E+02  0.23842176257E+02  0.69398026011E+02  0.76666695764E+02  0.00000000000E+00 0. -1.
        -13    1    3    3    0    0  0.35326186649E+02  0.45734832832E+01 -0.19147600871E+02  0.40441152699E+02  0.00000000000E+00 0.  1.
         14    1    3    3    0    0 -0.84160435420E+01  0.29143030749E+02 -0.14456488210E+03  0.14771307040E+03  0.00000000000E+00 0. -1.
          5    1    4    4  501    0  0.16507009837E+03 -0.75686138015E+02  0.77316934229E+03  0.79422254483E+03  0.47000000000E+01 0.  1.
         -5    1    4    4    0  501 -0.16876376777E+02 -0.16235549896E+02  0.25380190861E+03  0.25492332962E+03  0.47000000000E+01 0.  1.
          1    1    1    2  502    0 -0.28337023557E+02  0.26723638571E+02  0.38627960579E+03  0.38823842367E+03  0.00000000000E+00 0. -1.
          1    1    1    2  503    0 -0.14782072092E+03  0.15122629478E+02 -0.51152814170E+03  0.53267316359E+03  0.00000000000E+00 0. -1.
<mgrwt>
<rscale>  0 0.65653217E+02</rscale>
<asrwt>0</asrwt>
<pdfrwt beam="1">  1        2 0.22483322E+00 0.38950478E+02</pdfrwt>
<pdfrwt beam="2">  1        2 0.10735825E+00 0.11066218E+03</pdfrwt>
<totfact> 0.11287530E+02</totfact>
</mgrwt>
</event>
<event>
13    1  0.1589573E-008  0.1181172E+03  0.7546771E-02  0.1429175E+00
          2   -1    0    0  503    0  0.00000000000E+00  0.00000000000E+00  0.16723751585E+04  0.16723751585E+04  0.00000000000E+00 0. -1.
          2   -1    0    0  502    0 -0.00000000000E+00 -0.00000000000E+00 -0.51706360464E+03  0.51706360464E+03  0.00000000000E+00 0. -1.
         24    2    1    2    0    0 -0.95414758591E+01  0.51524852930E+02 -0.16406753396E+03  0.18942028125E+03  0.78841848142E+02 0.  0.
         25    2    1    2    0    0  0.98669123306E+02  0.23139788418E+02  0.10681423251E+04  0.10801960316E+04  0.12499757720E+03 0.  0.
         24    2    1    2    0    0  0.43127740087E+02 -0.21017486669E+01  0.11380213689E+03  0.14553924633E+03  0.79789263366E+02 0.  0.
        -11    1    5    5    0    0  0.64722830265E+02  0.99339958278E+01  0.89269146954E+02  0.11071002497E+03  0.00000000000E+00 0.  1.
         12    1    5    5    0    0 -0.21595090177E+02 -0.12035744495E+02  0.24532989936E+02  0.34829221360E+02  0.00000000000E+00 0. -1.
        -13    1    3    3    0    0  0.13831602259E+02  0.51846576646E+01 -0.12122312536E+03  0.12211977735E+03  0.00000000000E+00 0.  1.
         14    1    3    3    0    0 -0.23373078118E+02  0.46340195266E+02 -0.42844408599E+02  0.67300503907E+02  0.00000000000E+00 0. -1.
          5    1    4    4  501    0  0.68573725139E+02 -0.59049331611E+01  0.21039512423E+03  0.22141685192E+03  0.47000000000E+01 0. -1.
         -5    1    4    4    0  501  0.30095398167E+02  0.29044721579E+02  0.85774720091E+03  0.85877917971E+03  0.47000000000E+01 0. -1.
          1    1    1    2  502    0  0.14222950472E+02 -0.19200560348E+02 -0.30461434740E+03  0.30555008506E+03  0.00000000000E+00 0. -1.
          1    1    1    2  503    0 -0.14647833801E+03 -0.53362332333E+02  0.44204897323E+03  0.46873311890E+03  0.00000000000E+00 0. -1.
<mgrwt>
<rscale>  0 0.53125970E+02</rscale>
<asrwt>0</asrwt>
<pdfrwt beam="1">  1        2 0.24593752E+00 0.11811723E+03</pdfrwt>
<pdfrwt beam="2">  1        2 0.76038766E-01 0.23894640E+02</pdfrwt>
<totfact> 0.13130517E+02</totfact>
</mgrwt>
</event>
<event>
13    1  0.1589573E-008  0.8247858E+02  0.7546771E-02  0.1378822E+00
         -1   -1    0    0    0  501  0.00000000000E+00  0.00000000000E+00  0.94416557956E+03  0.94416557956E+03  0.00000000000E+00 0.  1.
         -3   -1    0    0    0  502 -0.00000000000E+00 -0.00000000000E+00 -0.30823610213E+03  0.30823610213E+03  0.00000000000E+00 0.  1.
         24    2    1    2    0    0  0.26017225647E+02 -0.32659777385E+02 -0.74370410744E+02  0.11602162178E+03  0.78654317344E+02 0.  0.
         25    2    1    2    0    0 -0.54581595116E+01  0.14706275003E+03  0.51989250445E+03  0.55459546851E+03  0.12502269213E+03 0.  0.
         24    2    1    2    0    0 -0.22162935958E+02  0.10381894520E+02 -0.37039999107E+02  0.92000988972E+02  0.80580648880E+02 0.  0.
        -11    1    5    5    0    0  0.14778330860E+02 -0.10451794015E+02  0.15952233301E+02  0.24127014080E+02  0.00000000000E+00 0.  1.
         12    1    5    5    0    0 -0.36941266818E+02  0.20833688536E+02 -0.52992232408E+02  0.67873974892E+02  0.00000000000E+00 0. -1.
        -11    1    3    3    0    0  0.19419784293E+02 -0.43183322296E+02 -0.74176238203E+01  0.47926490480E+02  0.00000000000E+00 0.  1.
         12    1    3    3    0    0  0.65974413539E+01  0.10523544911E+02 -0.66952786923E+02  0.68095131300E+02  0.00000000000E+00 0. -1.
          5    1    4    4  503    0 -0.23037692319E+02  0.10047175640E+03  0.15446179445E+03  0.18575748988E+03  0.47000000000E+01 0. -1.
         -5    1    4    4    0  503  0.17579532807E+02  0.46590993630E+02  0.36543071001E+03  0.36883797863E+03  0.47000000000E+01 0. -1.
         -2    1    1    2    0  501 -0.28235687370E+02 -0.42314699856E+02  0.34185995218E+03  0.34562409460E+03  0.00000000000E+00 0.  1.
         -4    1    1    2    0  502  0.29839557192E+02 -0.82470167313E+02 -0.11441256935E+03  0.14415950782E+03  0.00000000000E+00 0.  1.
<mgrwt>
<rscale>  0 0.64774303E+02</rscale>
<asrwt>0</asrwt>
<pdfrwt beam="1">  1       -1 0.13884788E+00 0.50870304E+02</pdfrwt>
<pdfrwt beam="2">  1       -3 0.45328839E-01 0.82478578E+02</pdfrwt>
<totfact> 0.10885256E+01</totfact>
</mgrwt>
</event>
<event>
13    1  0.1589573E-008  0.4350591E+02  0.7546771E-02  0.1544827E+00
          2   -1    0    0  503    0  0.00000000000E+00  0.00000000000E+00  0.22486734928E+04  0.22486734928E+04  0.00000000000E+00 0. -1.
          2   -1    0    0  502    0 -0.00000000000E+00 -0.00000000000E+00 -0.12452600521E+03  0.12452600521E+03  0.00000000000E+00 0. -1.
         24    2    1    2    0    0  0.56398673128E+02  0.35208501371E+02  0.12458795457E+02  0.10453741441E+03  0.79701948075E+02 0.  0.
         25    2    1    2    0    0 -0.14885723492E+03  0.35193339488E+02  0.19565645386E+04  0.19665112406E+04  0.12499847383E+03 0.  0.
         24    2    1    2    0    0  0.26099595962E+02 -0.41965561570E+02  0.10240441503E+03  0.13938221301E+03  0.80612901065E+02 0.  0.
        -13    1    3    3    0    0  0.43607326723E+02  0.54837253202E+02  0.29032207818E+02  0.75839253513E+02  0.00000000000E+00 0.  1.
         14    1    3    3    0    0  0.12791346405E+02 -0.19628751831E+02 -0.16573412361E+02  0.28698160892E+02  0.00000000000E+00 0. -1.
        -13    1    5    5    0    0  0.35849960454E+02 -0.13361482188E+02  0.64721062643E+01  0.38802538968E+02  0.00000000000E+00 0.  1.
         14    1    5    5    0    0 -0.97503644927E+01 -0.28604079381E+02  0.95932308764E+02  0.10057967404E+03  0.00000000000E+00 0. -1.
          5    1    4    4  501    0 -0.47827117191E+02  0.65510130775E+02  0.11811599369E+04  0.11839509689E+04  0.47000000000E+01 0. -1.
         -5    1    4    4    0  501 -0.10103011773E+03 -0.30316791287E+02  0.77540460170E+03  0.78256027171E+03  0.47000000000E+01 0. -1.
          1    1    1    2  502    0  0.39384320864E+02 -0.18201517890E+02 -0.44026430998E+02  0.61812188198E+02  0.00000000000E+00 0. -1.
          1    1    1    2  503    0  0.26974644964E+02 -0.10234761400E+02  0.96746169561E+02  0.10095644178E+03  0.00000000000E+00 0. -1.
<mgrwt>
<rscale>  0 0.35428666E+02</rscale>
<asrwt>0</asrwt>
<pdfrwt beam="1">  1        2 0.33068725E+00 0.28851028E+02</pdfrwt>
<pdfrwt beam="2">  1        2 0.18312649E-01 0.43505915E+02</pdfrwt>
<totfact> 0.35862312E+02</totfact>
</mgrwt>
</event>
<event>
13    1  0.1589573E-008  0.1385589E+03  0.7546771E-02  0.1222191E+00
          2   -1    0    0  503    0  0.00000000000E+00  0.00000000000E+00  0.32011856259E+04  0.32011856259E+04  0.00000000000E+00 0. -1.
          2   -1    0    0  502    0 -0.00000000000E+00 -0.00000000000E+00 -0.17596595404E+04  0.17596595404E+04  0.00000000000E+00 0. -1.
         24    2    1    2    0    0  0.18215235620E+02 -0.51569967267E+02 -0.11458183615E+03  0.15037432462E+03  0.80574090113E+02 0.  0.
         25    2    1    2    0    0  0.49742174628E+02 -0.11181747665E+03  0.71834186468E+03  0.73933250941E+03  0.12498037005E+03 0.  0.
         24    2    1    2    0    0 -0.14895978434E+03  0.36832511323E+03 -0.24283322169E+03  0.47582000176E+03  0.97899408216E+02 0.  0.
        -11    1    5    5    0    0 -0.47536366712E+02  0.55212427280E+02 -0.12063763187E+02  0.73848850150E+02  0.00000000000E+00 0.  1.
         12    1    5    5    0    0 -0.10142341763E+03  0.31311268595E+03 -0.23076945850E+03  0.40197115161E+03  0.00000000000E+00 0. -1.
        -13    1    3    3    0    0  0.39703528921E+02 -0.31457880757E+01 -0.72489718603E+02  0.82710492047E+02  0.00000000000E+00 0.  1.
         14    1    3    3    0    0 -0.21488293302E+02 -0.48424179191E+02 -0.42092117550E+02  0.67663832578E+02  0.00000000000E+00 0. -1.
          5    1    4    4  501    0  0.83200692497E+02 -0.91467700075E+02  0.63731413869E+03  0.64921498501E+03  0.47000000000E+01 0. -1.
         -5    1    4    4    0  501 -0.33458517868E+02 -0.20349776579E+02  0.81027725988E+02  0.90117524398E+02  0.47000000000E+01 0. -1.
          1    1    1    2  502    0 -0.37728697880E+02 -0.15500322738E+03 -0.12505143698E+04  0.12606488981E+04  0.00000000000E+00 0. -1.
          1    1    1    2  503    0  0.11873107197E+03 -0.49934441927E+02  0.23311136485E+04  0.23346694323E+04  0.00000000000E+00 0. -1.
<mgrwt>
<rscale>  0 0.13361339E+03</rscale>
<asrwt>0</asrwt>
<pdfrwt beam="1">  1        2 0.47076259E+00 0.12884437E+03</pdfrwt>
<pdfrwt beam="2">  1        2 0.25877346E+00 0.13855893E+03</pdfrwt>
<totfact> 0.39078425E+00</totfact>
</mgrwt>
</event>
<event>
13    1  0.1589573E-008  0.6974140E+02  0.7546771E-02  0.1516104E+00
          2   -1    0    0  503    0  0.00000000000E+00  0.00000000000E+00  0.79937169585E+03  0.79937169585E+03  0.00000000000E+00 0. -1.
          2   -1    0    0  502    0 -0.00000000000E+00 -0.00000000000E+00 -0.33286322568E+04  0.33286322568E+04  0.00000000000E+00 0. -1.
         24    2    1    2    0    0 -0.17203116174E+03  0.12369235066E+03 -0.24143293920E+04  0.24250565606E+04  0.83775838662E+02 0.  0.
         25    2    1    2    0    0  0.26374923886E+03 -0.10230308460E+03 -0.53205969412E+03  0.61542037356E+03  0.12500054385E+03 0.  0.
         24    2    1    2    0    0 -0.13187655185E+03 -0.49152460357E+02  0.35602378619E+02  0.16613451167E+03  0.80782159660E+02 0.  0.
        -13    1    5    5    0    0 -0.83827859456E+02 -0.62340008303E+02 -0.72888760537E+00  0.10446969864E+03  0.00000000000E+00 0.  1.
         14    1    5    5    0    0 -0.48048692390E+02  0.13187547946E+02  0.36331266224E+02  0.61664813035E+02  0.00000000000E+00 0. -1.
        -13    1    3    3    0    0 -0.74049350425E+02  0.82821895230E+01 -0.65467592426E+03  0.65890247136E+03  0.00000000000E+00 0.  1.
         14    1    3    3    0    0 -0.97981811311E+02  0.11541016114E+03 -0.17596534677E+04  0.17661540893E+04  0.00000000000E+00 0. -1.
          5    1    4    4  501    0  0.12974712483E+03 -0.11650879311E+03 -0.29898867813E+03  0.34615738461E+03  0.47000000000E+01 0.  1.
         -5    1    4    4    0  501  0.13400211404E+03  0.14205708512E+02 -0.23307101599E+03  0.26926298895E+03  0.47000000000E+01 0.  1.
          1    1    1    2  502    0  0.55937557152E+02  0.42732981564E+02 -0.26515802890E+03  0.27434266585E+03  0.00000000000E+00 0. -1.
          1    1    1    2  503    0 -0.15779082432E+02 -0.14969787276E+02  0.64668417540E+03  0.64704984096E+03  0.00000000000E+00 0. -1.
<mgrwt>
<rscale>  0 0.38947322E+02</rscale>
<asrwt>0</asrwt>
<pdfrwt beam="1">  1        2 0.11755466E+00 0.21750264E+02</pdfrwt>
<pdfrwt beam="2">  1        2 0.48950474E+00 0.69741402E+02</pdfrwt>
<totfact> 0.13016141E+01</totfact>
</mgrwt>
</event>
<event>
13    1  0.1589573E-008  0.5231856E+02  0.7546771E-02  0.1436783E+00
          2   -1    0    0  503    0  0.00000000000E+00  0.00000000000E+00  0.37087841195E+03  0.37087841195E+03  0.00000000000E+00 0. -1.
          2   -1    0    0  502    0 -0.00000000000E+00 -0.00000000000E+00 -0.13643728650E+04  0.13643728650E+04  0.00000000000E+00 0. -1.
         24    2    1    2    0    0 -0.40937483685E+02 -0.44976424392E+02 -0.70056159177E+03  0.70811322150E+03  0.83300865949E+02 0.  0.
         25    2    1    2    0    0  0.65546098052E+02  0.36074070749E+02  0.14461290684E+03  0.20526920241E+03  0.12499969234E+03 0.  0.
         24    2    1    2    0    0  0.37299246451E+02  0.28529375965E+02 -0.34491073490E+02  0.99024772932E+02  0.80069422534E+02 0.  0.
        -11    1    5    5    0    0  0.19316570181E+02  0.35917711579E+02 -0.56485714967E+02  0.69669562105E+02  0.00000000000E+00 0.  1.
         12    1    5    5    0    0  0.17982676270E+02 -0.73883356141E+01  0.21994641477E+02  0.29355210827E+02  0.00000000000E+00 0. -1.
        -11    1    3    3    0    0 -0.53567097778E+02 -0.32817738151E+01 -0.50015304343E+03  0.50302412552E+03  0.00000000000E+00 0.  1.
         12    1    3    3    0    0  0.12629614093E+02 -0.41694650577E+02 -0.20040854835E+03  0.20508909598E+03  0.00000000000E+00 0. -1.
          5    1    4    4  501    0  0.52868766432E+02  0.81834512915E+02  0.10431193851E+03  0.14281128977E+03  0.47000000000E+01 0. -1.
         -5    1    4    4    0  501  0.12677331620E+02 -0.45760442166E+02  0.40300968323E+02  0.62457912645E+02  0.47000000000E+01 0. -1.
          1    1    1    2  502    0 -0.44187410995E+02  0.28126436551E+02 -0.55763425194E+03  0.56008890603E+03  0.00000000000E+00 0. -1.
          1    1    1    2  503    0 -0.17720449823E+02 -0.47753458873E+02  0.15457955728E+03  0.16275517413E+03  0.00000000000E+00 0. -1.
<mgrwt>
<rscale>  0 0.51622309E+02</rscale>
<asrwt>0</asrwt>
<pdfrwt beam="1">  1        2 0.54540942E-01 0.50935323E+02</pdfrwt>
<pdfrwt beam="2">  1        2 0.20064307E+00 0.52318559E+02</pdfrwt>
<totfact> 0.27742562E+02</totfact>
</mgrwt>
</event>
<event>
13    1  0.1589573E-008  0.1514677E+03  0.7546771E-02  0.1376801E+00
          2   -1    0    0  502    0  0.00000000000E+00  0.00000000000E+00  0.14395917198E+04  0.14395917198E+04  0.00000000000E+00 0. -1.
          2   -1    0    0  503    0 -0.00000000000E+00 -0.00000000000E+00 -0.10264073994E+04  0.10264073994E+04  0.00000000000E+00 0. -1.
         24    2    1    2    0    0  0.29533761103E+03 -0.11478465240E+03 -0.30239104480E+03  0.44570547442E+03  0.82542141002E+02 0.  0.
         25    2    1    2    0    0 -0.61573644656E+02  0.10855533387E+03  0.67868001332E+03  0.70128936249E+03  0.12499854089E+03 0.  0.
         24    2    1    2    0    0 -0.11869010662E+03  0.81480852492E+02 -0.17171284594E+03  0.23710579078E+03  0.77507314685E+02 0.  0.
        -13    1    3    3    0    0  0.29408092120E+03 -0.11718830739E+03 -0.27843228624E+03  0.42159367361E+03  0.00000000000E+00 0.  1.
         14    1    3    3    0    0  0.12566898229E+01  0.24036549956E+01 -0.23958758565E+02  0.24111800817E+02  0.00000000000E+00 0. -1.
        -13    1    5    5    0    0 -0.10528238850E+03  0.45739948614E+02 -0.86494308173E+02  0.14372817947E+03  0.00000000000E+00 0.  1.
         14    1    5    5    0    0 -0.13407718115E+02  0.35740903878E+02 -0.85218537762E+02  0.93377611307E+02  0.00000000000E+00 0. -1.
          5    1    4    4  501    0 -0.66651840082E+02  0.13321616274E+03  0.61131326595E+03  0.62921777862E+03  0.47000000000E+01 0.  1.
         -5    1    4    4    0  501  0.50781954265E+01 -0.24660828877E+02  0.67366747372E+02  0.72071583867E+02  0.47000000000E+01 0.  1.
          1    1    1    2  502    0 -0.38026011911E+01  0.27904533675E+02  0.63174871196E+03  0.63237612054E+03  0.00000000000E+00 0. -1.
          1    1    1    2  503    0 -0.11127125856E+03 -0.10315606764E+03 -0.42314051413E+03  0.44952237093E+03  0.00000000000E+00 0. -1.
<mgrwt>
<rscale>  0 0.65312319E+02</rscale>
<asrwt>0</asrwt>
<pdfrwt beam="1">  1        2 0.21170467E+00 0.28162436E+02</pdfrwt>
<pdfrwt beam="2">  1        2 0.15094226E+00 0.15146769E+03</pdfrwt>
<totfact> 0.82072107E+01</totfact>
</mgrwt>
</event>
<event>
13    1  0.1589573E-008  0.9404662E+02  0.7546771E-02  0.1368021E+00
          2   -1    0    0  502    0  0.00000000000E+00  0.00000000000E+00  0.28653383293E+04  0.28653383293E+04  0.00000000000E+00 0. -1.
          2   -1    0    0  503    0 -0.00000000000E+00 -0.00000000000E+00 -0.39362495952E+03  0.39362495952E+03  0.00000000000E+00 0. -1.
         24    2    1    2    0    0  0.94259276627E+02  0.57452630621E+02 -0.16069168788E+03  0.20302235095E+03  0.56662513497E+02 0.  0.
         25    2    1    2    0    0 -0.15206459768E+03 -0.13229252273E+03  0.63507162278E+03  0.67791857752E+03  0.12503070926E+03 0.  0.
         24    2    1    2    0    0  0.12630662891E+03 -0.28167794313E+02  0.68627562442E+03  0.70269389819E+03  0.77831180987E+02 0.  0.
        -13    1    3    3    0    0  0.49347119957E+02 -0.21391869555E+01 -0.60747791065E+02  0.78294370731E+02  0.00000000000E+00 0.  1.
         14    1    3    3    0    0  0.44912156669E+02  0.59591817576E+02 -0.99943896811E+02  0.12472798021E+03  0.00000000000E+00 0. -1.
        -13    1    5    5    0    0  0.63909695656E+02  0.22479605489E+02  0.24674975656E+03  0.25588126978E+03  0.00000000000E+00 0.  1.
         14    1    5    5    0    0  0.62396933251E+02 -0.50647399802E+02  0.43952586787E+03  0.44681262841E+03  0.00000000000E+00 0. -1.
          5    1    4    4  501    0 -0.42368093338E+02 -0.17229914628E+02  0.33652176626E+03  0.33964822163E+03  0.47000000000E+01 0.  1.
         -5    1    4    4    0  501 -0.10969650435E+03 -0.11506260810E+03  0.29854985652E+03  0.33827035589E+03  0.47000000000E+01 0.  1.
          1    1    1    2  502    0 -0.21117630781E+02  0.91488553900E+02  0.14884231759E+04  0.14913817956E+04  0.00000000000E+00 0. -1.
          1    1    1    2  503    0 -0.47383677069E+02  0.11519132524E+02 -0.17736536544E+03  0.18394666652E+03  0.00000000000E+00 0. -1.
<mgrwt>
<rscale>  0 0.67720497E+02</rscale>
<asrwt>0</asrwt>
<pdfrwt beam="1">  1        2 0.42137327E+00 0.94046617E+02</pdfrwt>
<pdfrwt beam="2">  1        2 0.57886025E-01 0.48763750E+02</pdfrwt>
<totfact> 0.45746508E+01</totfact>
</mgrwt>
</event>
<event>
13    1  0.1589573E-008  0.4527755E+02  0.7546771E-02  0.1587638E+00
          2   -1    0    0  502    0  0.00000000000E+00  0.00000000000E+00  0.48826811707E+04  0.48826811707E+04  0.00000000000E+00 0. -1.
          2   -1    0    0  503    0 -0.00000000000E+00 -0.00000000000E+00 -0.15426907666E+04  0.15426907666E+04  0.00000000000E+00 0. -1.
         24    2    1    2    0    0 -0.50882208453E+03 -0.16029418060E+03  0.58656004968E+02  0.54302207923E+03  0.82694096396E+02 0.  0.
         25    2    1    2    0    0  0.52950301329E+03 -0.79177153915E+03  0.27598139978E+03  0.99953253260E+03  0.12499575756E+03 0.  0.
         24    2    1    2    0    0  0.64753586265E+01  0.94677935928E+03  0.65792832542E+03  0.11540379573E+04  0.50008400528E+02 0.  0.
        -11    1    3    3    0    0 -0.38127425168E+03 -0.13723806931E+03  0.75889845238E+02  0.41226643238E+03  0.00000000000E+00 0.  1.
         12    1    3    3    0    0 -0.12754783285E+03 -0.23056111289E+02 -0.17233840269E+02  0.13075564685E+03  0.00000000000E+00 0. -1.
        -13    1    5    5    0    0  0.27091936326E+02  0.50382482579E+03  0.34046826860E+03  0.60868059770E+03  0.00000000000E+00 0.  1.
         14    1    5    5    0    0 -0.20616577699E+02  0.44295453348E+03  0.31746005682E+03  0.54535735962E+03  0.00000000000E+00 0. -1.
          5    1    4    4  501    0  0.91592144495E+02 -0.74698050936E+02  0.56650484949E+02  0.13114986539E+03  0.47000000000E+01 0. -1.
         -5    1    4    4    0  501  0.43791086880E+03 -0.71707348821E+03  0.21933091483E+03  0.86838266721E+03  0.47000000000E+01 0. -1.
          1    1    1    2  502    0 -0.39159322737E+02  0.22736478406E+02  0.30377708792E+04  0.30381083448E+04  0.00000000000E+00 0. -1.
          1    1    1    2  503    0  0.12003035346E+02 -0.17450117936E+02 -0.69034620522E+03  0.69067102338E+03  0.00000000000E+00 0. -1.
<mgrwt>
<rscale>  0 0.30967156E+02</rscale>
<asrwt>0</asrwt>
<pdfrwt beam="1">  1        2 0.71804135E+00 0.45277553E+02</pdfrwt>
<pdfrwt beam="2">  1        2 0.22686629E+00 0.21179695E+02</pdfrwt>
<totfact> 0.50906030E-01</totfact>
</mgrwt>
</event>
<event>
13    1  0.1589573E-008  0.9893766E+02  0.7546771E-02  0.1284871E+00
          2   -1    0    0  502    0  0.00000000000E+00  0.00000000000E+00  0.14287701641E+04  0.14287701641E+04  0.00000000000E+00 0. -1.
          2   -1    0    0  503    0 -0.00000000000E+00 -0.00000000000E+00 -0.11761165076E+04  0.11761165076E+04  0.00000000000E+00 0. -1.
         24    2    1    2    0    0  0.16546319000E+02 -0.10798998328E+02 -0.27793443363E+03  0.29031344878E+03  0.81510429448E+02 0.  0.
         25    2    1    2    0    0  0.14242185810E+03  0.15658730026E+02  0.78064589543E+03  0.80346828376E+03  0.12499634984E+03 0.  0.
         24    2    1    2    0    0 -0.12187318805E+03 -0.51391008913E+01  0.90055802335E+02  0.17202508689E+03  0.81259452761E+02 0.  0.
        -13    1    5    5    0    0 -0.10890431880E+03 -0.34689859999E+02  0.70618349454E+02  0.13435210575E+03  0.00000000000E+00 0.  1.
         14    1    5    5    0    0 -0.12968869243E+02  0.29550759107E+02  0.19437452882E+02  0.37672981137E+02  0.00000000000E+00 0. -1.
        -13    1    3    3    0    0  0.48664726483E+02  0.32290257480E+01 -0.16668879726E+03  0.17367739445E+03  0.00000000000E+00 0.  1.
         14    1    3    3    0    0 -0.32118407483E+02 -0.14028024076E+02 -0.11124563637E+03  0.11663605434E+03  0.00000000000E+00 0. -1.
          5    1    4    4  501    0  0.54619739875E+01 -0.38857841316E+02  0.23213153908E+03  0.23547166799E+03  0.47000000000E+01 0.  1.
         -5    1    4    4    0  501  0.13695988411E+03  0.54516571342E+02  0.54851435635E+03  0.56799661577E+03  0.47000000000E+01 0. -1.
          1    1    1    2  502    0  0.80729881287E+02 -0.57006347535E+02  0.48940257119E+03  0.49928139769E+03  0.00000000000E+00 0. -1.
          1    1    1    2  503    0 -0.11782487034E+03  0.57285716728E+02 -0.82951617884E+03  0.83979845462E+03  0.00000000000E+00 0. -1.
<mgrwt>
<rscale>  0 0.97855439E+02</rscale>
<asrwt>0</asrwt>
<pdfrwt beam="1">  1        2 0.21011326E+00 0.98937663E+02</pdfrwt>
<pdfrwt beam="2">  1        2 0.17295831E+00 0.96785054E+02</pdfrwt>
<totfact> 0.63673808E+01</totfact>
</mgrwt>
</event>
<event>
13    1  0.1589573E-008  0.1358676E+03  0.7546771E-02  0.1270638E+00
          2   -1    0    0  502    0  0.00000000000E+00  0.00000000000E+00  0.22653149769E+04  0.22653149769E+04  0.00000000000E+00 0. -1.
          2   -1    0    0  503    0 -0.00000000000E+00 -0.00000000000E+00 -0.20330622399E+04  0.20330622399E+04  0.00000000000E+00 0. -1.
         24    2    1    2    0    0  0.11063374523E+03 -0.17514895726E+03 -0.20391947402E+03  0.30176307746E+03  0.80998890260E+02 0.  0.
         25    2    1    2    0    0 -0.15993485734E+01  0.15975847767E+02  0.32079300735E+03  0.34465359220E+03  0.12498063620E+03 0.  0.
         24    2    1    2    0    0 -0.63987582489E+01  0.29920296006E+02 -0.22012275204E+03  0.23815763703E+03  0.85608795617E+02 0.  0.
        -11    1    5    5    0    0  0.27258375294E+02  0.36007229573E+01 -0.17038010455E+03  0.17258436851E+03  0.00000000000E+00 0.  1.
         12    1    5    5    0    0 -0.33657133543E+02  0.26319573048E+02 -0.49742647499E+02  0.65573268517E+02  0.00000000000E+00 0. -1.
        -13    1    3    3    0    0  0.10638063193E+02 -0.57741282307E+02 -0.99456764581E+02  0.11549403488E+03  0.00000000000E+00 0.  1.
         14    1    3    3    0    0  0.99995682036E+02 -0.11740767495E+03 -0.10446270944E+03  0.18626904259E+03  0.00000000000E+00 0. -1.
          5    1    4    4  501    0 -0.37008413881E+02  0.44474833224E+02  0.27068063393E+03  0.27683520201E+03  0.47000000000E+01 0.  1.
         -5    1    4    4    0  501  0.35409065308E+02 -0.28498985456E+02  0.50112373423E+02  0.67818390191E+02  0.47000000000E+01 0.  1.
          1    1    1    2  502    0 -0.65264162098E+02 -0.47533465223E+02  0.18684743670E+04  0.18702179823E+04  0.00000000000E+00 0. -1.
          1    1    1    2  503    0 -0.37371476309E+02  0.17678627871E+03 -0.15329724113E+04  0.15435849278E+04  0.00000000000E+00 0. -1.
<mgrwt>
<rscale>  0 0.10473710E+03</rscale>
<asrwt>0</asrwt>
<pdfrwt beam="1">  1        2 0.33313456E+00 0.80739341E+02</pdfrwt>
<pdfrwt beam="2">  1        2 0.29897974E+00 0.13586760E+03</pdfrwt>
<totfact> 0.93197648E+00</totfact>
</mgrwt>
</event>
<event>
13    1  0.1589573E-008  0.9205145E+02  0.7546771E-02  0.1312220E+00
          4   -1    0    0  503    0 -0.00000000000E+00  0.00000000000E+00  0.95786611525E+03  0.95786611525E+03  0.00000000000E+00 0. -1.
          2   -1    0    0  502    0  0.00000000000E+00 -0.00000000000E+00 -0.41663345124E+04  0.41663345124E+04  0.00000000000E+00 0. -1.
         24    2    1    2    0    0  0.23438326917E+03 -0.11338184516E+04 -0.17136799814E+03  0.11732679002E+04  0.81919330445E+02 0.  0.
         25    2    1    2    0    0 -0.44807251413E+03  0.19699764196E+03 -0.24759850983E+03  0.56258603952E+03  0.12498392270E+03 0.  0.
         24    2    1    2    0    0  0.50501815879E+02  0.90716174797E+03 -0.11996799655E+04  0.15069102971E+04  0.77805871493E+02 0.  0.
        -13    1    3    3    0    0  0.14411585721E+03 -0.49627371484E+03 -0.78250736890E+02  0.52266639280E+03  0.00000000000E+00 0.  1.
         14    1    3    3    0    0  0.90267411961E+02 -0.63754473676E+03 -0.93117261248E+02  0.65060150736E+03  0.00000000000E+00 0. -1.
        -13    1    5    5    0    0  0.54801202866E+02  0.31640270554E+03 -0.42449525214E+03  0.53226878830E+03  0.00000000000E+00 0.  1.
         14    1    5    5    0    0 -0.42993869871E+01  0.59075904243E+03 -0.77518471335E+03  0.97464150884E+03  0.00000000000E+00 0. -1.
          5    1    4    4  501    0 -0.23455718192E+03  0.51435727396E+02 -0.74293218633E+02  0.25140461010E+03  0.47000000000E+01 0. -1.
         -5    1    4    4    0  501 -0.21351533221E+03  0.14556191456E+03 -0.17330529120E+03  0.31118142942E+03  0.47000000000E+01 0. -1.
          1    1    1    2  502    0  0.91614807716E+02 -0.78294286791E+01 -0.17231155881E+04  0.17255671250E+04  0.00000000000E+00 0. -1.
          3    1    1    2  503    0  0.71572621362E+02  0.37488490357E+02  0.13329366445E+03  0.15586926579E+03  0.00000000000E+00 0. -1.
<mgrwt>
<rscale>  0 0.86240406E+02</rscale>
<asrwt>0</asrwt>
<pdfrwt beam="2">  1        2 0.61269625E+00 0.92051445E+02</pdfrwt>
<pdfrwt beam="1">  1        4 0.14086267E+00 0.80796207E+02</pdfrwt>
<totfact> 0.11178879E-01</totfact>
</mgrwt>
</event>
<event>
13    1  0.1589573E-008  0.1700150E+03  0.7546771E-02  0.1301230E+00
          2   -1    0    0  502    0  0.00000000000E+00  0.00000000000E+00  0.14196893356E+04  0.14196893356E+04  0.00000000000E+00 0. -1.
          2   -1    0    0  503    0 -0.00000000000E+00 -0.00000000000E+00 -0.11011262073E+04  0.11011262073E+04  0.00000000000E+00 0. -1.
         24    2    1    2    0    0 -0.11265580191E+03 -0.16881987692E+02 -0.97921153901E+02  0.17023670902E+03  0.80097774650E+02 0.  0.
         25    2    1    2    0    0 -0.35844857594E+02  0.50118153693E+02  0.69136729425E+03  0.70527248259E+03  0.12499542390E+03 0.  0.
         24    2    1    2    0    0 -0.95047022341E+02  0.97426034087E+02 -0.10364359095E+03  0.18895604530E+03  0.80228576810E+02 0.  0.
        -13    1    5    5    0    0 -0.18751524124E+02 -0.13612044095E+02 -0.17636424201E+02  0.29119595807E+02  0.00000000000E+00 0.  1.
         14    1    5    5    0    0 -0.76295498218E+02  0.11103807818E+03 -0.86007166749E+02  0.15983644949E+03  0.00000000000E+00 0. -1.
        -13    1    3    3    0    0 -0.86154927006E+02  0.24795202379E+02 -0.67610775086E+02  0.11228842512E+03  0.00000000000E+00 0.  1.
         14    1    3    3    0    0 -0.26500874907E+02 -0.41677190071E+02 -0.30310378815E+02  0.57948283900E+02  0.00000000000E+00 0. -1.
          5    1    4    4  501    0  0.26864659467E+01  0.51888916832E+02  0.63304591557E+03  0.63519201665E+03  0.47000000000E+01 0. -1.
         -5    1    4    4    0  501 -0.38531323541E+02 -0.17707631391E+01  0.58321378673E+02  0.70080465939E+02  0.47000000000E+01 0. -1.
          1    1    1    2  502    0 -0.34328414037E+02  0.34059973113E+02  0.60950383845E+03  0.61141921041E+03  0.00000000000E+00 0. -1.
          1    1    1    2  503    0  0.27787609589E+03 -0.16472217320E+03 -0.78074325957E+03  0.84493109564E+03  0.00000000000E+00 0. -1.
<mgrwt>
<rscale>  0 0.90673201E+02</rscale>
<asrwt>0</asrwt>
<pdfrwt beam="1">  1        2 0.20877784E+00 0.48358265E+02</pdfrwt>
<pdfrwt beam="2">  1        2 0.16193032E+00 0.17001498E+03</pdfrwt>
<totfact> 0.72357909E+01</totfact>
</mgrwt>
</event>
<event>
13    1  0.1589573E-008  0.1827910E+03  0.7546771E-02  0.1321347E+00
          2   -1    0    0  503    0  0.00000000000E+00  0.00000000000E+00  0.13268488464E+04  0.13268488464E+04  0.00000000000E+00 0. -1.
          2   -1    0    0  502    0 -0.00000000000E+00 -0.00000000000E+00 -0.42465047278E+03  0.42465047278E+03  0.00000000000E+00 0. -1.
         24    2    1    2    0    0 -0.21296549253E+01 -0.23132111370E+03  0.37184233341E+03  0.44631765230E+03  0.86132065800E+02 0.  0.
         25    2    1    2    0    0 -0.80267876503E+02  0.42292995817E+03  0.35786956316E+03  0.57358694102E+03  0.12497469005E+03 0.  0.
         24    2    1    2    0    0 -0.82375526298E+02 -0.13375958570E+03  0.70058939051E+02  0.18913911152E+03  0.78663806591E+02 0.  0.
        -11    1    3    3    0    0  0.41451334842E+02 -0.98709827712E+02  0.17026899369E+03  0.20113024004E+03  0.00000000000E+00 0.  1.
         12    1    3    3    0    0 -0.43580989767E+02 -0.13261128599E+03  0.20157333972E+03  0.24518741225E+03  0.00000000000E+00 0. -1.
        -13    1    5    5    0    0  0.31529742866E+01 -0.51910603556E+02  0.43532264905E+02  0.67821162598E+02  0.00000000000E+00 0.  1.
         14    1    5    5    0    0 -0.85528500584E+02 -0.81848982142E+02  0.26526674147E+02  0.12131794892E+03  0.00000000000E+00 0. -1.
          5    1    4    4  501    0  0.20462821892E+02  0.12183330966E+03  0.14856392366E+03  0.19327548172E+03  0.47000000000E+01 0. -1.
         -5    1    4    4    0  501 -0.10073069840E+03  0.30109664851E+03  0.20930563951E+03  0.38031145929E+03  0.47000000000E+01 0. -1.
          1    1    1    2  502    0 -0.17799681723E+02 -0.32991380410E+02 -0.19172666844E+03  0.19535704554E+03  0.00000000000E+00 0. -1.
          1    1    1    2  503    0  0.18257273945E+03 -0.24857878360E+02  0.29415420645E+03  0.34709856882E+03  0.00000000000E+00 0. -1.
<mgrwt>
<rscale>  0 0.82778314E+02</rscale>
<asrwt>0</asrwt>
<pdfrwt beam="1">  1        2 0.19512483E+00 0.18279101E+03</pdfrwt>
<pdfrwt beam="2">  1        2 0.62448599E-01 0.37486796E+02</pdfrwt>
<totfact> 0.23159906E+02</totfact>
</mgrwt>
</event>
<event>
13    1  0.1589573E-008  0.1853385E+03  0.7546771E-02  0.1356992E+00
          2   -1    0    0  502    0  0.00000000000E+00  0.00000000000E+00  0.27844501193E+04  0.27844501193E+04  0.00000000000E+00 0. -1.
          2   -1    0    0  503    0 -0.00000000000E+00 -0.00000000000E+00 -0.15470050190E+04  0.15470050190E+04  0.00000000000E+00 0. -1.
         24    2    1    2    0    0 -0.39088476592E+02 -0.15476744586E+03 -0.14544594048E+02  0.17921174331E+03  0.80152557186E+02 0.  0.
         25    2    1    2    0    0 -0.16564448429E+03  0.45022199185E+02  0.32455813826E+03  0.38785010627E+03  0.12499850491E+03 0.  0.
         24    2    1    2    0    0  0.75815662112E+02 -0.27088357716E+02  0.48504880622E+03  0.49804553944E+03  0.79342429966E+02 0.  0.
        -11    1    5    5    0    0 -0.16761161154E+02 -0.75021494785E+01  0.73727420259E+02  0.75979939905E+02  0.00000000000E+00 0.  1.
         12    1    5    5    0    0  0.92576823266E+02 -0.19586208237E+02  0.41132138596E+03  0.42206559953E+03  0.00000000000E+00 0. -1.
        -11    1    3    3    0    0 -0.48311301239E+01 -0.78717173550E+02 -0.44538762380E+02  0.90572813715E+02  0.00000000000E+00 0.  1.
         12    1    3    3    0    0 -0.34257346468E+02 -0.76050272311E+02  0.29994168333E+02  0.88638929594E+02  0.00000000000E+00 0. -1.
          5    1    4    4  501    0 -0.82323619265E+02 -0.39446132449E+02  0.16918932618E+03  0.19230260983E+03  0.47000000000E+01 0.  1.
         -5    1    4    4    0  501 -0.83320865021E+02  0.84468331634E+02  0.15536881208E+03  0.19554749644E+03  0.47000000000E+01 0.  1.
          1    1    1    2  502    0  0.21016023475E+02 -0.17169150311E+02  0.18480045668E+04  0.18482038124E+04  0.00000000000E+00 0. -1.
          1    1    1    2  503    0  0.10790127529E+03  0.15400275470E+03 -0.14056218169E+04  0.14181439369E+04  0.00000000000E+00 0. -1.
<mgrwt>
<rscale>  0 0.70920062E+02</rscale>
<asrwt>0</asrwt>
<pdfrwt beam="1">  1        2 0.40947796E+00 0.27137667E+02</pdfrwt>
<pdfrwt beam="2">  1        2 0.22750074E+00 0.18533853E+03</pdfrwt>
<totfact> 0.10385224E+01</totfact>
</mgrwt>
</event>
<event>
13    1  0.1589573E-008  0.1351782E+03  0.7546771E-02  0.1280338E+00
          2   -1    0    0  502    0  0.00000000000E+00  0.00000000000E+00  0.11078213271E+04  0.11078213271E+04  0.00000000000E+00 0. -1.
          2   -1    0    0  503    0 -0.00000000000E+00 -0.00000000000E+00 -0.21978473124E+04  0.21978473124E+04  0.00000000000E+00 0. -1.
         24    2    1    2    0    0  0.23516387628E+03  0.40766202279E+02 -0.37321306277E+03  0.45124085527E+03  0.85827660412E+02 0.  0.
         25    2    1    2    0    0 -0.41241566764E+03 -0.12882408876E+03 -0.65511386363E+03  0.79465812411E+03  0.12500012456E+03 0.  0.
         24    2    1    2    0    0 -0.13055471629E+02  0.76548106204E+02 -0.73808639066E+02  0.13442299707E+03  0.81189710172E+02 0.  0.
        -11    1    3    3    0    0  0.12599659937E+03 -0.11406924428E+02 -0.14128249374E+03  0.18964705116E+03  0.00000000000E+00 0.  1.
         12    1    3    3    0    0  0.10916727691E+03  0.52173126707E+02 -0.23193056903E+03  0.26159380411E+03  0.00000000000E+00 0. -1.
        -13    1    5    5    0    0  0.28372693656E+02  0.52607398217E+02 -0.59839728289E+02  0.84577427096E+02  0.00000000000E+00 0.  1.
         14    1    5    5    0    0 -0.41428165285E+02  0.23940707987E+02 -0.13968910776E+02  0.49845569974E+02  0.00000000000E+00 0. -1.
          5    1    4    4  501    0 -0.34423280361E+03 -0.11620553624E+03 -0.61526719253E+03  0.71454584033E+03  0.47000000000E+01 0. -1.
         -5    1    4    4    0  501 -0.68182864025E+02 -0.12618552525E+02 -0.39846671098E+02  0.80112283778E+02  0.47000000000E+01 0. -1.
          1    1    1    2  502    0  0.59797564859E+02  0.43501179508E+02  0.96258427895E+03  0.96542042420E+03  0.00000000000E+00 0. -1.
          1    1    1    2  503    0  0.13050969813E+03 -0.31991399228E+02 -0.95047469884E+03  0.95992623886E+03  0.00000000000E+00 0. -1.
<mgrwt>
<rscale>  0 0.99979860E+02</rscale>
<asrwt>0</asrwt>
<pdfrwt beam="1">  1        2 0.16291490E+00 0.73946612E+02</pdfrwt>
<pdfrwt beam="2">  1        2 0.32321284E+00 0.13517823E+03</pdfrwt>
<totfact> 0.28755818E+01</totfact>
</mgrwt>
</event>
<event>
13    1  0.1589573E-008  0.7351179E+02  0.7546771E-02  0.1460083E+00
         -1   -1    0    0    0  501  0.00000000000E+00  0.00000000000E+00  0.18946534074E+04  0.18946534074E+04  0.00000000000E+00 0.  1.
         -1   -1    0    0    0  502 -0.00000000000E+00 -0.00000000000E+00 -0.25194642094E+03  0.25194642094E+03  0.00000000000E+00 0.  1.
         24    2    1    2    0    0 -0.44211162921E+02  0.11229818429E+03  0.82034725609E+02  0.16904195356E+03  0.85322779697E+02 0.  0.
         25    2    1    2    0    0  0.19535673549E+03  0.25667280473E+02  0.12553423366E+04  0.12768443685E+04  0.12499638417E+03 0.  0.
         24    2    1    2    0    0 -0.14755648033E+03 -0.90839923516E+02  0.11397731798E+03  0.22258821344E+03  0.80807655319E+02 0.  0.
        -13    1    3    3    0    0 -0.39515888027E+02  0.87636359982E+02  0.99581532768E+02  0.13841285586E+03  0.00000000000E+00 0.  1.
         14    1    3    3    0    0 -0.46952748934E+01  0.24661824310E+02 -0.17546807160E+02  0.30629097703E+02  0.00000000000E+00 0. -1.
        -13    1    5    5    0    0 -0.91909731123E+02 -0.95647719345E+02  0.62522541613E+02  0.14664567195E+03  0.00000000000E+00 0.  1.
         14    1    5    5    0    0 -0.55646749204E+02  0.48077958292E+01  0.51454776366E+02  0.75942541494E+02  0.00000000000E+00 0. -1.
          5    1    4    4  503    0  0.82330601378E+02  0.72734644097E+02  0.64855860768E+03  0.65781381406E+03  0.47000000000E+01 0.  1.
         -5    1    4    4    0  503  0.11302613411E+03 -0.47067363624E+02  0.60678372891E+03  0.61903055448E+03  0.47000000000E+01 0.  1.
         -2    1    1    2    0  502  0.13457923454E+02 -0.72442036362E+02 -0.13315715161E+03  0.15218341356E+03  0.00000000000E+00 0.  1.
         -2    1    1    2    0  501 -0.17047015692E+02  0.25316495113E+02  0.32450975794E+03  0.32594187928E+03  0.00000000000E+00 0.  1.
<mgrwt>
<rscale>  0 0.47367146E+02</rscale>
<asrwt>0</asrwt>
<pdfrwt beam="1">  1       -1 0.27862549E+00 0.30520905E+02</pdfrwt>
<pdfrwt beam="2">  1       -1 0.37050945E-01 0.73511794E+02</pdfrwt>
<totfact> 0.40750853E+00</totfact>
</mgrwt>
</event>
<event>
13    1  0.1589573E-008  0.5244196E+02  0.7546771E-02  0.1552599E+00
          2   -1    0    0  503    0  0.00000000000E+00  0.00000000000E+00  0.29804967063E+04  0.29804967063E+04  0.00000000000E+00 0. -1.
          2   -1    0    0  502    0 -0.00000000000E+00 -0.00000000000E+00 -0.77547843436E+03  0.77547843436E+03  0.00000000000E+00 0. -1.
         24    2    1    2    0    0  0.24140535825E+02 -0.16421120949E+03  0.42666667316E+03  0.46494801447E+03  0.81142586749E+02 0.  0.
         25    2    1    2    0    0 -0.21206136576E+03  0.21912677212E+03 -0.12895917549E+02  0.32981575379E+03  0.12500224656E+03 0.  0.
         24    2    1    2    0    0  0.14830687720E+03 -0.75519795536E+02  0.15568978460E+04  0.15677671904E+04  0.79151064786E+02 0.  0.
        -13    1    5    5    0    0  0.33241004509E+02 -0.24489800671E+02  0.74757271187E+03  0.74871201022E+03  0.00000000000E+00 0.  1.
         14    1    5    5    0    0  0.11506587269E+03 -0.51029994865E+02  0.80932513417E+03  0.81905518021E+03  0.00000000000E+00 0. -1.
        -13    1    3    3    0    0 -0.65092390074E+01 -0.25308076123E+01 -0.67546222801E+00  0.70165111593E+01  0.00000000000E+00 0.  1.
         14    1    3    3    0    0  0.30649774833E+02 -0.16168040188E+03  0.42734213539E+03  0.45793150331E+03  0.00000000000E+00 0. -1.
          5    1    4    4  501    0 -0.12782686885E+03  0.20793697128E+03 -0.31046059173E+01  0.24414999693E+03  0.47000000000E+01 0. -1.
         -5    1    4    4    0  501 -0.84234496916E+02  0.11189800843E+02 -0.97913116316E+01  0.85665756852E+02  0.47000000000E+01 0. -1.
          1    1    1    2  502    0  0.31552126705E+02  0.41896548169E+02 -0.57820083569E+03  0.58057477025E+03  0.00000000000E+00 0. -1.
          1    1    1    2  503    0  0.80618260311E+01 -0.21292315267E+02  0.81255050596E+03  0.81286941169E+03  0.00000000000E+00 0. -1.
<mgrwt>
<rscale>  0 0.34553849E+02</rscale>
<asrwt>0</asrwt>
<pdfrwt beam="1">  1        2 0.43830834E+00 0.22767427E+02</pdfrwt>
<pdfrwt beam="2">  1        2 0.11404095E+00 0.52441961E+02</pdfrwt>
<totfact> 0.24519458E+01</totfact>
</mgrwt>
</event>
<event>
13    1  0.1589573E-008  0.3755759E+02  0.7546771E-02  0.1529306E+00
          2   -1    0    0  502    0  0.00000000000E+00  0.00000000000E+00  0.51617598874E+03  0.51617598874E+03  0.00000000000E+00 0. -1.
          2   -1    0    0  503    0 -0.00000000000E+00 -0.00000000000E+00 -0.13935828972E+04  0.13935828972E+04  0.00000000000E+00 0. -1.
         24    2    1    2    0    0  0.60569738179E+02  0.90489059447E+01 -0.90290076953E+02  0.13507911119E+03  0.79646044489E+02 0.  0.
         25    2    1    2    0    0  0.13328309846E+02  0.53805370657E+02  0.15284052729E+03  0.20508668272E+03  0.12501063511E+03 0.  0.
         24    2    1    2    0    0 -0.96988483161E+02 -0.94019221824E+02  0.14946645491E+03  0.21693347879E+03  0.80458269548E+02 0.  0.
        -11    1    5    5    0    0  0.71744190318E+01 -0.20581643605E+01 -0.51408514407E+01  0.90629290251E+01  0.00000000000E+00 0.  1.
         12    1    5    5    0    0 -0.10416290219E+03 -0.91961057464E+02  0.15460730635E+03  0.20787054976E+03  0.00000000000E+00 0. -1.
        -13    1    3    3    0    0 -0.59461782405E+01 -0.24602249453E+02 -0.16654266313E+02  0.30298387750E+02  0.00000000000E+00 0.  1.
         14    1    3    3    0    0  0.66515916419E+02  0.33651155398E+02 -0.73635810640E+02  0.10478072344E+03  0.00000000000E+00 0. -1.
          5    1    4    4  501    0 -0.73048556201E+01  0.92319563209E+02  0.10687724153E+03  0.14149592723E+03  0.47000000000E+01 0. -1.
         -5    1    4    4    0  501  0.20633165466E+02 -0.38514192552E+02  0.45963285766E+02  0.63590755488E+02  0.47000000000E+01 0. -1.
          1    1    1    2  502    0  0.36790291855E+02 -0.38185615403E+01  0.12872391571E+03  0.13393264525E+03  0.00000000000E+00 0. -1.
          1    1    1    2  503    0 -0.13699856719E+02  0.34983506763E+02 -0.12181477294E+04  0.12187269680E+04  0.00000000000E+00 0. -1.
<mgrwt>
<rscale>  0 0.37271674E+02</rscale>
<asrwt>0</asrwt>
<pdfrwt beam="1">  1        2 0.75908234E-01 0.36987930E+02</pdfrwt>
<pdfrwt beam="2">  1        2 0.20493866E+00 0.37557595E+02</pdfrwt>
<totfact> 0.19635156E+02</totfact>
</mgrwt>
</event>
<event>
13    1  0.1589573E-008  0.1295164E+03  0.7546771E-02  0.1249584E+00
          2   -1    0    0  503    0  0.00000000000E+00  0.00000000000E+00  0.12223604724E+04  0.12223604724E+04  0.00000000000E+00 0. -1.
          2   -1    0    0  502    0 -0.00000000000E+00 -0.00000000000E+00 -0.89509813349E+03  0.89509813349E+03  0.00000000000E+00 0. -1.
         24    2    1    2    0    0 -0.24065525666E+02  0.22980342227E+01 -0.28228377592E+03  0.29456950276E+03  0.80638894597E+02 0.  0.
         25    2    1    2    0    0  0.71581966934E+02 -0.25374940322E+03  0.47290860433E+03  0.55568029086E+03  0.12500119987E+03 0.  0.
         24    2    1    2    0    0  0.40988204807E+02 -0.12056038008E+02  0.85460102224E+02  0.12498833758E+03  0.80580856747E+02 0.  0.
        -11    1    3    3    0    0 -0.52485833709E+02 -0.56832793266E+00 -0.21791632244E+03  0.22414863221E+03  0.00000000000E+00 0.  1.
         12    1    3    3    0    0  0.28420308042E+02  0.28663621554E+01 -0.64367453477E+02  0.70420870545E+02  0.00000000000E+00 0. -1.
        -13    1    5    5    0    0  0.33526835004E+02  0.31491504839E+02  0.34220403264E+02  0.57330616096E+02  0.00000000000E+00 0.  1.
         14    1    5    5    0    0  0.74613698029E+01 -0.43547542847E+02  0.51239698960E+02  0.67657721488E+02  0.00000000000E+00 0. -1.
          5    1    4    4  501    0  0.60489398898E+02 -0.10092828000E+03  0.10761842812E+03  0.15952837100E+03  0.47000000000E+01 0.  1.
         -5    1    4    4    0  501  0.11092568035E+02 -0.15282112322E+03  0.36529017621E+03  0.39615191986E+03  0.47000000000E+01 0.  1.
          1    1    1    2  502    0 -0.21584374250E+02  0.11986196186E+03 -0.52794368934E+03  0.54180929692E+03  0.00000000000E+00 0. -1.
          1    1    1    2  503    0 -0.66920271824E+02  0.14364544515E+03  0.57912109766E+03  0.60041117782E+03  0.00000000000E+00 0. -1.
<mgrwt>
<rscale>  0 0.11615164E+03</rscale>
<asrwt>0</asrwt>
<pdfrwt beam="1">  1        2 0.17975889E+00 0.12951639E+03</pdfrwt>
<pdfrwt beam="2">  1        2 0.13163208E+00 0.10416600E+03</pdfrwt>
<totfact> 0.11500084E+02</totfact>
</mgrwt>
</event>
<event>
13    1  0.1589573E-008  0.1362857E+03  0.7546771E-02  0.1317565E+00
          2   -1    0    0  503    0  0.00000000000E+00  0.00000000000E+00  0.44015339075E+03  0.44015339075E+03  0.00000000000E+00 0. -1.
          2   -1    0    0  502    0 -0.00000000000E+00 -0.00000000000E+00 -0.17452566661E+04  0.17452566661E+04  0.00000000000E+00 0. -1.
         24    2    1    2    0    0 -0.78080874672E+02 -0.28733862111E+02 -0.88695538119E+03  0.89427129032E+03  0.78160313724E+02 0.  0.
         25    2    1    2    0    0  0.55391606344E+02  0.42206095701E+02 -0.21640191226E+02  0.14472831400E+03  0.12501360897E+03 0.  0.
         24    2    1    2    0    0  0.11614840913E+03 -0.47236186672E+02 -0.14274121993E+02  0.14929841785E+03  0.79778172082E+02 0.  0.
        -11    1    5    5    0    0  0.76018048770E+01 -0.37932846289E+02 -0.11338203023E+02  0.40314304072E+02  0.00000000000E+00 0.  1.
         12    1    5    5    0    0  0.10854660425E+03 -0.93033403822E+01 -0.29359189693E+01  0.10898411378E+03  0.00000000000E+00 0. -1.
        -13    1    3    3    0    0 -0.90799754462E+02 -0.22934660536E+02 -0.62859795531E+03  0.63553598126E+03  0.00000000000E+00 0.  1.
         14    1    3    3    0    0  0.12718879790E+02 -0.57992015741E+01 -0.25835742589E+03  0.25873530906E+03  0.00000000000E+00 0. -1.
          5    1    4    4  501    0 -0.38708454267E+00 -0.22902514920E+02 -0.49263404921E+02  0.54531166212E+02  0.47000000000E+01 0.  1.
         -5    1    4    4    0  501  0.55778690887E+02  0.65108610620E+02  0.27623213695E+02  0.90197147787E+02  0.47000000000E+01 0.  1.
          1    1    1    2  502    0  0.18537278246E+02 -0.48592141029E+02 -0.67290285906E+03  0.67490968624E+03  0.00000000000E+00 0. -1.
          1    1    1    2  503    0 -0.11199641904E+03  0.82356094111E+02  0.29066927810E+03  0.32220234845E+03  0.00000000000E+00 0. -1.
<mgrwt>
<rscale>  0 0.84189890E+02</rscale>
<asrwt>0</asrwt>
<pdfrwt beam="1">  1        2 0.64728440E-01 0.13628565E+03</pdfrwt>
<pdfrwt beam="2">  1        2 0.25665539E+00 0.52007950E+02</pdfrwt>
<totfact> 0.15240922E+02</totfact>
</mgrwt>
</event>
<event>
13    1  0.1589573E-008  0.9062054E+02  0.7546771E-02  0.1323781E+00
         -1   -1    0    0    0  501 -0.00000000000E+00  0.00000000000E+00  0.27461733693E+03  0.27461733693E+03  0.00000000000E+00 0.  1.
          2   -1    0    0  503    0  0.00000000000E+00 -0.00000000000E+00 -0.31332843491E+04  0.31332843491E+04  0.00000000000E+00 0. -1.
         24    2    1    2    0    0  0.15818374216E+02 -0.48063164241E+02 -0.49453370226E+02  0.10710206336E+03  0.80404772435E+02 0.  0.
         25    2    1    2    0    0  0.39930893607E+02  0.37348853953E+02 -0.96372199317E+03  0.97333343029E+03  0.12501389221E+03 0.  0.
         24    2    1    2    0    0 -0.10635524112E+03 -0.12906348989E+03 -0.80637771727E+02  0.20224211878E+03  0.80191038405E+02 0.  0.
        -11    1    5    5    0    0 -0.11166867790E+03 -0.11542164287E+03 -0.90734341342E+02  0.18445804391E+03  0.00000000000E+00 0.  1.
         12    1    5    5    0    0  0.53134367782E+01 -0.13641847028E+02  0.10096569615E+02  0.17784074863E+02  0.00000000000E+00 0. -1.
        -13    1    3    3    0    0  0.36271389953E+00 -0.36313042101E+02  0.15370079493E+02  0.39433588875E+02  0.00000000000E+00 0.  1.
         14    1    3    3    0    0  0.15455660316E+02 -0.11750122140E+02 -0.64823449719E+02  0.67668474488E+02  0.00000000000E+00 0. -1.
          5    1    4    4  502    0  0.94274281103E+01 -0.27354978013E+02 -0.68212966354E+03  0.68275921019E+03  0.47000000000E+01 0. -1.
         -5    1    4    4    0  502  0.30503465497E+02  0.64703831965E+02 -0.28159232964E+03  0.29057422010E+03  0.47000000000E+01 0. -1.
          1    1    1    2  503    0  0.54816825155E+02  0.49701842057E+02 -0.19330046008E+04  0.19344203121E+04  0.00000000000E+00 0. -1.
         -2    1    1    2    0  501 -0.42108518576E+01  0.90075958124E+02  0.16815072371E+03  0.19080376147E+03  0.00000000000E+00 0.  1.
<mgrwt>
<rscale>  0 0.81886532E+02</rscale>
<asrwt>0</asrwt>
<pdfrwt beam="2">  1        2 0.46077709E+00 0.73994307E+02</pdfrwt>
<pdfrwt beam="1">  1       -1 0.40384904E-01 0.90620541E+02</pdfrwt>
<totfact> 0.17930762E+01</totfact>
</mgrwt>
</event>
<event>
13    1  0.1589573E-008  0.1221853E+03  0.7546771E-02  0.1368576E+00
          2   -1    0    0  503    0  0.00000000000E+00  0.00000000000E+00  0.23177605608E+04  0.23177605608E+04  0.00000000000E+00 0. -1.
          2   -1    0    0  502    0 -0.00000000000E+00 -0.00000000000E+00 -0.10799977879E+04  0.10799977879E+04  0.00000000000E+00 0. -1.
         24    2    1    2    0    0 -0.98179137943E+02 -0.67126023961E+02 -0.16313438977E+03  0.21575045809E+03  0.76094578135E+02 0.  0.
         25    2    1    2    0    0 -0.28295190081E+02 -0.54051480880E+02 -0.77822288737E+02  0.15938630601E+03  0.12500202219E+03 0.  0.
         24    2    1    2    0    0  0.15848160383E+03  0.35360601112E+02  0.65827202071E+03  0.68277362510E+03  0.80566612282E+02 0.  0.
        -11    1    3    3    0    0 -0.19179002482E+02  0.13387650512E+02 -0.97137301116E+01  0.25326268480E+02  0.00000000000E+00 0.  1.
         12    1    3    3    0    0 -0.79000135461E+02 -0.80513674472E+02 -0.15342065965E+03  0.19042418961E+03  0.00000000000E+00 0. -1.
        -11    1    5    5    0    0  0.40937873100E+02  0.47182218834E+02  0.20064315454E+03  0.21014220588E+03  0.00000000000E+00 0.  1.
         12    1    5    5    0    0  0.11754373073E+03 -0.11821617722E+02  0.45762886617E+03  0.47263141922E+03  0.00000000000E+00 0. -1.
          5    1    4    4  501    0  0.76356428400E+01  0.10089725101E+02 -0.84354558154E+02  0.85427671603E+02  0.47000000000E+01 0.  1.
         -5    1    4    4    0  501 -0.35930832921E+02 -0.64141205982E+02  0.65322694165E+01  0.73958634404E+02  0.47000000000E+01 0.  1.
          1    1    1    2  502    0 -0.64697160573E+02  0.10390632688E+03 -0.75454697691E+03  0.76441048378E+03  0.00000000000E+00 0. -1.
          1    1    1    2  503    0  0.32689884765E+02 -0.18089423153E+02  0.15749944076E+04  0.15754374757E+04  0.00000000000E+00 0. -1.
<mgrwt>
<rscale>  0 0.67564664E+02</rscale>
<asrwt>0</asrwt>
<pdfrwt beam="1">  1        2 0.34084714E+00 0.37361154E+02</pdfrwt>
<pdfrwt beam="2">  1        2 0.15882320E+00 0.12218530E+03</pdfrwt>
<totfact> 0.29735692E+01</totfact>
</mgrwt>
</event>
<event>
13    1  0.1589573E-008  0.1014020E+03  0.7546771E-02  0.1308736E+00
          2   -1    0    0  502    0  0.00000000000E+00  0.00000000000E+00  0.95874153922E+03  0.95874153922E+03  0.00000000000E+00 0. -1.
          2   -1    0    0  503    0 -0.00000000000E+00 -0.00000000000E+00 -0.15466446397E+04  0.15466446397E+04  0.00000000000E+00 0. -1.
         24    2    1    2    0    0  0.24364242491E+02  0.18265224738E+02 -0.26389236552E+03  0.27808689515E+03  0.82255127059E+02 0.  0.
         25    2    1    2    0    0  0.56321665153E+02 -0.35070642205E+02 -0.17003102356E+03  0.22120519853E+03  0.12497644167E+03 0.  0.
         24    2    1    2    0    0 -0.18007136965E+02 -0.15243597883E+02  0.12438091202E+03  0.15029259570E+03  0.80997708546E+02 0.  0.
        -11    1    3    3    0    0  0.88414840963E+01  0.36464584126E+02 -0.24430712340E+03  0.24717161706E+03  0.00000000000E+00 0.  1.
         12    1    3    3    0    0  0.15522758395E+02 -0.18199359388E+02 -0.19585242115E+02  0.30915278084E+02  0.00000000000E+00 0. -1.
        -13    1    5    5    0    0 -0.10756997073E+02  0.32624272602E+02  0.37667411087E+02  0.50979309595E+02  0.00000000000E+00 0.  1.
         14    1    5    5    0    0 -0.72501398921E+01 -0.47867870485E+02  0.86713500934E+02  0.99313286107E+02  0.00000000000E+00 0. -1.
          5    1    4    4  501    0  0.13240595961E+02 -0.74696957200E+02 -0.12844587170E+03  0.14924939113E+03  0.47000000000E+01 0. -1.
         -5    1    4    4    0  501  0.43081069192E+02  0.39626314995E+02 -0.41585151856E+02  0.71955807393E+02  0.47000000000E+01 0. -1.
          1    1    1    2  502    0  0.31584200659E+02 -0.68796394238E+02  0.78242167400E+03  0.78607517550E+03  0.00000000000E+00 0. -1.
          1    1    1    2  503    0 -0.94262971338E+02  0.10084540959E+03 -0.10607822974E+04  0.10697263140E+04  0.00000000000E+00 0. -1.
<mgrwt>
<rscale>  0 0.87613610E+02</rscale>
<asrwt>0</asrwt>
<pdfrwt beam="1">  1        2 0.14099141E+00 0.75700103E+02</pdfrwt>
<pdfrwt beam="2">  1        2 0.22744774E+00 0.10140204E+03</pdfrwt>
<totfact> 0.74270362E+01</totfact>
</mgrwt>
</event>
<event>
13    1  0.1589573E-008  0.1344488E+03  0.7546771E-02  0.1294638E+00
          2   -1    0    0  502    0  0.00000000000E+00  0.00000000000E+00  0.34853893029E+04  0.34853893029E+04  0.00000000000E+00 0. -1.
          2   -1    0    0  503    0 -0.00000000000E+00 -0.00000000000E+00 -0.10529974312E+04  0.10529974312E+04  0.00000000000E+00 0. -1.
         24    2    1    2    0    0  0.73501816539E+02 -0.15966460784E+03 -0.41185166439E+03  0.45520512025E+03  0.81820559818E+02 0.  0.
         25    2    1    2    0    0 -0.18149882992E+03  0.38125495502E+03  0.64710120215E+03  0.78272778536E+03  0.12500261659E+03 0.  0.
         24    2    1    2    0    0 -0.48270205322E+02  0.16872666206E+02 -0.19605183878E+02  0.87890970766E+02  0.68744162810E+02 0.  0.
        -13    1    5    5    0    0  0.58666455993E+01 -0.12334263865E+02  0.12490198309E+02  0.18508285968E+02  0.00000000000E+00 0.  1.
         14    1    5    5    0    0 -0.54136850922E+02  0.29206930071E+02 -0.32095382188E+02  0.69382684797E+02  0.00000000000E+00 0. -1.
        -13    1    3    3    0    0  0.21973422859E+02 -0.13518351388E+02 -0.13939329975E+03  0.14176060507E+03  0.00000000000E+00 0.  1.
         14    1    3    3    0    0  0.51528393680E+02 -0.14614625645E+03 -0.27245836465E+03  0.31344451518E+03  0.00000000000E+00 0. -1.
          5    1    4    4  501    0 -0.14421152615E+02 -0.68873465898E+01  0.36794718793E+02  0.40389930884E+02  0.47000000000E+01 0. -1.
         -5    1    4    4    0  501 -0.16707767730E+03  0.38814230161E+03  0.61030648336E+03  0.74233785447E+03  0.47000000000E+01 0. -1.
          1    1    1    2  502    0  0.45904606178E+02 -0.46011362821E+02  0.26895309005E+04  0.26903161047E+04  0.00000000000E+00 0. -1.
          1    1    1    2  503    0  0.11036261252E+03 -0.19245165057E+03 -0.47278338276E+03  0.52224675305E+03  0.00000000000E+00 0. -1.
<mgrwt>
<rscale>  0 0.93479561E+02</rscale>
<asrwt>0</asrwt>
<pdfrwt beam="1">  1        2 0.51255725E+00 0.64994449E+02</pdfrwt>
<pdfrwt beam="2">  1        2 0.15485256E+00 0.13444884E+03</pdfrwt>
<totfact> 0.70561490E+00</totfact>
</mgrwt>
</event>
<event>
13    1  0.1589573E-008  0.5900041E+02  0.7546771E-02  0.1415973E+00
          2   -1    0    0  503    0  0.00000000000E+00  0.00000000000E+00  0.66951559455E+03  0.66951559455E+03  0.00000000000E+00 0. -1.
          2   -1    0    0  502    0 -0.00000000000E+00 -0.00000000000E+00 -0.15336799473E+04  0.15336799473E+04  0.00000000000E+00 0. -1.
         24    2    1    2    0    0  0.23621364309E+02 -0.36245699029E+02  0.68173401259E+02  0.11429864314E+03  0.80900232593E+02 0.  0.
         25    2    1    2    0    0  0.57755095555E+02  0.12777055233E+03  0.25831872686E+03  0.31939890058E+03  0.12500451168E+03 0.  0.
         24    2    1    2    0    0 -0.37296768387E+01 -0.25782025241E+02 -0.79833100413E+02  0.11694500451E+03  0.81389107641E+02 0.  0.
        -11    1    5    5    0    0  0.82225374943E+01 -0.95272675528E+01  0.15234347360E+02  0.19760169264E+02  0.00000000000E+00 0.  1.
         12    1    5    5    0    0 -0.11952214333E+02 -0.16254757688E+02 -0.95067447773E+02  0.97184835242E+02  0.00000000000E+00 0. -1.
        -13    1    3    3    0    0  0.24008195461E+02 -0.60858110283E+02  0.58785955853E+02  0.87953917719E+02  0.00000000000E+00 0.  1.
         14    1    3    3    0    0 -0.38683115250E+00  0.24612411254E+02  0.93874454054E+01  0.26344725417E+02  0.00000000000E+00 0. -1.
          5    1    4    4  501    0 -0.95737101584E+01  0.10393743722E+02 -0.10626042184E+02  0.18294496638E+02  0.47000000000E+01 0. -1.
         -5    1    4    4    0  501  0.67328805713E+02  0.11737680861E+03  0.26894476904E+03  0.30110440394E+03  0.47000000000E+01 0. -1.
          1    1    1    2  502    0 -0.22111645443E+02 -0.48088708374E+02 -0.13780400156E+04  0.13790561024E+04  0.00000000000E+00 0. -1.
          1    1    1    2  503    0 -0.55535137583E+02 -0.17654119684E+02  0.26721663516E+03  0.27349689131E+03  0.00000000000E+00 0. -1.
<mgrwt>
<rscale>  0 0.55882161E+02</rscale>
<asrwt>0</asrwt>
<pdfrwt beam="1">  1        2 0.98458177E-01 0.59000412E+02</pdfrwt>
<pdfrwt beam="2">  1        2 0.22554117E+00 0.52928714E+02</pdfrwt>
<totfact> 0.12287538E+02</totfact>
</mgrwt>
</event>
<event>
13    1  0.1589573E-008  0.5580474E+02  0.7546771E-02  0.1557229E+00
          2   -1    0    0  502    0  0.00000000000E+00  0.00000000000E+00  0.23178696203E+04  0.23178696203E+04  0.00000000000E+00 0. -1.
          2   -1    0    0  503    0 -0.00000000000E+00 -0.00000000000E+00 -0.22521482885E+04  0.22521482885E+04  0.00000000000E+00 0. -1.
         24    2    1    2    0    0 -0.78578896866E+03 -0.58234610878E+03 -0.88723523589E+03  0.13223012733E+04  0.68578421714E+02 0.  0.
         25    2    1    2    0    0  0.95628045669E+03  0.14661089797E+03  0.93482333403E+03  0.13511057659E+04  0.12500023044E+03 0.  0.
         24    2    1    2    0    0 -0.24317986097E+03  0.41845876314E+03  0.43103856753E+02  0.49266055649E+03  0.81316051432E+02 0.  0.
        -13    1    5    5    0    0 -0.42416806476E+02  0.41202533177E+02 -0.15955652320E+02  0.61248812665E+02  0.00000000000E+00 0.  1.
         14    1    5    5    0    0 -0.20076305450E+03  0.37725622996E+03  0.59059509073E+02  0.43141174382E+03  0.00000000000E+00 0. -1.
        -13    1    3    3    0    0 -0.30658757078E+03 -0.19709218539E+03 -0.29990090989E+03  0.47199769476E+03  0.00000000000E+00 0.  1.
         14    1    3    3    0    0 -0.47920139788E+03 -0.38525392338E+03 -0.58733432600E+03  0.85030357856E+03  0.00000000000E+00 0. -1.
          5    1    4    4  501    0  0.14232189357E+03 -0.21114452602E+02  0.15316211222E+03  0.21019529994E+03  0.47000000000E+01 0.  1.
         -5    1    4    4    0  501  0.81395856311E+03  0.16772535057E+03  0.78166122181E+03  0.11409104660E+04  0.47000000000E+01 0.  1.
          1    1    1    2  502    0  0.20595953303E+02 -0.27031860402E+01  0.68824368641E+03  0.68855709451E+03  0.00000000000E+00 0. -1.
          1    1    1    2  503    0  0.52092419641E+02  0.19979633703E+02 -0.71321430949E+03  0.71539321860E+03  0.00000000000E+00 0. -1.
<mgrwt>
<rscale>  0 0.34047157E+02</rscale>
<asrwt>0</asrwt>
<pdfrwt beam="1">  1        2 0.34086318E+00 0.20772590E+02</pdfrwt>
<pdfrwt beam="2">  1        2 0.33119828E+00 0.55804736E+02</pdfrwt>
<totfact> 0.91663965E+00</totfact>
</mgrwt>
</event>
<event>
13    1  0.1589573E-008  0.2114505E+02  0.7546771E-02  0.1727426E+00
          2   -1    0    0  503    0  0.00000000000E+00  0.00000000000E+00  0.77638270287E+03  0.77638270287E+03  0.00000000000E+00 0. -1.
          2   -1    0    0  502    0 -0.00000000000E+00 -0.00000000000E+00 -0.84954525390E+03  0.84954525390E+03  0.00000000000E+00 0. -1.
         24    2    1    2    0    0 -0.11793595086E+03  0.21271327972E+03 -0.19419722881E+03  0.32038119516E+03  0.75998149064E+02 0.  0.
         25    2    1    2    0    0 -0.63923910487E+02 -0.15838354700E+03  0.18927010911E+03  0.28393623937E+03  0.12499999814E+03 0.  0.
         24    2    1    2    0    0  0.17413437979E+03 -0.37362343218E+02  0.26629915925E+03  0.33007677267E+03  0.79477712154E+02 0.  0.
        -11    1    5    5    0    0  0.20977640611E+02 -0.66223174952E+01  0.98063996530E+02  0.10050106422E+03  0.00000000000E+00 0.  1.
         12    1    5    5    0    0  0.15315673918E+03 -0.30740025723E+02  0.16823516272E+03  0.22957570845E+03  0.00000000000E+00 0. -1.
        -11    1    3    3    0    0 -0.12204884327E+03  0.16642509355E+03 -0.17302162831E+03  0.26931341550E+03  0.00000000000E+00 0.  1.
         12    1    3    3    0    0  0.41128924092E+01  0.46288186167E+02 -0.21175600502E+02  0.51067779658E+02  0.00000000000E+00 0. -1.
          5    1    4    4  501    0 -0.23621145542E+02  0.14183622893E+02  0.54505292236E+02  0.61253984008E+02  0.47000000000E+01 0.  1.
         -5    1    4    4    0  501 -0.40302764945E+02 -0.17256716989E+03  0.13476481687E+03  0.22268225536E+03  0.47000000000E+01 0.  1.
          1    1    1    2  502    0  0.21117847801E+02 -0.11587229484E+01 -0.51221398808E+03  0.51265044204E+03  0.00000000000E+00 0. -1.
          1    1    1    2  503    0 -0.13392366239E+02 -0.15808666555E+02  0.17767939751E+03  0.17888330753E+03  0.00000000000E+00 0. -1.
<mgrwt>
<rscale>  0 0.20930849E+02</rscale>
<asrwt>0</asrwt>
<pdfrwt beam="1">  1        2 0.11417393E+00 0.20718818E+02</pdfrwt>
<pdfrwt beam="2">  1        2 0.12493312E+00 0.21145051E+02</pdfrwt>
<totfact> 0.25432570E+02</totfact>
</mgrwt>
</event>
<event>
13    1  0.1589573E-008  0.1204616E+03  0.7546771E-02  0.1268785E+00
          2   -1    0    0  503    0  0.00000000000E+00  0.00000000000E+00  0.36965965267E+04  0.36965965267E+04  0.00000000000E+00 0. -1.
         -1   -1    0    0    0  501 -0.00000000000E+00 -0.00000000000E+00 -0.34616202552E+03  0.34616202552E+03  0.00000000000E+00 0.  1.
         24    2    1    2    0    0  0.99452724670E+02 -0.66617452917E+02  0.24936344153E+03  0.29060818629E+03  0.89119372125E+02 0.  0.
         25    2    1    2    0    0 -0.87783787350E+02 -0.24458735093E+02  0.15722608066E+04  0.15798520990E+04  0.12499755058E+03 0.  0.
         24    2    1    2    0    0 -0.83802164969E+02  0.58792146501E+02 -0.99632788148E+01  0.13027686143E+03  0.79959204327E+02 0.  0.
        -11    1    3    3    0    0  0.86633070670E+02 -0.62001422802E+01  0.15857687507E+03  0.18080474553E+03  0.00000000000E+00 0.  1.
         12    1    3    3    0    0  0.12819654000E+02 -0.60417310636E+02  0.90786566460E+02  0.10980344076E+03  0.00000000000E+00 0. -1.
        -13    1    5    5    0    0 -0.29133368419E+02  0.68013251098E+02 -0.11135291916E+02  0.74823460267E+02  0.00000000000E+00 0.  1.
         14    1    5    5    0    0 -0.54668796550E+02 -0.92211045970E+01  0.11720131011E+01  0.55453401166E+02  0.00000000000E+00 0. -1.
          5    1    4    4  502    0 -0.11752034152E+03 -0.20640920057E+02  0.10625766116E+04  0.10692652729E+04  0.47000000000E+01 0. -1.
         -5    1    4    4    0  502  0.29736554172E+02 -0.38178150360E+01  0.50968419500E+03  0.51058682611E+03  0.47000000000E+01 0. -1.
          1    1    1    2  503    0  0.14722489174E+03 -0.22093980373E+02  0.17786405820E+04  0.17848601157E+04  0.00000000000E+00 0. -1.
         -2    1    1    2    0  501 -0.75091664091E+02  0.54378021882E+02 -0.23986705009E+03  0.25716128986E+03  0.00000000000E+00 0.  1.
<mgrwt>
<rscale>  0 0.10568054E+03</rscale>
<asrwt>0</asrwt>
<pdfrwt beam="1">  1        2 0.54361711E+00 0.12046163E+03</pdfrwt>
<pdfrwt beam="2">  1       -1 0.50906182E-01 0.92713145E+02</pdfrwt>
<totfact> 0.51577697E+00</totfact>
</mgrwt>
</event>
<event>
13    1  0.1589573E-008  0.8347966E+02  0.7546771E-02  0.1406908E+00
          2   -1    0    0  503    0  0.00000000000E+00  0.00000000000E+00  0.94820242855E+03  0.94820242855E+03  0.00000000000E+00 0. -1.
          2   -1    0    0  502    0 -0.00000000000E+00 -0.00000000000E+00 -0.14369155086E+04  0.14369155086E+04  0.00000000000E+00 0. -1.
         24    2    1    2    0    0 -0.31672584502E+02 -0.46825772333E+02 -0.25923549449E+03  0.27747189752E+03  0.81189942383E+02 0.  0.
         25    2    1    2    0    0  0.10374041958E+03 -0.92545951859E+02  0.29788506870E+03  0.35168422073E+03  0.12497779442E+03 0.  0.
         24    2    1    2    0    0 -0.32663992260E+02  0.78860577491E+02 -0.32736193392E+03  0.34986063093E+03  0.89166687834E+02 0.  0.
        -11    1    3    3    0    0 -0.37024989742E+01 -0.15490162535E+02 -0.11250813907E+01  0.15966196859E+02  0.00000000000E+00 0.  1.
         12    1    3    3    0    0 -0.27970085527E+02 -0.31335609798E+02 -0.25811041310E+03  0.26150570066E+03  0.00000000000E+00 0. -1.
        -13    1    5    5    0    0 -0.17244520556E+02  0.20160373626E+02 -0.12724691370E+02  0.29423322797E+02  0.00000000000E+00 0.  1.
         14    1    5    5    0    0 -0.15419471704E+02  0.58700203865E+02 -0.31463724255E+03  0.32043730813E+03  0.00000000000E+00 0. -1.
          5    1    4    4  501    0 -0.21997647733E+02 -0.45950619973E+02  0.62785625214E+02  0.80990621156E+02  0.47000000000E+01 0. -1.
         -5    1    4    4    0  501  0.12573806731E+03 -0.46595331886E+02  0.23509944348E+03  0.27069359957E+03  0.47000000000E+01 0. -1.
          1    1    1    2  502    0 -0.73651047589E+02  0.39567066786E+02 -0.80020255630E+03  0.80455836376E+03  0.00000000000E+00 0. -1.
          1    1    1    2  503    0  0.34247204773E+02  0.20944079915E+02  0.60020183595E+03  0.60154282424E+03  0.00000000000E+00 0. -1.
<mgrwt>
<rscale>  0 0.57889477E+02</rscale>
<asrwt>0</asrwt>
<pdfrwt beam="1">  1        2 0.13944154E+00 0.40143810E+02</pdfrwt>
<pdfrwt beam="2">  1        2 0.21131110E+00 0.83479657E+02</pdfrwt>
<totfact> 0.89196340E+01</totfact>
</mgrwt>
</event>
<event>
13    1  0.1589573E-008  0.2007472E+03  0.7546771E-02  0.1165404E+00
          2   -1    0    0  503    0  0.00000000000E+00  0.00000000000E+00  0.25984695110E+04  0.25984695110E+04  0.00000000000E+00 0. -1.
         -1   -1    0    0    0  501 -0.00000000000E+00 -0.00000000000E+00 -0.14395152154E+04  0.14395152154E+04  0.00000000000E+00 0.  1.
         24    2    1    2    0    0  0.96054978489E+02  0.37109913116E+01  0.58445081540E+02  0.13822434233E+03  0.80310714774E+02 0.  0.
         25    2    1    2    0    0  0.44280062527E+03 -0.85784271739E+02  0.39163505653E+03  0.61027425437E+03  0.12500125210E+03 0.  0.
         24    2    1    2    0    0  0.88568469945E+02  0.22259479762E+02  0.41164703797E+02  0.12814968604E+03  0.79924657556E+02 0.  0.
        -11    1    3    3    0    0  0.66641072729E+02 -0.19313406224E+02  0.70556841893E+02  0.98956092144E+02  0.00000000000E+00 0.  1.
         12    1    3    3    0    0  0.29413905760E+02  0.23024397535E+02 -0.12111760353E+02  0.39268250188E+02  0.00000000000E+00 0. -1.
        -11    1    5    5    0    0 -0.77275314742E+01 -0.10335715737E+02 -0.80404448599E+01  0.15204950379E+02  0.00000000000E+00 0.  1.
         12    1    5    5    0    0  0.96296001419E+02  0.32595195499E+02  0.49205148657E+02  0.11294473566E+03  0.00000000000E+00 0. -1.
          5    1    4    4  502    0  0.18817301498E+02 -0.10175774607E+02 -0.74185173398E+01  0.23124913493E+02  0.47000000000E+01 0. -1.
         -5    1    4    4    0  502  0.42398332377E+03 -0.75608497132E+02  0.39905357387E+03  0.58714934088E+03  0.47000000000E+01 0. -1.
          1    1    1    2  503    0 -0.28881724429E+03 -0.74225186199E+02  0.18759003688E+04  0.18994543881E+04  0.00000000000E+00 0. -1.
         -2    1    1    2    0  501 -0.33860682942E+03  0.13403898686E+03 -0.12081909151E+04  0.12618820556E+04  0.00000000000E+00 0.  1.
<mgrwt>
<rscale>  0 0.18250105E+03</rscale>
<asrwt>0</asrwt>
<pdfrwt beam="1">  1        2 0.38212787E+00 0.16591328E+03</pdfrwt>
<pdfrwt beam="2">  1       -1 0.21169341E+00 0.20074723E+03</pdfrwt>
<totfact> 0.72447999E-01</totfact>
</mgrwt>
</event>
<event>
13    1  0.1589573E-008  0.5801911E+02  0.7546771E-02  0.1441785E+00
          2   -1    0    0  503    0  0.00000000000E+00  0.00000000000E+00  0.13713264045E+04  0.13713264045E+04  0.00000000000E+00 0. -1.
          2   -1    0    0  502    0 -0.00000000000E+00 -0.00000000000E+00 -0.15521656292E+04  0.15521656292E+04  0.00000000000E+00 0. -1.
         24    2    1    2    0    0 -0.74184435054E+03 -0.73794618659E+02 -0.94790263158E+03  0.12084277847E+04  0.77457250301E+02 0.  0.
         25    2    1    2    0    0  0.36290389739E+03  0.10181810371E+03  0.55061460651E+03  0.67887234826E+03  0.12500022138E+03 0.  0.
         24    2    1    2    0    0  0.38040070510E+03 -0.12951211055E+03 -0.27785608566E+02  0.40869300538E+03  0.69136454814E+02 0.  0.
        -11    1    3    3    0    0 -0.14345917216E+03 -0.19143834715E+02 -0.23593946169E+03  0.27679315394E+03  0.00000000000E+00 0.  1.
         12    1    3    3    0    0 -0.59838517838E+03 -0.54650783944E+02 -0.71196316989E+03  0.93163463073E+03  0.00000000000E+00 0. -1.
        -13    1    5    5    0    0  0.95157933915E+02 -0.65001856099E+02 -0.46798445752E+01  0.11533505377E+03  0.00000000000E+00 0.  1.
         14    1    5    5    0    0  0.28524277118E+03 -0.64510254448E+02 -0.23105763991E+02  0.29335795161E+03  0.00000000000E+00 0. -1.
          5    1    4    4  501    0  0.32289285297E+03  0.12098823730E+03  0.43607819124E+03  0.55595343955E+03  0.47000000000E+01 0. -1.
         -5    1    4    4    0  501  0.40011044416E+02 -0.19170133584E+02  0.11453641527E+03  0.12291890871E+03  0.47000000000E+01 0. -1.
          1    1    1    2  502    0  0.44708356574E+01  0.57644070580E+02 -0.18611109421E+03  0.19488500874E+03  0.00000000000E+00 0. -1.
          1    1    1    2  503    0 -0.59310875999E+01  0.43844554913E+02  0.43034550315E+03  0.43261388660E+03  0.00000000000E+00 0. -1.
<mgrwt>
<rscale>  0 0.50665487E+02</rscale>
<asrwt>0</asrwt>
<pdfrwt beam="1">  1        2 0.20166565E+00 0.44243901E+02</pdfrwt>
<pdfrwt beam="2">  1        2 0.22825965E+00 0.58019106E+02</pdfrwt>
<totfact> 0.48457937E+01</totfact>
</mgrwt>
</event>
<event>
13    1  0.1589573E-008  0.7529659E+02  0.7546771E-02  0.1509770E+00
          2   -1    0    0  503    0  0.00000000000E+00  0.00000000000E+00  0.17208567610E+04  0.17208567610E+04  0.00000000000E+00 0. -1.
          2   -1    0    0  502    0 -0.00000000000E+00 -0.00000000000E+00 -0.22311750512E+04  0.22311750512E+04  0.00000000000E+00 0. -1.
         24    2    1    2    0    0  0.23710338843E+03  0.11768315608E+04 -0.32978530009E+03  0.12469521101E+04  0.70573943687E+02 0.  0.
         25    2    1    2    0    0 -0.39270315930E+03  0.40310427987E+03 -0.33347824122E+03  0.66598932195E+03  0.12500083123E+03 0.  0.
         24    2    1    2    0    0  0.78421071463E+02 -0.15447369941E+04  0.63281969911E+02  0.15501459733E+04  0.81152236417E+02 0.  0.
        -11    1    3    3    0    0  0.19516972807E+03  0.80534457668E+03 -0.22201563479E+03  0.85788230663E+03  0.00000000000E+00 0.  1.
         12    1    3    3    0    0  0.41933660355E+02  0.37148698412E+03 -0.10776966530E+03  0.38906980350E+03  0.00000000000E+00 0. -1.
        -13    1    5    5    0    0  0.86569433096E+02 -0.95556884562E+03  0.49574843449E+02  0.96076206762E+03  0.00000000000E+00 0.  1.
         14    1    5    5    0    0 -0.81483616331E+01 -0.58916814843E+03  0.13707126462E+02  0.58938390565E+03  0.00000000000E+00 0. -1.
          5    1    4    4  501    0 -0.29569758302E+03  0.35725975574E+03 -0.30430053978E+03  0.55470037154E+03  0.47000000000E+01 0.  1.
         -5    1    4    4    0  501 -0.97005576276E+02  0.45844524130E+02 -0.29177701443E+02  0.11128895041E+03  0.47000000000E+01 0.  1.
          1    1    1    2  502    0  0.59327488477E+02 -0.46308030393E+02 -0.19214200166E+03  0.20635584162E+03  0.00000000000E+00 0. -1.
          1    1    1    2  503    0  0.17851210930E+02  0.11109183782E+02  0.28180528295E+03  0.28258856522E+03  0.00000000000E+00 0. -1.
<mgrwt>
<rscale>  0 0.39788979E+02</rscale>
<asrwt>0</asrwt>
<pdfrwt beam="1">  1        2 0.25306717E+00 0.21025691E+02</pdfrwt>
<pdfrwt beam="2">  1        2 0.32811398E+00 0.75296588E+02</pdfrwt>
<totfact> 0.16587410E+01</totfact>
</mgrwt>
</event>
<event>
13    1  0.1589573E-008  0.1585897E+03  0.7546771E-02  0.1314709E+00
          2   -1    0    0  503    0  0.00000000000E+00  0.00000000000E+00  0.97591880565E+03  0.97591880565E+03  0.00000000000E+00 0. -1.
          2   -1    0    0  502    0 -0.00000000000E+00 -0.00000000000E+00 -0.45621642746E+04  0.45621642746E+04  0.00000000000E+00 0. -1.
         24    2    1    2    0    0  0.13451650827E+02  0.48747367842E+02 -0.13131126382E+04  0.13163713679E+04  0.77534022778E+02 0.  0.
         25    2    1    2    0    0 -0.34813380265E+02 -0.19773952595E+03 -0.67411969919E+03  0.71440553468E+03  0.12500003030E+03 0.  0.
         24    2    1    2    0    0 -0.12904485541E+03  0.20313105222E+03  0.22815644053E+03  0.34098073543E+03  0.79358058786E+02 0.  0.
        -11    1    5    5    0    0 -0.60904503330E+02  0.31793126623E+02  0.69538526357E+02  0.97753609009E+02  0.00000000000E+00 0.  1.
         12    1    5    5    0    0 -0.68140352076E+02  0.17133792560E+03  0.15861791417E+03  0.24322712642E+03  0.00000000000E+00 0. -1.
        -13    1    3    3    0    0  0.33124804499E+02 -0.13794160063E+01 -0.73767491716E+03  0.73841955477E+03  0.00000000000E+00 0.  1.
         14    1    3    3    0    0 -0.19673153672E+02  0.50126783848E+02 -0.57543772108E+03  0.57795181311E+03  0.00000000000E+00 0. -1.
          5    1    4    4  501    0  0.21373099976E+02 -0.22586872590E+02 -0.26413377180E+02  0.41069851595E+02  0.47000000000E+01 0. -1.
         -5    1    4    4    0  501 -0.56186480242E+02 -0.17515265336E+03 -0.64770632201E+03  0.67333568308E+03  0.47000000000E+01 0. -1.
          1    1    1    2  502    0  0.22420660568E+02  0.40000594009E+02 -0.24871083534E+04  0.24875310440E+04  0.00000000000E+00 0. -1.
          1    1    1    2  503    0  0.12798592428E+03 -0.94139488121E+02  0.65993878131E+03  0.67879439827E+03  0.00000000000E+00 0. -1.
<mgrwt>
<rscale>  0 0.85277318E+02</rscale>
<asrwt>0</asrwt>
<pdfrwt beam="1">  1        2 0.14351747E+00 0.15858969E+03</pdfrwt>
<pdfrwt beam="2">  1        2 0.67090650E+00 0.45855573E+02</pdfrwt>
<totfact> 0.16077336E+00</totfact>
</mgrwt>
</event>
<event>
13    1  0.1589573E-008  0.1697263E+03  0.7546771E-02  0.1304658E+00
          2   -1    0    0  502    0  0.00000000000E+00  0.00000000000E+00  0.22550392027E+04  0.22550392027E+04  0.00000000000E+00 0. -1.
          2   -1    0    0  503    0 -0.00000000000E+00 -0.00000000000E+00 -0.25639859338E+04  0.25639859338E+04  0.00000000000E+00 0. -1.
         24    2    1    2    0    0  0.43327009810E+03 -0.18597160025E+02  0.16053111316E+02  0.44126894213E+03  0.79948387333E+02 0.  0.
         25    2    1    2    0    0 -0.79800862361E+02 -0.33357847678E+03  0.40105521168E+02  0.36725903080E+03  0.12501185972E+03 0.  0.
         24    2    1    2    0    0 -0.27563802894E+03  0.48499217424E+03  0.10942538791E+04  0.12319433669E+04  0.95389596553E+02 0.  0.
        -13    1    5    5    0    0 -0.24030049306E+03  0.39677605668E+03  0.82578741201E+03  0.94715385020E+03  0.00000000000E+00 0.  1.
         14    1    5    5    0    0 -0.35337535874E+02  0.88216117565E+02  0.26846646713E+03  0.28478951669E+03  0.00000000000E+00 0. -1.
        -13    1    3    3    0    0  0.20635451646E+03 -0.85354100495E+01 -0.32297997511E+02  0.20904114507E+03  0.00000000000E+00 0.  1.
         14    1    3    3    0    0  0.22691558164E+03 -0.10061749975E+02  0.48351108827E+02  0.23222779706E+03  0.00000000000E+00 0. -1.
          5    1    4    4  501    0  0.27178383122E+02 -0.29757162332E+02  0.17923460883E+02  0.44356438870E+02  0.47000000000E+01 0. -1.
         -5    1    4    4    0  501 -0.10697924548E+03 -0.30382131445E+03  0.22182060285E+02  0.32290259193E+03  0.47000000000E+01 0. -1.
          1    1    1    2  502    0 -0.43331518472E+02 -0.16464718055E+03  0.64834523390E+03  0.67032667922E+03  0.00000000000E+00 0. -1.
          1    1    1    2  503    0 -0.34499688332E+02  0.31830643112E+02 -0.21077044766E+04  0.21082271175E+04  0.00000000000E+00 0. -1.
<mgrwt>
<rscale>  0 0.89258353E+02</rscale>
<asrwt>0</asrwt>
<pdfrwt beam="1">  1        2 0.33162341E+00 0.16972634E+03</pdfrwt>
<pdfrwt beam="2">  1        2 0.37705676E+00 0.46940583E+02</pdfrwt>
<totfact> 0.54588327E+00</totfact>
</mgrwt>
</event>
<event>
13    1  0.1589573E-008  0.5014675E+02  0.7546771E-02  0.1495998E+00
         -1   -1    0    0    0  501 -0.00000000000E+00  0.00000000000E+00  0.53966090919E+03  0.53966090919E+03  0.00000000000E+00 0.  1.
          2   -1    0    0  503    0  0.00000000000E+00 -0.00000000000E+00 -0.10255765473E+04  0.10255765473E+04  0.00000000000E+00 0. -1.
         24    2    1    2    0    0  0.12485598877E+03 -0.26533235415E+02 -0.23605939404E+02  0.15348064592E+03  0.81890401044E+02 0.  0.
         25    2    1    2    0    0 -0.14819102800E+03  0.91663026199E+01 -0.33464102095E+03  0.38684779288E+03  0.12498799971E+03 0.  0.
         24    2    1    2    0    0  0.61757278474E+02  0.47554039460E+02 -0.11423432459E+03  0.15962436600E+03  0.79718938731E+02 0.  0.
        -11    1    3    3    0    0  0.10717850374E+03 -0.37796696432E+01  0.11731769523E+02  0.10788490155E+03  0.00000000000E+00 0.  1.
         12    1    3    3    0    0  0.17677485033E+02 -0.22753565772E+02 -0.35337708927E+02  0.45595744370E+02  0.00000000000E+00 0. -1.
        -13    1    5    5    0    0  0.27431590075E+02 -0.98655810506E+01 -0.78591986409E+02  0.83824352972E+02  0.00000000000E+00 0.  1.
         14    1    5    5    0    0  0.34325688400E+02  0.57419620511E+02 -0.35642338179E+02  0.75800013025E+02  0.00000000000E+00 0. -1.
          5    1    4    4  502    0 -0.11509702228E+03  0.60962972602E+02 -0.19933291301E+03  0.23815857905E+03  0.47000000000E+01 0.  1.
         -5    1    4    4    0  502 -0.33094005721E+02 -0.51796669982E+02 -0.13530810794E+03  0.14868921383E+03  0.47000000000E+01 0.  1.
          1    1    1    2  503    0  0.11696969196E+02 -0.32659686875E+02 -0.43719202231E+03  0.43856623058E+03  0.00000000000E+00 0. -1.
         -2    1    1    2    0  501 -0.50119208444E+02  0.24725802094E+01  0.42375766917E+03  0.42671842108E+03  0.00000000000E+00 0.  1.
<mgrwt>
<rscale>  0 0.41709077E+02</rscale>
<asrwt>0</asrwt>
<pdfrwt beam="2">  1        2 0.15082008E+00 0.34691126E+02</pdfrwt>
<pdfrwt beam="1">  1       -1 0.79361900E-01 0.50146746E+02</pdfrwt>
<totfact> 0.60262953E+01</totfact>
</mgrwt>
</event>
<event>
13    1  0.1589573E-008  0.5125356E+02  0.7546771E-02  0.1487252E+00
          2   -1    0    0  502    0  0.00000000000E+00  0.00000000000E+00  0.50000269210E+04  0.50000269210E+04  0.00000000000E+00 0. -1.
          2   -1    0    0  503    0 -0.00000000000E+00 -0.00000000000E+00 -0.16859409693E+04  0.16859409693E+04  0.00000000000E+00 0. -1.
         24    2    1    2    0    0 -0.80095451541E+03 -0.53866982105E+03  0.14792753020E+03  0.98049422298E+03  0.88278282973E+02 0.  0.
         25    2    1    2    0    0 -0.10793189457E+03  0.38935475367E+03  0.11201102054E+04  0.11972974895E+04  0.12501195153E+03 0.  0.
         24    2    1    2    0    0  0.88903026124E+03  0.64367084063E+02  0.21243881731E+04  0.23051809200E+04  0.79473498287E+02 0.  0.
        -13    1    3    3    0    0 -0.57120930058E+03 -0.39150682375E+03  0.14562950705E+03  0.70764794315E+03  0.00000000000E+00 0.  1.
         14    1    3    3    0    0 -0.22974521483E+03 -0.14716299730E+03  0.22980231518E+01  0.27284627984E+03  0.00000000000E+00 0. -1.
        -13    1    5    5    0    0  0.31533543477E+03  0.80716609333E+01  0.84368781834E+03  0.90072788507E+03  0.00000000000E+00 0.  1.
         14    1    5    5    0    0  0.57369482647E+03  0.56295423130E+02  0.12807003548E+04  0.14044530349E+04  0.00000000000E+00 0. -1.
          5    1    4    4  501    0 -0.70167180425E+02  0.34826060601E+03  0.10440035151E+04  0.11028029345E+04  0.47000000000E+01 0.  1.
         -5    1    4    4    0  501 -0.37764714149E+02  0.41094147664E+02  0.76106690363E+02  0.94494555002E+02  0.47000000000E+01 0.  1.
          1    1    1    2  502    0  0.12988983748E+02  0.49538297476E+02  0.10614249700E+04  0.10626597403E+04  0.00000000000E+00 0. -1.
          1    1    1    2  503    0  0.68671649982E+01  0.35409685840E+02 -0.11397649270E+04  0.11403355175E+04  0.00000000000E+00 0. -1.
<mgrwt>
<rscale>  0 0.42996358E+02</rscale>
<asrwt>0</asrwt>
<pdfrwt beam="1">  1        2 0.73529807E+00 0.51253564E+02</pdfrwt>
<pdfrwt beam="2">  1        2 0.24793250E+00 0.36069430E+02</pdfrwt>
<totfact> 0.31184878E-01</totfact>
</mgrwt>
</event>
<event>
13    1  0.1589573E-008  0.1534707E+03  0.7546771E-02  0.1289280E+00
          2   -1    0    0  503    0  0.00000000000E+00  0.00000000000E+00  0.35569990230E+04  0.35569990230E+04  0.00000000000E+00 0. -1.
         -3   -1    0    0    0  501 -0.00000000000E+00 -0.00000000000E+00 -0.11773198044E+04  0.11773198044E+04  0.00000000000E+00 0.  1.
         24    2    1    2    0    0 -0.46750663867E+02 -0.23651217805E+03 -0.86259605961E+02  0.26853371611E+03  0.80907367590E+02 0.  0.
         25    2    1    2    0    0  0.11729140032E+02  0.10431102199E+03  0.15759251890E+04  0.15843565811E+04  0.12500885099E+03 0.  0.
         24    2    1    2    0    0 -0.21216049103E+02 -0.40143423572E+02  0.14071939241E+03  0.16813194929E+03  0.80029930500E+02 0.  0.
        -11    1    5    5    0    0 -0.37774998870E+02  0.26166306224E+01  0.99548318233E+02  0.10650664279E+03  0.00000000000E+00 0.  1.
         12    1    5    5    0    0  0.16558949767E+02 -0.42760054194E+02  0.41171074173E+02  0.61625306495E+02  0.00000000000E+00 0. -1.
        -13    1    3    3    0    0 -0.98171211033E+01 -0.61402145776E+02  0.13519928928E+02  0.63634800627E+02  0.00000000000E+00 0.  1.
         14    1    3    3    0    0 -0.36933542763E+02 -0.17511003227E+03 -0.99779534889E+02  0.20489891548E+03  0.00000000000E+00 0. -1.
          5    1    4    4  502    0 -0.36239068143E+02 -0.82979351942E+01  0.52051257044E+03  0.52185970507E+03  0.47000000000E+01 0. -1.
         -5    1    4    4    0  502  0.47968208174E+02  0.11260895718E+03  0.10554126185E+04  0.10624968760E+04  0.47000000000E+01 0. -1.
          1    1    1    2  503    0 -0.34820685335E+02  0.48689406937E+02  0.17247694176E+04  0.17258078347E+04  0.00000000000E+00 0. -1.
         -4    1    1    2    0  501  0.91058258273E+02  0.12365517270E+03 -0.97547517437E+03  0.98748874624E+03  0.00000000000E+00 0.  1.
<mgrwt>
<rscale>  0 0.95847040E+02</rscale>
<asrwt>0</asrwt>
<pdfrwt beam="1">  1        2 0.52308809E+00 0.59859322E+02</pdfrwt>
<pdfrwt beam="2">  1       -3 0.17313527E+00 0.15347075E+03</pdfrwt>
<totfact> 0.22804751E-01</totfact>
</mgrwt>
</event>
<event>
13    1  0.1589573E-008  0.1689825E+03  0.7546771E-02  0.1300788E+00
          2   -1    0    0  502    0  0.00000000000E+00  0.00000000000E+00  0.23479711493E+04  0.23479711493E+04  0.00000000000E+00 0. -1.
          2   -1    0    0  503    0 -0.00000000000E+00 -0.00000000000E+00 -0.58037320388E+03  0.58037320388E+03  0.00000000000E+00 0. -1.
         24    2    1    2    0    0 -0.13284374477E+03  0.85323910781E+02 -0.10680248054E+03  0.20779161570E+03  0.82722158054E+02 0.  0.
         25    2    1    2    0    0 -0.21221857034E+03 -0.17171659374E+03 -0.32516736396E+02  0.30200463234E+03  0.12500459850E+03 0.  0.
         24    2    1    2    0    0  0.37570872830E+02  0.31291716484E+02  0.14233303166E+03  0.17115815779E+03  0.81521046798E+02 0.  0.
        -11    1    3    3    0    0 -0.46872066238E+01 -0.10927826763E+02  0.44407228914E+01  0.12692805974E+02  0.00000000000E+00 0.  1.
         12    1    3    3    0    0 -0.12815653814E+03  0.96251737544E+02 -0.11124320343E+03  0.19509880973E+03  0.00000000000E+00 0. -1.
        -13    1    5    5    0    0  0.57913324954E+02  0.20248653574E+01  0.73038667638E+02  0.93234651591E+02  0.00000000000E+00 0.  1.
         14    1    5    5    0    0 -0.20342452124E+02  0.29266851126E+02  0.69294364022E+02  0.77923506200E+02  0.00000000000E+00 0. -1.
          5    1    4    4  501    0 -0.38641798797E+02 -0.10507333262E+03 -0.29995463013E+02  0.11599746396E+03  0.47000000000E+01 0.  1.
         -5    1    4    4    0  501 -0.17357677154E+03 -0.66643261118E+02 -0.25212733828E+01  0.18600716838E+03  0.47000000000E+01 0.  1.
          1    1    1    2  502    0  0.26515385826E+03  0.30728197891E+02  0.19945298964E+04  0.20123121772E+04  0.00000000000E+00 0. -1.
          1    1    1    2  503    0  0.42337584012E+02  0.24372768585E+02 -0.22994576571E+03  0.23507777019E+03  0.00000000000E+00 0. -1.
<mgrwt>
<rscale>  0 0.90857608E+02</rscale>
<asrwt>0</asrwt>
<pdfrwt beam="1">  1        2 0.34528987E+00 0.16898246E+03</pdfrwt>
<pdfrwt beam="2">  1        2 0.85349001E-01 0.48851846E+02</pdfrwt>
<totfact> 0.51862357E+01</totfact>
</mgrwt>
</event>
<event>
13    1  0.1589573E-008  0.1188785E+03  0.7546771E-02  0.1296621E+00
          2   -1    0    0  502    0  0.00000000000E+00  0.00000000000E+00  0.14079750495E+04  0.14079750495E+04  0.00000000000E+00 0. -1.
          2   -1    0    0  503    0 -0.00000000000E+00 -0.00000000000E+00 -0.11063254720E+04  0.11063254720E+04  0.00000000000E+00 0. -1.
         24    2    1    2    0    0 -0.40928827501E+02 -0.21852486877E+02  0.29876330454E+02  0.98877176671E+02  0.82045114673E+02 0.  0.
         25    2    1    2    0    0  0.82010302100E+02 -0.53174745433E+02  0.68425913616E+02  0.17282841860E+03  0.12503724812E+03 0.  0.
         24    2    1    2    0    0  0.25296162489E+02  0.16454876643E+02  0.53477334463E+03  0.54010060835E+03  0.69393646771E+02 0.  0.
        -11    1    3    3    0    0 -0.51217047738E+02  0.17044256506E+02  0.18584277621E+02  0.57088247770E+02  0.00000000000E+00 0.  1.
         12    1    3    3    0    0  0.10288220237E+02 -0.38896743383E+02  0.11292052832E+02  0.41788928900E+02  0.00000000000E+00 0. -1.
        -11    1    5    5    0    0  0.68804812107E+01  0.34342325280E+02  0.13386660998E+03  0.13837270538E+03  0.00000000000E+00 0.  1.
         12    1    5    5    0    0  0.18415681278E+02 -0.17887448637E+02  0.40090673465E+03  0.40172790297E+03  0.00000000000E+00 0. -1.
          5    1    4    4  501    0 -0.15034105879E+02 -0.48360277196E+01 -0.24792736015E+02  0.29768796798E+02  0.47000000000E+01 0.  1.
         -5    1    4    4    0  501  0.97044407979E+02 -0.48338717713E+02  0.93218649631E+02  0.14305962180E+03  0.47000000000E+01 0.  1.
          1    1    1    2  502    0 -0.41366256751E+02 -0.59134026212E+02  0.68005855970E+03  0.68387692231E+03  0.00000000000E+00 0. -1.
          1    1    1    2  503    0 -0.25011380336E+02  0.11770638188E+03 -0.10114845708E+04  0.10186173955E+04  0.00000000000E+00 0. -1.
<mgrwt>
<rscale>  0 0.92623129E+02</rscale>
<asrwt>0</asrwt>
<pdfrwt beam="1">  1        2 0.20705515E+00 0.72166476E+02</pdfrwt>
<pdfrwt beam="2">  1        2 0.16269492E+00 0.11887852E+03</pdfrwt>
<totfact> 0.71994787E+01</totfact>
</mgrwt>
</event>
<event>
13    1  0.1589573E-008  0.1729513E+03  0.7546771E-02  0.1278629E+00
         -1   -1    0    0    0  501 -0.00000000000E+00  0.00000000000E+00  0.12920582323E+04  0.12920582323E+04  0.00000000000E+00 0.  1.
          2   -1    0    0  503    0  0.00000000000E+00 -0.00000000000E+00 -0.22550317460E+04  0.22550317460E+04  0.00000000000E+00 0. -1.
         24    2    1    2    0    0 -0.47211979233E+02  0.17439967069E+03  0.43821113619E+02  0.20240239160E+03  0.80013886351E+02 0.  0.
         25    2    1    2    0    0 -0.10521710456E+03 -0.11551345515E+03 -0.92267556051E+02  0.22034397708E+03  0.12499667564E+03 0.  0.
         24    2    1    2    0    0  0.17988820948E+02  0.42622241592E+02  0.65266163062E+02  0.11159100666E+03  0.77798634750E+02 0.  0.
        -11    1    3    3    0    0 -0.49219087296E+02  0.16994257299E+03  0.19963613045E+02  0.17804926991E+03  0.00000000000E+00 0.  1.
         12    1    3    3    0    0  0.20071080631E+01  0.44570976968E+01  0.23857500574E+02  0.24353121695E+02  0.00000000000E+00 0. -1.
        -11    1    5    5    0    0  0.15277114326E+02 -0.21093004655E+02  0.12852285575E+02  0.29042835812E+02  0.00000000000E+00 0.  1.
         12    1    5    5    0    0  0.27117066220E+01  0.63715246246E+02  0.52413877487E+02  0.82548170847E+02  0.00000000000E+00 0. -1.
          5    1    4    4  502    0 -0.96822021830E+01  0.18413005737E+02  0.13003649721E+02  0.24979365994E+02  0.47000000000E+01 0.  1.
         -5    1    4    4    0  502 -0.95534902381E+02 -0.13392646089E+03 -0.10527120577E+03  0.19536461108E+03  0.47000000000E+01 0.  1.
          1    1    1    2  503    0  0.39745000170E+02  0.43258436399E+02 -0.19884761284E+04  0.19893436783E+04  0.00000000000E+00 0. -1.
         -2    1    1    2    0  501  0.94695262679E+02 -0.14476689353E+03  0.10086828940E+04  0.10234089246E+04  0.00000000000E+00 0.  1.
<mgrwt>
<rscale>  0 0.10079682E+03</rscale>
<asrwt>0</asrwt>
<pdfrwt beam="2">  1        2 0.33162231E+00 0.58744850E+02</pdfrwt>
<pdfrwt beam="1">  1       -1 0.19000856E+00 0.17295131E+03</pdfrwt>
<totfact> 0.17190593E+00</totfact>
</mgrwt>
</event>
<event>
13    1  0.1589573E-008  0.1756712E+03  0.7546771E-02  0.1345579E+00
          2   -1    0    0  503    0  0.00000000000E+00  0.00000000000E+00  0.16228720069E+04  0.16228720069E+04  0.00000000000E+00 0. -1.
          2   -1    0    0  502    0 -0.00000000000E+00 -0.00000000000E+00 -0.15428357732E+04  0.15428357732E+04  0.00000000000E+00 0. -1.
         24    2    1    2    0    0  0.37027370085E+03 -0.33032674555E+02 -0.12621846923E+03  0.40081536186E+03  0.80796541969E+02 0.  0.
         25    2    1    2    0    0 -0.23294530829E+02  0.12983174392E+03  0.13986422167E+03  0.22932082650E+03  0.12500849597E+03 0.  0.
         24    2    1    2    0    0 -0.32284428863E+03  0.10830961064E+03  0.27731851185E+03  0.44250217348E+03  0.54251360022E+02 0.  0.
        -13    1    3    3    0    0  0.25805885579E+03 -0.60838711795E+01 -0.12154627380E+03  0.28531541005E+03  0.00000000000E+00 0.  1.
         14    1    3    3    0    0  0.11221484506E+03 -0.26948803375E+02 -0.46721954263E+01  0.11549995180E+03  0.00000000000E+00 0. -1.
        -13    1    5    5    0    0 -0.54792010456E+02  0.35076348104E+02  0.35354500735E+02  0.74043604237E+02  0.00000000000E+00 0.  1.
         14    1    5    5    0    0 -0.26805227817E+03  0.73233262534E+02  0.24196401111E+03  0.36845856924E+03  0.00000000000E+00 0. -1.
          5    1    4    4  501    0  0.18890375541E+02  0.54338356147E+01  0.84179755245E+02  0.86571901046E+02  0.47000000000E+01 0. -1.
         -5    1    4    4    0  501 -0.42184906371E+02  0.12439790831E+03  0.55684466430E+02  0.14274892545E+03  0.47000000000E+01 0. -1.
          1    1    1    2  502    0 -0.19322885901E+01 -0.31493806117E+02 -0.11436408892E+04  0.11440760801E+04  0.00000000000E+00 0. -1.
          1    1    1    2  503    0 -0.22202592808E+02 -0.17361487389E+03  0.93271285857E+03  0.94899333828E+03  0.00000000000E+00 0. -1.
<mgrwt>
<rscale>  0 0.74451040E+02</rscale>
<asrwt>0</asrwt>
<pdfrwt beam="1">  1        2 0.23865765E+00 0.17567117E+03</pdfrwt>
<pdfrwt beam="2">  1        2 0.22688761E+00 0.31553028E+02</pdfrwt>
<totfact> 0.34862857E+01</totfact>
</mgrwt>
</event>
<event>
13    1  0.1589573E-008  0.1803672E+03  0.7546771E-02  0.1298077E+00
         -1   -1    0    0    0  501 -0.00000000000E+00  0.00000000000E+00  0.12067334264E+04  0.12067334264E+04  0.00000000000E+00 0.  1.
          4   -1    0    0  503    0  0.00000000000E+00 -0.00000000000E+00 -0.23252291165E+04  0.23252291165E+04  0.00000000000E+00 0. -1.
         24    2    1    2    0    0  0.13029994496E+03 -0.52198031815E+02 -0.31926608545E+03  0.35777419207E+03  0.79804943529E+02 0.  0.
         25    2    1    2    0    0  0.25362814047E+02  0.24407465834E+03  0.30967520343E+03  0.41441820365E+03  0.12501201830E+03 0.  0.
         24    2    1    2    0    0  0.73764163230E+02 -0.46507222748E+02 -0.21500859365E+02  0.12077795053E+03  0.80752416899E+02 0.  0.
        -11    1    3    3    0    0  0.16355671978E+02  0.82984156300E+01 -0.11305729243E+03  0.11453524820E+03  0.00000000000E+00 0.  1.
         12    1    3    3    0    0  0.11394427298E+03 -0.60496447445E+02 -0.20620879302E+03  0.24323894387E+03  0.00000000000E+00 0. -1.
        -13    1    5    5    0    0  0.85442180997E+02 -0.20272136227E+02 -0.26288726707E+02  0.91664731236E+02  0.00000000000E+00 0.  1.
         14    1    5    5    0    0 -0.11678017767E+02 -0.26235086521E+02  0.47878673419E+01  0.29113219290E+02  0.00000000000E+00 0. -1.
          5    1    4    4  502    0  0.47375074175E+02  0.22180876440E+03  0.30824156234E+03  0.38272506629E+03  0.47000000000E+01 0. -1.
         -5    1    4    4    0  502 -0.22012260128E+02  0.22265893935E+02  0.14336410931E+01  0.31693137356E+02  0.47000000000E+01 0. -1.
          3    1    1    2  503    0 -0.24554477306E+03 -0.10129668615E+03 -0.18530093072E+04  0.18719499851E+04  0.00000000000E+00 0. -1.
         -2    1    1    2    0  501  0.16117850824E+02 -0.44072717626E+02  0.76560535844E+03  0.76704221163E+03  0.00000000000E+00 0.  1.
<mgrwt>
<rscale>  0 0.92000971E+02</rscale>
<asrwt>0</asrwt>
<pdfrwt beam="2">  1        4 0.34194545E+00 0.18036716E+03</pdfrwt>
<pdfrwt beam="1">  1       -1 0.17746080E+00 0.46927493E+02</pdfrwt>
<totfact> 0.22279080E-02</totfact>
</mgrwt>
</event>
<event>
13    1  0.1589573E-008  0.2347777E+03  0.7546771E-02  0.1232226E+00
          2   -1    0    0  502    0  0.00000000000E+00  0.00000000000E+00  0.31288486721E+04  0.31288486721E+04  0.00000000000E+00 0. -1.
          4   -1    0    0  503    0 -0.00000000000E+00 -0.00000000000E+00 -0.16273550642E+04  0.16273550642E+04  0.00000000000E+00 0. -1.
         24    2    1    2    0    0  0.25083997578E+03  0.45198790898E+03 -0.23197858574E+03  0.57243738761E+03  0.81588817710E+02 0.  0.
         25    2    1    2    0    0 -0.73099310535E+03 -0.75254292367E+03  0.16080614582E+03  0.10687163661E+04  0.12499713069E+03 0.  0.
         24    2    1    2    0    0  0.46379115429E+03  0.25970144905E+00  0.13051668944E+04  0.13882037014E+04  0.92447781074E+02 0.  0.
        -11    1    3    3    0    0  0.17738472345E+03  0.23850554639E+03 -0.12186827166E+03  0.32125085434E+03  0.00000000000E+00 0.  1.
         12    1    3    3    0    0  0.73455252332E+02  0.21348236259E+03 -0.11011031408E+03  0.25118653328E+03  0.00000000000E+00 0. -1.
        -13    1    5    5    0    0  0.36660359448E+03  0.24297769308E+02  0.11034329186E+04  0.11629930279E+04  0.00000000000E+00 0.  1.
         14    1    5    5    0    0  0.97187559809E+02 -0.24038067859E+02  0.20173397574E+03  0.22521067350E+03  0.00000000000E+00 0. -1.
          5    1    4    4  501    0 -0.38361457086E+03 -0.30579012991E+03  0.77314758627E+02  0.49665622359E+03  0.47000000000E+01 0. -1.
         -5    1    4    4    0  501 -0.34737853448E+03 -0.44675279376E+03  0.83491387190E+02  0.57206014255E+03  0.47000000000E+01 0. -1.
          1    1    1    2  502    0  0.18054428411E+02  0.66101254810E+02  0.97714939948E+03  0.97954902235E+03  0.00000000000E+00 0. -1.
          3    1    1    2  503    0 -0.16924531375E+01  0.23419405843E+03 -0.70965024598E+03  0.74729725881E+03  0.00000000000E+00 0. -1.
<mgrwt>
<rscale>  0 0.12683675E+03</rscale>
<asrwt>0</asrwt>
<pdfrwt beam="1">  1        2 0.46012480E+00 0.68522538E+02</pdfrwt>
<pdfrwt beam="2">  1        4 0.23931692E+00 0.23477766E+03</pdfrwt>
<totfact> 0.11439934E-01</totfact>
</mgrwt>
</event>
<event>
13    1  0.1589573E-008  0.4476109E+02  0.7546771E-02  0.1523653E+00
          2   -1    0    0  503    0  0.00000000000E+00  0.00000000000E+00  0.93676602384E+03  0.93676602384E+03  0.00000000000E+00 0. -1.
         -3   -1    0    0    0  501 -0.00000000000E+00 -0.00000000000E+00 -0.13275088822E+03  0.13275088822E+03  0.00000000000E+00 0.  1.
         24    2    1    2    0    0  0.59111957333E+02 -0.12721971801E+02  0.65006435915E+01  0.10183557875E+03  0.81683258169E+02 0.  0.
         25    2    1    2    0    0 -0.59834271222E+01  0.96095534067E+02  0.36189032818E+03  0.39478996155E+03  0.12499740414E+03 0.  0.
         24    2    1    2    0    0 -0.59529265145E+02 -0.43815515490E+02  0.20353724465E+03  0.23038214110E+03  0.78644695751E+02 0.  0.
        -11    1    5    5    0    0  0.18156055792E+02 -0.18716484025E+02  0.55684026195E+02  0.61487071075E+02  0.00000000000E+00 0.  1.
         12    1    5    5    0    0 -0.77685320937E+02 -0.25099031465E+02  0.14785321846E+03  0.16889507002E+03  0.00000000000E+00 0. -1.
        -13    1    3    3    0    0  0.32425342902E+02  0.32301138756E+02  0.16307066336E+02  0.48586899878E+02  0.00000000000E+00 0.  1.
         14    1    3    3    0    0  0.26686614431E+02 -0.45023110558E+02 -0.98064227450E+01  0.53248678867E+02  0.00000000000E+00 0. -1.
          5    1    4    4  502    0  0.40500915368E+02 -0.54860636708E+01  0.59050561546E+02  0.71968603287E+02  0.47000000000E+01 0. -1.
         -5    1    4    4    0  502 -0.46484342490E+02  0.10158159774E+03  0.30283976663E+03  0.32282135826E+03  0.47000000000E+01 0. -1.
          1    1    1    2  503    0 -0.25723805558E+02 -0.37076559579E+02  0.28063613569E+03  0.28424114076E+03  0.00000000000E+00 0. -1.
         -4    1    1    2    0  501  0.32124540492E+02 -0.24814871967E+01 -0.48549216492E+02  0.58268089916E+02  0.00000000000E+00 0.  1.
<mgrwt>
<rscale>  0 0.37976478E+02</rscale>
<asrwt>0</asrwt>
<pdfrwt beam="1">  1        2 0.13775971E+00 0.44761085E+02</pdfrwt>
<pdfrwt beam="2">  1       -3 0.19522190E-01 0.32220240E+02</pdfrwt>
<totfact> 0.39746081E+02</totfact>
</mgrwt>
</event>
<event>
13    1  0.1589573E-008  0.1648596E+03  0.7546771E-02  0.1249032E+00
         -1   -1    0    0    0  501 -0.00000000000E+00  0.00000000000E+00  0.32001610469E+04  0.32001610469E+04  0.00000000000E+00 0.  1.
          2   -1    0    0  503    0  0.00000000000E+00 -0.00000000000E+00 -0.10465184572E+04  0.10465184572E+04  0.00000000000E+00 0. -1.
         24    2    1    2    0    0  0.74010449391E+02 -0.28179395756E+02  0.11971675042E+03  0.16484168407E+03  0.81049710128E+02 0.  0.
         25    2    1    2    0    0 -0.20320161235E+03 -0.14628954376E+02  0.50343318740E+03  0.55729232202E+03  0.12499942578E+03 0.  0.
         24    2    1    2    0    0 -0.10860585981E+01 -0.80275944539E+00 -0.55589258599E+03  0.56131858029E+03  0.77847013265E+02 0.  0.
        -13    1    5    5    0    0 -0.34994640028E+02  0.12542462076E+02 -0.18903124500E+03  0.19265188754E+03  0.00000000000E+00 0.  1.
         14    1    5    5    0    0  0.33908581430E+02 -0.13345221522E+02 -0.36686134098E+03  0.36866669274E+03  0.00000000000E+00 0. -1.
        -13    1    3    3    0    0  0.73889223847E+02 -0.24782029222E+02  0.44890885764E+02  0.89938634622E+02  0.00000000000E+00 0.  1.
         14    1    3    3    0    0  0.12122554345E+00 -0.33973665342E+01  0.74825864657E+02  0.74903049449E+02  0.00000000000E+00 0. -1.
          5    1    4    4  502    0 -0.18322199680E+03  0.26163496791E+01  0.49699777420E+03  0.52972259057E+03  0.47000000000E+01 0.  1.
         -5    1    4    4    0  502 -0.19979615548E+02 -0.17245304055E+02  0.64354131927E+01  0.27569731453E+02  0.47000000000E+01 0.  1.
          1    1    1    2  503    0  0.22676575017E+02 -0.83499415541E+02 -0.43137400915E+03  0.43996581142E+03  0.00000000000E+00 0. -1.
         -2    1    1    2    0  501  0.10760064654E+03  0.12711052512E+03  0.25177592471E+04  0.25232611064E+04  0.00000000000E+00 0.  1.
<mgrwt>
<rscale>  0 0.11647286E+03</rscale>
<asrwt>0</asrwt>
<pdfrwt beam="2">  1        2 0.15389977E+00 0.82287747E+02</pdfrwt>
<pdfrwt beam="1">  1       -1 0.47061191E+00 0.16485962E+03</pdfrwt>
<totfact> 0.10158446E-01</totfact>
</mgrwt>
</event>
<event>
13    1  0.1589573E-008  0.5445403E+02  0.7546771E-02  0.1454552E+00
          2   -1    0    0  502    0  0.00000000000E+00  0.00000000000E+00  0.25008318038E+04  0.25008318038E+04  0.00000000000E+00 0. -1.
          2   -1    0    0  503    0 -0.00000000000E+00 -0.00000000000E+00 -0.12668388748E+04  0.12668388748E+04  0.00000000000E+00 0. -1.
         24    2    1    2    0    0  0.33174023319E+03 -0.42410907572E+03 -0.24083393426E+03  0.60016573972E+03  0.11080541872E+03 0.  0.
         25    2    1    2    0    0  0.55672920460E+03  0.29625712597E+03  0.62572470483E+03  0.89714750582E+03  0.12500619589E+03 0.  0.
         24    2    1    2    0    0 -0.89585662029E+03  0.64648808531E+02  0.17247188118E+03  0.91788424565E+03  0.77629801353E+02 0.  0.
        -11    1    3    3    0    0  0.44828406269E+02 -0.90647085116E+02 -0.89249384364E+02  0.13487747276E+03  0.00000000000E+00 0.  1.
         12    1    3    3    0    0  0.28691182692E+03 -0.33346199061E+03 -0.15158454990E+03  0.46528826696E+03  0.00000000000E+00 0. -1.
        -13    1    5    5    0    0 -0.45735976130E+03  0.56651566308E+02  0.11973394023E+03  0.47615498282E+03  0.00000000000E+00 0.  1.
         14    1    5    5    0    0 -0.43849685899E+03  0.79972422224E+01  0.52737940952E+02  0.44172926283E+03  0.00000000000E+00 0. -1.
          5    1    4    4  501    0  0.14639950213E+03  0.13185692707E+03  0.23920614617E+03  0.30993666095E+03  0.47000000000E+01 0.  1.
         -5    1    4    4    0  501  0.41032970248E+03  0.16440019891E+03  0.38651855866E+03  0.58721084486E+03  0.47000000000E+01 0.  1.
          1    1    1    2  502    0 -0.33319984239E+02  0.27019131159E+02  0.10118997674E+04  0.10128086660E+04  0.00000000000E+00 0. -1.
          1    1    1    2  503    0  0.40707166730E+02  0.36184010058E+02 -0.33526949012E+03  0.33966452128E+03  0.00000000000E+00 0. -1.
<mgrwt>
<rscale>  0 0.48331972E+02</rscale>
<asrwt>0</asrwt>
<pdfrwt beam="1">  1        2 0.36776938E+00 0.42898191E+02</pdfrwt>
<pdfrwt beam="2">  1        2 0.18629983E+00 0.54454034E+02</pdfrwt>
<totfact> 0.19966432E+01</totfact>
</mgrwt>
</event>
<event>
13    1  0.1589573E-008  0.1908227E+03  0.7546771E-02  0.1324408E+00
          2   -1    0    0  503    0  0.00000000000E+00  0.00000000000E+00  0.95020428317E+03  0.95020428317E+03  0.00000000000E+00 0. -1.
          2   -1    0    0  502    0 -0.00000000000E+00 -0.00000000000E+00 -0.11641731277E+04  0.11641731277E+04  0.00000000000E+00 0. -1.
         24    2    1    2    0    0  0.11740839227E+03 -0.12642768291E+03 -0.36700955940E+03  0.41208692090E+03  0.73150010939E+02 0.  0.
         25    2    1    2    0    0 -0.35798225292E+03  0.17237405340E+03  0.48731294714E+03  0.64106388944E+03  0.12499957683E+03 0.  0.
         24    2    1    2    0    0  0.13074777815E+03  0.29884439205E+02 -0.16488948887E+03  0.22756702159E+03  0.81302795627E+02 0.  0.
        -11    1    5    5    0    0  0.98836871316E+02 -0.25046817699E+01 -0.66422002439E+02  0.11910870233E+03  0.00000000000E+00 0.  1.
         12    1    5    5    0    0  0.31910906834E+02  0.32389120975E+02 -0.98467486434E+02  0.10845831926E+03  0.00000000000E+00 0. -1.
        -13    1    3    3    0    0  0.11163662901E+03 -0.11370743236E+03 -0.26571026906E+03  0.30982908868E+03  0.00000000000E+00 0.  1.
         14    1    3    3    0    0  0.57717632560E+01 -0.12720250555E+02 -0.10129929034E+03  0.10225783221E+03  0.00000000000E+00 0. -1.
          5    1    4    4  501    0 -0.33161407232E+03  0.17814606634E+03  0.48443113455E+03  0.61351408136E+03  0.47000000000E+01 0.  1.
         -5    1    4    4    0  501 -0.26368180598E+02 -0.57720129450E+01  0.28818125968E+01  0.27549808081E+02  0.47000000000E+01 0.  1.
          1    1    1    2  502    0  0.14432197257E+03 -0.81412253212E+02 -0.48684947687E+03  0.51427541247E+03  0.00000000000E+00 0. -1.
          1    1    1    2  503    0 -0.34495890066E+02  0.55814435208E+01  0.31746673346E+03  0.31938416648E+03  0.00000000000E+00 0. -1.
<mgrwt>
<rscale>  0 0.81659077E+02</rscale>
<asrwt>0</asrwt>
<pdfrwt beam="1">  1        2 0.13973593E+00 0.34944512E+02</pdfrwt>
<pdfrwt beam="2">  1        2 0.17120193E+00 0.19082266E+03</pdfrwt>
<totfact> 0.11780345E+02</totfact>
</mgrwt>
</event>
<event>
13    1  0.1589573E-008  0.6831065E+02  0.7546771E-02  0.1421988E+00
          2   -1    0    0  503    0  0.00000000000E+00  0.00000000000E+00  0.18313190129E+03  0.18313190129E+03  0.00000000000E+00 0. -1.
          2   -1    0    0  502    0 -0.00000000000E+00 -0.00000000000E+00 -0.47755385109E+04  0.47755385109E+04  0.00000000000E+00 0. -1.
         24    2    1    2    0    0 -0.40487971743E+02 -0.36585732337E+02 -0.11627269486E+03  0.15133433572E+03  0.80030931088E+02 0.  0.
         25    2    1    2    0    0  0.94051047410E+01 -0.45287835931E+02 -0.13429166209E+04  0.13495143965E+04  0.12499844644E+03 0.  0.
         24    2    1    2    0    0  0.62274264448E+02  0.64035882102E+02 -0.33559743299E+02  0.12436601557E+03  0.79761966184E+02 0.  0.
        -11    1    3    3    0    0 -0.49703128233E+02 -0.37937571264E+02 -0.39413073076E+02  0.73912452258E+02  0.00000000000E+00 0.  1.
         12    1    3    3    0    0  0.92151564906E+01  0.13518389269E+01 -0.76859621785E+02  0.77421883460E+02  0.00000000000E+00 0. -1.
        -11    1    5    5    0    0  0.77298948213E+02  0.42506865547E+02 -0.94473187518E+01  0.88719855980E+02  0.00000000000E+00 0.  1.
         12    1    5    5    0    0 -0.15024683765E+02  0.21529016555E+02 -0.24112424548E+02  0.35646159591E+02  0.00000000000E+00 0. -1.
          5    1    4    4  501    0  0.22751780449E+00 -0.74376560874E+02 -0.45510626465E+03  0.46116778583E+03  0.47000000000E+01 0.  1.
         -5    1    4    4    0  501  0.91775869365E+01  0.29088724943E+02 -0.88781035621E+03  0.88834661063E+03  0.47000000000E+01 0.  1.
          1    1    1    2  502    0  0.37184079145E+02  0.22852575995E+02 -0.32063431353E+04  0.32066401728E+04  0.00000000000E+00 0. -1.
          1    1    1    2  503    0 -0.68375476592E+02 -0.50148898296E+01  0.10668558479E+03  0.12681549165E+03  0.00000000000E+00 0. -1.
<mgrwt>
<rscale>  0 0.54602436E+02</rscale>
<asrwt>0</asrwt>
<pdfrwt beam="1">  1        2 0.26931166E-01 0.68310648E+02</pdfrwt>
<pdfrwt beam="2">  1        2 0.70228496E+00 0.43645114E+02</pdfrwt>
<totfact> 0.69592785E+00</totfact>
</mgrwt>
</event>
<event>
13    1  0.1589573E-008  0.1768622E+03  0.7546771E-02  0.1290441E+00
          2   -1    0    0  502    0  0.00000000000E+00  0.00000000000E+00  0.19005722672E+04  0.19005722672E+04  0.00000000000E+00 0. -1.
          2   -1    0    0  503    0 -0.00000000000E+00 -0.00000000000E+00 -0.89868525069E+03  0.89868525069E+03  0.00000000000E+00 0. -1.
         24    2    1    2    0    0 -0.59764336419E+03  0.97245235407E+02  0.41219675114E+02  0.61249776501E+03  0.82584647208E+02 0.  0.
         25    2    1    2    0    0  0.33828285374E+03  0.66747883377E+02  0.10402475559E+04  0.11030018839E+04  0.12493041847E+03 0.  0.
         24    2    1    2    0    0  0.33140646268E+03 -0.24572089875E+02 -0.71069234371E+02  0.35711866306E+03  0.10976735545E+03 0.  0.
        -13    1    5    5    0    0  0.19852694179E+02 -0.27317533411E+02 -0.25329469937E+02  0.42213257931E+02  0.00000000000E+00 0.  1.
         14    1    5    5    0    0  0.31155376850E+03  0.27454435368E+01 -0.45739764433E+02  0.31490540513E+03  0.00000000000E+00 0. -1.
        -13    1    3    3    0    0 -0.46776070382E+03  0.92710216220E+02  0.62040641210E+02  0.48087867638E+03  0.00000000000E+00 0.  1.
         14    1    3    3    0    0 -0.12988266037E+03  0.45350191867E+01 -0.20820966095E+02  0.13161908863E+03  0.00000000000E+00 0. -1.
          5    1    4    4  501    0  0.42890845655E+02  0.56219352754E+02  0.21783425305E+03  0.22907224203E+03  0.47000000000E+01 0.  1.
         -5    1    4    4    0  501  0.29539200808E+03  0.10528530623E+02  0.82241330280E+03  0.87392964192E+03  0.47000000000E+01 0.  1.
          1    1    1    2  502    0 -0.12239242049E+03 -0.12916519570E+03  0.33498955070E+03  0.37931721745E+03  0.00000000000E+00 0. -1.
          1    1    1    2  503    0  0.50346468263E+02 -0.10255833213E+02 -0.34350053080E+03  0.34732198842E+03  0.00000000000E+00 0. -1.
<mgrwt>
<rscale>  0 0.95327095E+02</rscale>
<asrwt>0</asrwt>
<pdfrwt beam="1">  1        2 0.27949592E+00 0.17686217E+03</pdfrwt>
<pdfrwt beam="2">  1        2 0.13215960E+00 0.51380434E+02</pdfrwt>
<totfact> 0.52308088E+01</totfact>
</mgrwt>
</event>
<event>
13    1  0.1589573E-008  0.3352895E+03  0.7546771E-02  0.1280958E+00
          2   -1    0    0  502    0  0.00000000000E+00  0.00000000000E+00  0.13746008419E+04  0.13746008419E+04  0.00000000000E+00 0. -1.
          2   -1    0    0  503    0 -0.00000000000E+00 -0.00000000000E+00 -0.33498708055E+04  0.33498708055E+04  0.00000000000E+00 0. -1.
         24    2    1    2    0    0  0.30947559089E+02 -0.36097235515E+03 -0.38519482055E+03  0.53350315945E+03  0.70652521332E+02 0.  0.
         25    2    1    2    0    0  0.65949623646E+03  0.41112082929E+03  0.53934912909E+03  0.95418977570E+03  0.12500009125E+03 0.  0.
         24    2    1    2    0    0 -0.11912081883E+03  0.10081945155E+03 -0.26565972102E+03  0.31560051495E+03  0.68368606624E+02 0.  0.
        -11    1    3    3    0    0  0.42903589002E+02 -0.32098263345E+03 -0.31458837643E+03  0.45148246423E+03  0.00000000000E+00 0.  1.
         12    1    3    3    0    0 -0.11956029913E+02 -0.39989721704E+02 -0.70606444119E+02  0.82020695220E+02  0.00000000000E+00 0. -1.
        -13    1    5    5    0    0 -0.56347314416E+02  0.90719438817E+02 -0.16567549776E+03  0.19711267585E+03  0.00000000000E+00 0.  1.
         14    1    5    5    0    0 -0.62773504416E+02  0.10100012737E+02 -0.99984223260E+02  0.11848783910E+03  0.00000000000E+00 0. -1.
          5    1    4    4  501    0  0.60649790344E+03  0.33479059879E+03  0.45699504173E+03  0.82993434082E+03  0.47000000000E+01 0. -1.
         -5    1    4    4    0  501  0.52998333027E+02  0.76330230495E+02  0.82354087357E+02  0.12425543487E+03  0.47000000000E+01 0. -1.
          1    1    1    2  502    0 -0.19309211067E+02  0.22484567657E+02  0.49327026256E+03  0.49415984594E+03  0.00000000000E+00 0. -1.
          1    1    1    2  503    0 -0.55201376565E+03 -0.17345249334E+03 -0.23570348137E+04  0.24270183514E+04  0.00000000000E+00 0. -1.
<mgrwt>
<rscale>  0 0.99685784E+02</rscale>
<asrwt>0</asrwt>
<pdfrwt beam="1">  1        2 0.20214718E+00 0.29637838E+02</pdfrwt>
<pdfrwt beam="2">  1        2 0.49262806E+00 0.33528949E+03</pdfrwt>
<totfact> 0.48280416E+00</totfact>
</mgrwt>
</event>
<event>
13    1  0.1589573E-008  0.2408820E+03  0.7546771E-02  0.1129489E+00
          2   -1    0    0  503    0  0.00000000000E+00  0.00000000000E+00  0.39646384618E+04  0.39646384618E+04  0.00000000000E+00 0. -1.
         -1   -1    0    0    0  501 -0.00000000000E+00 -0.00000000000E+00 -0.66204610784E+03  0.66204610784E+03  0.00000000000E+00 0.  1.
         24    2    1    2    0    0 -0.10372677838E+03 -0.15063655945E+03  0.92821574308E+03  0.94929642764E+03  0.78285530238E+02 0.  0.
         25    2    1    2    0    0  0.43903263932E+02  0.13698935253E+03  0.51936504842E+03  0.55322685257E+03  0.12500527027E+03 0.  0.
         24    2    1    2    0    0  0.31939624683E+03 -0.23094168318E+03  0.36329822800E+03  0.54202038323E+03  0.80327267110E+02 0.  0.
        -11    1    5    5    0    0  0.20751048628E+03 -0.16072511458E+03  0.28924917396E+03  0.39058705689E+03  0.00000000000E+00 0.  1.
         12    1    5    5    0    0  0.11188576056E+03 -0.70216568606E+02  0.74049054043E+02  0.15143332634E+03  0.00000000000E+00 0. -1.
        -13    1    3    3    0    0 -0.30194031564E+02 -0.17115245894E+02  0.75921979973E+02  0.83479088562E+02  0.00000000000E+00 0.  1.
         14    1    3    3    0    0 -0.73532746811E+02 -0.13352131355E+03  0.85229376311E+03  0.86581733908E+03  0.00000000000E+00 0. -1.
          5    1    4    4  502    0 -0.17598306412E+01 -0.23198257389E+02  0.56635392346E+02  0.61407766740E+02  0.47000000000E+01 0. -1.
         -5    1    4    4    0  502  0.45663094573E+02  0.16018760992E+03  0.46272965607E+03  0.49181908583E+03  0.47000000000E+01 0. -1.
          1    1    1    2  503    0 -0.69730645440E+02  0.33652215547E+03  0.20013160886E+04  0.20306096647E+04  0.00000000000E+00 0. -1.
         -2    1    1    2    0  501 -0.18984208695E+03 -0.91933265376E+02 -0.50960275415E+03  0.55153124145E+03  0.00000000000E+00 0.  1.
<mgrwt>
<rscale>  0 0.22599779E+03</rscale>
<asrwt>0</asrwt>
<pdfrwt beam="1">  1        2 0.58303506E+00 0.24088203E+03</pdfrwt>
<pdfrwt beam="2">  1       -1 0.97359724E-01 0.21203326E+03</pdfrwt>
<totfact> 0.82086064E-01</totfact>
</mgrwt>
</event>
<event>
13    1  0.1589573E-008  0.7279048E+02  0.7546771E-02  0.1383670E+00
          2   -1    0    0  503    0  0.00000000000E+00  0.00000000000E+00  0.15770679201E+04  0.15770679201E+04  0.00000000000E+00 0. -1.
          2   -1    0    0  502    0 -0.00000000000E+00 -0.00000000000E+00 -0.71779561629E+03  0.71779561629E+03  0.00000000000E+00 0. -1.
         24    2    1    2    0    0  0.13547181427E+01 -0.16499214120E+03 -0.43895056272E+02  0.18856780784E+03  0.80042490390E+02 0.  0.
         25    2    1    2    0    0  0.14607091782E+02  0.13205441027E+03  0.76627446101E+03  0.78768885640E+03  0.12500180195E+03 0.  0.
         24    2    1    2    0    0  0.26175384288E+01  0.35295669430E+02  0.99598804530E+02  0.13273526669E+03  0.80287566736E+02 0.  0.
        -11    1    5    5    0    0 -0.33144226320E+02  0.11579376186E+02  0.76106869778E+02  0.83814541212E+02  0.00000000000E+00 0.  1.
         12    1    5    5    0    0  0.35761764749E+02  0.23716293244E+02  0.23491934751E+02  0.48920725480E+02  0.00000000000E+00 0. -1.
        -11    1    3    3    0    0  0.47070476901E+01 -0.28872350309E+02 -0.43481397625E+02  0.52406114621E+02  0.00000000000E+00 0.  1.
         12    1    3    3    0    0 -0.33523295475E+01 -0.13611979089E+03 -0.41365864741E+00  0.13616169321E+03  0.00000000000E+00 0. -1.
          5    1    4    4  501    0  0.59960156021E+02  0.42320886962E+02  0.21312959939E+03  0.22546084787E+03  0.47000000000E+01 0.  1.
         -5    1    4    4    0  501 -0.45353064239E+02  0.89733523312E+02  0.55314486162E+03  0.56222800853E+03  0.47000000000E+01 0.  1.
          1    1    1    2  502    0  0.54845039484E+02 -0.78979822106E+01 -0.57072579012E+03  0.57340935115E+03  0.00000000000E+00 0. -1.
          1    1    1    2  503    0 -0.73424387838E+02  0.55400437059E+01  0.60801988461E+03  0.61246225426E+03  0.00000000000E+00 0. -1.
<mgrwt>
<rscale>  0 0.63508887E+02</rscale>
<asrwt>0</asrwt>
<pdfrwt beam="1">  1        2 0.23192175E+00 0.72790483E+02</pdfrwt>
<pdfrwt beam="2">  1        2 0.10555818E+00 0.55410797E+02</pdfrwt>
<totfact> 0.10562426E+02</totfact>
</mgrwt>
</event>
<event>
13    1  0.1589573E-008  0.1096907E+03  0.7546771E-02  0.1368060E+00
         -1   -1    0    0    0  501 -0.00000000000E+00  0.00000000000E+00  0.38732912681E+03  0.38732912681E+03  0.00000000000E+00 0.  1.
          2   -1    0    0  503    0  0.00000000000E+00 -0.00000000000E+00 -0.12738875038E+04  0.12738875038E+04  0.00000000000E+00 0. -1.
         24    2    1    2    0    0 -0.58612316315E+01  0.21854504184E+02  0.18175369834E+03  0.19997069731E+03  0.80261444870E+02 0.  0.
         25    2    1    2    0    0  0.25110072589E+02 -0.27788065557E+03 -0.39749873689E+03  0.50147604741E+03  0.12499922322E+03 0.  0.
         24    2    1    2    0    0  0.15991683769E+02  0.19656837857E+03 -0.24430275015E+02  0.21391431134E+03  0.79168382915E+02 0.  0.
        -11    1    5    5    0    0  0.23001195537E+02  0.69970573552E+02  0.25068069187E+02  0.77803240627E+02  0.00000000000E+00 0.  1.
         12    1    5    5    0    0 -0.70095117675E+01  0.12659780502E+03 -0.49498344202E+02  0.13611107071E+03  0.00000000000E+00 0. -1.
        -13    1    3    3    0    0 -0.28930895642E+02  0.29963565259E+02  0.46093698384E+02  0.62124399364E+02  0.00000000000E+00 0.  1.
         14    1    3    3    0    0  0.23069664010E+02 -0.81090610745E+01  0.13565999996E+03  0.13784629795E+03  0.00000000000E+00 0. -1.
          5    1    4    4  502    0  0.20704094434E+01 -0.12447552669E+03 -0.79943358741E+02  0.14802524766E+03  0.47000000000E+01 0. -1.
         -5    1    4    4    0  502  0.23039663146E+02 -0.15340512888E+03 -0.31755537815E+03  0.35345079974E+03  0.47000000000E+01 0. -1.
          1    1    1    2  503    0 -0.47978537589E+02  0.99264796253E+02 -0.68205413925E+03  0.69090758334E+03  0.00000000000E+00 0. -1.
         -2    1    1    2    0  501  0.12738012862E+02 -0.39807023441E+02  0.35671075838E+02  0.54947991213E+02  0.00000000000E+00 0.  1.
<mgrwt>
<rscale>  0 0.67709442E+02</rscale>
<asrwt>0</asrwt>
<pdfrwt beam="2">  1        2 0.18733640E+00 0.10969073E+03</pdfrwt>
<pdfrwt beam="1">  1       -1 0.56960166E-01 0.41795407E+02</pdfrwt>
<totfact> 0.78391095E+01</totfact>
</mgrwt>
</event>
<event>
13    1  0.1589573E-008  0.1286110E+03  0.7546771E-02  0.1256615E+00
          2   -1    0    0  503    0  0.00000000000E+00  0.00000000000E+00  0.82569735977E+03  0.82569735977E+03  0.00000000000E+00 0. -1.
          2   -1    0    0  502    0 -0.00000000000E+00 -0.00000000000E+00 -0.37417792422E+04  0.37417792422E+04  0.00000000000E+00 0. -1.
         24    2    1    2    0    0  0.36732163696E+02  0.62336973964E-01 -0.12334662490E+04  0.12371607686E+04  0.88195942621E+02 0.  0.
         25    2    1    2    0    0 -0.10231320874E+03  0.15922308792E+03 -0.50974853233E+03  0.55793433654E+03  0.12500869277E+03 0.  0.
         24    2    1    2    0    0  0.86486949363E+02  0.64387353845E+02  0.35798736509E+03  0.38110723644E+03  0.73905672023E+02 0.  0.
        -11    1    5    5    0    0  0.68499949607E+01  0.53328186254E+01 -0.94639069195E+00  0.87325277437E+01  0.00000000000E+00 0.  1.
         12    1    5    5    0    0  0.79636954403E+02  0.59054535220E+02  0.35893375579E+03  0.37237470870E+03  0.00000000000E+00 0. -1.
        -11    1    3    3    0    0  0.53027833047E+02  0.18928426235E+02 -0.48141424264E+03  0.48469568743E+03  0.00000000000E+00 0.  1.
         12    1    3    3    0    0 -0.16295669351E+02 -0.18866089261E+02 -0.75205200633E+03  0.75246508117E+03  0.00000000000E+00 0. -1.
          5    1    4    4  501    0 -0.18300879664E+02 -0.20462976674E+02 -0.50823995952E+02  0.57955363646E+02  0.47000000000E+01 0.  1.
         -5    1    4    4    0  501 -0.84012329078E+02  0.17968606459E+03 -0.45892453638E+03  0.49997897289E+03  0.47000000000E+01 0.  1.
          1    1    1    2  502    0 -0.57145244332E+01 -0.97553191984E+02 -0.19504370415E+04  0.19528834921E+04  0.00000000000E+00 0. -1.
          1    1    1    2  503    0 -0.15191379885E+02 -0.12611958675E+03  0.41958257528E+03  0.43839076823E+03  0.00000000000E+00 0. -1.
<mgrwt>
<rscale>  0 0.11216376E+03</rscale>
<asrwt>0</asrwt>
<pdfrwt beam="1">  1        2 0.12142608E+00 0.12861098E+03</pdfrwt>
<pdfrwt beam="2">  1        2 0.55026167E+00 0.97819861E+02</pdfrwt>
<totfact> 0.62971507E+00</totfact>
</mgrwt>
</event>
<event>
13    1  0.1589573E-008  0.1004585E+03  0.7546771E-02  0.1326767E+00
          2   -1    0    0  502    0  0.00000000000E+00  0.00000000000E+00  0.39893619696E+04  0.39893619696E+04  0.00000000000E+00 0. -1.
          2   -1    0    0  503    0 -0.00000000000E+00 -0.00000000000E+00 -0.21113825445E+04  0.21113825445E+04  0.00000000000E+00 0. -1.
         24    2    1    2    0    0  0.10832536226E+03  0.98605440546E+02 -0.22963201203E+03  0.28660291227E+03  0.89179321363E+02 0.  0.
         25    2    1    2    0    0 -0.13484128002E+03  0.10468943531E+03  0.77534333500E+03  0.80369294497E+03  0.12499205578E+03 0.  0.
         24    2    1    2    0    0 -0.55613538518E+02 -0.13238838742E+03  0.39395423878E+03  0.42688981265E+03  0.80096311411E+02 0.  0.
        -11    1    5    5    0    0  0.16793984613E+02 -0.39698115567E+02  0.14985084900E+03  0.15592708310E+03  0.00000000000E+00 0.  1.
         12    1    5    5    0    0 -0.72407523131E+02 -0.92690271850E+02  0.24410338979E+03  0.27096272955E+03  0.00000000000E+00 0. -1.
        -13    1    3    3    0    0  0.13141185423E+02  0.28226430351E+02 -0.12432443254E+03  0.12816390541E+03  0.00000000000E+00 0.  1.
         14    1    3    3    0    0  0.95184176835E+02  0.70379010195E+02 -0.10530757950E+03  0.15843900686E+03  0.00000000000E+00 0. -1.
          5    1    4    4  501    0 -0.94505658499E+02  0.13190362513E+03  0.57539781957E+03  0.59785836665E+03  0.47000000000E+01 0. -1.
         -5    1    4    4    0  501 -0.40335621519E+02 -0.27214189828E+02  0.19994551543E+03  0.20583457832E+03  0.47000000000E+01 0. -1.
          1    1    1    2  502    0  0.22965710018E+02 -0.97839207618E+02  0.27594417109E+04  0.27612711729E+04  0.00000000000E+00 0. -1.
          1    1    1    2  503    0  0.59163746261E+02  0.26932719182E+02 -0.18211278475E+04  0.18222876714E+04  0.00000000000E+00 0. -1.
<mgrwt>
<rscale>  0 0.80810648E+02</rscale>
<asrwt>0</asrwt>
<pdfrwt beam="1">  1        2 0.58667088E+00 0.10045853E+03</pdfrwt>
<pdfrwt beam="2">  1        2 0.31049743E+00 0.65005540E+02</pdfrwt>
<totfact> 0.99285267E-01</totfact>
</mgrwt>
</event>
<event>
13    1  0.1589573E-008  0.1389845E+03  0.7546771E-02  0.1264288E+00
          2   -1    0    0  502    0  0.00000000000E+00  0.00000000000E+00  0.71308740280E+03  0.71308740280E+03  0.00000000000E+00 0. -1.
          2   -1    0    0  503    0 -0.00000000000E+00 -0.00000000000E+00 -0.45420144406E+04  0.45420144406E+04  0.00000000000E+00 0. -1.
         24    2    1    2    0    0 -0.98218715438E+02  0.16388813010E+03 -0.92318135210E+03  0.94616029645E+03  0.80307300175E+02 0.  0.
         25    2    1    2    0    0 -0.70232940570E+02 -0.23299599973E+02  0.29757096926E+02  0.14828446385E+03  0.12500904008E+03 0.  0.
         24    2    1    2    0    0 -0.26418175401E+02 -0.12864469377E+03 -0.59157828721E+02  0.16534348377E+03  0.81187694272E+02 0.  0.
        -11    1    3    3    0    0 -0.74144916403E+02  0.81309827985E+02 -0.35981734390E+03  0.37626756136E+03  0.00000000000E+00 0.  1.
         12    1    3    3    0    0 -0.24073799035E+02  0.82578302115E+02 -0.56336400820E+03  0.56989273509E+03  0.00000000000E+00 0. -1.
        -13    1    5    5    0    0 -0.15296959783E+02 -0.71837619631E+01 -0.37952137945E+02  0.41544773307E+02  0.00000000000E+00 0.  1.
         14    1    5    5    0    0 -0.11121215618E+02 -0.12146093181E+03 -0.21205690776E+02  0.12379871047E+03  0.00000000000E+00 0. -1.
          5    1    4    4  501    0 -0.91212772673E+02 -0.37232640187E+02 -0.11933984747E+02  0.99350638578E+02  0.47000000000E+01 0. -1.
         -5    1    4    4    0  501  0.20979832102E+02  0.13933040214E+02  0.41691081674E+02  0.48933825272E+02  0.47000000000E+01 0. -1.
          1    1    1    2  502    0  0.63210284610E+02 -0.55243027094E+02  0.55492841162E+03  0.56124225977E+03  0.00000000000E+00 0. -1.
          1    1    1    2  503    0  0.13165954680E+03  0.43299190737E+02 -0.34312733655E+04  0.34340713395E+04  0.00000000000E+00 0. -1.
<mgrwt>
<rscale>  0 0.10801630E+03</rscale>
<asrwt>0</asrwt>
<pdfrwt beam="1">  1        2 0.10486580E+00 0.83948390E+02</pdfrwt>
<pdfrwt beam="2">  1        2 0.66794328E+00 0.13898445E+03</pdfrwt>
<totfact> 0.19141627E+00</totfact>
</mgrwt>
</event>
<event>
13    1  0.1589573E-008  0.1818004E+03  0.7546771E-02  0.1287279E+00
          2   -1    0    0  503    0  0.00000000000E+00  0.00000000000E+00  0.11979889169E+04  0.11979889169E+04  0.00000000000E+00 0. -1.
          2   -1    0    0  502    0 -0.00000000000E+00 -0.00000000000E+00 -0.26883784054E+04  0.26883784054E+04  0.00000000000E+00 0. -1.
         24    2    1    2    0    0  0.18558983624E+03  0.35152078837E+02 -0.11089176809E+04  0.11276582085E+04  0.78964272258E+02 0.  0.
         25    2    1    2    0    0 -0.73084847666E+02  0.15593627478E+03  0.50751440949E+03  0.55032466855E+03  0.12501539196E+03 0.  0.
         24    2    1    2    0    0 -0.19248508299E+02  0.21547954020E+02  0.90181690843E+02  0.12394965898E+03  0.79974753534E+02 0.  0.
        -13    1    5    5    0    0  0.24181423857E+02  0.30689384731E+02  0.30455618256E+02  0.49539118666E+02  0.00000000000E+00 0.  1.
         14    1    5    5    0    0 -0.43429932156E+02 -0.91414307113E+01  0.59726072587E+02  0.74410540310E+02  0.00000000000E+00 0. -1.
        -13    1    3    3    0    0  0.83273838263E+01 -0.17385233648E+02 -0.13191647115E+03  0.13331746709E+03  0.00000000000E+00 0.  1.
         14    1    3    3    0    0  0.17726245241E+03  0.52537312485E+02 -0.97700120976E+03  0.99434074145E+03  0.00000000000E+00 0. -1.
          5    1    4    4  501    0 -0.10083358937E+03  0.10053483034E+03  0.27580338308E+03  0.31042593476E+03  0.47000000000E+01 0.  1.
         -5    1    4    4    0  501  0.27748741707E+02  0.55401444443E+02  0.23171102641E+03  0.23989873379E+03  0.47000000000E+01 0.  1.
          1    1    1    2  502    0 -0.79697858463E+02 -0.16296357149E+03 -0.15252150174E+04  0.15359654044E+04  0.00000000000E+00 0. -1.
          1    1    1    2  503    0 -0.13558621809E+02 -0.49672736155E+02  0.54604710952E+03  0.54846938179E+03  0.00000000000E+00 0. -1.
<mgrwt>
<rscale>  0 0.96751731E+02</rscale>
<asrwt>0</asrwt>
<pdfrwt beam="1">  1        2 0.17617484E+00 0.51489969E+02</pdfrwt>
<pdfrwt beam="2">  1        2 0.39534976E+00 0.18180041E+03</pdfrwt>
<totfact> 0.14377838E+01</totfact>
</mgrwt>
</event>
<event>
13    1  0.1589573E-008  0.1456594E+03  0.7546771E-02  0.1252481E+00
         -3   -1    0    0    0  501 -0.00000000000E+00  0.00000000000E+00  0.43555541760E+03  0.43555541760E+03  0.00000000000E+00 0.  1.
          2   -1    0    0  503    0  0.00000000000E+00 -0.00000000000E+00 -0.15177899884E+04  0.15177899884E+04  0.00000000000E+00 0. -1.
         24    2    1    2    0    0 -0.27904847615E+02  0.86216409614E+01  0.70212672187E+02  0.11206867442E+03  0.82319835012E+02 0.  0.
         25    2    1    2    0    0  0.99836021370E+02 -0.10333622056E+03 -0.69655851768E+03  0.72212562079E+03  0.12500415200E+03 0.  0.
         24    2    1    2    0    0  0.68229160218E+02 -0.88902733779E+02 -0.25385167546E+03  0.28802608807E+03  0.77197408599E+02 0.  0.
        -11    1    3    3    0    0  0.23210029608E+02 -0.81986731599E+01  0.47821086712E+02  0.53784570746E+02  0.00000000000E+00 0.  1.
         12    1    3    3    0    0 -0.51114877222E+02  0.16820314121E+02  0.22391585475E+02  0.58284103671E+02  0.00000000000E+00 0. -1.
        -13    1    5    5    0    0  0.53172312505E+02 -0.96277580207E+01 -0.82445977557E+02  0.98576507125E+02  0.00000000000E+00 0.  1.
         14    1    5    5    0    0  0.15056847714E+02 -0.79274975758E+02 -0.17140569791E+03  0.18944958094E+03  0.00000000000E+00 0. -1.
          5    1    4    4  502    0  0.51739782623E+02 -0.50685394969E+02 -0.11363133699E+03  0.13483391679E+03  0.47000000000E+01 0. -1.
         -5    1    4    4    0  502  0.48096238747E+02 -0.52650825595E+02 -0.58292718068E+03  0.58729170401E+03  0.47000000000E+01 0. -1.
          1    1    1    2  503    0  0.57066471815E+02  0.69750014256E+02 -0.47051472588E+03  0.47906758809E+03  0.00000000000E+00 0. -1.
         -4    1    1    2    0  501 -0.19722680579E+03  0.11386729913E+03  0.26847767605E+03  0.35205743462E+03  0.00000000000E+00 0.  1.
<mgrwt>
<rscale>  0 0.11448602E+03</rscale>
<asrwt>0</asrwt>
<pdfrwt beam="2">  1        2 0.22320441E+00 0.89984259E+02</pdfrwt>
<pdfrwt beam="1">  1       -3 0.64052268E-01 0.14565936E+03</pdfrwt>
<totfact> 0.23237550E+01</totfact>
</mgrwt>
</event>
<event>
13    1  0.1589573E-008  0.2780806E+03  0.7546771E-02  0.1265626E+00
          2   -1    0    0  503    0  0.00000000000E+00  0.00000000000E+00  0.14062189427E+04  0.14062189427E+04  0.00000000000E+00 0. -1.
          2   -1    0    0  502    0 -0.00000000000E+00 -0.00000000000E+00 -0.31818752331E+04  0.31818752331E+04  0.00000000000E+00 0. -1.
         24    2    1    2    0    0  0.15832941893E+03 -0.34064050623E+03 -0.48844705530E+03  0.62068133303E+03  0.74569644989E+02 0.  0.
         25    2    1    2    0    0  0.48437723261E+02  0.22860570197E+03  0.79106601446E+03  0.83427567010E+03  0.12499469781E+03 0.  0.
         24    2    1    2    0    0 -0.15216835040E+02 -0.21709043038E+02 -0.53489656621E+02  0.99914224916E+02  0.80117877885E+02 0.  0.
        -11    1    3    3    0    0  0.13921870155E+02 -0.14549208305E+02 -0.65610762527E+01  0.21178896395E+02  0.00000000000E+00 0.  1.
         12    1    3    3    0    0  0.14440754878E+03 -0.32609129793E+03 -0.48188597905E+03  0.59950243663E+03  0.00000000000E+00 0. -1.
        -13    1    5    5    0    0  0.21871981654E+02  0.19012337424E+02 -0.22702692767E+02  0.36813921479E+02  0.00000000000E+00 0.  1.
         14    1    5    5    0    0 -0.37088816693E+02 -0.40721380462E+02 -0.30786963855E+02  0.63100303437E+02  0.00000000000E+00 0. -1.
          5    1    4    4  501    0 -0.28898492686E+02  0.14423261692E+03  0.50860493557E+03  0.52947071794E+03  0.47000000000E+01 0. -1.
         -5    1    4    4    0  501  0.77336215947E+02  0.84373085053E+02  0.28246107889E+03  0.30480495216E+03  0.47000000000E+01 0. -1.
          1    1    1    2  502    0 -0.21073535678E+03  0.17044576653E+03 -0.25208771229E+04  0.25354058095E+04  0.00000000000E+00 0. -1.
          1    1    1    2  503    0  0.19185049627E+02 -0.36701919229E+02  0.49609152997E+03  0.49781713823E+03  0.00000000000E+00 0. -1.
<mgrwt>
<rscale>  0 0.10731428E+03</rscale>
<asrwt>0</asrwt>
<pdfrwt beam="1">  1        2 0.20679690E+00 0.41413730E+02</pdfrwt>
<pdfrwt beam="2">  1        2 0.46792282E+00 0.27808062E+03</pdfrwt>
<totfact> 0.58499877E+00</totfact>
</mgrwt>
</event>
<event>
13    1  0.1589573E-008  0.3818878E+02  0.7546771E-02  0.1608101E+00
          2   -1    0    0  503    0  0.00000000000E+00  0.00000000000E+00  0.23858689251E+04  0.23858689251E+04  0.00000000000E+00 0. -1.
          2   -1    0    0  502    0 -0.00000000000E+00 -0.00000000000E+00 -0.98704866650E+03  0.98704866650E+03  0.00000000000E+00 0. -1.
         24    2    1    2    0    0 -0.38398703321E+02 -0.27018776318E+03 -0.72858079940E+02  0.29250560236E+03  0.75995656528E+02 0.  0.
         25    2    1    2    0    0  0.46604493239E+02  0.13325039222E+03  0.25770837686E+03  0.31932236579E+03  0.12500207989E+03 0.  0.
         24    2    1    2    0    0 -0.21779331560E+02  0.16159366503E+03 -0.38253240928E+03  0.42307366170E+03  0.77932196260E+02 0.  0.
        -11    1    5    5    0    0 -0.20657952397E+02  0.46772024695E+02 -0.50993958575E+02  0.72213275113E+02  0.00000000000E+00 0.  1.
         12    1    5    5    0    0 -0.11213791633E+01  0.11482164033E+03 -0.33153845071E+03  0.35086038659E+03  0.00000000000E+00 0. -1.
        -13    1    3    3    0    0 -0.19924682547E+02 -0.25713544728E+03 -0.55047434422E+02  0.26371547406E+03  0.00000000000E+00 0.  1.
         14    1    3    3    0    0 -0.18474020774E+02 -0.13052315904E+02 -0.17810645518E+02  0.28790128304E+02  0.00000000000E+00 0. -1.
          5    1    4    4  501    0  0.22482018934E+02 -0.13615976687E+01 -0.46035824360E+01  0.23464400585E+02  0.47000000000E+01 0. -1.
         -5    1    4    4    0  501  0.24122474305E+02  0.13461198989E+03  0.26231195929E+03  0.29585796521E+03  0.47000000000E+01 0. -1.
          1    1    1    2  502    0 -0.20744096062E+02 -0.78923116316E+01 -0.37023905922E+03  0.37090371672E+03  0.00000000000E+00 0. -1.
          1    1    1    2  503    0  0.34317637704E+02 -0.16763982431E+02  0.19667414302E+04  0.19671122450E+04  0.00000000000E+00 0. -1.
<mgrwt>
<rscale>  0 0.29113393E+02</rscale>
<asrwt>0</asrwt>
<pdfrwt beam="1">  1        2 0.35086308E+00 0.38188778E+02</pdfrwt>
<pdfrwt beam="2">  1        2 0.14515422E+00 0.22194731E+02</pdfrwt>
<totfact> 0.33842508E+01</totfact>
</mgrwt>
</event>
<event>
13    1  0.1589573E-008  0.1719412E+03  0.7546771E-02  0.1246302E+00
          2   -1    0    0  502    0  0.00000000000E+00  0.00000000000E+00  0.27631838713E+04  0.27631838713E+04  0.00000000000E+00 0. -1.
          2   -1    0    0  503    0 -0.00000000000E+00 -0.00000000000E+00 -0.21888148884E+03  0.21888148884E+03  0.00000000000E+00 0. -1.
         24    2    1    2    0    0  0.72234938712E+02 -0.26175708933E+02  0.31854353217E+03  0.33746361466E+03  0.80676237069E+02 0.  0.
         25    2    1    2    0    0 -0.23972585571E+03 -0.45278125234E+02  0.86546848850E+03  0.90784342656E+03  0.12500155219E+03 0.  0.
         24    2    1    2    0    0 -0.29771880397E+02  0.35843831393E+02  0.31470556216E+03  0.33318584477E+03  0.99005409890E+02 0.  0.
        -11    1    3    3    0    0  0.60234288844E+02 -0.52509876887E+02  0.26243911909E+03  0.27433510156E+03  0.00000000000E+00 0.  1.
         12    1    3    3    0    0  0.12000649868E+02  0.26334167954E+02  0.56104413080E+02  0.63128513099E+02  0.00000000000E+00 0. -1.
        -13    1    5    5    0    0 -0.62538091859E+02  0.16239013042E+02  0.13765270522E+03  0.15206244024E+03  0.00000000000E+00 0.  1.
         14    1    5    5    0    0  0.32766211462E+02  0.19604818351E+02  0.17705285694E+03  0.18112340452E+03  0.00000000000E+00 0. -1.
          5    1    4    4  501    0  0.14281029848E+02 -0.10881645975E+01  0.70694772771E+02  0.72283973416E+02  0.47000000000E+01 0. -1.
         -5    1    4    4    0  501 -0.25400688556E+03 -0.44189960636E+02  0.79477371573E+03  0.83555945315E+03  0.47000000000E+01 0. -1.
          1    1    1    2  502    0  0.13286441709E+03  0.84886021274E+02  0.12100104376E+04  0.12202392590E+04  0.00000000000E+00 0. -1.
          1    1    1    2  503    0  0.64398380304E+02 -0.49276018500E+02 -0.16442563796E+03  0.18333321522E+03  0.00000000000E+00 0. -1.
<mgrwt>
<rscale>  0 0.11807787E+03</rscale>
<asrwt>0</asrwt>
<pdfrwt beam="1">  1        2 0.40635055E+00 0.17194122E+03</pdfrwt>
<pdfrwt beam="2">  1        2 0.32188456E-01 0.81088084E+02</pdfrwt>
<totfact> 0.87780600E+01</totfact>
</mgrwt>
</event>
<event>
13    1  0.1589573E-008  0.9705146E+02  0.7546771E-02  0.1475533E+00
          2   -1    0    0  503    0  0.00000000000E+00  0.00000000000E+00  0.21691171671E+04  0.21691171671E+04  0.00000000000E+00 0. -1.
          2   -1    0    0  502    0 -0.00000000000E+00 -0.00000000000E+00 -0.27104225863E+04  0.27104225863E+04  0.00000000000E+00 0. -1.
         24    2    1    2    0    0  0.18727070056E+03  0.53819389465E+03 -0.16250118982E+04  0.17246150300E+04  0.94394644814E+02 0.  0.
         25    2    1    2    0    0 -0.12880621157E+03 -0.37106296104E+03  0.51944496395E+03  0.66312976921E+03  0.12505702318E+03 0.  0.
         24    2    1    2    0    0 -0.26092809387E+02 -0.60320001421E+02 -0.15967118907E+03  0.18934806653E+03  0.77707556944E+02 0.  0.
        -13    1    3    3    0    0  0.94844145586E+02  0.38528573004E+03 -0.11870183546E+04  0.12515802331E+04  0.00000000000E+00 0.  1.
         14    1    3    3    0    0  0.92426554971E+02  0.15290816461E+03 -0.43799354359E+03  0.47303479692E+03  0.00000000000E+00 0. -1.
        -13    1    5    5    0    0 -0.44844186814E+02 -0.58276045510E+02 -0.15225160155E+03  0.16907882406E+03  0.00000000000E+00 0.  1.
         14    1    5    5    0    0  0.18751377427E+02 -0.20439559116E+01 -0.74195875155E+01  0.20269242465E+02  0.00000000000E+00 0. -1.
          5    1    4    4  501    0 -0.18882768221E+02 -0.21423158550E+03  0.32835395213E+03  0.39254316838E+03  0.47000000000E+01 0. -1.
         -5    1    4    4    0  501 -0.10992344335E+03 -0.15683137554E+03  0.19109101182E+03  0.27058660083E+03  0.47000000000E+01 0. -1.
          1    1    1    2  502    0  0.85707558385E+01 -0.18830313021E+02 -0.78756530325E+03  0.78783700435E+03  0.00000000000E+00 0. -1.
          1    1    1    2  503    0 -0.40942435439E+02 -0.87980619166E+02  0.15114980074E+04  0.15146098833E+04  0.00000000000E+00 0. -1.
<mgrwt>
<rscale>  0 0.44809671E+02</rscale>
<asrwt>0</asrwt>
<pdfrwt beam="1">  1        2 0.31898782E+00 0.97051461E+02</pdfrwt>
<pdfrwt beam="2">  1        2 0.39859156E+00 0.20689092E+02</pdfrwt>
<totfact> 0.62147524E+00</totfact>
</mgrwt>
</event>
<event>
13    1  0.1589573E-008  0.1213346E+03  0.7546771E-02  0.1409729E+00
          2   -1    0    0  503    0  0.00000000000E+00  0.00000000000E+00  0.12092304401E+04  0.12092304401E+04  0.00000000000E+00 0. -1.
          2   -1    0    0  502    0 -0.00000000000E+00 -0.00000000000E+00 -0.49443814652E+03  0.49443814652E+03  0.00000000000E+00 0. -1.
         24    2    1    2    0    0 -0.34492996777E+02  0.29271846204E+03  0.80859772384E+02  0.31589408294E+03  0.79855519541E+02 0.  0.
         25    2    1    2    0    0  0.11860496553E+03 -0.15633319856E+03  0.19050988150E+03  0.30071733972E+03  0.12501878515E+03 0.  0.
         24    2    1    2    0    0  0.56136554674E+02 -0.40618270012E+01 -0.14605184840E+02  0.97056030841E+02  0.77709397689E+02 0.  0.
        -11    1    5    5    0    0 -0.18971194039E+02 -0.60761455533E+01  0.22703347624E+01  0.20049443085E+02  0.00000000000E+00 0.  1.
         12    1    5    5    0    0  0.75107748714E+02  0.20143185521E+01 -0.16875519603E+02  0.77006587757E+02  0.00000000000E+00 0. -1.
        -13    1    3    3    0    0 -0.14099248126E+02  0.23128485701E+03  0.93630324910E+02  0.24991620920E+03  0.00000000000E+00 0.  1.
         14    1    3    3    0    0 -0.20393748651E+02  0.61433605033E+02 -0.12770552526E+02  0.65977873740E+02  0.00000000000E+00 0. -1.
          5    1    4    4  501    0  0.12146441032E+02  0.74153318961E+01 -0.12096411353E+02  0.19259707799E+02  0.47000000000E+01 0. -1.
         -5    1    4    4    0  501  0.10645852450E+03 -0.16374853046E+03  0.20260629285E+03  0.28145763193E+03  0.47000000000E+01 0. -1.
          1    1    1    2  502    0 -0.14041394582E+03 -0.10530718744E+03 -0.23674134350E+03  0.29470687747E+03  0.00000000000E+00 0. -1.
          1    1    1    2  503    0  0.16542239152E+00 -0.27016249037E+02  0.69476916801E+03  0.69529425561E+03  0.00000000000E+00 0. -1.
<mgrwt>
<rscale>  0 0.57254409E+02</rscale>
<asrwt>0</asrwt>
<pdfrwt beam="1">  1        2 0.17782801E+00 0.27016755E+02</pdfrwt>
<pdfrwt beam="2">  1        2 0.72711492E-01 0.12133460E+03</pdfrwt>
<totfact> 0.25514921E+02</totfact>
</mgrwt>
</event>
<event>
13    1  0.1589573E-008  0.1962512E+03  0.7546771E-02  0.1305466E+00
          4   -1    0    0  503    0 -0.00000000000E+00  0.00000000000E+00  0.32038780972E+03  0.32038780972E+03  0.00000000000E+00 0. -1.
          2   -1    0    0  502    0  0.00000000000E+00 -0.00000000000E+00 -0.25589970502E+04  0.25589970502E+04  0.00000000000E+00 0. -1.
         24    2    1    2    0    0  0.54849916014E+02  0.52314623822E+02 -0.21342425940E+02  0.11406502530E+03  0.82522710206E+02 0.  0.
         25    2    1    2    0    0 -0.18257650892E+03 -0.13837484399E+03  0.75134662931E+02  0.27157394077E+03  0.12500163468E+03 0.  0.
         24    2    1    2    0    0  0.16510214267E+03 -0.65615012667E+02 -0.37582303131E+03  0.42340250911E+03  0.80390835653E+02 0.  0.
        -11    1    5    5    0    0 -0.50591283146E+01  0.21456833314E+01 -0.44384466096E+02  0.44723367124E+02  0.00000000000E+00 0.  1.
         12    1    5    5    0    0  0.17016127098E+03 -0.67760695998E+02 -0.33143856522E+03  0.37867914199E+03  0.00000000000E+00 0. -1.
        -11    1    3    3    0    0  0.44789414122E+02  0.76873276034E+01  0.22492883374E+02  0.50706177390E+02  0.00000000000E+00 0.  1.
         12    1    3    3    0    0  0.10060501893E+02  0.44627296218E+02 -0.43835309314E+02  0.63358847912E+02  0.00000000000E+00 0. -1.
          5    1    4    4  501    0 -0.12476243934E+02  0.22091196396E+02 -0.34348167806E+00  0.25804759262E+02  0.47000000000E+01 0. -1.
         -5    1    4    4    0  501 -0.17010026499E+03 -0.16046604038E+03  0.75478144609E+02  0.24576918151E+03  0.47000000000E+01 0. -1.
          1    1    1    2  502    0 -0.51016087317E+02  0.18959371522E+03 -0.19829770871E+04  0.19926732161E+04  0.00000000000E+00 0. -1.
          3    1    1    2  503    0  0.13640537558E+02 -0.37918482392E+02  0.66398640990E+02  0.77670168644E+02  0.00000000000E+00 0. -1.
<mgrwt>
<rscale>  0 0.88929192E+02</rscale>
<asrwt>0</asrwt>
<pdfrwt beam="2">  1        2 0.37632309E+00 0.19625120E+03</pdfrwt>
<pdfrwt beam="1">  1        4 0.47115855E-01 0.40297340E+02</pdfrwt>
<totfact> 0.89887602E+00</totfact>
</mgrwt>
</event>
<event>
13    1  0.1589573E-008  0.9517330E+02  0.7546771E-02  0.1335853E+00
          2   -1    0    0  503    0  0.00000000000E+00  0.00000000000E+00  0.41891065215E+04  0.41891065215E+04  0.00000000000E+00 0. -1.
          2   -1    0    0  502    0 -0.00000000000E+00 -0.00000000000E+00 -0.14900520897E+04  0.14900520897E+04  0.00000000000E+00 0. -1.
         24    2    1    2    0    0 -0.88698227372E+03 -0.12745198104E+04  0.68789729852E+03  0.17014994484E+04  0.10372742431E+03 0.  0.
         25    2    1    2    0    0  0.90406673970E+03  0.10662909144E+04  0.96843425346E+03  0.17052303644E+04  0.12503082926E+03 0.  0.
         24    2    1    2    0    0 -0.10124619242E+03  0.17086054927E+03  0.32574975737E+03  0.38968944187E+03  0.79377817428E+02 0.  0.
        -13    1    3    3    0    0 -0.14145175190E+03 -0.18461061734E+03  0.65162802282E+02  0.24152819494E+03  0.00000000000E+00 0.  1.
         14    1    3    3    0    0 -0.74553052181E+03 -0.10899091930E+04  0.62273449624E+03  0.14599712534E+04  0.00000000000E+00 0. -1.
        -13    1    5    5    0    0  0.67463289560E+00  0.55485218873E+02  0.12453978433E+03  0.13634229910E+03  0.00000000000E+00 0.  1.
         14    1    5    5    0    0 -0.10192082532E+03  0.11537533039E+03  0.20120997304E+03  0.25334714276E+03  0.00000000000E+00 0. -1.
          5    1    4    4  501    0  0.41191841989E+03  0.45918881802E+03  0.49986011478E+03  0.79398575528E+03  0.47000000000E+01 0. -1.
         -5    1    4    4    0  501  0.49214831981E+03  0.60710209639E+03  0.46857413868E+03  0.91124460908E+03  0.47000000000E+01 0. -1.
          1    1    1    2  502    0  0.42569350999E+02  0.85158596520E+02 -0.57821602033E+03  0.58600162318E+03  0.00000000000E+00 0. -1.
          1    1    1    2  503    0  0.41592375441E+02 -0.47790249823E+02  0.12951891428E+04  0.12967377334E+04  0.00000000000E+00 0. -1.
<mgrwt>
<rscale>  0 0.77651062E+02</rscale>
<asrwt>0</asrwt>
<pdfrwt beam="1">  1        2 0.61604507E+00 0.63354824E+02</pdfrwt>
<pdfrwt beam="2">  1        2 0.21912531E+00 0.95173296E+02</pdfrwt>
<totfact> 0.15341154E+00</totfact>
</mgrwt>
</event>
<event>
13    1  0.1589573E-008  0.1694590E+03  0.7546771E-02  0.1401701E+00
          2   -1    0    0  502    0  0.00000000000E+00  0.00000000000E+00  0.14397391817E+04  0.14397391817E+04  0.00000000000E+00 0. -1.
          2   -1    0    0  503    0 -0.00000000000E+00 -0.00000000000E+00 -0.76707103829E+03  0.76707103829E+03  0.00000000000E+00 0. -1.
         24    2    1    2    0    0 -0.18951378804E+03  0.94255949102E+02 -0.16041231692E+03  0.27766375567E+03  0.81027094208E+02 0.  0.
         25    2    1    2    0    0  0.15859670998E+03 -0.23336938503E+03  0.43874138408E+03  0.53639945705E+03  0.12496475152E+03 0.  0.
         24    2    1    2    0    0  0.36181296255E+02 -0.21840371108E+02  0.14574989605E+02  0.90906462312E+02  0.79154700172E+02 0.  0.
        -11    1    5    5    0    0 -0.21997294632E+02 -0.19386872900E+02  0.14421735328E+02  0.32675958468E+02  0.00000000000E+00 0.  1.
         12    1    5    5    0    0  0.58178590887E+02 -0.24534982086E+01  0.15325427779E+00  0.58230503844E+02  0.00000000000E+00 0. -1.
        -13    1    3    3    0    0 -0.10570921173E+03  0.26141636468E+02 -0.12079439698E+03  0.16263182021E+03  0.00000000000E+00 0.  1.
         14    1    3    3    0    0 -0.83804576315E+02  0.68114312634E+02 -0.39617919933E+02  0.11503193546E+03  0.00000000000E+00 0. -1.
          5    1    4    4  501    0  0.64486507819E+02 -0.14909079919E+03  0.14981997532E+03  0.22103097316E+03  0.47000000000E+01 0. -1.
         -5    1    4    4    0  501  0.94110202158E+02 -0.84278585846E+02  0.28892140876E+03  0.31536848388E+03  0.47000000000E+01 0. -1.
          1    1    1    2  502    0  0.13318908238E+02  0.16985018810E+03  0.83193475009E+03  0.84920074665E+03  0.00000000000E+00 0. -1.
          1    1    1    2  503    0 -0.18583126428E+02 -0.88963810546E+01 -0.45217066342E+03  0.45263979834E+03  0.00000000000E+00 0. -1.
<mgrwt>
<rscale>  0 0.59087566E+02</rscale>
<asrwt>0</asrwt>
<pdfrwt beam="1">  1        2 0.21172635E+00 0.16945895E+03</pdfrwt>
<pdfrwt beam="2">  1        2 0.11280456E+00 0.20602868E+02</pdfrwt>
<totfact> 0.11084018E+02</totfact>
</mgrwt>
</event>
<event>
13    1  0.1589573E-008  0.9890710E+02  0.7546771E-02  0.1340317E+00
          2   -1    0    0  503    0  0.00000000000E+00  0.00000000000E+00  0.21953928165E+04  0.21953928165E+04  0.00000000000E+00 0. -1.
          2   -1    0    0  502    0 -0.00000000000E+00 -0.00000000000E+00 -0.16417188783E+04  0.16417188783E+04  0.00000000000E+00 0. -1.
         24    2    1    2    0    0  0.56051618693E+02  0.29907407200E+03 -0.60954907638E+03  0.68668588614E+03  0.86025259127E+02 0.  0.
         25    2    1    2    0    0 -0.11784436348E+03  0.14610130348E+03 -0.13013689270E+03  0.26037245781E+03  0.12500128425E+03 0.  0.
         24    2    1    2    0    0  0.10399621064E+03 -0.34141252741E+03  0.13146446588E+04  0.13646470444E+04  0.81198836413E+02 0.  0.
        -11    1    3    3    0    0 -0.58655402596E+01  0.15008073258E+03 -0.23545680717E+03  0.27928218507E+03  0.00000000000E+00 0.  1.
         12    1    3    3    0    0  0.61917158953E+02  0.14899333943E+03 -0.37409226921E+03  0.40740370107E+03  0.00000000000E+00 0. -1.
        -13    1    5    5    0    0  0.40091543773E+02 -0.25067055401E+03  0.86271254904E+03  0.89928638420E+03  0.00000000000E+00 0.  1.
         14    1    5    5    0    0  0.63904666864E+02 -0.90741973397E+02  0.45193210979E+03  0.46536066018E+03  0.00000000000E+00 0. -1.
          5    1    4    4  501    0  0.81036938347E+01  0.26447507838E+02  0.16877628523E+02  0.32742707114E+02  0.47000000000E+01 0. -1.
         -5    1    4    4    0  501 -0.12594805731E+03  0.11965379564E+03 -0.14701452122E+03  0.22762975070E+03  0.47000000000E+01 0. -1.
          1    1    1    2  502    0 -0.79659165185E+02 -0.58638678980E+02 -0.76902985273E+03  0.77536506993E+03  0.00000000000E+00 0. -1.
          1    1    1    2  503    0  0.37455699332E+02 -0.45124169096E+02  0.74774510121E+03  0.75004123649E+03  0.00000000000E+00 0. -1.
<mgrwt>
<rscale>  0 0.76159761E+02</rscale>
<asrwt>0</asrwt>
<pdfrwt beam="1">  1        2 0.32285188E+00 0.58644011E+02</pdfrwt>
<pdfrwt beam="2">  1        2 0.24142925E+00 0.98907102E+02</pdfrwt>
<totfact> 0.16700765E+01</totfact>
</mgrwt>
</event>
<event>
13    1  0.1589573E-008  0.6088298E+02  0.7546771E-02  0.1454133E+00
          2   -1    0    0  502    0  0.00000000000E+00  0.00000000000E+00  0.30729183116E+04  0.30729183116E+04  0.00000000000E+00 0. -1.
          2   -1    0    0  503    0 -0.00000000000E+00 -0.00000000000E+00 -0.37189901379E+03  0.37189901379E+03  0.00000000000E+00 0. -1.
         24    2    1    2    0    0  0.57840973964E+02 -0.12012401390E+02  0.35215736187E+03  0.36629241522E+03  0.81642206442E+02 0.  0.
         25    2    1    2    0    0 -0.31269762017E+02  0.49213755591E+02  0.75504230318E+03  0.76753876054E+03  0.12500831005E+03 0.  0.
         24    2    1    2    0    0  0.12289387789E+02  0.34873746516E+02  0.13601301430E+03  0.16179620977E+03  0.79443477936E+02 0.  0.
        -11    1    5    5    0    0 -0.49198791228E+01 -0.94975330472E+01  0.10374906313E+03  0.10429897624E+03  0.00000000000E+00 0.  1.
         12    1    5    5    0    0  0.17209266912E+02  0.44371279563E+02  0.32263951173E+02  0.57497233525E+02  0.00000000000E+00 0. -1.
        -11    1    3    3    0    0  0.59751351239E+02  0.21766533290E+02  0.27107863229E+03  0.27843784016E+03  0.00000000000E+00 0.  1.
         12    1    3    3    0    0 -0.19103772748E+01 -0.33778934680E+02  0.81078729573E+02  0.87854575058E+02  0.00000000000E+00 0. -1.
          5    1    4    4  501    0 -0.32687904993E+02  0.39500792025E+02  0.75490094274E+03  0.75665470001E+03  0.47000000000E+01 0.  1.
         -5    1    4    4    0  501  0.14181429766E+01  0.97129635655E+01  0.14136044045E+00  0.10884060525E+02  0.47000000000E+01 0.  1.
          1    1    1    2  502    0 -0.36804114368E+02 -0.11253240820E+02  0.18006127132E+04  0.18010239646E+04  0.00000000000E+00 0. -1.
          1    1    1    2  503    0 -0.20564853676E+01 -0.60821859897E+02 -0.34280609470E+03  0.34816597527E+03  0.00000000000E+00 0. -1.
<mgrwt>
<rscale>  0 0.48406065E+02</rscale>
<asrwt>0</asrwt>
<pdfrwt beam="1">  1        2 0.45189974E+00 0.38486079E+02</pdfrwt>
<pdfrwt beam="2">  1        2 0.54691033E-01 0.60882979E+02</pdfrwt>
<totfact> 0.43843640E+01</totfact>
</mgrwt>
</event>
<event>
13    1  0.1589573E-008  0.8439727E+02  0.7546771E-02  0.1345759E+00
          2   -1    0    0  502    0  0.00000000000E+00  0.00000000000E+00  0.34957042353E+04  0.34957042353E+04  0.00000000000E+00 0. -1.
          2   -1    0    0  503    0 -0.00000000000E+00 -0.00000000000E+00 -0.63479713807E+03  0.63479713807E+03  0.00000000000E+00 0. -1.
         24    2    1    2    0    0  0.50796382392E+02 -0.38494117653E+02 -0.53416175927E+02  0.11555063572E+03  0.80228374079E+02 0.  0.
         25    2    1    2    0    0 -0.30327480149E+02 -0.64804330624E+02  0.12172158946E+04  0.12257073506E+04  0.12499847197E+03 0.  0.
         24    2    1    2    0    0 -0.19331418082E+02 -0.69568764629E+01  0.12112935911E+03  0.14786636132E+03  0.82280236489E+02 0.  0.
        -11    1    3    3    0    0  0.28777157309E+02 -0.45802796370E+02  0.33804305031E+01  0.54198231045E+02  0.00000000000E+00 0.  1.
         12    1    3    3    0    0  0.22019225083E+02  0.73086787164E+01 -0.56796606430E+02  0.61352404678E+02  0.00000000000E+00 0. -1.
        -13    1    5    5    0    0 -0.39974274427E+02 -0.31239934200E+02  0.57367750885E+02  0.76582863268E+02  0.00000000000E+00 0.  1.
         14    1    5    5    0    0  0.20642856345E+02  0.24283057737E+02  0.63761608222E+02  0.71283498050E+02  0.00000000000E+00 0. -1.
          5    1    4    4  501    0 -0.25231874452E+02  0.33482421322E+02  0.49619688701E+03  0.49798710897E+03  0.47000000000E+01 0. -1.
         -5    1    4    4    0  501 -0.50956056965E+01 -0.98286751947E+02  0.72101900761E+03  0.72772024168E+03  0.47000000000E+01 0. -1.
          1    1    1    2  502    0  0.83139636729E+02  0.49158677744E+02  0.21024730869E+04  0.21046904418E+04  0.00000000000E+00 0. -1.
          1    1    1    2  503    0 -0.84277120889E+02  0.61096646996E+02 -0.52649506739E+03  0.53668658392E+03  0.00000000000E+00 0. -1.
<mgrwt>
<rscale>  0 0.74393771E+02</rscale>
<asrwt>0</asrwt>
<pdfrwt beam="1">  1        2 0.51407414E+00 0.84397269E+02</pdfrwt>
<pdfrwt beam="2">  1        2 0.93352522E-01 0.65575975E+02</pdfrwt>
<totfact> 0.12630514E+01</totfact>
</mgrwt>
</event>
<event>
13    1  0.1589573E-008  0.2125539E+03  0.7546771E-02  0.1324870E+00
          2   -1    0    0  502    0  0.00000000000E+00  0.00000000000E+00  0.46580062697E+03  0.46580062697E+03  0.00000000000E+00 0. -1.
          2   -1    0    0  503    0 -0.00000000000E+00 -0.00000000000E+00 -0.23796771867E+04  0.23796771867E+04  0.00000000000E+00 0. -1.
         24    2    1    2    0    0  0.63048498002E+02 -0.10028471386E+03 -0.61588368450E+03  0.63230465390E+03  0.80401029646E+02 0.  0.
         25    2    1    2    0    0 -0.72678674757E+02  0.20772193741E+03 -0.10627794620E+03  0.27448896511E+03  0.12497438567E+03 0.  0.
         24    2    1    2    0    0  0.12295965059E+02  0.12031831794E+03 -0.42495814437E+02  0.15066990167E+03  0.79169669928E+02 0.  0.
        -11    1    5    5    0    0  0.22567614107E+02  0.12892980782E+03 -0.41112236027E+02  0.13719478307E+03  0.00000000000E+00 0.  1.
         12    1    5    5    0    0 -0.10271649047E+02 -0.86114898790E+01 -0.13835784096E+01  0.13475118601E+02  0.00000000000E+00 0. -1.
        -13    1    3    3    0    0  0.37680547568E+02 -0.19805141385E+01 -0.10879044821E+03  0.11514819896E+03  0.00000000000E+00 0.  1.
         14    1    3    3    0    0  0.25367950435E+02 -0.98304199723E+02 -0.50709323629E+03  0.51715645494E+03  0.00000000000E+00 0. -1.
          5    1    4    4  501    0 -0.23908995947E+02  0.13201723167E+03 -0.12381119483E+03  0.18262390728E+03  0.47000000000E+01 0.  1.
         -5    1    4    4    0  501 -0.48769678809E+02  0.75704705745E+02  0.17533248634E+02  0.91865057834E+02  0.47000000000E+01 0.  1.
          1    1    1    2  502    0  0.10408411172E+02 -0.19937904574E+03  0.28801159307E+03  0.35044402784E+03  0.00000000000E+00 0. -1.
          1    1    1    2  503    0 -0.13074199477E+02 -0.28376495756E+02 -0.14372307077E+04  0.14375702651E+04  0.00000000000E+00 0. -1.
<mgrwt>
<rscale>  0 0.81491972E+02</rscale>
<asrwt>0</asrwt>
<pdfrwt beam="1">  1        2 0.68500090E-01 0.21255392E+03</pdfrwt>
<pdfrwt beam="2">  1        2 0.34995254E+00 0.31243563E+02</pdfrwt>
<totfact> 0.77272346E+01</totfact>
</mgrwt>
</event>
<event>
13    1  0.1589573E-008  0.7897695E+02  0.7546771E-02  0.1351975E+00
         -3   -1    0    0    0  501 -0.00000000000E+00  0.00000000000E+00  0.16286558466E+04  0.16286558466E+04  0.00000000000E+00 0.  1.
          2   -1    0    0  503    0  0.00000000000E+00 -0.00000000000E+00 -0.15619899293E+04  0.15619899293E+04  0.00000000000E+00 0. -1.
         24    2    1    2    0    0  0.10676103310E+02  0.44563056742E+02  0.16416500993E+03  0.18342747596E+03  0.67791173781E+02 0.  0.
         25    2    1    2    0    0  0.54438660511E+02 -0.29141511578E+02 -0.14143069582E+03  0.19859963340E+03  0.12500550872E+03 0.  0.
         24    2    1    2    0    0  0.25067382372E+01  0.52697838205E+02  0.66733198002E+02  0.11595599859E+03  0.78798020316E+02 0.  0.
        -11    1    3    3    0    0  0.62689649545E+01  0.59358165175E+02  0.92263767693E+02  0.10988764500E+03  0.00000000000E+00 0.  1.
         12    1    3    3    0    0  0.44071383556E+01 -0.14795108433E+02  0.71901242240E+02  0.73539830960E+02  0.00000000000E+00 0. -1.
        -13    1    5    5    0    0 -0.20132852837E+02  0.56100420775E+02  0.70964478547E+02  0.92674409574E+02  0.00000000000E+00 0.  1.
         14    1    5    5    0    0  0.22639591074E+02 -0.34025825699E+01 -0.42312805446E+01  0.23281589018E+02  0.00000000000E+00 0. -1.
          5    1    4    4  502    0  0.65341612914E+02 -0.71197071742E+01 -0.15621120433E+03  0.16954128396E+03  0.47000000000E+01 0.  1.
         -5    1    4    4    0  502 -0.10902952403E+02 -0.22021804404E+02  0.14780508508E+02  0.29058349438E+02  0.47000000000E+01 0.  1.
          1    1    1    2  503    0 -0.20650360149E+01 -0.78985230248E+02 -0.13557542463E+04  0.13580546776E+04  0.00000000000E+00 0. -1.
         -4    1    1    2    0  501 -0.65556466043E+02  0.10865846879E+02  0.13329526514E+04  0.13346079903E+04  0.00000000000E+00 0.  1.
<mgrwt>
<rscale>  0 0.72443677E+02</rscale>
<asrwt>0</asrwt>
<pdfrwt beam="2">  1        2 0.22970440E+00 0.78976951E+02</pdfrwt>
<pdfrwt beam="1">  1       -3 0.23950821E+00 0.66450861E+02</pdfrwt>
<totfact> 0.94291114E-01</totfact>
</mgrwt>
</event>
<event>
13    1  0.1589573E-008  0.3973629E+02  0.7546771E-02  0.1603144E+00
          2   -1    0    0  503    0  0.00000000000E+00  0.00000000000E+00  0.18422308035E+04  0.18422308035E+04  0.00000000000E+00 0. -1.
          2   -1    0    0  502    0 -0.00000000000E+00 -0.00000000000E+00 -0.17625895973E+04  0.17625895973E+04  0.00000000000E+00 0. -1.
         24    2    1    2    0    0 -0.72419425898E+03  0.36637173964E+03  0.24210320759E+03  0.85210483388E+03  0.93718239672E+02 0.  0.
         25    2    1    2    0    0  0.40828101782E+03 -0.58951593181E+03 -0.16064150911E+03  0.74542299667E+03  0.12500930424E+03 0.  0.
         24    2    1    2    0    0  0.31615550621E+03  0.16961227037E+03 -0.32983448825E+03  0.49461513354E+03  0.84443556998E+02 0.  0.
        -11    1    3    3    0    0 -0.68960597610E+03  0.33622236585E+03  0.24694159166E+03  0.80596651994E+03  0.00000000000E+00 0.  1.
         12    1    3    3    0    0 -0.34588282880E+02  0.30149373791E+02 -0.48383840773E+01  0.46138313938E+02  0.00000000000E+00 0. -1.
        -13    1    5    5    0    0  0.15101218608E+03  0.12503026686E+03 -0.15401723936E+03  0.24931618078E+03  0.00000000000E+00 0.  1.
         14    1    5    5    0    0  0.16514332012E+03  0.44582003515E+02 -0.17581724889E+03  0.24529895276E+03  0.00000000000E+00 0. -1.
          5    1    4    4  501    0  0.99089416441E+02 -0.20097696560E+03 -0.99078161266E+02  0.24504902610E+03  0.47000000000E+01 0. -1.
         -5    1    4    4    0  501  0.30919160138E+03 -0.38853896621E+03 -0.61563347847E+02  0.50037397057E+03  0.47000000000E+01 0. -1.
          1    1    1    2  502    0 -0.14638229912E+02  0.36933906455E+02 -0.59153417119E+03  0.59286682055E+03  0.00000000000E+00 0. -1.
          1    1    1    2  503    0  0.14395964864E+02  0.16598015337E+02  0.91954816711E+03  0.91981061613E+03  0.00000000000E+00 0. -1.
<mgrwt>
<rscale>  0 0.29547552E+02</rscale>
<asrwt>0</asrwt>
<pdfrwt beam="1">  1        2 0.27091630E+00 0.21971298E+02</pdfrwt>
<pdfrwt beam="2">  1        2 0.25920435E+00 0.39736288E+02</pdfrwt>
<totfact> 0.25956663E+01</totfact>
</mgrwt>
</event>
<event>
13    1  0.1589573E-008  0.1665875E+03  0.7546771E-02  0.1400861E+00
          2   -1    0    0  502    0  0.00000000000E+00  0.00000000000E+00  0.18751188544E+04  0.18751188544E+04  0.00000000000E+00 0. -1.
          2   -1    0    0  503    0 -0.00000000000E+00 -0.00000000000E+00 -0.18340760536E+04  0.18340760536E+04  0.00000000000E+00 0. -1.
         24    2    1    2    0    0 -0.65710129618E+02  0.86799625273E+02 -0.39062192691E+03  0.41356397699E+03  0.81226086893E+02 0.  0.
         25    2    1    2    0    0  0.18784654924E+03 -0.74222346752E+02  0.25636818520E+03  0.34949407974E+03  0.12500473020E+03 0.  0.
         24    2    1    2    0    0  0.30359687189E+02  0.12205111526E+03 -0.24966292477E+03  0.29097004677E+03  0.80708158028E+02 0.  0.
        -11    1    3    3    0    0 -0.54221012013E+02  0.69019871895E+01 -0.14142784629E+03  0.15162252892E+03  0.00000000000E+00 0.  1.
         12    1    3    3    0    0 -0.11489117605E+02  0.79897638084E+02 -0.24919408063E+03  0.26194144807E+03  0.00000000000E+00 0. -1.
        -13    1    5    5    0    0  0.38860473607E+02  0.48996593983E+02 -0.56501879403E+02  0.84280869757E+02  0.00000000000E+00 0.  1.
         14    1    5    5    0    0 -0.85007864175E+01  0.73054521279E+02 -0.19316104537E+03  0.20668917702E+03  0.00000000000E+00 0. -1.
          5    1    4    4  501    0  0.40175932538E+02 -0.75192102050E+02  0.62841267930E+02  0.10601449298E+03  0.47000000000E+01 0. -1.
         -5    1    4    4    0  501  0.14767061670E+03  0.96975529805E+00  0.19352691726E+03  0.24347958676E+03  0.47000000000E+01 0. -1.
          1    1    1    2  502    0 -0.13107569602E+01 -0.21056901055E+02  0.15319737987E+04  0.15321190655E+04  0.00000000000E+00 0. -1.
          1    1    1    2  503    0 -0.15118534985E+03 -0.11357149273E+03 -0.11070143314E+04  0.11230477389E+04  0.00000000000E+00 0. -1.
<mgrwt>
<rscale>  0 0.59284111E+02</rscale>
<asrwt>0</asrwt>
<pdfrwt beam="1">  1        2 0.27575277E+00 0.21097658E+02</pdfrwt>
<pdfrwt beam="2">  1        2 0.26971707E+00 0.16658749E+03</pdfrwt>
<totfact> 0.20331168E+01</totfact>
</mgrwt>
</event>
<event>
13    1  0.1589573E-008  0.1311721E+03  0.7546771E-02  0.1400080E+00
          2   -1    0    0  503    0  0.00000000000E+00  0.00000000000E+00  0.33822806162E+04  0.33822806162E+04  0.00000000000E+00 0. -1.
          2   -1    0    0  502    0 -0.00000000000E+00 -0.00000000000E+00 -0.11945948608E+04  0.11945948608E+04  0.00000000000E+00 0. -1.
         24    2    1    2    0    0 -0.14074043101E+02  0.13272317973E+02 -0.37763679458E+03  0.38646850829E+03  0.79838124787E+02 0.  0.
         25    2    1    2    0    0 -0.24771480101E+03 -0.21723606317E+03  0.20136729597E+04  0.20442745517E+04  0.12500209885E+03 0.  0.
         24    2    1    2    0    0  0.94116154733E+02  0.12187965452E+03  0.11494525741E+02  0.17412076264E+03  0.80457535960E+02 0.  0.
        -11    1    5    5    0    0  0.37691820874E+02  0.10202665241E+03  0.27524463100E+02  0.11219495190E+03  0.00000000000E+00 0.  1.
         12    1    5    5    0    0  0.56424333859E+02  0.19853002111E+02 -0.16029937359E+02  0.61925810742E+02  0.00000000000E+00 0. -1.
        -11    1    3    3    0    0  0.30308876218E+02 -0.10099581571E+02 -0.14106171722E+03  0.14463415084E+03  0.00000000000E+00 0.  1.
         12    1    3    3    0    0 -0.44382919319E+02  0.23371899544E+02 -0.23657507736E+03  0.24183435745E+03  0.00000000000E+00 0. -1.
          5    1    4    4  501    0 -0.20513117618E+03 -0.12316772451E+03  0.16044301399E+04  0.16221797840E+04  0.47000000000E+01 0.  1.
         -5    1    4    4    0  501 -0.42583624828E+02 -0.94068338661E+02  0.40924281975E+03  0.42209476775E+03  0.47000000000E+01 0.  1.
          1    1    1    2  502    0  0.19075658414E+03  0.96011340531E+02 -0.69985294844E+03  0.73171059945E+03  0.00000000000E+00 0. -1.
          1    1    1    2  503    0 -0.23083894762E+02 -0.13927249856E+02  0.12400080130E+04  0.12403010549E+04  0.00000000000E+00 0. -1.
<mgrwt>
<rscale>  0 0.59467500E+02</rscale>
<asrwt>0</asrwt>
<pdfrwt beam="1">  1        2 0.49739421E+00 0.26959868E+02</pdfrwt>
<pdfrwt beam="2">  1        2 0.17567572E+00 0.13117214E+03</pdfrwt>
<totfact> 0.80360522E+00</totfact>
</mgrwt>
</event>
<event>
13    1  0.1589573E-008  0.4584176E+02  0.7546771E-02  0.1567393E+00
          2   -1    0    0  502    0  0.00000000000E+00  0.00000000000E+00  0.84267289680E+03  0.84267289680E+03  0.00000000000E+00 0. -1.
          2   -1    0    0  503    0 -0.00000000000E+00 -0.00000000000E+00 -0.20785155091E+04  0.20785155091E+04  0.00000000000E+00 0. -1.
         24    2    1    2    0    0  0.28664222511E+03 -0.53194628591E+03 -0.92574792789E+03  0.11108310314E+04  0.10865421275E+03 0.  0.
         25    2    1    2    0    0 -0.33577141381E+03 -0.88626093743E+02  0.22172284294E+03  0.43056048506E+03  0.12499714153E+03 0.  0.
         24    2    1    2    0    0  0.35560087175E+02  0.65772906532E+03 -0.32393068156E+03  0.73820096144E+03  0.78342388552E+02 0.  0.
        -11    1    3    3    0    0  0.24057415396E+03 -0.40585647313E+03 -0.63986137124E+03  0.79499558158E+03  0.00000000000E+00 0.  1.
         12    1    3    3    0    0  0.46068071153E+02 -0.12608981278E+03 -0.28588655665E+03  0.31583544979E+03  0.00000000000E+00 0. -1.
        -13    1    5    5    0    0  0.38055622964E+02  0.41492932296E+03 -0.16585469493E+03  0.44846666913E+03  0.00000000000E+00 0.  1.
         14    1    5    5    0    0 -0.24955357892E+01  0.24279974236E+03 -0.15807598663E+03  0.28973429231E+03  0.00000000000E+00 0. -1.
          5    1    4    4  501    0 -0.11393159563E+03 -0.78549152146E+02  0.13105006152E+03  0.19064780725E+03  0.47000000000E+01 0. -1.
         -5    1    4    4    0  501 -0.22183981818E+03 -0.10076941596E+02  0.90672781412E+02  0.23991267780E+03  0.47000000000E+01 0. -1.
          1    1    1    2  502    0 -0.22171757547E+02 -0.84124079415E+01  0.21496240897E+03  0.21626648541E+03  0.00000000000E+00 0. -1.
          1    1    1    2  503    0  0.35740859069E+02 -0.28744277731E+02 -0.42284925476E+03  0.42532944262E+03  0.00000000000E+00 0. -1.
<mgrwt>
<rscale>  0 0.32971094E+02</rscale>
<asrwt>0</asrwt>
<pdfrwt beam="1">  1        2 0.12392249E+00 0.23714035E+02</pdfrwt>
<pdfrwt beam="2">  1        2 0.30566404E+00 0.45841758E+02</pdfrwt>
<totfact> 0.55147406E+01</totfact>
</mgrwt>
</event>
<event>
13    1  0.1589573E-008  0.3251438E+02  0.7546771E-02  0.1634985E+00
          2   -1    0    0  502    0  0.00000000000E+00  0.00000000000E+00  0.92678710322E+03  0.92678710322E+03  0.00000000000E+00 0. -1.
          2   -1    0    0  503    0 -0.00000000000E+00 -0.00000000000E+00 -0.19767560290E+04  0.19767560290E+04  0.00000000000E+00 0. -1.
         24    2    1    2    0    0  0.13653241753E+02 -0.82785635492E+02 -0.38269274912E+03  0.39995417644E+03  0.80434635371E+02 0.  0.
         25    2    1    2    0    0  0.30483505405E+02  0.62682507065E+02  0.48733989874E+03  0.50792001320E+03  0.12499688841E+03 0.  0.
         24    2    1    2    0    0 -0.18102323486E+01  0.57221720122E+01  0.16158323334E+02  0.82397202238E+02  0.80574110793E+02 0.  0.
        -11    1    5    5    0    0  0.84643132362E+01  0.40042205663E+02  0.21410744909E+02  0.46189206862E+02  0.00000000000E+00 0.  1.
         12    1    5    5    0    0 -0.10274545585E+02 -0.34320033651E+02 -0.52524215756E+01  0.36207995376E+02  0.00000000000E+00 0. -1.
        -11    1    3    3    0    0  0.29091993885E+01 -0.95589924979E+02 -0.35455465370E+03  0.36722595178E+03  0.00000000000E+00 0.  1.
         12    1    3    3    0    0  0.10744042365E+02  0.12804289487E+02 -0.28138095424E+02  0.32728224665E+02  0.00000000000E+00 0. -1.
          5    1    4    4  501    0  0.58152406417E+02  0.82145223314E+02  0.27552879581E+03  0.29337305160E+03  0.47000000000E+01 0.  1.
         -5    1    4    4    0  501 -0.27668901012E+02 -0.19462716249E+02  0.21181110293E+03  0.21454696160E+03  0.47000000000E+01 0.  1.
          1    1    1    2  502    0 -0.20181053418E+02 -0.94229454908E+01  0.37074305298E+03  0.37141146745E+03  0.00000000000E+00 0. -1.
          1    1    1    2  503    0 -0.22145461392E+02  0.23803901906E+02 -0.15415174517E+04  0.15418602729E+04  0.00000000000E+00 0. -1.
<mgrwt>
<rscale>  0 0.26910561E+02</rscale>
<asrwt>0</asrwt>
<pdfrwt beam="1">  1        2 0.13629222E+00 0.22272558E+02</pdfrwt>
<pdfrwt beam="2">  1        2 0.29069941E+00 0.32514375E+02</pdfrwt>
<totfact> 0.57437467E+01</totfact>
</mgrwt>
</event>
<event>
13    1  0.1589573E-008  0.1273154E+03  0.7546771E-02  0.1309695E+00
          2   -1    0    0  503    0  0.00000000000E+00  0.00000000000E+00  0.16404987369E+04  0.16404987369E+04  0.00000000000E+00 0. -1.
          2   -1    0    0  502    0 -0.00000000000E+00 -0.00000000000E+00 -0.20908782992E+04  0.20908782992E+04  0.00000000000E+00 0. -1.
         24    2    1    2    0    0 -0.59428860135E+02 -0.43806638953E+03 -0.53629230782E+03  0.70159729575E+03  0.95892517577E+02 0.  0.
         25    2    1    2    0    0  0.24944094349E+02 -0.12527978234E+03  0.24801617292E+02  0.18041238445E+03  0.12496510127E+03 0.  0.
         24    2    1    2    0    0 -0.33524668181E-03  0.47084996842E+03  0.56138178050E+03  0.73746735620E+03  0.83719204606E+02 0.  0.
        -11    1    3    3    0    0  0.23044329103E+02 -0.91379378872E+02 -0.13855060847E+03  0.16756343006E+03  0.00000000000E+00 0.  1.
         12    1    3    3    0    0 -0.82473189237E+02 -0.34668701065E+03 -0.39774169935E+03  0.53403386569E+03  0.00000000000E+00 0. -1.
        -13    1    5    5    0    0  0.33252241726E+02  0.17132829670E+03  0.17142728615E+03  0.24463526170E+03  0.00000000000E+00 0.  1.
         14    1    5    5    0    0 -0.33252576973E+02  0.29952167173E+03  0.38995449435E+03  0.49283209450E+03  0.00000000000E+00 0. -1.
          5    1    4    4  501    0  0.47326992330E+02 -0.10206463413E+03 -0.30110607352E+02  0.11655802168E+03  0.47000000000E+01 0. -1.
         -5    1    4    4    0  501 -0.22382897982E+02 -0.23215148212E+02  0.54912224644E+02  0.63854362763E+02  0.47000000000E+01 0. -1.
          1    1    1    2  502    0 -0.59448823906E+02  0.61822110848E+01 -0.13003457390E+04  0.13017186422E+04  0.00000000000E+00 0. -1.
          1    1    1    2  503    0  0.93933924939E+02  0.86313992362E+02  0.80007508682E+03  0.81018135752E+03  0.00000000000E+00 0. -1.
<mgrwt>
<rscale>  0 0.87232826E+02</rscale>
<asrwt>0</asrwt>
<pdfrwt beam="1">  1        2 0.24124981E+00 0.12731539E+03</pdfrwt>
<pdfrwt beam="2">  1        2 0.30748210E+00 0.59769410E+02</pdfrwt>
<totfact> 0.18298823E+01</totfact>
</mgrwt>
</event>
<event>
13    1  0.1589573E-008  0.9869609E+02  0.7546771E-02  0.1285750E+00
          2   -1    0    0  503    0  0.00000000000E+00  0.00000000000E+00  0.31215666328E+04  0.31215666328E+04  0.00000000000E+00 0. -1.
         -1   -1    0    0    0  501 -0.00000000000E+00 -0.00000000000E+00 -0.11153863196E+04  0.11153863196E+04  0.00000000000E+00 0.  1.
         24    2    1    2    0    0 -0.38106856257E+02  0.15901981509E+02 -0.24876050327E+03  0.26466077142E+03  0.80364982614E+02 0.  0.
         25    2    1    2    0    0  0.51138098808E+02 -0.49963609940E+02  0.40574200326E+02  0.14956150317E+03  0.12494362740E+03 0.  0.
         24    2    1    2    0    0 -0.38643993064E+02  0.19088690543E+02  0.53554892566E+03  0.54313693534E+03  0.79544594078E+02 0.  0.
        -11    1    5    5    0    0 -0.80351606643E+01  0.33233115333E+01  0.25981510201E+01  0.90751636444E+01  0.00000000000E+00 0.  1.
         12    1    5    5    0    0 -0.30608832400E+02  0.15765379010E+02  0.53295077464E+03  0.53406177169E+03  0.00000000000E+00 0. -1.
        -13    1    3    3    0    0 -0.20793633995E+02  0.42636972334E+02 -0.20570831455E+03  0.21110707544E+03  0.00000000000E+00 0.  1.
         14    1    3    3    0    0 -0.17313222262E+02 -0.26734990825E+02 -0.43052188715E+02  0.53553695976E+02  0.00000000000E+00 0. -1.
          5    1    4    4  502    0  0.50509865002E+02  0.32987326506E+02  0.22304300309E+02  0.64490169676E+02  0.47000000000E+01 0. -1.
         -5    1    4    4    0  502  0.62823380571E+00 -0.82950936446E+02  0.18269900017E+02  0.85071333489E+02  0.47000000000E+01 0. -1.
          1    1    1    2  503    0 -0.42459514003E+02 -0.82403349833E+02  0.24739237607E+04  0.24756598910E+04  0.00000000000E+00 0. -1.
         -2    1    1    2    0  501  0.68072264517E+02  0.97376287721E+02 -0.79510607022E+03  0.80393385146E+03  0.00000000000E+00 0.  1.
<mgrwt>
<rscale>  0 0.97450513E+02</rscale>
<asrwt>0</asrwt>
<pdfrwt beam="1">  1        2 0.45905391E+00 0.96220657E+02</pdfrwt>
<pdfrwt beam="2">  1       -1 0.16402740E+00 0.98696089E+02</pdfrwt>
<totfact> 0.92364228E-01</totfact>
</mgrwt>
</event>
<event>
13    1  0.1589573E-008  0.4876884E+02  0.7546771E-02  0.1455407E+00
          2   -1    0    0  503    0  0.00000000000E+00  0.00000000000E+00  0.15082810654E+04  0.15082810654E+04  0.00000000000E+00 0. -1.
         -1   -1    0    0    0  501 -0.00000000000E+00 -0.00000000000E+00 -0.10142434841E+04  0.10142434841E+04  0.00000000000E+00 0.  1.
         24    2    1    2    0    0  0.46955312380E+02 -0.11197153902E+03 -0.34060585098E+03  0.37377933972E+03  0.94637319117E+02 0.  0.
         25    2    1    2    0    0 -0.37623313742E+02  0.10619138927E+03 -0.20599160904E+03  0.26597933481E+03  0.12498135325E+03 0.  0.
         24    2    1    2    0    0  0.91893705816E+01 -0.21989762817E+00  0.15894610517E+03  0.17812676939E+03  0.79879839372E+02 0.  0.
        -11    1    3    3    0    0  0.40383813094E+02 -0.31704303757E+02 -0.23729840934E+03  0.24278910666E+03  0.00000000000E+00 0.  1.
         12    1    3    3    0    0  0.65714992861E+01 -0.80267235266E+02 -0.10330744164E+03  0.13099023307E+03  0.00000000000E+00 0. -1.
        -11    1    5    5    0    0  0.11281918868E+02 -0.10218029677E+02 -0.32871477305E+01  0.15572256228E+02  0.00000000000E+00 0.  1.
         12    1    5    5    0    0 -0.20925482861E+01  0.99981320493E+01  0.16223325290E+03  0.16255451316E+03  0.00000000000E+00 0. -1.
          5    1    4    4  502    0 -0.46111409420E+02  0.36315344555E+01 -0.12971934581E+03  0.13779930623E+03  0.47000000000E+01 0. -1.
         -5    1    4    4    0  502  0.84880956777E+01  0.10255985481E+03 -0.76272263226E+02  0.12818002857E+03  0.47000000000E+01 0. -1.
          1    1    1    2  503    0 -0.26612460744E+02 -0.40907662332E+02  0.12913249212E+04  0.12922467690E+04  0.00000000000E+00 0. -1.
         -2    1    1    2    0  501  0.80910915245E+01  0.46907709717E+02 -0.40963598510E+03  0.41239233660E+03  0.00000000000E+00 0.  1.
<mgrwt>
<rscale>  0 0.48181083E+02</rscale>
<asrwt>0</asrwt>
<pdfrwt beam="1">  1        2 0.22180604E+00 0.48768840E+02</pdfrwt>
<pdfrwt beam="2">  1       -1 0.14915345E+00 0.47600410E+02</pdfrwt>
<totfact> 0.83515522E+00</totfact>
</mgrwt>
</event>
<event>
13    1  0.1589573E-008  0.4499425E+03  0.7546771E-02  0.1234950E+00
          2   -1    0    0  503    0  0.00000000000E+00  0.00000000000E+00  0.36380577613E+04  0.36380577613E+04  0.00000000000E+00 0. -1.
         -1   -1    0    0    0  501 -0.00000000000E+00 -0.00000000000E+00 -0.43557690951E+03  0.43557690951E+03  0.00000000000E+00 0.  1.
         24    2    1    2    0    0 -0.21702146198E+03  0.41348614429E+03 -0.19053142772E+02  0.47479913312E+03  0.83678480373E+02 0.  0.
         25    2    1    2    0    0  0.14428082799E+02 -0.23878267947E+01  0.24722966506E+03  0.27741550248E+03  0.12499192950E+03 0.  0.
         24    2    1    2    0    0  0.15474072532E+03  0.24611056116E+02  0.51850740687E+02  0.18328646441E+03  0.79718458152E+02 0.  0.
        -11    1    5    5    0    0  0.99082308129E+02 -0.23243570538E+02  0.37712445659E+02  0.10853476822E+03  0.00000000000E+00 0.  1.
         12    1    5    5    0    0  0.55658417186E+02  0.47854626654E+02  0.14138295028E+02  0.74751696183E+02  0.00000000000E+00 0. -1.
        -13    1    3    3    0    0 -0.57628377896E+02  0.15687366753E+03  0.26779451677E+02  0.16925577253E+03  0.00000000000E+00 0.  1.
         14    1    3    3    0    0 -0.15939308408E+03  0.25661247676E+03 -0.45832594449E+02  0.30554336058E+03  0.00000000000E+00 0. -1.
          5    1    4    4  502    0 -0.17252800266E+02  0.21173904286E+02  0.72401249263E+00  0.27723771999E+02  0.47000000000E+01 0.  1.
         -5    1    4    4    0  502  0.31680883065E+02 -0.23561731081E+02  0.24650565257E+03  0.24969173048E+03  0.47000000000E+01 0.  1.
          1    1    1    2  503    0  0.81933526064E+02 -0.44259293087E+03  0.30102433537E+04  0.30437093576E+04  0.00000000000E+00 0. -1.
         -2    1    1    2    0  501 -0.34080872201E+02  0.68835572582E+01 -0.87789764904E+02  0.94424213168E+02  0.00000000000E+00 0.  1.
<mgrwt>
<rscale>  0 0.12507633E+03</rscale>
<asrwt>0</asrwt>
<pdfrwt beam="1">  1        2 0.53500848E+00 0.44994249E+03</pdfrwt>
<pdfrwt beam="2">  1       -1 0.64055430E-01 0.34769084E+02</pdfrwt>
<totfact> 0.29709251E+00</totfact>
</mgrwt>
</event>
<event>
13    1  0.1589573E-008  0.1542840E+03  0.7546771E-02  0.1288374E+00
          2   -1    0    0  503    0  0.00000000000E+00  0.00000000000E+00  0.21106183512E+04  0.21106183512E+04  0.00000000000E+00 0. -1.
          2   -1    0    0  502    0 -0.00000000000E+00 -0.00000000000E+00 -0.34552961763E+04  0.34552961763E+04  0.00000000000E+00 0. -1.
         24    2    1    2    0    0 -0.10265778325E+03  0.87083421266E+02 -0.18945199879E+03  0.24563631536E+03  0.79517273944E+02 0.  0.
         25    2    1    2    0    0  0.95850524337E+02  0.93747064651E+02  0.26668456679E+03  0.32360444120E+03  0.12499336402E+03 0.  0.
         24    2    1    2    0    0 -0.78577004452E+02  0.71626258111E+02 -0.26223919811E+03  0.29429171986E+03  0.80830395727E+02 0.  0.
        -11    1    3    3    0    0 -0.20761095446E+02 -0.14872707252E+02 -0.29040026132E+02  0.38672259087E+02  0.00000000000E+00 0.  1.
         12    1    3    3    0    0 -0.81896687801E+02  0.10195612852E+03 -0.16041197266E+03  0.20696405627E+03  0.00000000000E+00 0. -1.
        -11    1    5    5    0    0 -0.32108749539E+01 -0.14187791662E+02 -0.10763019925E+02  0.18095462086E+02  0.00000000000E+00 0.  1.
         12    1    5    5    0    0 -0.75366129498E+02  0.85814049773E+02 -0.25147617819E+03  0.27619625778E+03  0.00000000000E+00 0. -1.
          5    1    4    4  501    0  0.11292992811E+02  0.82120062447E+02  0.19537206938E+03  0.21228182173E+03  0.47000000000E+01 0. -1.
         -5    1    4    4    0  501  0.84557531526E+02  0.11627002204E+02  0.71312497418E+02  0.11132261947E+03  0.47000000000E+01 0. -1.
          1    1    1    2  502    0  0.25826655915E+02 -0.24476907171E+03 -0.29253482330E+04  0.29356841109E+04  0.00000000000E+00 0. -1.
          1    1    1    2  503    0  0.59557607447E+02 -0.76876723142E+01  0.17656770381E+04  0.17666979402E+04  0.00000000000E+00 0. -1.
<mgrwt>
<rscale>  0 0.96254968E+02</rscale>
<asrwt>0</asrwt>
<pdfrwt beam="1">  1        2 0.31038505E+00 0.60051719E+02</pdfrwt>
<pdfrwt beam="2">  1        2 0.50813179E+00 0.15428399E+03</pdfrwt>
<totfact> 0.20030517E+00</totfact>
</mgrwt>
</event>
<event>
13    1  0.1589573E-008  0.9378544E+02  0.7546771E-02  0.1368473E+00
          2   -1    0    0  502    0  0.00000000000E+00  0.00000000000E+00  0.12088946997E+03  0.12088946997E+03  0.00000000000E+00 0. -1.
          2   -1    0    0  503    0 -0.00000000000E+00 -0.00000000000E+00 -0.28858914675E+04  0.28858914675E+04  0.00000000000E+00 0. -1.
         24    2    1    2    0    0  0.47730716917E+00  0.29294400927E+01 -0.32910835396E+03  0.33610723387E+03  0.68168574654E+02 0.  0.
         25    2    1    2    0    0 -0.71157148973E+02 -0.34565874606E+02 -0.55878445580E+03  0.57803180434E+03  0.12499023659E+03 0.  0.
         24    2    1    2    0    0 -0.95590735742E+01  0.48942267755E+02 -0.55577887789E+02  0.10977988107E+03  0.80473593290E+02 0.  0.
        -11    1    3    3    0    0  0.24229892487E+02  0.56802010701E+01 -0.48786952590E+02  0.54767865735E+02  0.00000000000E+00 0.  1.
         12    1    3    3    0    0 -0.23752585318E+02 -0.27507609775E+01 -0.28032140137E+03  0.28133936813E+03  0.00000000000E+00 0. -1.
        -13    1    5    5    0    0  0.22833400385E+02 -0.93173625712E+01 -0.29249946771E+01  0.24834109855E+02  0.00000000000E+00 0.  1.
         14    1    5    5    0    0 -0.32392473960E+02  0.58259630326E+02 -0.52652893112E+02  0.84945771219E+02  0.00000000000E+00 0. -1.
          5    1    4    4  501    0 -0.22868428198E+02 -0.62808776277E+02 -0.13679838165E+03  0.15232791802E+03  0.47000000000E+01 0. -1.
         -5    1    4    4    0  501 -0.48288720775E+02  0.28242901671E+02 -0.42198607415E+03  0.42570388632E+03  0.47000000000E+01 0. -1.
          1    1    1    2  502    0  0.10010665835E+03 -0.61786943426E+02  0.37285794462E+02  0.12340664444E+03  0.00000000000E+00 0. -1.
          1    1    1    2  503    0 -0.19867742970E+02  0.44481110184E+02 -0.18588170945E+04  0.18594553738E+04  0.00000000000E+00 0. -1.
<mgrwt>
<rscale>  0 0.67593621E+02</rscale>
<asrwt>0</asrwt>
<pdfrwt beam="1">  1        2 0.17777866E-01 0.93785443E+02</pdfrwt>
<pdfrwt beam="2">  1        2 0.42439575E+00 0.48716490E+02</pdfrwt>
<totfact> 0.17576676E+02</totfact>
</mgrwt>
</event>
<event>
13    1  0.1589573E-008  0.1372017E+03  0.7546771E-02  0.1228386E+00
          2   -1    0    0  502    0  0.00000000000E+00  0.00000000000E+00  0.27187089264E+04  0.27187089264E+04  0.00000000000E+00 0. -1.
          4   -1    0    0  503    0 -0.00000000000E+00 -0.00000000000E+00 -0.37642401501E+03  0.37642401501E+03  0.00000000000E+00 0. -1.
         24    2    1    2    0    0  0.12521608362E+03  0.40858712949E+02  0.21381615137E+03  0.26366064946E+03  0.80318674461E+02 0.  0.
         25    2    1    2    0    0 -0.93131822191E+02 -0.20800212971E+03  0.39097660189E+03  0.46949926928E+03  0.12501375267E+03 0.  0.
         24    2    1    2    0    0  0.52978594560E+02 -0.43039746162E+02  0.61246102456E+03  0.62123895961E+03  0.78550538519E+02 0.  0.
        -11    1    3    3    0    0  0.90303313472E+02 -0.71593788368E+01  0.97612892203E+02  0.13316989845E+03  0.00000000000E+00 0.  1.
         12    1    3    3    0    0  0.34912770147E+02  0.48018091785E+02  0.11620325917E+03  0.13049075101E+03  0.00000000000E+00 0. -1.
        -11    1    5    5    0    0 -0.55816974640E+01 -0.44564711230E+02  0.29844755583E+03  0.30180807215E+03  0.00000000000E+00 0.  1.
         12    1    5    5    0    0  0.58560292025E+02  0.15249650680E+01  0.31401346873E+03  0.31943088746E+03  0.00000000000E+00 0. -1.
          5    1    4    4  501    0  0.25717948918E+02 -0.82197337429E+02  0.14468620931E+03  0.16844584988E+03  0.47000000000E+01 0.  1.
         -5    1    4    4    0  501 -0.11884977111E+03 -0.12580479228E+03  0.24629039258E+03  0.30105341940E+03  0.47000000000E+01 0.  1.
          1    1    1    2  502    0 -0.16257445573E+03  0.96925017188E+02  0.14109467689E+04  0.14235855076E+04  0.00000000000E+00 0. -1.
          3    1    1    2  503    0  0.77511599743E+02  0.11325814574E+03 -0.28591563539E+03  0.31714855546E+03  0.00000000000E+00 0. -1.
<mgrwt>
<rscale>  0 0.12937501E+03</rscale>
<asrwt>0</asrwt>
<pdfrwt beam="1">  1        2 0.39981013E+00 0.12199481E+03</pdfrwt>
<pdfrwt beam="2">  1        4 0.55356474E-01 0.13720167E+03</pdfrwt>
<totfact> 0.63831244E+00</totfact>
</mgrwt>
</event>
<event>
13    1  0.1589573E-008  0.1952487E+03  0.7546771E-02  0.1275562E+00
          2   -1    0    0  503    0  0.00000000000E+00  0.00000000000E+00  0.26101827508E+04  0.26101827508E+04  0.00000000000E+00 0. -1.
          2   -1    0    0  502    0 -0.00000000000E+00 -0.00000000000E+00 -0.24664047239E+03  0.24664047239E+03  0.00000000000E+00 0. -1.
         24    2    1    2    0    0 -0.10468799593E+03  0.22229076391E+03  0.12350190313E+02  0.25885777908E+03  0.80511256220E+02 0.  0.
         25    2    1    2    0    0 -0.14519584300E+03  0.67485362408E+02  0.18755854817E+04  0.18865529697E+04  0.12500040674E+03 0.  0.
         24    2    1    2    0    0  0.10880808133E+03 -0.86370476979E+02  0.51508296727E+02  0.16651113998E+03  0.75985506846E+02 0.  0.
        -11    1    5    5    0    0  0.75685428348E+02 -0.41654183567E+02 -0.58578754462E+01  0.86589085788E+02  0.00000000000E+00 0.  1.
         12    1    5    5    0    0  0.33122652983E+02 -0.44716293413E+02  0.57366172174E+02  0.79922054197E+02  0.00000000000E+00 0. -1.
        -11    1    3    3    0    0 -0.52722264836E+02  0.39886306833E+02  0.19914834442E+02  0.69044589310E+02  0.00000000000E+00 0.  1.
         12    1    3    3    0    0 -0.51965731089E+02  0.18240445707E+03 -0.75646441290E+01  0.18981318977E+03  0.00000000000E+00 0. -1.
          5    1    4    4  501    0 -0.16642886896E+03  0.50142399284E+02  0.16850640137E+04  0.16940117027E+04  0.47000000000E+01 0. -1.
         -5    1    4    4    0  501  0.21233025960E+02  0.17342963124E+02  0.19052146794E+03  0.19254126703E+03  0.47000000000E+01 0. -1.
          1    1    1    2  502    0  0.15004618891E+03 -0.15057748909E+03  0.13711514739E+03  0.25295849989E+03  0.00000000000E+00 0. -1.
          1    1    1    2  503    0 -0.89704313163E+01 -0.52828160251E+02  0.28698316234E+03  0.29194283450E+03  0.00000000000E+00 0. -1.
<mgrwt>
<rscale>  0 0.10228526E+03</rscale>
<asrwt>0</asrwt>
<pdfrwt beam="1">  1        2 0.38385039E+00 0.53584355E+02</pdfrwt>
<pdfrwt beam="2">  1        2 0.36270659E-01 0.19524866E+03</pdfrwt>
<totfact> 0.11019255E+02</totfact>
</mgrwt>
</event>
<event>
13    1  0.1589573E-008  0.6011355E+02  0.7546771E-02  0.1476141E+00
          2   -1    0    0  503    0  0.00000000000E+00  0.00000000000E+00  0.23310417667E+04  0.23310417667E+04  0.00000000000E+00 0. -1.
          2   -1    0    0  502    0 -0.00000000000E+00 -0.00000000000E+00 -0.14100589183E+04  0.14100589183E+04  0.00000000000E+00 0. -1.
         24    2    1    2    0    0  0.97492116902E+02  0.48607961437E+02 -0.56805394135E+03  0.58435876913E+03  0.83201225997E+02 0.  0.
         25    2    1    2    0    0 -0.86975000661E+02 -0.12472039849E+03  0.38270140126E+03  0.43035684505E+03  0.12500729186E+03 0.  0.
         24    2    1    2    0    0 -0.54552773576E+01  0.93142564960E+01  0.66605449128E+03  0.67101570938E+03  0.80727823334E+02 0.  0.
        -11    1    5    5    0    0  0.34629664432E+02 -0.10719382103E+02  0.33050855331E+03  0.33249063539E+03  0.00000000000E+00 0.  1.
         12    1    5    5    0    0 -0.40084941790E+02  0.20033638599E+02  0.33554593796E+03  0.33852507399E+03  0.00000000000E+00 0. -1.
        -13    1    3    3    0    0  0.63148545524E+02 -0.14476675559E+02 -0.24554310780E+03  0.25394631466E+03  0.00000000000E+00 0.  1.
         14    1    3    3    0    0  0.34343571377E+02  0.63084636997E+02 -0.32251083354E+03  0.33041245447E+03  0.00000000000E+00 0. -1.
          5    1    4    4  501    0 -0.94349139868E+02 -0.14088560873E+03  0.29097357860E+03  0.33680592094E+03  0.47000000000E+01 0.  1.
         -5    1    4    4    0  501  0.73741392069E+01  0.16165210241E+02  0.91727822662E+02  0.93550924108E+02  0.47000000000E+01 0.  1.
          1    1    1    2  502    0 -0.33654807624E+02  0.49811956468E+02 -0.80620333623E+03  0.80844152320E+03  0.00000000000E+00 0. -1.
          1    1    1    2  503    0  0.28592968742E+02  0.16986224084E+02  0.12464842334E+04  0.12469278383E+04  0.00000000000E+00 0. -1.
<mgrwt>
<rscale>  0 0.44712995E+02</rscale>
<asrwt>0</asrwt>
<pdfrwt beam="1">  1        2 0.34280026E+00 0.33257926E+02</pdfrwt>
<pdfrwt beam="2">  1        2 0.20736161E+00 0.60113546E+02</pdfrwt>
<totfact> 0.20977211E+01</totfact>
</mgrwt>
</event>
<event>
13    1  0.1589573E-008  0.6124297E+02  0.7546771E-02  0.1460737E+00
          2   -1    0    0  502    0  0.00000000000E+00  0.00000000000E+00  0.10677579831E+04  0.10677579831E+04  0.00000000000E+00 0. -1.
          2   -1    0    0  503    0 -0.00000000000E+00 -0.00000000000E+00 -0.24857748321E+04  0.24857748321E+04  0.00000000000E+00 0. -1.
         24    2    1    2    0    0 -0.30043655050E+02 -0.23226496534E+03 -0.89831850869E+03  0.93170496842E+03  0.79046630400E+02 0.  0.
         25    2    1    2    0    0 -0.52195734341E+02  0.22781160723E+03  0.47215604488E+03  0.54146094079E+03  0.12500438639E+03 0.  0.
         24    2    1    2    0    0  0.16994677807E+03  0.35242929530E+02 -0.26060846666E+02  0.18750383837E+03  0.65989015870E+02 0.  0.
        -13    1    3    3    0    0 -0.32814838610E+02 -0.30244600273E+02 -0.18686420206E+03  0.19211918043E+03  0.00000000000E+00 0.  1.
         14    1    3    3    0    0  0.27711835593E+01 -0.20202036507E+03 -0.71145430663E+03  0.73958578799E+03  0.00000000000E+00 0. -1.
        -13    1    5    5    0    0  0.70014638778E+02  0.44854129516E+02 -0.25967322735E+02  0.87110529948E+02  0.00000000000E+00 0.  1.
         14    1    5    5    0    0  0.99932139290E+02 -0.96111999866E+01 -0.93523930911E-01  0.10039330842E+03  0.00000000000E+00 0. -1.
          5    1    4    4  501    0 -0.87051059798E+02  0.14651708142E+03  0.36176647505E+03  0.39992776176E+03  0.47000000000E+01 0. -1.
         -5    1    4    4    0  501  0.34855325456E+02  0.81294525805E+02  0.11038956983E+03  0.14153317903E+03  0.47000000000E+01 0. -1.
          1    1    1    2  502    0 -0.60883164302E+02 -0.60932791981E+01  0.46128168521E+03  0.46532212591E+03  0.00000000000E+00 0. -1.
          1    1    1    2  503    0 -0.26824224374E+02 -0.24696292215E+02 -0.14270752238E+04  0.14275409417E+04  0.00000000000E+00 0. -1.
<mgrwt>
<rscale>  0 0.47254784E+02</rscale>
<asrwt>0</asrwt>
<pdfrwt beam="1">  1        2 0.15702324E+00 0.61242968E+02</pdfrwt>
<pdfrwt beam="2">  1        2 0.36555511E+00 0.36461567E+02</pdfrwt>
<totfact> 0.26220294E+01</totfact>
</mgrwt>
</event>
<event>
13    1  0.1589573E-008  0.1635224E+03  0.7546771E-02  0.1287696E+00
          2   -1    0    0  502    0  0.00000000000E+00  0.00000000000E+00  0.86406394265E+03  0.86406394265E+03  0.00000000000E+00 0. -1.
          2   -1    0    0  503    0 -0.00000000000E+00 -0.00000000000E+00 -0.17897134929E+04  0.17897134929E+04  0.00000000000E+00 0. -1.
         24    2    1    2    0    0 -0.15010261764E+02 -0.40650367070E+02 -0.13648538543E+03  0.16479484549E+03  0.81555627409E+02 0.  0.
         25    2    1    2    0    0  0.11535500913E+03  0.14871994085E+03  0.17238476647E+03  0.28419374692E+03  0.12500071656E+03 0.  0.
         24    2    1    2    0    0 -0.97116883086E+02  0.19649631028E+03  0.18154894557E+02  0.23492054053E+03  0.82556472980E+02 0.  0.
        -13    1    3    3    0    0  0.58226405695E+01  0.18569635536E+02 -0.72852887850E+02  0.75407411938E+02  0.00000000000E+00 0.  1.
         14    1    3    3    0    0 -0.20832902333E+02 -0.59220002607E+02 -0.63632497584E+02  0.89387433553E+02  0.00000000000E+00 0. -1.
        -13    1    5    5    0    0 -0.10707885981E+02 -0.11652842435E+01  0.15876030989E+02  0.19185022010E+02  0.00000000000E+00 0.  1.
         14    1    5    5    0    0 -0.86408997105E+02  0.19766159453E+03  0.22788635674E+01  0.21573551852E+03  0.00000000000E+00 0. -1.
          5    1    4    4  501    0  0.46021313522E+02  0.39790528519E+02  0.13738877809E+03  0.15032968371E+03  0.47000000000E+01 0. -1.
         -5    1    4    4    0  501  0.69333695605E+02  0.10892941233E+03  0.34995988374E+02  0.13386406321E+03  0.47000000000E+01 0. -1.
          1    1    1    2  502    0  0.37301634534E+02 -0.43127984499E+02  0.48152161962E+03  0.48488607440E+03  0.00000000000E+00 0. -1.
          1    1    1    2  503    0 -0.40529498811E+02 -0.26143789957E+03 -0.14612254454E+04  0.14849822282E+04  0.00000000000E+00 0. -1.
<mgrwt>
<rscale>  0 0.96562242E+02</rscale>
<asrwt>0</asrwt>
<pdfrwt beam="1">  1        2 0.12706823E+00 0.57021356E+02</pdfrwt>
<pdfrwt beam="2">  1        2 0.26319315E+00 0.16352236E+03</pdfrwt>
<totfact> 0.62402829E+01</totfact>
</mgrwt>
</event>
<event>
13    1  0.1589573E-008  0.9555336E+02  0.7546771E-02  0.1325998E+00
          2   -1    0    0  503    0  0.00000000000E+00  0.00000000000E+00  0.15074475761E+04  0.15074475761E+04  0.00000000000E+00 0. -1.
          2   -1    0    0  502    0 -0.00000000000E+00 -0.00000000000E+00 -0.71742596864E+03  0.71742596864E+03  0.00000000000E+00 0. -1.
         24    2    1    2    0    0  0.16449907191E+02 -0.54212787858E+02 -0.30882701208E+03  0.32415771696E+03  0.80588313422E+02 0.  0.
         25    2    1    2    0    0 -0.39641130944E+02  0.88458668848E+02 -0.15992280056E+03  0.22493764721E+03  0.12500115053E+03 0.  0.
         24    2    1    2    0    0 -0.65703295399E+01 -0.10262695006E+02  0.16334820491E+03  0.18210179318E+03  0.79560887949E+02 0.  0.
        -11    1    3    3    0    0  0.42957653923E+02 -0.14253284746E+02 -0.20283175387E+03  0.20782020242E+03  0.00000000000E+00 0.  1.
         12    1    3    3    0    0 -0.26507746733E+02 -0.39959503112E+02 -0.10599525821E+03  0.11633751454E+03  0.00000000000E+00 0. -1.
        -13    1    5    5    0    0  0.42308016747E+01 -0.27110209923E+02  0.12884323168E+02  0.30312851209E+02  0.00000000000E+00 0.  1.
         14    1    5    5    0    0 -0.10801131215E+02  0.16847514917E+02  0.15046388174E+03  0.15178894197E+03  0.00000000000E+00 0. -1.
          5    1    4    4  501    0 -0.51403781169E+01  0.93585791595E+02 -0.16456045560E+03  0.18943853204E+03  0.47000000000E+01 0.  1.
         -5    1    4    4    0  501 -0.34500752827E+02 -0.51271227466E+01  0.46376550364E+01  0.35499115165E+02  0.47000000000E+01 0.  1.
          1    1    1    2  502    0  0.98011605285E+02 -0.15230843615E+02 -0.18579409906E+03  0.21061267914E+03  0.00000000000E+00 0. -1.
          1    1    1    2  503    0 -0.68250051992E+02 -0.87523423700E+01  0.12812173143E+04  0.12830637083E+04  0.00000000000E+00 0. -1.
<mgrwt>
<rscale>  0 0.81085925E+02</rscale>
<asrwt>0</asrwt>
<pdfrwt beam="1">  1        2 0.22168347E+00 0.68808961E+02</pdfrwt>
<pdfrwt beam="2">  1        2 0.10550382E+00 0.95553358E+02</pdfrwt>
<totfact> 0.11294824E+02</totfact>
</mgrwt>
</event>
<event>
13    1  0.1589573E-008  0.6328416E+02  0.7546771E-02  0.1405788E+00
          2   -1    0    0  503    0  0.00000000000E+00  0.00000000000E+00  0.35522171705E+04  0.35522171705E+04  0.00000000000E+00 0. -1.
          2   -1    0    0  502    0 -0.00000000000E+00 -0.00000000000E+00 -0.28466177649E+03  0.28466177649E+03  0.00000000000E+00 0. -1.
         24    2    1    2    0    0  0.44201632443E+02  0.45784954670E+02 -0.47599406292E+02  0.11329336884E+03  0.80744272607E+02 0.  0.
         25    2    1    2    0    0 -0.20281463171E+03 -0.19266485411E+03  0.35316887003E+03  0.46755835661E+03  0.12501617988E+03 0.  0.
         24    2    1    2    0    0  0.74309618167E+02  0.11963775409E+03 -0.28569910009E+01  0.16216762371E+03  0.80343414324E+02 0.  0.
        -13    1    3    3    0    0  0.65013979930E+02  0.48778315613E+02 -0.33138647590E+02  0.87774208196E+02  0.00000000000E+00 0.  1.
         14    1    3    3    0    0 -0.20812347487E+02 -0.29933609433E+01 -0.14460758702E+02  0.25519160643E+02  0.00000000000E+00 0. -1.
        -13    1    5    5    0    0 -0.69015231225E+01  0.61580404418E+02  0.40607282638E+01  0.62098846557E+02  0.00000000000E+00 0.  1.
         14    1    5    5    0    0  0.81211141289E+02  0.58057349676E+02 -0.69177192647E+01  0.10006877715E+03  0.00000000000E+00 0. -1.
          5    1    4    4  501    0 -0.13451367000E+03 -0.51280639629E+02  0.12601328947E+03  0.19137677639E+03  0.47000000000E+01 0. -1.
         -5    1    4    4    0  501 -0.68300961715E+02 -0.14138421448E+03  0.22715558055E+03  0.27618158022E+03  0.47000000000E+01 0. -1.
          1    1    1    2  502    0  0.59714077751E+02 -0.20184630661E+02 -0.48816919682E+02  0.79726294558E+02  0.00000000000E+00 0. -1.
          1    1    1    2  503    0  0.24589303352E+02  0.47426776005E+02  0.30136598410E+04  0.30141333033E+04  0.00000000000E+00 0. -1.
<mgrwt>
<rscale>  0 0.58144476E+02</rscale>
<asrwt>0</asrwt>
<pdfrwt beam="1">  1        2 0.52238485E+00 0.53422214E+02</pdfrwt>
<pdfrwt beam="2">  1        2 0.41862028E-01 0.63284164E+02</pdfrwt>
<totfact> 0.29658734E+01</totfact>
</mgrwt>
</event>
<event>
13    1  0.1589573E-008  0.2102644E+03  0.7546771E-02  0.1287348E+00
         -1   -1    0    0    0  501  0.00000000000E+00  0.00000000000E+00  0.70928618514E+03  0.70928618514E+03  0.00000000000E+00 0.  1.
         -1   -1    0    0    0  502 -0.00000000000E+00 -0.00000000000E+00 -0.68379534106E+03  0.68379534106E+03  0.00000000000E+00 0.  1.
         24    2    1    2    0    0 -0.19265533850E+03  0.65327260230E+01  0.16287156264E+02  0.20931593425E+03  0.79932051847E+02 0.  0.
         25    2    1    2    0    0 -0.25166918178E+02  0.65207270799E+02  0.11514748730E+03  0.18376597504E+03  0.12500251123E+03 0.  0.
         24    2    1    2    0    0 -0.32498366224E+02 -0.25696771183E+02 -0.12602162543E+02  0.90050364898E+02  0.78954327691E+02 0.  0.
        -11    1    5    5    0    0 -0.22326587432E+01 -0.45991181956E+02 -0.23927168408E+02  0.51891068314E+02  0.00000000000E+00 0.  1.
         12    1    5    5    0    0 -0.30265707481E+02  0.20294410773E+02  0.11325005865E+02  0.38159296584E+02  0.00000000000E+00 0. -1.
        -11    1    3    3    0    0 -0.99671157358E+02  0.16539232475E+02 -0.29409845265E+02  0.10522749079E+03  0.00000000000E+00 0.  1.
         12    1    3    3    0    0 -0.92984181138E+02 -0.10006506452E+02  0.45697001529E+02  0.10408844346E+03  0.00000000000E+00 0. -1.
          5    1    4    4  503    0 -0.58527705216E+02 -0.38047065365E+01  0.21471949449E+02  0.62634676361E+02  0.47000000000E+01 0.  1.
         -5    1    4    4    0  503  0.33360787038E+02  0.69011977336E+02  0.93675537855E+02  0.12113129868E+03  0.47000000000E+01 0.  1.
         -2    1    1    2    0  502  0.21273242432E+03 -0.22240785097E+02 -0.47750324867E+03  0.52321992448E+03  0.00000000000E+00 0.  1.
         -2    1    1    2    0  501  0.37588198582E+02 -0.23802440542E+02  0.38416161173E+03  0.38672932754E+03  0.00000000000E+00 0.  1.
<mgrwt>
<rscale>  0 0.96720356E+02</rscale>
<asrwt>0</asrwt>
<pdfrwt beam="1">  1       -1 0.10430679E+00 0.44490773E+02</pdfrwt>
<pdfrwt beam="2">  1       -1 0.10055814E+00 0.21026444E+03</pdfrwt>
<totfact> 0.85494997E+00</totfact>
</mgrwt>
</event>
<event>
13    1  0.1696499E-008  0.2120229E+03  0.7546771E-02  0.1186249E+00
          2   -1    0    0  503    0  0.00000000000E+00  0.00000000000E+00  0.99656093566E+03  0.99656093566E+03  0.00000000000E+00 0. -1.
          2   -1    0    0  502    0 -0.00000000000E+00 -0.00000000000E+00 -0.32987288893E+04  0.32987288893E+04  0.00000000000E+00 0. -1.
         24    2    1    2    0    0  0.99798971339E+02 -0.75493517974E+02 -0.69839752434E+03  0.71384904681E+03  0.78500023450E+02 0.  0.
         25    2    1    2    0    0  0.28355940775E+03 -0.57908235264E+02 -0.28645513272E+02  0.31655183802E+03  0.12500079714E+03 0.  0.
         24    2    1    2    0    0  0.31710874789E+02  0.85794518980E+02  0.22937421323E+03  0.25928748524E+03  0.79064475214E+02 0.  0.
        -11    1    5    5    0    0 -0.86732526225E+01 -0.99358573942E+01  0.99957916900E+01  0.16548789222E+02  0.00000000000E+00 0.  1.
         12    1    5    5    0    0  0.40384127411E+02  0.95730376374E+02  0.21937842154E+03  0.24273869602E+03  0.00000000000E+00 0. -1.
        -13    1    3    3    0    0  0.54845604678E+02 -0.66065108797E+02 -0.27821630489E+03  0.29116481803E+03  0.00000000000E+00 0.  1.
         14    1    3    3    0    0  0.44953366661E+02 -0.94284091770E+01 -0.42018121945E+03  0.42268422877E+03  0.00000000000E+00 0. -1.
          5    1    4    4  501    0 -0.10628739960E+01 -0.16127687718E+02  0.18491547914E+02  0.25005186593E+02  0.47000000000E+01 0.  1.
         -5    1    4    4    0  501  0.28462228175E+03 -0.41780547545E+02 -0.47137061186E+02  0.29154665142E+03  0.47000000000E+01 0.  1.
          1    1    1    2  502    0  0.19031297654E+02  0.12239812992E+03 -0.23224026392E+04  0.23257036593E+04  0.00000000000E+00 0. -1.
          1    1    1    2  503    0 -0.43410055153E+03 -0.74790895661E+02  0.51790350989E+03  0.67989779561E+03  0.00000000000E+00 0. -1.
<mgrwt>
<rscale>  0 0.16218736E+03</rscale>
<asrwt>0</asrwt>
<pdfrwt beam="1">  1        2 0.14655308E+00 0.21202289E+03</pdfrwt>
<pdfrwt beam="2">  1        2 0.48510719E+00 0.12406556E+03</pdfrwt>
<totfact> 0.84956671E+00</totfact>
</mgrwt>
</event>
<event>
13    1  0.1589573E-008  0.1100618E+03  0.7546771E-02  0.1303250E+00
          2   -1    0    0  502    0  0.00000000000E+00  0.00000000000E+00  0.85317528611E+03  0.85317528611E+03  0.00000000000E+00 0. -1.
          2   -1    0    0  503    0 -0.00000000000E+00 -0.00000000000E+00 -0.12003405835E+04  0.12003405835E+04  0.00000000000E+00 0. -1.
         24    2    1    2    0    0 -0.35690697575E+02  0.70632245368E+01 -0.16509003101E+03  0.18711358086E+03  0.80206351173E+02 0.  0.
         25    2    1    2    0    0  0.17640852900E+03 -0.17467094386E+03 -0.11134762653E+03  0.29942069927E+03  0.12499821391E+03 0.  0.
         24    2    1    2    0    0 -0.25596022948E+01  0.74370379390E+02 -0.36515892083E+02  0.11493856842E+03  0.79623861010E+02 0.  0.
        -11    1    5    5    0    0  0.19375826358E+02  0.81399048490E+02 -0.18495655849E+02  0.85693156246E+02  0.00000000000E+00 0.  1.
         12    1    5    5    0    0 -0.21935428653E+02 -0.70286691002E+01 -0.18020236234E+02  0.29245412178E+02  0.00000000000E+00 0. -1.
        -13    1    3    3    0    0 -0.45382122274E+02 -0.26001906676E+02 -0.11478377289E+03  0.12613861697E+03  0.00000000000E+00 0.  1.
         14    1    3    3    0    0  0.96914246991E+01  0.33065131213E+02 -0.50306258118E+02  0.60974963884E+02  0.00000000000E+00 0. -1.
          5    1    4    4  501    0  0.17124242603E+03 -0.13647273874E+03 -0.13170965233E+03  0.25557444984E+03  0.47000000000E+01 0. -1.
         -5    1    4    4    0  501  0.51661029705E+01 -0.38198205117E+02  0.20362025802E+02  0.43846249427E+02  0.47000000000E+01 0. -1.
          1    1    1    2  502    0 -0.65910858559E+02  0.32133532897E+02  0.70399159620E+03  0.70780009377E+03  0.00000000000E+00 0. -1.
          1    1    1    2  503    0 -0.72247370573E+02  0.61103807036E+02 -0.73820334399E+03  0.74424292732E+03  0.00000000000E+00 0. -1.
<mgrwt>
<rscale>  0 0.89835797E+02</rscale>
<asrwt>0</asrwt>
<pdfrwt beam="1">  1        2 0.12546695E+00 0.73326702E+02</pdfrwt>
<pdfrwt beam="2">  1        2 0.17652067E+00 0.11006182E+03</pdfrwt>
<totfact> 0.12840746E+02</totfact>
</mgrwt>
</event>
<event>
13    1  0.1589573E-008  0.2874197E+03  0.7546771E-02  0.1280332E+00
          2   -1    0    0  502    0  0.00000000000E+00  0.00000000000E+00  0.20612581421E+04  0.20612581421E+04  0.00000000000E+00 0. -1.
          2   -1    0    0  503    0 -0.00000000000E+00 -0.00000000000E+00 -0.37724838771E+04  0.37724838771E+04  0.00000000000E+00 0. -1.
         24    2    1    2    0    0  0.14097177703E+03 -0.12342287754E+03 -0.39980245734E+03  0.45317664082E+03  0.10208238962E+03 0.  0.
         25    2    1    2    0    0 -0.18627923445E+03  0.18476925004E+02  0.51324565917E+03  0.56043434155E+03  0.12499677834E+03 0.  0.
         24    2    1    2    0    0 -0.11384008698E+03  0.32592845088E+03 -0.13021290763E+03  0.37805048481E+03  0.82327682195E+02 0.  0.
        -11    1    5    5    0    0 -0.41091384333E+02  0.50102129012E+02 -0.78383669463E+00  0.64802311671E+02  0.00000000000E+00 0.  1.
         12    1    5    5    0    0 -0.72748702642E+02  0.27582632187E+03 -0.12942907093E+03  0.31324817314E+03  0.00000000000E+00 0. -1.
        -11    1    3    3    0    0  0.85873273156E+02 -0.47495697397E+02 -0.10460181235E+03  0.14342802885E+03  0.00000000000E+00 0.  1.
         12    1    3    3    0    0  0.55098503877E+02 -0.75927180144E+02 -0.29520064499E+03  0.30974861197E+03  0.00000000000E+00 0. -1.
          5    1    4    4  501    0 -0.19814905475E+03  0.29124681066E+00  0.48849034329E+03  0.52716983811E+03  0.47000000000E+01 0. -1.
         -5    1    4    4    0  501  0.11869820301E+02  0.18185678193E+02  0.24755315877E+02  0.33264503446E+02  0.47000000000E+01 0. -1.
          1    1    1    2  502    0  0.72385736985E+01 -0.34018929998E+02  0.13688626513E+04  0.13693044376E+04  0.00000000000E+00 0. -1.
          1    1    1    2  503    0  0.15190897070E+03 -0.18696356835E+03 -0.30633186805E+04  0.30727761145E+04  0.00000000000E+00 0. -1.
<mgrwt>
<rscale>  0 0.99983024E+02</rscale>
<asrwt>0</asrwt>
<pdfrwt beam="1">  1        2 0.30312620E+00 0.34780520E+02</pdfrwt>
<pdfrwt beam="2">  1        2 0.55477704E+00 0.28741966E+03</pdfrwt>
<totfact> 0.12884788E+00</totfact>
</mgrwt>
</event>
<event>
13    1  0.1589573E-008  0.1563050E+03  0.7546771E-02  0.1196081E+00
          2   -1    0    0  503    0  0.00000000000E+00  0.00000000000E+00  0.12904975459E+04  0.12904975459E+04  0.00000000000E+00 0. -1.
          2   -1    0    0  502    0 -0.00000000000E+00 -0.00000000000E+00 -0.40334175638E+04  0.40334175638E+04  0.00000000000E+00 0. -1.
         24    2    1    2    0    0  0.28529135232E+03  0.37054237042E+03 -0.13418778754E+04  0.14235254937E+04  0.84236541750E+02 0.  0.
         25    2    1    2    0    0 -0.22895853472E+03 -0.59044468921E+03  0.17180422616E+03  0.66797204342E+03  0.12499206782E+03 0.  0.
         24    2    1    2    0    0 -0.96644331926E+02 -0.10110734243E+02 -0.21468305397E+03  0.24960577061E+03  0.82291392137E+02 0.  0.
        -11    1    5    5    0    0 -0.38916399634E+02  0.35349559635E+02 -0.72473642473E+02  0.89534945022E+02  0.00000000000E+00 0.  1.
         12    1    5    5    0    0 -0.57727932292E+02 -0.45460293878E+02 -0.14220941149E+03  0.16007082558E+03  0.00000000000E+00 0. -1.
        -11    1    3    3    0    0  0.12682905555E+03  0.20840270370E+03 -0.79267480462E+03  0.82936761579E+03  0.00000000000E+00 0.  1.
         12    1    3    3    0    0  0.15846229677E+03  0.16213966672E+03 -0.54920307073E+03  0.59415787795E+03  0.00000000000E+00 0. -1.
          5    1    4    4  501    0 -0.41247014384E+02 -0.50783005064E+02 -0.14109380822E+02  0.67092431958E+02  0.47000000000E+01 0.  1.
         -5    1    4    4    0  501 -0.18771152034E+03 -0.53966168415E+03  0.18591360698E+03  0.60087961146E+03  0.47000000000E+01 0.  1.
          1    1    1    2  502    0 -0.81939065506E+02  0.14110933323E+03 -0.21603520043E+04  0.21665056282E+04  0.00000000000E+00 0. -1.
          1    1    1    2  503    0  0.12225057983E+03  0.88903719810E+02  0.80218868957E+03  0.81630617377E+03  0.00000000000E+00 0. -1.
<mgrwt>
<rscale>  0 0.15363109E+03</rscale>
<asrwt>0</asrwt>
<pdfrwt beam="1">  1        2 0.18977905E+00 0.15100295E+03</pdfrwt>
<pdfrwt beam="2">  1        2 0.59314963E+00 0.15630496E+03</pdfrwt>
<totfact> 0.19854372E+00</totfact>
</mgrwt>
</event>
<event>
13    1  0.1589573E-008  0.4642988E+02  0.7546771E-02  0.1502779E+00
          2   -1    0    0  502    0  0.00000000000E+00  0.00000000000E+00  0.88992642521E+03  0.88992642521E+03  0.00000000000E+00 0. -1.
          2   -1    0    0  503    0 -0.00000000000E+00 -0.00000000000E+00 -0.12195666844E+04  0.12195666844E+04  0.00000000000E+00 0. -1.
         24    2    1    2    0    0 -0.72305516575E+02 -0.26856016202E+03 -0.76737450580E+03  0.82022150926E+03  0.80913804378E+02 0.  0.
         25    2    1    2    0    0  0.41592652460E+02  0.21134060850E+03  0.22389601860E+03  0.33488605935E+03  0.12499777621E+03 0.  0.
         24    2    1    2    0    0  0.33880290107E+02  0.30879719016E+02 -0.12908093576E+03  0.15872662799E+03  0.80192414562E+02 0.  0.
        -11    1    3    3    0    0 -0.16689981689E+02 -0.12380232543E+03 -0.24062888272E+03  0.27112327541E+03  0.00000000000E+00 0.  1.
         12    1    3    3    0    0 -0.55615534886E+02 -0.14475783659E+03 -0.52674562308E+03  0.54909823385E+03  0.00000000000E+00 0. -1.
        -13    1    5    5    0    0 -0.67193975567E+01  0.39711666939E+02 -0.26932354097E+02  0.48451197011E+02  0.00000000000E+00 0.  1.
         14    1    5    5    0    0  0.40599687664E+02 -0.88319479234E+01 -0.10214858166E+03  0.11027543098E+03  0.00000000000E+00 0. -1.
          5    1    4    4  501    0  0.58702161764E+02  0.19905445631E+03  0.23247160560E+03  0.31166289125E+03  0.47000000000E+01 0.  1.
         -5    1    4    4    0  501 -0.17109509305E+02  0.12286152186E+02 -0.85755869920E+01  0.23223168097E+02  0.47000000000E+01 0.  1.
          1    1    1    2  502    0 -0.38915612046E+02  0.25375575135E+02  0.56692053355E+03  0.56882091737E+03  0.00000000000E+00 0. -1.
          1    1    1    2  503    0  0.35748186055E+02  0.96425937168E+00 -0.22400136977E+03  0.22683799562E+03  0.00000000000E+00 0. -1.
<mgrwt>
<rscale>  0 0.40747853E+02</rscale>
<asrwt>0</asrwt>
<pdfrwt beam="1">  1        2 0.13087153E+00 0.46429875E+02</pdfrwt>
<pdfrwt beam="2">  1        2 0.17934804E+00 0.35761188E+02</pdfrwt>
<totfact> 0.13038454E+02</totfact>
</mgrwt>
</event>
<event>
13    1  0.1589573E-008  0.6775756E+02  0.7546771E-02  0.1525688E+00
          2   -1    0    0  502    0  0.00000000000E+00  0.00000000000E+00  0.57361879876E+03  0.57361879876E+03  0.00000000000E+00 0. -1.
          2   -1    0    0  503    0 -0.00000000000E+00 -0.00000000000E+00 -0.37272197554E+03  0.37272197554E+03  0.00000000000E+00 0. -1.
         24    2    1    2    0    0 -0.10000555197E+03  0.10812298229E+03 -0.19896970103E+03  0.25903188549E+03  0.76268512821E+02 0.  0.
         25    2    1    2    0    0  0.34473102576E+02 -0.10462405426E+03  0.17232229437E+03  0.23969904961E+03  0.12500429479E+03 0.  0.
         24    2    1    2    0    0  0.38926177071E+02  0.41379917452E+02 -0.37933881207E+02  0.10457269289E+03  0.79176536462E+02 0.  0.
        -13    1    5    5    0    0 -0.15919425150E+01  0.54746739749E+02 -0.22199243201E+02  0.59097768087E+02  0.00000000000E+00 0.  1.
         14    1    5    5    0    0  0.40518119586E+02 -0.13366822297E+02 -0.15734638006E+02  0.45474924808E+02  0.00000000000E+00 0. -1.
        -13    1    3    3    0    0  0.11011152537E+02  0.22403244577E+02 -0.22452427983E+02  0.33574728146E+02  0.00000000000E+00 0.  1.
         14    1    3    3    0    0 -0.11101670451E+03  0.85719737716E+02 -0.17651727305E+03  0.22545715735E+03  0.00000000000E+00 0. -1.
          5    1    4    4  501    0  0.66057989042E+02 -0.30262715635E+02  0.12843147697E+03  0.14763544341E+03  0.47000000000E+01 0.  1.
         -5    1    4    4    0  501 -0.31584886466E+02 -0.74361338620E+02  0.43890817403E+02  0.92063606201E+02  0.47000000000E+01 0.  1.
          1    1    1    2  502    0  0.47224208941E+02 -0.48861272237E+02  0.29726916110E+03  0.30493688523E+03  0.00000000000E+00 0. -1.
          1    1    1    2  503    0 -0.20617936619E+02  0.39824267470E+01 -0.31791050010E+02  0.38100261075E+02  0.00000000000E+00 0. -1.
<mgrwt>
<rscale>  0 0.37720586E+02</rscale>
<asrwt>0</asrwt>
<pdfrwt beam="1">  1        2 0.84355706E-01 0.67757558E+02</pdfrwt>
<pdfrwt beam="2">  1        2 0.54812055E-01 0.20999025E+02</pdfrwt>
<totfact> 0.80230005E+02</totfact>
</mgrwt>
</event>
<event>
13    1  0.1589573E-008  0.1569769E+03  0.7546771E-02  0.1200373E+00
          2   -1    0    0  502    0  0.00000000000E+00  0.00000000000E+00  0.19947351717E+04  0.19947351717E+04  0.00000000000E+00 0. -1.
          4   -1    0    0  503    0 -0.00000000000E+00 -0.00000000000E+00 -0.11739667931E+04  0.11739667931E+04  0.00000000000E+00 0. -1.
         24    2    1    2    0    0  0.81194027501E+02 -0.85582654658E+02  0.11236838935E+03  0.18144990190E+03  0.79878351855E+02 0.  0.
         25    2    1    2    0    0  0.33459625918E+03  0.71450630512E+02  0.10676662066E+04  0.11280936855E+04  0.12499754162E+03 0.  0.
         24    2    1    2    0    0 -0.48366135998E+02 -0.20750980767E+02 -0.27984223634E+03  0.29748981879E+03  0.86131461909E+02 0.  0.
        -11    1    5    5    0    0 -0.20896973276E+02 -0.51490621541E+02 -0.11723518156E+03  0.12973841141E+03  0.00000000000E+00 0.  1.
         12    1    5    5    0    0 -0.27469162722E+02  0.30739640773E+02 -0.16260705478E+03  0.16775140739E+03  0.00000000000E+00 0. -1.
        -13    1    3    3    0    0  0.56174172148E+01 -0.60260521126E+02  0.32854406158E+02  0.68864343361E+02  0.00000000000E+00 0.  1.
         14    1    3    3    0    0  0.75576610287E+02 -0.25322133531E+02  0.79513983190E+02  0.11258555854E+03  0.00000000000E+00 0. -1.
          5    1    4    4  501    0  0.22123369159E+03  0.10612192044E+03  0.70179607157E+03  0.74346891285E+03  0.47000000000E+01 0.  1.
         -5    1    4    4    0  501  0.11336256758E+03 -0.34671289928E+02  0.36587013499E+03  0.38462477267E+03  0.47000000000E+01 0.  1.
          1    1    1    2  502    0 -0.17051958187E+03 -0.50739047633E+01  0.71868683323E+03  0.73865650784E+03  0.00000000000E+00 0. -1.
          3    1    1    2  503    0 -0.19690456881E+03  0.39956909676E+02 -0.79811081423E+03  0.82301205072E+03  0.00000000000E+00 0. -1.
<mgrwt>
<rscale>  0 0.15008157E+03</rscale>
<asrwt>0</asrwt>
<pdfrwt beam="1">  1        2 0.29334341E+00 0.14348908E+03</pdfrwt>
<pdfrwt beam="2">  1        4 0.17264218E+00 0.15697694E+03</pdfrwt>
<totfact> 0.10242243E+00</totfact>
</mgrwt>
</event>
<event>
13    1  0.1589573E-008  0.8445150E+02  0.7546771E-02  0.1407416E+00
          2   -1    0    0  502    0  0.00000000000E+00  0.00000000000E+00  0.31345222135E+04  0.31345222135E+04  0.00000000000E+00 0. -1.
          2   -1    0    0  503    0 -0.00000000000E+00 -0.00000000000E+00 -0.20949357318E+04  0.20949357318E+04  0.00000000000E+00 0. -1.
         24    2    1    2    0    0 -0.81947075957E+01 -0.37736503210E+02 -0.62558832577E+02  0.11058828850E+03  0.82613347068E+02 0.  0.
         25    2    1    2    0    0  0.66682409683E+02  0.11404047287E+03 -0.33411642135E+03  0.38040673274E+03  0.12499490425E+03 0.  0.
         24    2    1    2    0    0 -0.49638888401E+02 -0.10719301802E+02  0.19654612947E+03  0.21936789194E+03  0.83144262163E+02 0.  0.
        -11    1    3    3    0    0 -0.32937270095E+02 -0.14141146278E+02  0.36933375567E+01  0.36034379718E+02  0.00000000000E+00 0.  1.
         12    1    3    3    0    0  0.24742562499E+02 -0.23595356933E+02 -0.66252170133E+02  0.74553908785E+02  0.00000000000E+00 0. -1.
        -11    1    5    5    0    0  0.84334339987E+01  0.10442290961E+01  0.12995402979E+03  0.13023157483E+03  0.00000000000E+00 0.  1.
         12    1    5    5    0    0 -0.58072322400E+02 -0.11763530899E+02  0.66592099681E+02  0.89136317111E+02  0.00000000000E+00 0. -1.
          5    1    4    4  501    0  0.76491813724E+02  0.13484793581E+03 -0.26095004738E+03  0.30356544696E+03  0.47000000000E+01 0. -1.
         -5    1    4    4    0  501 -0.98094040417E+01 -0.20807462939E+02 -0.73166373967E+02  0.76841285785E+02  0.47000000000E+01 0. -1.
          1    1    1    2  502    0  0.28074556432E+02 -0.79685299541E+02  0.28785472584E+04  0.28797868404E+04  0.00000000000E+00 0. -1.
          1    1    1    2  503    0 -0.36923370118E+02  0.14100631686E+02 -0.16388316522E+04  0.16393081917E+04  0.00000000000E+00 0. -1.
<mgrwt>
<rscale>  0 0.57774379E+02</rscale>
<asrwt>0</asrwt>
<pdfrwt beam="1">  1        2 0.46095915E+00 0.84451504E+02</pdfrwt>
<pdfrwt beam="2">  1        2 0.30807878E+00 0.39524209E+02</pdfrwt>
<totfact> 0.35969596E+00</totfact>
</mgrwt>
</event>
<event>
13    1  0.1589573E-008  0.1901597E+03  0.7546771E-02  0.1217640E+00
          2   -1    0    0  503    0  0.00000000000E+00  0.00000000000E+00  0.15175088377E+04  0.15175088377E+04  0.00000000000E+00 0. -1.
          2   -1    0    0  502    0 -0.00000000000E+00 -0.00000000000E+00 -0.19038581873E+04  0.19038581873E+04  0.00000000000E+00 0. -1.
         24    2    1    2    0    0  0.18733217695E+03  0.26314691158E+03 -0.64222799627E+03  0.72336789686E+03  0.80403192862E+02 0.  0.
         25    2    1    2    0    0  0.22390340142E+03  0.10881664812E+03 -0.32256823940E+02  0.28043410656E+03  0.12501595640E+03 0.  0.
         24    2    1    2    0    0 -0.42361243337E+03 -0.47104315967E+03  0.35164077318E+03  0.72999834919E+03  0.88978674292E+02 0.  0.
        -13    1    3    3    0    0  0.34226050006E+02  0.85136783984E+02 -0.12242024350E+03  0.15299153736E+03  0.00000000000E+00 0.  1.
         14    1    3    3    0    0  0.15310612695E+03  0.17801012759E+03 -0.51980775278E+03  0.57037635950E+03  0.00000000000E+00 0. -1.
        -13    1    5    5    0    0 -0.19900716705E+03 -0.26314618269E+03  0.14292602749E+03  0.35955196472E+03  0.00000000000E+00 0.  1.
         14    1    5    5    0    0 -0.22460526632E+03 -0.20789697698E+03  0.20871474569E+03  0.37044638446E+03  0.00000000000E+00 0. -1.
          5    1    4    4  501    0  0.15922239553E+03  0.10423672560E+03 -0.72804607745E+02  0.20381282372E+03  0.47000000000E+01 0.  1.
         -5    1    4    4    0  501  0.64681005892E+02  0.45799225208E+01  0.40547783805E+02  0.76621282846E+02  0.47000000000E+01 0.  1.
          1    1    1    2  502    0 -0.25958232826E+02  0.18978833464E+03 -0.86199746113E+03  0.88302495141E+03  0.00000000000E+00 0. -1.
          1    1    1    2  503    0  0.38335087818E+02 -0.90708734668E+02  0.79849215860E+03  0.80454172101E+03  0.00000000000E+00 0. -1.
<mgrwt>
<rscale>  0 0.13684405E+03</rscale>
<asrwt>0</asrwt>
<pdfrwt beam="1">  1        2 0.22316307E+00 0.98476665E+02</pdfrwt>
<pdfrwt beam="2">  1        2 0.27997914E+00 0.19015972E+03</pdfrwt>
<totfact> 0.23466439E+01</totfact>
</mgrwt>
</event>
<event>
13    1  0.1589573E-008  0.1925755E+03  0.7546771E-02  0.1361930E+00
         -1   -1    0    0    0  501 -0.00000000000E+00  0.00000000000E+00  0.35192073088E+03  0.35192073088E+03  0.00000000000E+00 0.  1.
          2   -1    0    0  503    0  0.00000000000E+00 -0.00000000000E+00 -0.33803782467E+04  0.33803782467E+04  0.00000000000E+00 0. -1.
         24    2    1    2    0    0  0.11286268767E+03  0.35159726077E+02 -0.15057056481E+03  0.20866879862E+03  0.83048057912E+02 0.  0.
         25    2    1    2    0    0  0.84938481447E+02 -0.93913188941E+02 -0.94041844677E+02  0.20125340481E+03  0.12499932683E+03 0.  0.
         24    2    1    2    0    0 -0.22970373986E+02  0.54823924520E+02 -0.27017643209E+03  0.28671608357E+03  0.75349235829E+02 0.  0.
        -11    1    5    5    0    0 -0.17268396996E+01  0.65051556222E+02 -0.23856053058E+03  0.24727679570E+03  0.00000000000E+00 0.  1.
         12    1    5    5    0    0 -0.21243534286E+02 -0.10227631702E+02 -0.31615901510E+02  0.39439287868E+02  0.00000000000E+00 0. -1.
        -13    1    3    3    0    0  0.11734593341E+03  0.42007103722E+02 -0.10679168065E+03  0.16413143485E+03  0.00000000000E+00 0.  1.
         14    1    3    3    0    0 -0.44832457349E+01 -0.68473776455E+01 -0.43778884159E+02  0.44537363765E+02  0.00000000000E+00 0. -1.
          5    1    4    4  502    0 -0.13625528559E+01 -0.64890031441E+02 -0.88585574401E+02  0.10991845488E+03  0.47000000000E+01 0.  1.
         -5    1    4    4    0  502  0.86301034303E+02 -0.29023157500E+02 -0.54562702756E+01  0.91334949928E+02  0.47000000000E+01 0.  1.
          1    1    1    2  503    0 -0.19967233711E+03  0.66368877794E+00 -0.27704619002E+04  0.27776480380E+04  0.00000000000E+00 0. -1.
         -2    1    1    2    0  501  0.24841541971E+02  0.32658495669E+01  0.25679322596E+03  0.25801265255E+03  0.00000000000E+00 0.  1.
<mgrwt>
<rscale>  0 0.69462490E+02</rscale>
<asrwt>0</asrwt>
<pdfrwt beam="2">  1        2 0.49711445E+00 0.19257553E+03</pdfrwt>
<pdfrwt beam="1">  1       -1 0.51753049E-01 0.25055298E+02</pdfrwt>
<totfact> 0.71841629E+00</totfact>
</mgrwt>
</event>
<event>
13    1  0.1589573E-008  0.2368159E+03  0.7546771E-02  0.1311899E+00
          2   -1    0    0  503    0  0.00000000000E+00  0.00000000000E+00  0.25388286351E+04  0.25388286351E+04  0.00000000000E+00 0. -1.
          2   -1    0    0  502    0 -0.00000000000E+00 -0.00000000000E+00 -0.27930754657E+04  0.27930754657E+04  0.00000000000E+00 0. -1.
         24    2    1    2    0    0  0.27226616874E+02  0.73705203180E+02 -0.25058456902E+03  0.27483791324E+03  0.81052493358E+02 0.  0.
         25    2    1    2    0    0  0.46986295247E+02 -0.51078423868E+03  0.73917882727E+03  0.90836022512E+03  0.12499883787E+03 0.  0.
         24    2    1    2    0    0 -0.13846677186E+02 -0.19921063482E+02 -0.48739595041E+02  0.99936522292E+02  0.83804421862E+02 0.  0.
        -11    1    3    3    0    0 -0.28268692362E+01  0.75823970039E+02 -0.12978214277E+03  0.15033519284E+03  0.00000000000E+00 0.  1.
         12    1    3    3    0    0  0.30053486110E+02 -0.21187668587E+01 -0.12080242625E+03  0.12450272040E+03  0.00000000000E+00 0. -1.
        -13    1    5    5    0    0  0.20545938626E+02 -0.24365667126E+02 -0.56066414727E+02  0.64492357600E+02  0.00000000000E+00 0.  1.
         14    1    5    5    0    0 -0.34392615812E+02  0.44446036431E+01  0.73268196863E+01  0.35444164691E+02  0.00000000000E+00 0. -1.
          5    1    4    4  501    0  0.38125177338E+02 -0.61019917151E+02  0.15570640457E+03  0.17159118235E+03  0.47000000000E+01 0. -1.
         -5    1    4    4    0  501  0.88611179091E+01 -0.44976432153E+03  0.58347242270E+03  0.73676904277E+03  0.47000000000E+01 0. -1.
          1    1    1    2  502    0 -0.54134821967E+02  0.42612545818E+03 -0.23518329739E+04  0.23907387608E+04  0.00000000000E+00 0. -1.
          1    1    1    2  503    0 -0.62314129683E+01  0.30874640804E+02  0.16577314801E+04  0.16580306794E+04  0.00000000000E+00 0. -1.
<mgrwt>
<rscale>  0 0.86365735E+02</rscale>
<asrwt>0</asrwt>
<pdfrwt beam="1">  1        2 0.37335715E+00 0.31497205E+02</pdfrwt>
<pdfrwt beam="2">  1        2 0.41074639E+00 0.23681594E+03</pdfrwt>
<totfact> 0.30282394E+00</totfact>
</mgrwt>
</event>
<event>
13    1  0.1589573E-008  0.1097327E+03  0.7546771E-02  0.1290235E+00
          2   -1    0    0  502    0  0.00000000000E+00  0.00000000000E+00  0.94307665700E+03  0.94307665700E+03  0.00000000000E+00 0. -1.
          2   -1    0    0  503    0 -0.00000000000E+00 -0.00000000000E+00 -0.18430989965E+04  0.18430989965E+04  0.00000000000E+00 0. -1.
         24    2    1    2    0    0 -0.14390100023E+02  0.85095793848E+02 -0.87909545654E+03  0.88709740707E+03  0.81759518108E+02 0.  0.
         25    2    1    2    0    0  0.71664296779E+02  0.62936624520E+02 -0.60468118136E+03  0.62478889481E+03  0.12500016740E+03 0.  0.
         24    2    1    2    0    0  0.11658487428E+02 -0.28584556432E+02  0.19231289993E+03  0.21206484392E+03  0.83870431931E+02 0.  0.
        -11    1    5    5    0    0  0.31735172158E+02  0.12608271902E+02  0.37988189612E+02  0.51080252762E+02  0.00000000000E+00 0.  1.
         12    1    5    5    0    0 -0.20076684730E+02 -0.41192828333E+02  0.15432471032E+03  0.16098459116E+03  0.00000000000E+00 0. -1.
        -13    1    3    3    0    0  0.33725429030E+02  0.29201110296E+02 -0.29210378768E+03  0.29549066345E+03  0.00000000000E+00 0.  1.
         14    1    3    3    0    0 -0.48115529052E+02  0.55894683552E+02 -0.58699166886E+03  0.59160674362E+03  0.00000000000E+00 0. -1.
          5    1    4    4  501    0  0.65153236731E+02  0.58802083825E+02 -0.18300639536E+03  0.20301738857E+03  0.47000000000E+01 0. -1.
         -5    1    4    4    0  501  0.65110600476E+01  0.41345406951E+01 -0.42167478600E+03  0.42177150625E+03  0.47000000000E+01 0. -1.
          1    1    1    2  502    0  0.13104267440E+02 -0.10702295580E+03  0.71761142678E+03  0.72566644868E+03  0.00000000000E+00 0. -1.
          1    1    1    2  503    0 -0.82036951624E+02 -0.12424906133E+02 -0.32617002833E+03  0.33655805904E+03  0.00000000000E+00 0. -1.
<mgrwt>
<rscale>  0 0.95419067E+02</rscale>
<asrwt>0</asrwt>
<pdfrwt beam="1">  1        2 0.13868775E+00 0.10973269E+03</pdfrwt>
<pdfrwt beam="2">  1        2 0.27104397E+00 0.82972524E+02</pdfrwt>
<totfact> 0.54590167E+01</totfact>
</mgrwt>
</event>
<event>
13    1  0.1589573E-008  0.1370498E+03  0.7546771E-02  0.1390943E+00
         -3   -1    0    0    0  502 -0.00000000000E+00  0.00000000000E+00  0.20990019695E+03  0.20990019695E+03  0.00000000000E+00 0.  1.
         -1   -1    0    0    0  501  0.00000000000E+00 -0.00000000000E+00 -0.68889131933E+03  0.68889131933E+03  0.00000000000E+00 0.  1.
         24    2    1    2    0    0 -0.80442068840E+01  0.88866109670E+01  0.39332795353E+01  0.84729854014E+02  0.83785418507E+02 0.  0.
         25    2    1    2    0    0 -0.10915348784E+03 -0.12120525801E+03 -0.34612511977E+02  0.20839577356E+03  0.12500229588E+03 0.  0.
         24    2    1    2    0    0  0.53530268893E+01  0.19654578883E+01 -0.86482039833E+01  0.82866380715E+02  0.82216346909E+02 0.  0.
        -11    1    5    5    0    0  0.26871789957E+02 -0.10170447238E+02  0.27044335751E+02  0.39457916680E+02  0.00000000000E+00 0.  1.
         12    1    5    5    0    0 -0.21518763068E+02  0.12135905126E+02 -0.35692539734E+02  0.43408464035E+02  0.00000000000E+00 0. -1.
        -13    1    3    3    0    0  0.29364997450E+02  0.24536907716E+02 -0.13516248691E+02  0.40583887125E+02  0.00000000000E+00 0.  1.
         14    1    3    3    0    0 -0.37409204334E+02 -0.15650296749E+02  0.17449528227E+02  0.44145966889E+02  0.00000000000E+00 0. -1.
          5    1    4    4  503    0 -0.53531295456E+02 -0.48989941823E+02 -0.78597694360E+02  0.10707614838E+03  0.47000000000E+01 0.  1.
         -5    1    4    4    0  503 -0.55622192387E+02 -0.72215316184E+02  0.43985182383E+02  0.10131962518E+03  0.47000000000E+01 0.  1.
         -2    1    1    2    0  501  0.10546821360E+03  0.83342813660E+02 -0.46572013945E+03  0.48473169585E+03  0.00000000000E+00 0.  1.
         -4    1    1    2    0  502  0.63764542325E+01  0.27010375492E+02  0.26056453494E+02  0.38067812144E+02  0.00000000000E+00 0.  1.
<mgrwt>
<rscale>  0 0.61672675E+02</rscale>
<asrwt>0</asrwt>
<pdfrwt beam="2">  1       -1 0.10130755E+00 0.13704977E+03</pdfrwt>
<pdfrwt beam="1">  1       -3 0.30867676E-01 0.27752830E+02</pdfrwt>
<totfact> 0.39686015E+01</totfact>
</mgrwt>
</event>
<event>
13    1  0.1589573E-008  0.1262830E+03  0.7546771E-02  0.1331161E+00
         -1   -1    0    0    0  501 -0.00000000000E+00  0.00000000000E+00  0.70954890693E+03  0.70954890693E+03  0.00000000000E+00 0.  1.
          2   -1    0    0  503    0  0.00000000000E+00 -0.00000000000E+00 -0.15819893138E+04  0.15819893138E+04  0.00000000000E+00 0. -1.
         24    2    1    2    0    0 -0.20887419379E+03  0.56805053635E+02 -0.16010977786E+03  0.28633943510E+03  0.97467369813E+02 0.  0.
         25    2    1    2    0    0  0.45357284218E+02 -0.11597379359E+03 -0.77644798753E+03  0.79624381101E+03  0.12500210081E+03 0.  0.
         24    2    1    2    0    0  0.11292583052E+03  0.12612712518E+03 -0.60411058700E+02  0.19807471599E+03  0.83209387664E+02 0.  0.
        -11    1    3    3    0    0 -0.10213610894E+02  0.35898295961E+02 -0.20000931152E+02  0.42344335481E+02  0.00000000000E+00 0.  1.
         12    1    3    3    0    0 -0.19866058290E+03  0.20906757674E+02 -0.14010884671E+03  0.24399509962E+03  0.00000000000E+00 0. -1.
        -11    1    5    5    0    0  0.32415774905E+02  0.25565413062E+02  0.20355396756E+02  0.46029501244E+02  0.00000000000E+00 0.  1.
         12    1    5    5    0    0  0.80510055616E+02  0.10056171211E+03 -0.80766455456E+02  0.15204521474E+03  0.00000000000E+00 0. -1.
          5    1    4    4  502    0  0.34473837377E+01 -0.10263025249E+03 -0.70321695385E+03  0.71069052855E+03  0.47000000000E+01 0. -1.
         -5    1    4    4    0  502  0.41909900480E+02 -0.13343541101E+02 -0.73231033673E+02  0.85553282463E+02  0.47000000000E+01 0. -1.
          1    1    1    2  503    0 -0.48260291074E+02  0.12075536204E+02 -0.43468568139E+03  0.43752316038E+03  0.00000000000E+00 0. -1.
         -2    1    1    2    0  501  0.98851370128E+02 -0.79033921429E+02  0.55921409857E+03  0.57335709828E+03  0.00000000000E+00 0.  1.
<mgrwt>
<rscale>  0 0.79261206E+02</rscale>
<asrwt>0</asrwt>
<pdfrwt beam="2">  1        2 0.23264548E+00 0.49748108E+02</pdfrwt>
<pdfrwt beam="1">  1       -1 0.10434543E+00 0.12628297E+03</pdfrwt>
<totfact> 0.16931881E+01</totfact>
</mgrwt>
</event>
<event>
13    1  0.1589573E-008  0.1245925E+03  0.7546771E-02  0.1248509E+00
          2   -1    0    0  503    0  0.00000000000E+00  0.00000000000E+00  0.19823580230E+04  0.19823580230E+04  0.00000000000E+00 0. -1.
          2   -1    0    0  502    0 -0.00000000000E+00 -0.00000000000E+00 -0.11638861364E+04  0.11638861364E+04  0.00000000000E+00 0. -1.
         24    2    1    2    0    0 -0.14220881776E+02 -0.52661374760E+02 -0.34424283792E+03  0.35739558012E+03  0.79076010005E+02 0.  0.
         25    2    1    2    0    0 -0.48330279461E+02 -0.12488269725E+03  0.48103401227E+03  0.51473463898E+03  0.12500609437E+03 0.  0.
         24    2    1    2    0    0 -0.38880569486E+02 -0.40043122138E+02  0.36590918441E+02  0.10407605402E+03  0.79861000452E+02 0.  0.
        -11    1    5    5    0    0 -0.43384573156E+02 -0.61525543223E+02  0.31069221828E+02  0.81442680468E+02  0.00000000000E+00 0.  1.
         12    1    5    5    0    0  0.45040036702E+01  0.21482421085E+02  0.55216966132E+01  0.22633373549E+02  0.00000000000E+00 0. -1.
        -13    1    3    3    0    0 -0.39730070498E+02 -0.44019136853E+02 -0.29832945863E+03  0.30416546286E+03  0.00000000000E+00 0.  1.
         14    1    3    3    0    0  0.25509188722E+02 -0.86422379064E+01 -0.45913379290E+02  0.53230117256E+02  0.00000000000E+00 0. -1.
          5    1    4    4  501    0 -0.14509823337E+02 -0.13608545237E+02  0.29217267180E+03  0.29288681708E+03  0.47000000000E+01 0. -1.
         -5    1    4    4    0  501 -0.33820456124E+02 -0.11127415201E+03  0.18886134047E+03  0.22184782190E+03  0.47000000000E+01 0. -1.
          1    1    1    2  502    0  0.16586252985E+03  0.10870081497E+03 -0.74666152575E+03  0.77254752606E+03  0.00000000000E+00 0. -1.
          1    1    1    2  503    0 -0.64430799130E+02  0.10888637917E+03  0.13917513195E+04  0.13974903602E+04  0.00000000000E+00 0. -1.
<mgrwt>
<rscale>  0 0.11677786E+03</rscale>
<asrwt>0</asrwt>
<pdfrwt beam="1">  1        2 0.29152324E+00 0.10945336E+03</pdfrwt>
<pdfrwt beam="2">  1        2 0.17115973E+00 0.12459252E+03</pdfrwt>
<totfact> 0.33907180E+01</totfact>
</mgrwt>
</event>
<event>
13    1  0.1589573E-008  0.1478829E+03  0.7546771E-02  0.1246237E+00
          2   -1    0    0  502    0  0.00000000000E+00  0.00000000000E+00  0.10473007633E+04  0.10473007633E+04  0.00000000000E+00 0. -1.
          2   -1    0    0  503    0 -0.00000000000E+00 -0.00000000000E+00 -0.24870700785E+04  0.24870700785E+04  0.00000000000E+00 0. -1.
         24    2    1    2    0    0 -0.55046969234E+02 -0.28187307509E+02 -0.68792628292E+03  0.69520086804E+03  0.78974572303E+02 0.  0.
         25    2    1    2    0    0  0.22211724534E+03  0.17263210375E+02 -0.15123885293E+03  0.29687068848E+03  0.12499970373E+03 0.  0.
         24    2    1    2    0    0 -0.31856176762E+02 -0.11325070552E+03 -0.13900015184E+03  0.19971778744E+03  0.82009841534E+02 0.  0.
        -13    1    5    5    0    0 -0.55772344690E+02 -0.68366499161E+02 -0.11055242517E+03  0.14144388057E+03  0.00000000000E+00 0.  1.
         14    1    5    5    0    0  0.23916167928E+02 -0.44884206362E+02 -0.28447726671E+02  0.58273906870E+02  0.00000000000E+00 0. -1.
        -13    1    3    3    0    0  0.65860719083E+01 -0.24322762925E+02 -0.39668147096E+03  0.39748102161E+03  0.00000000000E+00 0.  1.
         14    1    3    3    0    0 -0.61633041142E+02 -0.38645445846E+01 -0.29124481196E+03  0.29771984643E+03  0.00000000000E+00 0. -1.
          5    1    4    4  501    0  0.20461650992E+03 -0.19462397288E+02 -0.92939002372E+02  0.22562457579E+03  0.47000000000E+01 0.  1.
         -5    1    4    4    0  501  0.17500735425E+02  0.36725607662E+02 -0.58299850554E+02  0.71246112688E+02  0.47000000000E+01 0.  1.
          1    1    1    2  502    0 -0.42504422323E+02  0.14164419475E+03  0.93307190093E+03  0.94471841103E+03  0.00000000000E+00 0. -1.
          1    1    1    2  503    0 -0.92709677024E+02 -0.17469392094E+02 -0.13946759284E+04  0.13978630867E+04  0.00000000000E+00 0. -1.
<mgrwt>
<rscale>  0 0.11811625E+03</rscale>
<asrwt>0</asrwt>
<pdfrwt beam="1">  1        2 0.15401482E+00 0.14788288E+03</pdfrwt>
<pdfrwt beam="2">  1        2 0.36574560E+00 0.94341210E+02</pdfrwt>
<totfact> 0.22528697E+01</totfact>
</mgrwt>
</event>
<event>
13    1  0.1589573E-008  0.1061197E+03  0.7546771E-02  0.1316263E+00
          2   -1    0    0  503    0  0.00000000000E+00  0.00000000000E+00  0.25290019123E+04  0.25290019123E+04  0.00000000000E+00 0. -1.
         -1   -1    0    0    0  501 -0.00000000000E+00 -0.00000000000E+00 -0.12038923361E+03  0.12038923361E+03  0.00000000000E+00 0.  1.
         24    2    1    2    0    0 -0.37119495192E+02  0.24090321233E+02  0.23618638835E+03  0.25250047483E+03  0.77551784284E+02 0.  0.
         25    2    1    2    0    0  0.51667203495E+02  0.85176203978E+02  0.97550425720E+02  0.18726207322E+03  0.12500605133E+03 0.  0.
         24    2    1    2    0    0  0.49403307582E+02  0.49847319355E+02  0.49633704653E+03  0.51205592760E+03  0.10452448130E+03 0.  0.
        -13    1    5    5    0    0 -0.21470346865E+01  0.68352206138E+02  0.22157979560E+03  0.23189273309E+03  0.00000000000E+00 0.  1.
         14    1    5    5    0    0  0.51550342269E+02 -0.18504886782E+02  0.27475725092E+03  0.28016319451E+03  0.00000000000E+00 0. -1.
        -13    1    3    3    0    0 -0.50528537469E+02  0.19527495027E+02  0.23123568296E+03  0.23749609941E+03  0.00000000000E+00 0.  1.
         14    1    3    3    0    0  0.13409042277E+02  0.45628262060E+01  0.49507053886E+01  0.15004375416E+02  0.00000000000E+00 0. -1.
          5    1    4    4  502    0  0.77746945718E+01 -0.29132440859E+02  0.43974068170E+02  0.53525261863E+02  0.47000000000E+01 0. -1.
         -5    1    4    4    0  502  0.43892508924E+02  0.11430864484E+03  0.53576357550E+02  0.13373681136E+03  0.47000000000E+01 0. -1.
          1    1    1    2  503    0 -0.33062846497E+02 -0.99008874674E+02  0.16166319347E+04  0.16199983708E+04  0.00000000000E+00 0. -1.
         -2    1    1    2    0  501 -0.30888169388E+02 -0.60104969892E+02 -0.38093116570E+02  0.77574299506E+02  0.00000000000E+00 0.  1.
<mgrwt>
<rscale>  0 0.84683412E+02</rscale>
<asrwt>0</asrwt>
<pdfrwt beam="1">  1        2 0.37191201E+00 0.10611972E+03</pdfrwt>
<pdfrwt beam="2">  1       -1 0.17704301E-01 0.67577263E+02</pdfrwt>
<totfact> 0.13359612E+02</totfact>
</mgrwt>
</event>
<event>
13    1  0.1589573E-008  0.4995207E+02  0.7546771E-02  0.1463981E+00
          2   -1    0    0  503    0  0.00000000000E+00  0.00000000000E+00  0.55430790199E+03  0.55430790199E+03  0.00000000000E+00 0. -1.
          2   -1    0    0  502    0 -0.00000000000E+00 -0.00000000000E+00 -0.40785403521E+04  0.40785403521E+04  0.00000000000E+00 0. -1.
         24    2    1    2    0    0 -0.33037415284E+03  0.14683459120E+03 -0.10434926131E+03  0.38475319226E+03  0.80241962703E+02 0.  0.
         25    2    1    2    0    0  0.33421932657E+03 -0.16288463403E+03  0.19373234307E+02  0.39272859958E+03  0.12500587373E+03 0.  0.
         24    2    1    2    0    0 -0.97422188671E+01 -0.11029744340E+02  0.21210625921E+02  0.74264453578E+02  0.69632983023E+02 0.  0.
        -11    1    3    3    0    0 -0.30851209483E+02  0.43526688686E+02 -0.18822796405E+02  0.56574441394E+02  0.00000000000E+00 0.  1.
         12    1    3    3    0    0 -0.29952294336E+03  0.10330790252E+03 -0.85526464909E+02  0.32817875086E+03  0.00000000000E+00 0. -1.
        -13    1    5    5    0    0  0.21609168469E+02  0.85022583887E+01  0.28346275103E+02  0.36643633442E+02  0.00000000000E+00 0.  1.
         14    1    5    5    0    0 -0.31351387336E+02 -0.19532002728E+02 -0.71356491818E+01  0.37620820136E+02  0.00000000000E+00 0. -1.
          5    1    4    4  501    0  0.26459157467E+03 -0.66224554587E+02  0.19758881758E+02  0.27350849425E+03  0.47000000000E+01 0.  1.
         -5    1    4    4    0  501  0.69627751901E+02 -0.96660079440E+02 -0.38564745020E+00  0.11922010534E+03  0.47000000000E+01 0.  1.
          1    1    1    2  502    0  0.47763975023E+02  0.14676623646E+02 -0.36176355050E+04  0.36179805759E+04  0.00000000000E+00 0. -1.
          1    1    1    2  503    0 -0.41866929888E+02  0.12403163519E+02  0.15716845596E+03  0.16312143278E+03  0.00000000000E+00 0. -1.
<mgrwt>
<rscale>  0 0.46703144E+02</rscale>
<asrwt>0</asrwt>
<pdfrwt beam="1">  1        2 0.81515870E-01 0.43665527E+02</pdfrwt>
<pdfrwt beam="2">  1        2 0.59978533E+00 0.49952074E+02</pdfrwt>
<totfact> 0.71173720E+00</totfact>
</mgrwt>
</event>
<event>
13    1  0.1589573E-008  0.1425123E+03  0.7546771E-02  0.1363331E+00
         -1   -1    0    0    0  501 -0.00000000000E+00  0.00000000000E+00  0.18732589723E+04  0.18732589723E+04  0.00000000000E+00 0.  1.
          2   -1    0    0  503    0  0.00000000000E+00 -0.00000000000E+00 -0.24356200262E+04  0.24356200262E+04  0.00000000000E+00 0. -1.
         24    2    1    2    0    0 -0.83504020898E+02 -0.26247373442E+02  0.53323855539E+03  0.54616628403E+03  0.79324691845E+02 0.  0.
         25    2    1    2    0    0  0.14408571021E+03 -0.18906507556E+03 -0.74431225603E+03  0.79128487604E+03  0.12499890356E+03 0.  0.
         24    2    1    2    0    0  0.95717345750E+02  0.22741393056E+03  0.57401218024E+03  0.62995036372E+03  0.80427430607E+02 0.  0.
        -11    1    3    3    0    0  0.14271987338E+02 -0.25731240891E+00  0.11414202845E+03  0.11503111967E+03  0.00000000000E+00 0.  1.
         12    1    3    3    0    0 -0.97776008237E+02 -0.25990061033E+02  0.41909652694E+03  0.43113516436E+03  0.00000000000E+00 0. -1.
        -13    1    5    5    0    0  0.70923153309E+02  0.19494954730E+03  0.39306691801E+03  0.44445137159E+03  0.00000000000E+00 0.  1.
         14    1    5    5    0    0  0.24794192441E+02  0.32464383254E+02  0.18094526223E+03  0.18549899213E+03  0.00000000000E+00 0. -1.
          5    1    4    4  502    0  0.52489589657E+02 -0.16562305436E+03 -0.47136021930E+03  0.50238302071E+03  0.47000000000E+01 0. -1.
         -5    1    4    4    0  502  0.91596120556E+02 -0.23442021196E+02 -0.27295203672E+03  0.28890185533E+03  0.47000000000E+01 0. -1.
          1    1    1    2  503    0 -0.29891249400E+02 -0.15041349540E+02 -0.16275705376E+04  0.16279144891E+04  0.00000000000E+00 0. -1.
         -2    1    1    2    0  501 -0.12640778566E+03  0.29398679855E+01  0.70227100418E+03  0.71356298559E+03  0.00000000000E+00 0.  1.
<mgrwt>
<rscale>  0 0.69056469E+02</rscale>
<asrwt>0</asrwt>
<pdfrwt beam="2">  1        2 0.35817941E+00 0.33462352E+02</pdfrwt>
<pdfrwt beam="1">  1       -1 0.27547926E+00 0.14251228E+03</pdfrwt>
<totfact> 0.44497477E-01</totfact>
</mgrwt>
</event>
<event>
13    1  0.1589573E-008  0.8183215E+02  0.7546771E-02  0.1325776E+00
         -3   -1    0    0    0  501 -0.00000000000E+00  0.00000000000E+00  0.10483966598E+04  0.10483966598E+04  0.00000000000E+00 0.  1.
          2   -1    0    0  503    0  0.00000000000E+00 -0.00000000000E+00 -0.18149602913E+03  0.18149602913E+03  0.00000000000E+00 0. -1.
         24    2    1    2    0    0  0.57718462333E+02  0.35997484532E+02  0.22516129058E+03  0.24892048955E+03  0.81465106360E+02 0.  0.
         25    2    1    2    0    0 -0.12196832419E+03 -0.75031959214E+02  0.18550368365E+02  0.19098753475E+03  0.12500422094E+03 0.  0.
         24    2    1    2    0    0  0.61261233385E+02 -0.39444465595E+02  0.24567703959E+03  0.26847373808E+03  0.80075812058E+02 0.  0.
        -11    1    5    5    0    0  0.12969140905E+02  0.24699362867E+02  0.67821834580E+02  0.73335246558E+02  0.00000000000E+00 0.  1.
         12    1    5    5    0    0  0.48292092481E+02 -0.64143828461E+02  0.17785520501E+03  0.19513849152E+03  0.00000000000E+00 0. -1.
        -11    1    3    3    0    0  0.25921036969E+02  0.60013604213E+02  0.15521820136E+03  0.16842275049E+03  0.00000000000E+00 0.  1.
         12    1    3    3    0    0  0.31797425364E+02 -0.24016119680E+02  0.69943089220E+02  0.80497739061E+02  0.00000000000E+00 0. -1.
          5    1    4    4  502    0 -0.14079168618E+03 -0.88450467253E+02  0.18808252432E+02  0.16739660813E+03  0.47000000000E+01 0. -1.
         -5    1    4    4    0  502  0.18823361986E+02  0.13418508039E+02 -0.25788406672E+00  0.23590926617E+02  0.47000000000E+01 0. -1.
          1    1    1    2  503    0  0.73474147968E+02  0.36906214508E+02 -0.43223497514E+02  0.92891279603E+02  0.00000000000E+00 0. -1.
         -4    1    1    2    0  501 -0.70485519492E+02  0.41572725769E+02  0.42073542967E+03  0.42861964696E+03  0.00000000000E+00 0.  1.
<mgrwt>
<rscale>  0 0.81165412E+02</rscale>
<asrwt>0</asrwt>
<pdfrwt beam="2">  1        2 0.26690593E-01 0.80504110E+02</pdfrwt>
<pdfrwt beam="1">  1       -3 0.15417598E+00 0.81832145E+02</pdfrwt>
<totfact> 0.38504276E+01</totfact>
</mgrwt>
</event>
<event>
13    1  0.1589573E-008  0.8038043E+02  0.7546771E-02  0.1370153E+00
          2   -1    0    0  503    0  0.00000000000E+00  0.00000000000E+00  0.38685783645E+04  0.38685783645E+04  0.00000000000E+00 0. -1.
         -1   -1    0    0    0  501 -0.00000000000E+00 -0.00000000000E+00 -0.63683438744E+03  0.63683438744E+03  0.00000000000E+00 0.  1.
         24    2    1    2    0    0  0.10692671365E+03 -0.31684033619E+03 -0.34318746056E+03  0.48582619608E+03  0.80176923045E+02 0.  0.
         25    2    1    2    0    0  0.48056057608E+01  0.29943663456E+03  0.15221376578E+04  0.15563465234E+04  0.12500423778E+03 0.  0.
         24    2    1    2    0    0 -0.21912656550E+03  0.26263645421E+02  0.42384784955E+03  0.48448736728E+03  0.79842211298E+02 0.  0.
        -11    1    5    5    0    0 -0.17818358844E+03  0.12531501629E+02  0.26285815741E+03  0.31780629422E+03  0.00000000000E+00 0.  1.
         12    1    5    5    0    0 -0.40942977057E+02  0.13732143792E+02  0.16098969213E+03  0.16668107306E+03  0.00000000000E+00 0. -1.
        -11    1    3    3    0    0  0.60553758406E+02 -0.24651432690E+03 -0.21617799632E+03  0.33342015104E+03  0.00000000000E+00 0.  1.
         12    1    3    3    0    0  0.46372955248E+02 -0.70326009283E+02 -0.12700946424E+03  0.15240604505E+03  0.00000000000E+00 0. -1.
          5    1    4    4  502    0  0.48951019292E+02  0.18225128166E+03  0.71313196169E+03  0.73769303693E+03  0.47000000000E+01 0.  1.
         -5    1    4    4    0  502 -0.44145413531E+02  0.11718535290E+03  0.80900569613E+03  0.81865348643E+03  0.47000000000E+01 0.  1.
          1    1    1    2  503    0  0.41739701013E+02  0.37415708782E+02  0.17941662684E+04  0.17950417089E+04  0.00000000000E+00 0. -1.
         -2    1    1    2    0  501  0.65654545075E+02 -0.46275652581E+02 -0.16522033820E+03  0.18371095630E+03  0.00000000000E+00 0.  1.
<mgrwt>
<rscale>  0 0.67124562E+02</rscale>
<asrwt>0</asrwt>
<pdfrwt beam="1">  1        2 0.56890857E+00 0.56054776E+02</pdfrwt>
<pdfrwt beam="2">  1       -1 0.93652118E-01 0.80380428E+02</pdfrwt>
<totfact> 0.14324915E+00</totfact>
</mgrwt>
</event>
<event>
13    1  0.1589573E-008  0.1071881E+03  0.7546771E-02  0.1279443E+00
          2   -1    0    0  502    0  0.00000000000E+00  0.00000000000E+00  0.88719850823E+03  0.88719850823E+03  0.00000000000E+00 0. -1.
          2   -1    0    0  503    0 -0.00000000000E+00 -0.00000000000E+00 -0.67417821680E+03  0.67417821680E+03  0.00000000000E+00 0. -1.
         24    2    1    2    0    0 -0.15733669409E+03 -0.91438795120E+02 -0.23719980822E+03  0.30933888731E+03  0.79441233783E+02 0.  0.
         25    2    1    2    0    0  0.87674496467E+02 -0.90334545005E+02  0.20017776176E+03  0.26747587008E+03  0.12500022969E+03 0.  0.
         24    2    1    2    0    0 -0.45978744185E+02  0.45870343934E+02  0.66692590551E+02  0.12277036386E+03  0.80040784846E+02 0.  0.
        -11    1    5    5    0    0 -0.19433139745E+02  0.10021487056E+02  0.74360829013E+02  0.77508773792E+02  0.00000000000E+00 0.  1.
         12    1    5    5    0    0 -0.26545604440E+02  0.35848856877E+02 -0.76682384623E+01  0.45261590069E+02  0.00000000000E+00 0. -1.
        -13    1    3    3    0    0 -0.35802563918E+02 -0.63127629850E+02 -0.71218562371E+02  0.10168089722E+03  0.00000000000E+00 0.  1.
         14    1    3    3    0    0 -0.12153413017E+03 -0.28311165270E+02 -0.16598124584E+03  0.20765799009E+03  0.00000000000E+00 0. -1.
          5    1    4    4  501    0  0.31882801437E+02 -0.96150638017E+02  0.18196152390E+03  0.20831117204E+03  0.47000000000E+01 0. -1.
         -5    1    4    4    0  501  0.55791695031E+02  0.58160930126E+01  0.18216237860E+02  0.59164698039E+02  0.47000000000E+01 0. -1.
          1    1    1    2  502    0  0.10233442457E+03  0.42794926968E+02  0.50997269440E+03  0.52189643538E+03  0.00000000000E+00 0. -1.
          1    1    1    2  503    0  0.13306517237E+02  0.93108069223E+02 -0.32662294706E+03  0.33989516840E+03  0.00000000000E+00 0. -1.
<mgrwt>
<rscale>  0 0.10040656E+03</rscale>
<asrwt>0</asrwt>
<pdfrwt beam="1">  1        2 0.13047037E+00 0.10718806E+03</pdfrwt>
<pdfrwt beam="2">  1        2 0.99143855E-01 0.94054112E+02</pdfrwt>
<totfact> 0.25357241E+02</totfact>
</mgrwt>
</event>
<event>
13    1  0.1589573E-008  0.1025648E+03  0.7546771E-02  0.1276182E+00
          2   -1    0    0  503    0  0.00000000000E+00  0.00000000000E+00  0.67961770298E+03  0.67961770298E+03  0.00000000000E+00 0. -1.
         -3   -1    0    0    0  501 -0.00000000000E+00 -0.00000000000E+00 -0.10445681184E+04  0.10445681184E+04  0.00000000000E+00 0.  1.
         24    2    1    2    0    0 -0.62091727930E+02  0.12167909585E+02 -0.31395274498E+03  0.33141286627E+03  0.85233333542E+02 0.  0.
         25    2    1    2    0    0 -0.69802747191E+02 -0.10195952298E+03  0.26497010990E+03  0.31798246994E+03  0.12504208973E+03 0.  0.
         24    2    1    2    0    0 -0.33085280023E+01 -0.66776975845E+02 -0.94030796918E+02  0.14052861992E+03  0.80227123756E+02 0.  0.
        -11    1    3    3    0    0  0.13882340182E+02  0.15200815133E+02 -0.23822503747E+02  0.31484850872E+02  0.00000000000E+00 0.  1.
         12    1    3    3    0    0 -0.75974068113E+02 -0.30329055482E+01 -0.29013024124E+03  0.29992801540E+03  0.00000000000E+00 0. -1.
        -13    1    5    5    0    0 -0.14039652424E+02  0.15605564175E+02 -0.14447928017E+02  0.25483094345E+02  0.00000000000E+00 0.  1.
         14    1    5    5    0    0  0.10731124422E+02 -0.82382540020E+02 -0.79582868901E+02  0.11504552557E+03  0.00000000000E+00 0. -1.
          5    1    4    4  502    0 -0.93246056235E+02 -0.40565202101E+02  0.11156487144E+03  0.15102706104E+03  0.47000000000E+01 0.  1.
         -5    1    4    4    0  502  0.23443309044E+02 -0.61394320880E+02  0.15340523846E+03  0.16695540890E+03  0.47000000000E+01 0.  1.
          1    1    1    2  503    0  0.98666929349E+02  0.23398271093E+02  0.34041812117E+03  0.35520013972E+03  0.00000000000E+00 0. -1.
         -4    1    1    2    0  501  0.36536073775E+02  0.13317031815E+03 -0.56235510464E+03  0.57906172558E+03  0.00000000000E+00 0.  1.
<mgrwt>
<rscale>  0 0.10198241E+03</rscale>
<asrwt>0</asrwt>
<pdfrwt beam="1">  1        2 0.99943782E-01 0.10140336E+03</pdfrwt>
<pdfrwt beam="2">  1       -3 0.15361296E+00 0.10256476E+03</pdfrwt>
<totfact> 0.94805131E+00</totfact>
</mgrwt>
</event>
<event>
13    1  0.1589573E-008  0.4429792E+02  0.7546771E-02  0.1521022E+00
          2   -1    0    0  502    0  0.00000000000E+00  0.00000000000E+00  0.24310646051E+04  0.24310646051E+04  0.00000000000E+00 0. -1.
          2   -1    0    0  503    0 -0.00000000000E+00 -0.00000000000E+00 -0.88628015707E+03  0.88628015707E+03  0.00000000000E+00 0. -1.
         24    2    1    2    0    0  0.44619498550E+03 -0.95049942309E+02 -0.47894294445E+03  0.66645200691E+03  0.81532060260E+02 0.  0.
         25    2    1    2    0    0 -0.47767782929E+03  0.42849894904E+02  0.61054972374E+03  0.78638931466E+03  0.12499986790E+03 0.  0.
         24    2    1    2    0    0  0.33919124495E+02  0.37431639655E+02 -0.12978864356E+03  0.16235528557E+03  0.83441668859E+02 0.  0.
        -11    1    3    3    0    0  0.11587426375E+02  0.71430212503E+01 -0.31132118482E+01  0.13963641738E+02  0.00000000000E+00 0.  1.
         12    1    3    3    0    0  0.43460755913E+03 -0.10219296356E+03 -0.47582973261E+03  0.65248836517E+03  0.00000000000E+00 0. -1.
        -13    1    5    5    0    0 -0.10290776342E+02 -0.20913350978E+02 -0.42157331371E+02  0.48171660914E+02  0.00000000000E+00 0.  1.
         14    1    5    5    0    0  0.44209900838E+02  0.58344990633E+02 -0.87631312188E+02  0.11418362466E+03  0.00000000000E+00 0. -1.
          5    1    4    4  501    0 -0.40737025758E+03  0.11286236631E+02  0.44328598421E+03  0.60216481108E+03  0.47000000000E+01 0. -1.
         -5    1    4    4    0  501 -0.70307571708E+02  0.31563658272E+02  0.16726373952E+03  0.18422450359E+03  0.47000000000E+01 0. -1.
          1    1    1    2  502    0  0.27936473860E+02 -0.17814487999E+02  0.16161417730E+04  0.16164813741E+04  0.00000000000E+00 0. -1.
          1    1    1    2  503    0 -0.30372754571E+02  0.32582895749E+02 -0.73175460633E+02  0.85666780927E+02  0.00000000000E+00 0. -1.
<mgrwt>
<rscale>  0 0.38310934E+02</rscale>
<asrwt>0</asrwt>
<pdfrwt beam="1">  1        2 0.35750950E+00 0.33133104E+02</pdfrwt>
<pdfrwt beam="2">  1        2 0.13033532E+00 0.44297922E+02</pdfrwt>
<totfact> 0.36286874E+01</totfact>
</mgrwt>
</event>
<event>
13    1  0.1589573E-008  0.1392094E+03  0.7546771E-02  0.1259566E+00
          2   -1    0    0  503    0  0.00000000000E+00  0.00000000000E+00  0.10444602801E+04  0.10444602801E+04  0.00000000000E+00 0. -1.
          2   -1    0    0  502    0 -0.00000000000E+00 -0.00000000000E+00 -0.23087259604E+04  0.23087259604E+04  0.00000000000E+00 0. -1.
         24    2    1    2    0    0 -0.28895554484E+02  0.61126295011E+02 -0.56998726849E+03  0.57959416493E+03  0.80452052671E+02 0.  0.
         25    2    1    2    0    0  0.23137292404E+03 -0.15843662376E+03  0.52717081153E+02  0.31150615950E+03  0.12498561129E+03 0.  0.
         24    2    1    2    0    0 -0.13408451297E+01  0.85695172769E+02 -0.74854366191E+02  0.13859479601E+03  0.79119408754E+02 0.  0.
        -13    1    3    3    0    0 -0.49819460109E+02  0.18275224009E+02 -0.21668675317E+03  0.22308991779E+03  0.00000000000E+00 0.  1.
         14    1    3    3    0    0  0.20923905625E+02  0.42851071003E+02 -0.35330051531E+03  0.35650424715E+03  0.00000000000E+00 0. -1.
        -13    1    5    5    0    0 -0.32917884699E+02  0.99190517061E+01 -0.25551420098E+02  0.42835146654E+02  0.00000000000E+00 0.  1.
         14    1    5    5    0    0  0.31577039570E+02  0.75776121063E+02 -0.49302946094E+02  0.95759649357E+02  0.00000000000E+00 0. -1.
          5    1    4    4  501    0  0.12507536312E+03 -0.47778520408E+02  0.79336379880E+02  0.15570158845E+03  0.47000000000E+01 0. -1.
         -5    1    4    4    0  501  0.10629756092E+03 -0.11065810335E+03 -0.26619298727E+02  0.15580457105E+03  0.47000000000E+01 0. -1.
          1    1    1    2  502    0 -0.12203822026E+03  0.49681258552E+02 -0.14925724327E+04  0.14983771293E+04  0.00000000000E+00 0. -1.
          1    1    1    2  503    0 -0.79098304171E+02 -0.38066102570E+02  0.82043130598E+03  0.82511399074E+03  0.00000000000E+00 0. -1.
<mgrwt>
<rscale>  0 0.11054409E+03</rscale>
<asrwt>0</asrwt>
<pdfrwt beam="1">  1        2 0.15359710E+00 0.87781376E+02</pdfrwt>
<pdfrwt beam="2">  1        2 0.33951852E+00 0.13920942E+03</pdfrwt>
<totfact> 0.27129776E+01</totfact>
</mgrwt>
</event>
<event>
13    1  0.1589573E-008  0.1015219E+03  0.7546771E-02  0.1421845E+00
          2   -1    0    0  502    0  0.00000000000E+00  0.00000000000E+00  0.14193009359E+04  0.14193009359E+04  0.00000000000E+00 0. -1.
          2   -1    0    0  503    0 -0.00000000000E+00 -0.00000000000E+00 -0.22249424556E+04  0.22249424556E+04  0.00000000000E+00 0. -1.
         24    2    1    2    0    0 -0.22730096199E+02 -0.22088388884E+02 -0.91818577829E+03  0.92228975814E+03  0.80924164034E+02 0.  0.
         25    2    1    2    0    0  0.11745180322E+03  0.51535060454E+01  0.25523394410E+03  0.30755821534E+03  0.12500481950E+03 0.  0.
         24    2    1    2    0    0 -0.45407016979E+02  0.50806526601E+02  0.19515569184E+03  0.22229650580E+03  0.81773419260E+02 0.  0.
        -11    1    5    5    0    0 -0.31197564209E+02 -0.18024538472E+02  0.71412380402E+02  0.79986874388E+02  0.00000000000E+00 0.  1.
         12    1    5    5    0    0 -0.14209452770E+02  0.68831065073E+02  0.12374331144E+03  0.14230963141E+03  0.00000000000E+00 0. -1.
        -13    1    3    3    0    0 -0.19863940431E+02  0.17609177666E+02 -0.70002256206E+03  0.70052569308E+03  0.00000000000E+00 0.  1.
         14    1    3    3    0    0 -0.28661557680E+01 -0.39697566550E+02 -0.21816321623E+03  0.22176406507E+03  0.00000000000E+00 0. -1.
          5    1    4    4  501    0  0.16840070937E+02  0.55987622729E+02  0.92970993498E+02  0.10992678254E+03  0.47000000000E+01 0.  1.
         -5    1    4    4    0  501  0.10061173229E+03 -0.50834116684E+02  0.16226295061E+03  0.19763143280E+03  0.47000000000E+01 0.  1.
          1    1    1    2  502    0  0.26934868930E+02  0.11783439850E+02  0.92533203810E+03  0.92579896163E+03  0.00000000000E+00 0. -1.
          1    1    1    2  503    0 -0.76249558974E+02 -0.45655083613E+02 -0.12631774155E+04  0.12662999506E+04  0.00000000000E+00 0. -1.
<mgrwt>
<rscale>  0 0.54632430E+02</rscale>
<asrwt>0</asrwt>
<pdfrwt beam="1">  1        2 0.20872073E+00 0.29399602E+02</pdfrwt>
<pdfrwt beam="2">  1        2 0.32719742E+00 0.10152186E+03</pdfrwt>
<totfact> 0.21416461E+01</totfact>
</mgrwt>
</event>
<event>
13    1  0.1589573E-008  0.1245997E+03  0.7546771E-02  0.1285528E+00
          2   -1    0    0  502    0  0.00000000000E+00  0.00000000000E+00  0.22742503408E+04  0.22742503408E+04  0.00000000000E+00 0. -1.
          2   -1    0    0  503    0 -0.00000000000E+00 -0.00000000000E+00 -0.11130017582E+04  0.11130017582E+04  0.00000000000E+00 0. -1.
         24    2    1    2    0    0 -0.72030673827E+02  0.15408924188E+03 -0.46497740795E+03  0.50152707298E+03  0.79959380891E+02 0.  0.
         25    2    1    2    0    0 -0.23761907743E+02 -0.14679961076E+03  0.21926657542E+03  0.29294728349E+03  0.12500210330E+03 0.  0.
         24    2    1    2    0    0  0.10026110166E+02 -0.88053527816E+02 -0.31778130828E+03  0.33938779765E+03  0.79656579492E+02 0.  0.
        -13    1    3    3    0    0 -0.80268022226E+02  0.94418611129E+02 -0.26256022506E+03  0.29033721998E+03  0.00000000000E+00 0.  1.
         14    1    3    3    0    0  0.82373483988E+01  0.59670630747E+02 -0.20241718288E+03  0.21118985300E+03  0.00000000000E+00 0. -1.
        -13    1    5    5    0    0 -0.32274668703E+02 -0.22771104022E+02 -0.80265116343E+02  0.89457623039E+02  0.00000000000E+00 0.  1.
         14    1    5    5    0    0  0.42300778869E+02 -0.65282423794E+02 -0.23751619193E+03  0.24993017461E+03  0.00000000000E+00 0. -1.
          5    1    4    4  501    0 -0.63118640462E+02 -0.65371378527E+02  0.57740780421E+02  0.10776579990E+03  0.47000000000E+01 0.  1.
         -5    1    4    4    0  501  0.39356732719E+02 -0.81428232228E+02  0.16152579500E+03  0.18518148359E+03  0.47000000000E+01 0.  1.
          1    1    1    2  502    0 -0.46253797776E+02  0.60778753056E+02  0.19714159887E+04  0.19728949468E+04  0.00000000000E+00 0. -1.
          1    1    1    2  503    0  0.13202026918E+03  0.19985143640E+02 -0.24667526525E+03  0.28049499804E+03  0.00000000000E+00 0. -1.
<mgrwt>
<rscale>  0 0.97552930E+02</rscale>
<asrwt>0</asrwt>
<pdfrwt beam="1">  1        2 0.33444858E+00 0.76377160E+02</pdfrwt>
<pdfrwt beam="2">  1        2 0.16367673E+00 0.12459974E+03</pdfrwt>
<totfact> 0.27227264E+01</totfact>
</mgrwt>
</event>
<event>
13    1  0.1589573E-008  0.1068002E+03  0.7546771E-02  0.1335559E+00
          2   -1    0    0  502    0  0.00000000000E+00  0.00000000000E+00  0.24462713280E+04  0.24462713280E+04  0.00000000000E+00 0. -1.
          2   -1    0    0  503    0 -0.00000000000E+00 -0.00000000000E+00 -0.36464672979E+04  0.36464672979E+04  0.00000000000E+00 0. -1.
         24    2    1    2    0    0  0.44507464170E+03 -0.61141324617E+03  0.72097367884E+03  0.10504776446E+04  0.10854787812E+03 0.  0.
         25    2    1    2    0    0 -0.32941938070E+03  0.12678969163E+03 -0.43875472049E+03  0.57682213956E+03  0.12500128662E+03 0.  0.
         24    2    1    2    0    0 -0.30011437900E+02  0.40389965361E+03 -0.58815564176E+02  0.41711515984E+03  0.80561587570E+02 0.  0.
        -11    1    3    3    0    0  0.14662372830E+03 -0.17094125684E+03  0.28069452594E+03  0.35987337757E+03  0.00000000000E+00 0.  1.
         12    1    3    3    0    0  0.29845091341E+03 -0.44047198933E+03  0.44027915290E+03  0.69060426698E+03  0.00000000000E+00 0. -1.
        -13    1    5    5    0    0 -0.14243905397E+01  0.51114532495E+02 -0.35810435997E+02  0.62426850368E+02  0.00000000000E+00 0.  1.
         14    1    5    5    0    0 -0.28587047360E+02  0.35278512111E+03 -0.23005128179E+02  0.35468830947E+03  0.00000000000E+00 0. -1.
          5    1    4    4  501    0 -0.36997570786E+02  0.48629457406E+02 -0.30160014526E+02  0.68303446823E+02  0.47000000000E+01 0. -1.
         -5    1    4    4    0  501 -0.29242180991E+03  0.78160234221E+02 -0.40859470596E+03  0.50851869274E+03  0.47000000000E+01 0. -1.
          1    1    1    2  502    0 -0.52623490309E+02 -0.20846919920E+02  0.13107088058E+04  0.13119304095E+04  0.00000000000E+00 0. -1.
          1    1    1    2  503    0 -0.33020332799E+02  0.10157082085E+03 -0.27343081699E+04  0.27363932725E+04  0.00000000000E+00 0. -1.
<mgrwt>
<rscale>  0 0.77750505E+02</rscale>
<asrwt>0</asrwt>
<pdfrwt beam="1">  1        2 0.35974579E+00 0.56602348E+02</pdfrwt>
<pdfrwt beam="2">  1        2 0.53624519E+00 0.10680018E+03</pdfrwt>
<totfact> 0.11443572E+00</totfact>
</mgrwt>
</event>
<event>
13    1  0.1589573E-008  0.9298260E+02  0.7546771E-02  0.1303723E+00
          2   -1    0    0  502    0  0.00000000000E+00  0.00000000000E+00  0.18035532306E+04  0.18035532306E+04  0.00000000000E+00 0. -1.
          2   -1    0    0  503    0 -0.00000000000E+00 -0.00000000000E+00 -0.24506680809E+04  0.24506680809E+04  0.00000000000E+00 0. -1.
         24    2    1    2    0    0 -0.18525327899E+03  0.50573609344E+01 -0.83567482838E+03  0.86001544779E+03  0.83245404562E+02 0.  0.
         25    2    1    2    0    0  0.85626694884E+02  0.17281983301E+03 -0.25746739739E+03  0.34512725999E+03  0.12499895724E+03 0.  0.
         24    2    1    2    0    0  0.14775819823E+03 -0.21031637399E+03  0.78947731638E+03  0.83471402693E+03  0.86067481434E+02 0.  0.
        -13    1    3    3    0    0 -0.50729013377E+02 -0.68114693989E+01 -0.10320530195E+03  0.11520053500E+03  0.00000000000E+00 0.  1.
         14    1    3    3    0    0 -0.13452426561E+03  0.11868830333E+02 -0.73246952643E+03  0.74481491280E+03  0.00000000000E+00 0. -1.
        -13    1    5    5    0    0  0.38971404278E+02 -0.28272946764E+02  0.72504301470E+02  0.87034496619E+02  0.00000000000E+00 0.  1.
         14    1    5    5    0    0  0.10878679395E+03 -0.18204342723E+03  0.71697301491E+03  0.74767953031E+03  0.00000000000E+00 0. -1.
          5    1    4    4  501    0 -0.27339041289E+02  0.76085331726E+02 -0.87298497854E+02  0.11907778386E+03  0.47000000000E+01 0. -1.
         -5    1    4    4    0  501  0.11296573617E+03  0.96734501285E+02 -0.17016889954E+03  0.22604947613E+03  0.47000000000E+01 0. -1.
          1    1    1    2  502    0 -0.79815564186E+02 -0.47963052002E+02  0.93167380834E+03  0.93631568597E+03  0.00000000000E+00 0. -1.
          1    1    1    2  503    0  0.31683950059E+02  0.80402232051E+02 -0.12751237492E+04  0.12780488909E+04  0.00000000000E+00 0. -1.
<mgrwt>
<rscale>  0 0.89641188E+02</rscale>
<asrwt>0</asrwt>
<pdfrwt beam="1">  1        2 0.26522842E+00 0.92982596E+02</pdfrwt>
<pdfrwt beam="2">  1        2 0.36039236E+00 0.86419857E+02</pdfrwt>
<totfact> 0.10064478E+01</totfact>
</mgrwt>
</event>
<event>
13    1  0.1589573E-008  0.1218686E+03  0.7546771E-02  0.1279753E+00
          2   -1    0    0  502    0  0.00000000000E+00  0.00000000000E+00  0.85507845547E+03  0.85507845547E+03  0.00000000000E+00 0. -1.
          2   -1    0    0  503    0 -0.00000000000E+00 -0.00000000000E+00 -0.27285510045E+04  0.27285510045E+04  0.00000000000E+00 0. -1.
         24    2    1    2    0    0 -0.18293367434E+03  0.74810983084E+02 -0.96476609338E+03  0.98808985367E+03  0.80539006660E+02 0.  0.
         25    2    1    2    0    0 -0.10827634855E+02  0.29837567057E+03  0.20805153937E+03  0.38477819382E+03  0.12499414763E+03 0.  0.
         24    2    1    2    0    0  0.15572950811E+03 -0.27214011307E+03  0.28171175803E+03  0.42918275013E+03  0.80773742988E+02 0.  0.
        -11    1    5    5    0    0  0.14423455120E+02 -0.17498587386E+02 -0.18007770274E+01  0.22748173905E+02  0.00000000000E+00 0.  1.
         12    1    5    5    0    0  0.14130605299E+03 -0.25464152569E+03  0.28351253506E+03  0.40643457622E+03  0.00000000000E+00 0. -1.
        -11    1    3    3    0    0 -0.77852436292E+02  0.44580525207E+01 -0.51553139988E+03  0.52139572336E+03  0.00000000000E+00 0.  1.
         12    1    3    3    0    0 -0.10508123805E+03  0.70352930563E+02 -0.44923469350E+03  0.46669413031E+03  0.00000000000E+00 0. -1.
          5    1    4    4  501    0  0.21072784344E+02  0.80114489915E+02  0.12289934444E+03  0.14828598247E+03  0.47000000000E+01 0.  1.
         -5    1    4    4    0  501 -0.31900419199E+02  0.21826118066E+03  0.85152194929E+02  0.23649221135E+03  0.47000000000E+01 0.  1.
          1    1    1    2  502    0  0.81452581595E+02  0.12979646886E+02  0.18021126766E+03  0.19818954380E+03  0.00000000000E+00 0. -1.
          1    1    1    2  503    0 -0.43420780507E+02 -0.11402618747E+03 -0.15786810207E+04  0.15833891185E+04  0.00000000000E+00 0. -1.
<mgrwt>
<rscale>  0 0.10025843E+03</rscale>
<asrwt>0</asrwt>
<pdfrwt beam="1">  1        2 0.12574683E+00 0.82480266E+02</pdfrwt>
<pdfrwt beam="2">  1        2 0.40125750E+00 0.12186858E+03</pdfrwt>
<totfact> 0.21959276E+01</totfact>
</mgrwt>
</event>
<event>
13    1  0.1589573E-008  0.7093090E+02  0.7546771E-02  0.1506566E+00
          2   -1    0    0  502    0  0.00000000000E+00  0.00000000000E+00  0.16460130509E+04  0.16460130509E+04  0.00000000000E+00 0. -1.
          2   -1    0    0  503    0 -0.00000000000E+00 -0.00000000000E+00 -0.18419044668E+04  0.18419044668E+04  0.00000000000E+00 0. -1.
         24    2    1    2    0    0 -0.16279954688E+03  0.95526817979E+02 -0.99805799987E+03  0.10189170981E+04  0.80269647335E+02 0.  0.
         25    2    1    2    0    0  0.15628958246E+03  0.19211251086E+03  0.18690991723E+03  0.33450548446E+03  0.12499980624E+03 0.  0.
         24    2    1    2    0    0  0.93459073789E+02 -0.29956936439E+03 -0.12828270142E+03  0.34819248275E+03  0.79404980981E+02 0.  0.
        -11    1    5    5    0    0  0.54992912341E+02 -0.26495728137E+03 -0.11902926410E+03  0.29562568744E+03  0.00000000000E+00 0.  1.
         12    1    5    5    0    0  0.38466161447E+02 -0.34612083020E+02 -0.92534373242E+01  0.52566795316E+02  0.00000000000E+00 0. -1.
        -11    1    3    3    0    0 -0.10877764904E+03  0.64761458169E+02 -0.45404500098E+03  0.47136343336E+03  0.00000000000E+00 0.  1.
         12    1    3    3    0    0 -0.54021897842E+02  0.30765359810E+02 -0.54401299889E+03  0.54755366475E+03  0.00000000000E+00 0. -1.
          5    1    4    4  501    0  0.82770456930E+02  0.18537386567E+03  0.12924542305E+03  0.24070913567E+03  0.47000000000E+01 0. -1.
         -5    1    4    4    0  501  0.73519125535E+02  0.67386451894E+01  0.57664494183E+02  0.93796348798E+02  0.47000000000E+01 0. -1.
          1    1    1    2  502    0 -0.67054985542E+02  0.23091159488E+02  0.12636766843E+04  0.12656651750E+04  0.00000000000E+00 0. -1.
          1    1    1    2  503    0 -0.19894123827E+02 -0.11161123933E+02 -0.52013731617E+03  0.52063727730E+03  0.00000000000E+00 0. -1.
<mgrwt>
<rscale>  0 0.40224529E+02</rscale>
<asrwt>0</asrwt>
<pdfrwt beam="1">  1        2 0.24206074E+00 0.70930900E+02</pdfrwt>
<pdfrwt beam="2">  1        2 0.27086830E+00 0.22811112E+02</pdfrwt>
<totfact> 0.27757352E+01</totfact>
</mgrwt>
</event>
<event>
13    1  0.1589573E-008  0.8599591E+02  0.7546771E-02  0.1485729E+00
          2   -1    0    0  503    0  0.00000000000E+00  0.00000000000E+00  0.12684602964E+04  0.12684602964E+04  0.00000000000E+00 0. -1.
          2   -1    0    0  502    0 -0.00000000000E+00 -0.00000000000E+00 -0.38995847708E+04  0.38995847708E+04  0.00000000000E+00 0. -1.
         24    2    1    2    0    0 -0.72497214706E+02  0.65451169942E+03  0.24317278664E+03  0.70644350101E+03  0.79296942775E+02 0.  0.
         25    2    1    2    0    0 -0.13837257559E+02 -0.89131938318E+03  0.16962823895E+03  0.91599355250E+03  0.12501494401E+03 0.  0.
         24    2    1    2    0    0  0.22340604839E+02  0.31901794466E+03 -0.20978531441E+03  0.39449054171E+03  0.96650699509E+02 0.  0.
        -13    1    3    3    0    0 -0.47264939896E+02  0.35156659404E+03  0.17199613122E+03  0.39422799716E+03  0.00000000000E+00 0.  1.
         14    1    3    3    0    0 -0.25232274810E+02  0.30294510539E+03  0.71176655415E+02  0.31221550385E+03  0.00000000000E+00 0. -1.
        -13    1    5    5    0    0 -0.16518119339E+02  0.26517667837E+03 -0.14981520846E+03  0.30501822193E+03  0.00000000000E+00 0.  1.
         14    1    5    5    0    0  0.38858724178E+02  0.53841266286E+02 -0.59970105946E+02  0.89472319782E+02  0.00000000000E+00 0. -1.
          5    1    4    4  501    0 -0.31391711771E+02 -0.74263478224E+03  0.18329939694E+03  0.76557992285E+03  0.47000000000E+01 0. -1.
         -5    1    4    4    0  501  0.17554454212E+02 -0.14868460095E+03 -0.13671157990E+02  0.15041362964E+03  0.47000000000E+01 0. -1.
          1    1    1    2  502    0  0.43904718316E+02 -0.73932466206E+02 -0.29912634225E+04  0.29924990387E+04  0.00000000000E+00 0. -1.
          1    1    1    2  503    0  0.20089149110E+02 -0.82777946954E+01  0.15712323695E+03  0.15861843331E+03  0.00000000000E+00 0. -1.
<mgrwt>
<rscale>  0 0.43226137E+02</rscale>
<asrwt>0</asrwt>
<pdfrwt beam="1">  1        2 0.18653828E+00 0.21727766E+02</pdfrwt>
<pdfrwt beam="2">  1        2 0.57346835E+00 0.85995908E+02</pdfrwt>
<totfact> 0.32183000E+00</totfact>
</mgrwt>
</event>
<event>
13    1  0.1589573E-008  0.1608468E+03  0.7546771E-02  0.1308601E+00
          2   -1    0    0  503    0  0.00000000000E+00  0.00000000000E+00  0.85477432375E+03  0.85477432375E+03  0.00000000000E+00 0. -1.
          2   -1    0    0  502    0 -0.00000000000E+00 -0.00000000000E+00 -0.26546833747E+04  0.26546833747E+04  0.00000000000E+00 0. -1.
         24    2    1    2    0    0 -0.45293635064E+02 -0.71552135714E+02 -0.84065603236E+03  0.84873261342E+03  0.80456589838E+02 0.  0.
         25    2    1    2    0    0  0.49610826121E+02  0.13414679009E+03 -0.21411472909E+03  0.28622742386E+03  0.12499770238E+03 0.  0.
         24    2    1    2    0    0  0.33503749398E+02  0.63490387843E+02 -0.21655722847E+02  0.10749775133E+03  0.77027693953E+02 0.  0.
        -11    1    3    3    0    0 -0.49857124699E+02 -0.84020563664E+02 -0.61742211429E+03  0.62510419549E+03  0.00000000000E+00 0.  1.
         12    1    3    3    0    0  0.45634896351E+01  0.12468427949E+02 -0.22323391807E+03  0.22362841794E+03  0.00000000000E+00 0. -1.
        -11    1    5    5    0    0  0.67692059338E+01  0.70662136337E+02 -0.32109045081E+02  0.77909886643E+02  0.00000000000E+00 0.  1.
         12    1    5    5    0    0  0.26734543464E+02 -0.71717484946E+01  0.10453322234E+02  0.29587864682E+02  0.00000000000E+00 0. -1.
          5    1    4    4  501    0  0.80312032373E+02  0.86374131155E+02 -0.86094887406E+02  0.14609905104E+03  0.47000000000E+01 0.  1.
         -5    1    4    4    0  501 -0.30701206252E+02  0.47772658932E+02 -0.12801984168E+03  0.14012837283E+03  0.47000000000E+01 0.  1.
          1    1    1    2  502    0  0.46296223539E+02  0.11822398919E+02 -0.14864003072E+04  0.14871681084E+04  0.00000000000E+00 0. -1.
          1    1    1    2  503    0 -0.84117163994E+02 -0.13790744114E+03  0.76291774057E+03  0.77983180140E+03  0.00000000000E+00 0. -1.
<mgrwt>
<rscale>  0 0.87667363E+02</rscale>
<asrwt>0</asrwt>
<pdfrwt beam="1">  1        2 0.12570210E+00 0.16084684E+03</pdfrwt>
<pdfrwt beam="2">  1        2 0.39039462E+00 0.47781894E+02</pdfrwt>
<totfact> 0.26690155E+01</totfact>
</mgrwt>
</event>
<event>
13    1  0.1589573E-008  0.8744760E+02  0.7546771E-02  0.1460754E+00
         -1   -1    0    0    0  501 -0.00000000000E+00  0.00000000000E+00  0.29040742598E+04  0.29040742598E+04  0.00000000000E+00 0.  1.
          2   -1    0    0  503    0  0.00000000000E+00 -0.00000000000E+00 -0.61980297331E+03  0.61980297331E+03  0.00000000000E+00 0. -1.
         24    2    1    2    0    0 -0.11189308493E+03 -0.12511466935E+02  0.90119106365E+03  0.91177214719E+03  0.80662977431E+02 0.  0.
         25    2    1    2    0    0  0.16028626555E+03 -0.58404826274E+02 -0.11765302869E+03  0.24201326683E+03  0.12500150201E+03 0.  0.
         24    2    1    2    0    0  0.33447370944E+02 -0.10065780784E+02  0.39065423161E+03  0.40033198144E+03  0.80217953883E+02 0.  0.
        -11    1    5    5    0    0 -0.28439513769E+00 -0.39464053047E+02  0.23820028462E+03  0.24144744347E+03  0.00000000000E+00 0.  1.
         12    1    5    5    0    0  0.33731766082E+02  0.29398272263E+02  0.15245394699E+03  0.15888453797E+03  0.00000000000E+00 0. -1.
        -11    1    3    3    0    0 -0.89573530780E+02 -0.42002241074E+02  0.56994236905E+03  0.57846513267E+03  0.00000000000E+00 0.  1.
         12    1    3    3    0    0 -0.22319554153E+02  0.29490774139E+02  0.33124869459E+03  0.33330701452E+03  0.00000000000E+00 0. -1.
          5    1    4    4  502    0  0.52198298845E+01 -0.10657594711E+02 -0.72382700115E+02  0.73499498128E+02  0.47000000000E+01 0.  1.
         -5    1    4    4    0  502  0.15506643567E+03 -0.47747231563E+02 -0.45270328577E+02  0.16851376870E+03  0.47000000000E+01 0.  1.
          1    1    1    2  503    0  0.94118723451E+01  0.23734316040E+02 -0.42757520515E+03  0.42833685011E+03  0.00000000000E+00 0. -1.
         -2    1    1    2    0  501 -0.91252423907E+02  0.57247757953E+02  0.15376542251E+04  0.15414229876E+04  0.00000000000E+00 0.  1.
<mgrwt>
<rscale>  0 0.47251911E+02</rscale>
<asrwt>0</asrwt>
<pdfrwt beam="2">  1        2 0.91147497E-01 0.25532354E+02</pdfrwt>
<pdfrwt beam="1">  1       -1 0.42706974E+00 0.87447601E+02</pdfrwt>
<totfact> 0.43181996E-01</totfact>
</mgrwt>
</event>
<event>
13    1  0.1589573E-008  0.2053729E+03  0.7546771E-02  0.1216824E+00
          2   -1    0    0  502    0  0.00000000000E+00  0.00000000000E+00  0.16628958072E+04  0.16628958072E+04  0.00000000000E+00 0. -1.
          2   -1    0    0  503    0 -0.00000000000E+00 -0.00000000000E+00 -0.26227718762E+04  0.26227718762E+04  0.00000000000E+00 0. -1.
         24    2    1    2    0    0 -0.22973267525E+03  0.23738013474E+03 -0.48042392233E+03  0.58859153545E+03  0.80662382839E+02 0.  0.
         25    2    1    2    0    0  0.62860019126E+02 -0.24917514766E+03  0.87952922096E+03  0.92478806640E+03  0.12498672336E+03 0.  0.
         24    2    1    2    0    0  0.11333115236E+03 -0.14555003826E+03  0.16529795180E+03  0.26050321533E+03  0.80683013046E+02 0.  0.
        -13    1    5    5    0    0  0.59913469983E+01 -0.57834510919E+02  0.25053211599E+02  0.63311849630E+02  0.00000000000E+00 0.  1.
         14    1    5    5    0    0  0.10733980537E+03 -0.87715527341E+02  0.14024474020E+03  0.19719136570E+03  0.00000000000E+00 0. -1.
        -13    1    3    3    0    0 -0.14289146029E+03  0.19927075940E+03 -0.34494697404E+03  0.42322006081E+03  0.00000000000E+00 0.  1.
         14    1    3    3    0    0 -0.86841214961E+02  0.38109375346E+02 -0.13547694829E+03  0.16537147464E+03  0.00000000000E+00 0. -1.
          5    1    4    4  501    0  0.75226358814E+00 -0.21435243626E+03  0.65929735737E+03  0.69328394491E+03  0.47000000000E+01 0.  1.
         -5    1    4    4    0  501  0.62107755538E+02 -0.34822711396E+02  0.22023186359E+03  0.23150412149E+03  0.47000000000E+01 0.  1.
          1    1    1    2  502    0 -0.91294102560E+02  0.11125317501E+02  0.48416530200E+03  0.49282291496E+03  0.00000000000E+00 0. -1.
          1    1    1    2  503    0  0.14483560632E+03  0.14621973367E+03 -0.20084446214E+04  0.20189619513E+04  0.00000000000E+00 0. -1.
<mgrwt>
<rscale>  0 0.13743377E+03</rscale>
<asrwt>0</asrwt>
<pdfrwt beam="1">  1        2 0.24454350E+00 0.91969483E+02</pdfrwt>
<pdfrwt beam="2">  1        2 0.38570174E+00 0.20537290E+03</pdfrwt>
<totfact> 0.86390022E+00</totfact>
</mgrwt>
</event>
<event>
13    1  0.1589573E-008  0.7568914E+02  0.7546771E-02  0.1353962E+00
          2   -1    0    0  502    0  0.00000000000E+00  0.00000000000E+00  0.36888248105E+04  0.36888248105E+04  0.00000000000E+00 0. -1.
          2   -1    0    0  503    0 -0.00000000000E+00 -0.00000000000E+00 -0.83832903074E+03  0.83832903074E+03  0.00000000000E+00 0. -1.
         24    2    1    2    0    0  0.67473543565E+03 -0.81819419094E+02  0.12155181302E+03  0.69527189035E+03  0.81644551511E+02 0.  0.
         25    2    1    2    0    0 -0.46219105550E+03  0.13418055607E+03  0.94602850036E+03  0.10687475164E+04  0.12500534783E+03 0.  0.
         24    2    1    2    0    0 -0.18310722709E+03 -0.51182691320E+02  0.91729636768E+03  0.94036025445E+03  0.81834329454E+02 0.  0.
        -11    1    3    3    0    0  0.31366797834E+03 -0.78971368395E+02  0.60634600601E+02  0.32909061435E+03  0.00000000000E+00 0.  1.
         12    1    3    3    0    0  0.36106745731E+03 -0.28480506990E+01  0.60917212419E+02  0.36618127599E+03  0.00000000000E+00 0. -1.
        -13    1    5    5    0    0 -0.27402052751E+02 -0.42983439669E+02  0.23842183664E+03  0.24381021465E+03  0.00000000000E+00 0.  1.
         14    1    5    5    0    0 -0.15570517434E+03 -0.81992516510E+01  0.67887453105E+03  0.69655003980E+03  0.00000000000E+00 0. -1.
          5    1    4    4  501    0 -0.12672757101E+03  0.90991851485E+02  0.24712216282E+03  0.29228555840E+03  0.47000000000E+01 0.  1.
         -5    1    4    4    0  501 -0.33546348449E+03  0.43188704583E+02  0.69890633754E+03  0.77646195804E+03  0.47000000000E+01 0.  1.
          1    1    1    2  502    0  0.65374640119E+01 -0.67863158598E+02  0.13403257752E+04  0.13420586166E+04  0.00000000000E+00 0. -1.
          1    1    1    2  503    0 -0.35974617074E+02  0.66684712943E+02 -0.47470667659E+03  0.48071556332E+03  0.00000000000E+00 0. -1.
<mgrwt>
<rscale>  0 0.71835109E+02</rscale>
<asrwt>0</asrwt>
<pdfrwt beam="1">  1        2 0.54247423E+00 0.68177318E+02</pdfrwt>
<pdfrwt beam="2">  1        2 0.12328368E+00 0.75689144E+02</pdfrwt>
<totfact> 0.72944731E+00</totfact>
</mgrwt>
</event>
<event>
13    1  0.1589573E-008  0.1948854E+03  0.7546771E-02  0.1299517E+00
          2   -1    0    0  503    0  0.00000000000E+00  0.00000000000E+00  0.21210329141E+04  0.21210329141E+04  0.00000000000E+00 0. -1.
          2   -1    0    0  502    0 -0.00000000000E+00 -0.00000000000E+00 -0.35031337676E+04  0.35031337676E+04  0.00000000000E+00 0. -1.
         24    2    1    2    0    0  0.18553930780E+03 -0.79133158924E+03  0.68276862405E+03  0.10645867083E+04  0.80878592040E+02 0.  0.
         25    2    1    2    0    0 -0.63484121491E+03  0.31087320728E+03 -0.46467268298E+03  0.85511010746E+03  0.12500829738E+03 0.  0.
         24    2    1    2    0    0  0.26406281901E+03  0.51962537320E+03 -0.29235892995E+03  0.66012311312E+03  0.10270871282E+03 0.  0.
        -11    1    3    3    0    0  0.14057034121E+03 -0.69967237131E+03  0.61459243540E+03  0.94182021089E+03  0.00000000000E+00 0.  1.
         12    1    3    3    0    0  0.44968966591E+02 -0.91659217932E+02  0.68176188650E+02  0.12276649741E+03  0.00000000000E+00 0. -1.
        -13    1    5    5    0    0  0.12075445348E+03  0.18741796609E+03 -0.62743839544E+02  0.23161157451E+03  0.00000000000E+00 0.  1.
         14    1    5    5    0    0  0.14330836553E+03  0.33220740711E+03 -0.22961509041E+03  0.42851153860E+03  0.00000000000E+00 0. -1.
          5    1    4    4  501    0 -0.32936369586E+02  0.24829236672E+02  0.19453016397E+01  0.41559230427E+02  0.47000000000E+01 0. -1.
         -5    1    4    4    0  501 -0.60190484533E+03  0.28604397061E+03 -0.46661798462E+03  0.81355087703E+03  0.47000000000E+01 0. -1.
          1    1    1    2  502    0  0.19490369138E+03  0.25870993104E+01 -0.21711947390E+04  0.21799267732E+04  0.00000000000E+00 0. -1.
          1    1    1    2  503    0 -0.96646032849E+01 -0.41754090546E+02  0.86335687432E+03  0.86441997957E+03  0.00000000000E+00 0. -1.
<mgrwt>
<rscale>  0 0.91391470E+02</rscale>
<asrwt>0</asrwt>
<pdfrwt beam="1">  1        2 0.31191661E+00 0.42858005E+02</pdfrwt>
<pdfrwt beam="2">  1        2 0.51516672E+00 0.19488543E+03</pdfrwt>
<totfact> 0.18567422E+00</totfact>
</mgrwt>
</event>
<event>
13    1  0.1589573E-008  0.5989827E+02  0.7546771E-02  0.1528959E+00
          2   -1    0    0  502    0  0.00000000000E+00  0.00000000000E+00  0.16748245583E+04  0.16748245583E+04  0.00000000000E+00 0. -1.
          2   -1    0    0  503    0 -0.00000000000E+00 -0.00000000000E+00 -0.49832936951E+03  0.49832936951E+03  0.00000000000E+00 0. -1.
         24    2    1    2    0    0 -0.41343841487E+02  0.14879410526E+01 -0.28347240905E+02  0.95582376432E+02  0.81368897129E+02 0.  0.
         25    2    1    2    0    0 -0.17923248659E+03 -0.21004379754E+03  0.20247309736E+03  0.36449267295E+03  0.12496748515E+03 0.  0.
         24    2    1    2    0    0  0.25666759624E+03  0.23151163395E+03  0.10030106348E+04  0.10640871140E+04  0.82311366354E+02 0.  0.
        -13    1    5    5    0    0  0.22703756647E+03  0.16129972669E+03  0.76096868122E+03  0.81033140888E+03  0.00000000000E+00 0.  1.
         14    1    5    5    0    0  0.29630029771E+02  0.70211907260E+02  0.24204195353E+03  0.25375570507E+03  0.00000000000E+00 0. -1.
        -13    1    3    3    0    0 -0.22461086643E+02  0.30680291762E+02 -0.43396599145E+02  0.57697881531E+02  0.00000000000E+00 0.  1.
         14    1    3    3    0    0 -0.18882754844E+02 -0.29192350710E+02  0.15049358240E+02  0.37884494901E+02  0.00000000000E+00 0. -1.
          5    1    4    4  501    0 -0.16353823411E+03 -0.18727948996E+03  0.11755523693E+03  0.27506305660E+03  0.47000000000E+01 0.  1.
         -5    1    4    4    0  501 -0.15694252480E+02 -0.22764307575E+02  0.84917860430E+02  0.89429616349E+02  0.47000000000E+01 0.  1.
          1    1    1    2  502    0 -0.38790450999E+02 -0.46043945877E+02  0.32095674759E+03  0.32655470884E+03  0.00000000000E+00 0. -1.
          1    1    1    2  503    0  0.26991828346E+01  0.23088168410E+02 -0.32159804999E+03  0.32243705566E+03  0.00000000000E+00 0. -1.
<mgrwt>
<rscale>  0 0.37314339E+02</rscale>
<asrwt>0</asrwt>
<pdfrwt beam="1">  1        2 0.24629773E+00 0.59898272E+02</pdfrwt>
<pdfrwt beam="2">  1        2 0.73283731E-01 0.23245410E+02</pdfrwt>
<totfact> 0.14432620E+02</totfact>
</mgrwt>
</event>
<event>
13    1  0.1589573E-008  0.1042512E+03  0.7546771E-02  0.1344060E+00
          2   -1    0    0  502    0  0.00000000000E+00  0.00000000000E+00  0.20085144248E+04  0.20085144248E+04  0.00000000000E+00 0. -1.
          2   -1    0    0  503    0 -0.00000000000E+00 -0.00000000000E+00 -0.42970381098E+04  0.42970381098E+04  0.00000000000E+00 0. -1.
         24    2    1    2    0    0 -0.28064843770E+03 -0.43317014765E+03 -0.40966391449E+03  0.66515866889E+03  0.90617931809E+02 0.  0.
         25    2    1    2    0    0  0.15874819995E+03 -0.23618892863E+03 -0.29488645420E+03  0.42844879715E+03  0.12499659961E+03 0.  0.
         24    2    1    2    0    0  0.14979815979E+03  0.82356622822E+03 -0.27430490509E+02  0.84126234489E+03  0.79177523158E+02 0.  0.
        -11    1    5    5    0    0  0.13728139046E+03  0.56590790310E+03 -0.32801486818E+02  0.58324426486E+03  0.00000000000E+00 0.  1.
         12    1    5    5    0    0  0.12516769332E+02  0.25765832512E+03  0.53709963088E+01  0.25801808003E+03  0.00000000000E+00 0. -1.
        -13    1    3    3    0    0 -0.55041311346E+02 -0.16303792746E+03 -0.13330391211E+03  0.21767141459E+03  0.00000000000E+00 0.  1.
         14    1    3    3    0    0 -0.22560712636E+03 -0.27013222019E+03 -0.27636000238E+03  0.44748725430E+03  0.00000000000E+00 0. -1.
          5    1    4    4  501    0  0.12542836654E+03 -0.16430535866E+03 -0.12675051744E+03  0.24252074074E+03  0.47000000000E+01 0.  1.
         -5    1    4    4    0  501  0.33319833407E+02 -0.71883569970E+02 -0.16813593676E+03  0.18592805641E+03  0.47000000000E+01 0.  1.
          1    1    1    2  502    0 -0.18968489205E+02 -0.50418212763E+02  0.14056384525E+04  0.14066702737E+04  0.00000000000E+00 0. -1.
          1    1    1    2  503    0 -0.89294328265E+01 -0.10378893918E+03 -0.29621812782E+04  0.29640124500E+04  0.00000000000E+00 0. -1.
<mgrwt>
<rscale>  0 0.74938905E+02</rscale>
<asrwt>0</asrwt>
<pdfrwt beam="1">  1        2 0.29536977E+00 0.53868356E+02</pdfrwt>
<pdfrwt beam="2">  1        2 0.63191736E+00 0.10425118E+03</pdfrwt>
<totfact> 0.68427492E-01</totfact>
</mgrwt>
</event>
<event>
13    1  0.1589573E-008  0.7865941E+02  0.7546771E-02  0.1391568E+00
          2   -1    0    0  502    0  0.00000000000E+00  0.00000000000E+00  0.24825297128E+04  0.24825297128E+04  0.00000000000E+00 0. -1.
          4   -1    0    0  503    0 -0.00000000000E+00 -0.00000000000E+00 -0.13016577813E+04  0.13016577813E+04  0.00000000000E+00 0. -1.
         24    2    1    2    0    0  0.40469697910E+03 -0.76002582944E+02  0.45430639063E+03  0.61839752949E+03  0.80406283352E+02 0.  0.
         25    2    1    2    0    0 -0.31891431451E+03  0.35137734922E+03  0.77406646978E+03  0.91650334105E+03  0.12500837158E+03 0.  0.
         24    2    1    2    0    0 -0.69628689948E+02 -0.21260566117E+03  0.35926659217E+03  0.43240883734E+03  0.88631804307E+02 0.  0.
        -11    1    3    3    0    0  0.20255824628E+03 -0.70343588594E+02  0.27002993435E+03  0.34481042478E+03  0.00000000000E+00 0.  1.
         12    1    3    3    0    0  0.20213873282E+03 -0.56589943498E+01  0.18427645628E+03  0.27358710471E+03  0.00000000000E+00 0. -1.
        -13    1    5    5    0    0 -0.52408630673E+02 -0.18748947210E+03  0.35013555998E+03  0.40061687068E+03  0.00000000000E+00 0.  1.
         14    1    5    5    0    0 -0.17220059274E+02 -0.25116189072E+02  0.91310321932E+01  0.31791966656E+02  0.00000000000E+00 0. -1.
          5    1    4    4  501    0 -0.23369541672E+03  0.20629914918E+03  0.40698981771E+03  0.51267503203E+03  0.47000000000E+01 0.  1.
         -5    1    4    4    0  501 -0.85218897794E+02  0.14507820004E+03  0.36707665207E+03  0.40382830902E+03  0.47000000000E+01 0.  1.
          1    1    1    2  502    0  0.30929696698E+02 -0.72666989555E+02  0.70232037350E+03  0.70674680370E+03  0.00000000000E+00 0. -1.
          3    1    1    2  503    0 -0.47083671344E+02  0.98978844483E+01 -0.11090878947E+04  0.11101309825E+04  0.00000000000E+00 0. -1.
<mgrwt>
<rscale>  0 0.61518478E+02</rscale>
<asrwt>0</asrwt>
<pdfrwt beam="1">  1        2 0.36507790E+00 0.78659406E+02</pdfrwt>
<pdfrwt beam="2">  1        4 0.19142026E+00 0.48112786E+02</pdfrwt>
<totfact> 0.48076644E-01</totfact>
</mgrwt>
</event>
<event>
13    1  0.1589573E-008  0.1321203E+03  0.7546771E-02  0.1324655E+00
         -3   -1    0    0    0  501 -0.00000000000E+00  0.00000000000E+00  0.27148434565E+03  0.27148434565E+03  0.00000000000E+00 0.  1.
          2   -1    0    0  503    0  0.00000000000E+00 -0.00000000000E+00 -0.51272516281E+04  0.51272516281E+04  0.00000000000E+00 0. -1.
         24    2    1    2    0    0 -0.33454611314E+02  0.58780895995E+02 -0.62967749944E+02  0.12260186692E+03  0.80572175633E+02 0.  0.
         25    2    1    2    0    0 -0.84594197431E-01 -0.61232212021E+02 -0.40336676961E+03  0.42670744235E+03  0.12500039836E+03 0.  0.
         24    2    1    2    0    0  0.37384155615E+01 -0.14038799732E+03 -0.25007546272E+04  0.25059804152E+04  0.80258147560E+02 0.  0.
        -11    1    3    3    0    0 -0.59978157136E+02  0.43126122257E+02 -0.49888283303E+02  0.89140801911E+02  0.00000000000E+00 0.  1.
         12    1    3    3    0    0  0.26523545821E+02  0.15654773738E+02 -0.13079466641E+02  0.33461065006E+02  0.00000000000E+00 0. -1.
        -13    1    5    5    0    0 -0.41654266748E+01  0.53132851995E+01 -0.44608913797E+03  0.44614022549E+03  0.00000000000E+00 0.  1.
         14    1    5    5    0    0  0.79038422364E+01 -0.14570128252E+03 -0.20546654892E+04  0.20598401897E+04  0.00000000000E+00 0. -1.
          5    1    4    4  502    0  0.29802793205E+02 -0.74909951312E+02 -0.37323040298E+03  0.38186742595E+03  0.47000000000E+01 0.  1.
         -5    1    4    4    0  502 -0.29887387402E+02  0.13677739292E+02 -0.30136366625E+02  0.44840016405E+02  0.47000000000E+01 0.  1.
          1    1    1    2  503    0  0.35800780637E+02  0.35418662937E+02 -0.21030173672E+04  0.21036202662E+04  0.00000000000E+00 0. -1.
         -4    1    1    2    0  501 -0.59999906868E+01  0.10742065041E+03  0.21433923149E+03  0.23982598312E+03  0.00000000000E+00 0.  1.
<mgrwt>
<rscale>  0 0.81569857E+02</rscale>
<asrwt>0</asrwt>
<pdfrwt beam="2">  1        2 0.75400759E+00 0.50360476E+02</pdfrwt>
<pdfrwt beam="1">  1       -3 0.39924169E-01 0.13212031E+03</pdfrwt>
<totfact> 0.39752902E-01</totfact>
</mgrwt>
</event>
<event>
13    1  0.1589573E-008  0.1212963E+03  0.7546771E-02  0.1361949E+00
          2   -1    0    0  502    0  0.00000000000E+00  0.00000000000E+00  0.33900343194E+03  0.33900343194E+03  0.00000000000E+00 0. -1.
          2   -1    0    0  503    0 -0.00000000000E+00 -0.00000000000E+00 -0.59326757790E+04  0.59326757790E+04  0.00000000000E+00 0. -1.
         24    2    1    2    0    0 -0.35014316651E+02  0.21274977010E+02 -0.45396536329E+03  0.46131662870E+03  0.71062323572E+02 0.  0.
         25    2    1    2    0    0 -0.23847707423E+03 -0.67527876814E+02  0.44090873134E-01  0.27758882605E+03  0.12499690126E+03 0.  0.
         24    2    1    2    0    0  0.74305392676E+02  0.40906238459E+02 -0.98403921154E+02  0.15320873934E+03  0.81209447650E+02 0.  0.
        -11    1    3    3    0    0 -0.48918156110E+02  0.76551507060E+01 -0.41305883003E+03  0.41601584633E+03  0.00000000000E+00 0.  1.
         12    1    3    3    0    0  0.13903839459E+02  0.13619826304E+02 -0.40906533253E+02  0.45300782367E+02  0.00000000000E+00 0. -1.
        -11    1    5    5    0    0  0.77104287408E+02  0.53177668490E+02 -0.56341941124E+02  0.10930393356E+03  0.00000000000E+00 0.  1.
         12    1    5    5    0    0 -0.27988947314E+01 -0.12271430031E+02 -0.42061980030E+02  0.43904805782E+02  0.00000000000E+00 0. -1.
          5    1    4    4  501    0 -0.88223069515E+01  0.26855499827E+02 -0.55501655278E+01  0.29188102170E+02  0.47000000000E+01 0.  1.
         -5    1    4    4    0  501 -0.22965476728E+03 -0.94383376642E+02  0.55942564009E+01  0.24840072388E+03  0.47000000000E+01 0.  1.
          1    1    1    2  502    0 -0.10303014700E+02  0.38415054263E+02  0.16458105150E+03  0.16931860801E+03  0.00000000000E+00 0. -1.
          1    1    1    2  503    0  0.20948901291E+03 -0.33068392918E+02 -0.52059282050E+04  0.52102464088E+04  0.00000000000E+00 0. -1.
<mgrwt>
<rscale>  0 0.69457051E+02</rscale>
<asrwt>0</asrwt>
<pdfrwt beam="1">  1        2 0.49853448E-01 0.39772711E+02</pdfrwt>
<pdfrwt beam="2">  1        2 0.87245229E+00 0.12129628E+03</pdfrwt>
<totfact> 0.92879595E-02</totfact>
</mgrwt>
</event>
<event>
13    1  0.1589573E-008  0.1767541E+03  0.7546771E-02  0.1348064E+00
          2   -1    0    0  502    0  0.00000000000E+00  0.00000000000E+00  0.56529465683E+03  0.56529465683E+03  0.00000000000E+00 0. -1.
          2   -1    0    0  503    0 -0.00000000000E+00 -0.00000000000E+00 -0.10784474540E+04  0.10784474540E+04  0.00000000000E+00 0. -1.
         24    2    1    2    0    0 -0.46112771432E+00  0.41225431457E+01 -0.70329594661E+03  0.70784576485E+03  0.80020186848E+02 0.  0.
         25    2    1    2    0    0  0.16560307018E+03  0.18736214356E+02  0.21073868027E+03  0.29632040091E+03  0.12497826232E+03 0.  0.
         24    2    1    2    0    0 -0.62354537797E+01  0.47081412492E+02  0.20390838942E+02  0.10795110476E+03  0.94774017641E+02 0.  0.
        -11    1    5    5    0    0  0.21750287836E+02 -0.21959317773E+02  0.11267178377E+02  0.32897355009E+02  0.00000000000E+00 0.  1.
         12    1    5    5    0    0 -0.27985741616E+02  0.69040730266E+02  0.91236605648E+01  0.75053749750E+02  0.00000000000E+00 0. -1.
        -13    1    3    3    0    0  0.38445583650E+02  0.10563495242E+02 -0.30300104988E+03  0.30561296857E+03  0.00000000000E+00 0.  1.
         14    1    3    3    0    0 -0.38906711364E+02 -0.64409520966E+01 -0.40029489673E+03  0.40223279628E+03  0.00000000000E+00 0. -1.
          5    1    4    4  501    0  0.56867912319E+02  0.22399308057E+02  0.16886762026E+03  0.17964980275E+03  0.47000000000E+01 0. -1.
         -5    1    4    4    0  501  0.10873515786E+03 -0.36630937011E+01  0.41871060005E+02  0.11667059816E+03  0.47000000000E+01 0. -1.
          1    1    1    2  502    0 -0.16578136655E+03 -0.99859415838E+02  0.20605073677E+03  0.28268758471E+03  0.00000000000E+00 0. -1.
          1    1    1    2  503    0  0.68748778617E+01  0.29919245845E+02 -0.24703710650E+03  0.24893725556E+03  0.00000000000E+00 0. -1.
<mgrwt>
<rscale>  0 0.73662511E+02</rscale>
<asrwt>0</asrwt>
<pdfrwt beam="1">  1        2 0.83131568E-01 0.17675414E+03</pdfrwt>
<pdfrwt beam="2">  1        2 0.15859521E+00 0.30698945E+02</pdfrwt>
<totfact> 0.25274420E+02</totfact>
</mgrwt>
</event>
<event>
13    1  0.1589573E-008  0.1491572E+03  0.7546771E-02  0.1310413E+00
          2   -1    0    0  502    0  0.00000000000E+00  0.00000000000E+00  0.19268244655E+04  0.19268244655E+04  0.00000000000E+00 0. -1.
          2   -1    0    0  503    0 -0.00000000000E+00 -0.00000000000E+00 -0.42553952902E+04  0.42553952902E+04  0.00000000000E+00 0. -1.
         24    2    1    2    0    0 -0.66881767806E+02 -0.45263507833E+02 -0.95989557080E+01  0.11406845379E+03  0.79984474700E+02 0.  0.
         25    2    1    2    0    0 -0.11318298945E+03 -0.68214968858E+02  0.25429375560E+03  0.31265596760E+03  0.12499907544E+03 0.  0.
         24    2    1    2    0    0  0.20660926386E+02  0.61368057266E+02  0.72780308296E+02  0.12655914972E+03  0.80791910302E+02 0.  0.
        -11    1    5    5    0    0  0.39730557458E+02  0.16947179593E+02  0.64328539405E+02  0.77484740911E+02  0.00000000000E+00 0.  1.
         12    1    5    5    0    0 -0.19069631073E+02  0.44420877672E+02  0.84517688908E+01  0.49074408807E+02  0.00000000000E+00 0. -1.
        -11    1    3    3    0    0 -0.99418835900E+01 -0.39211241288E+02 -0.33005576239E+02  0.52208529529E+02  0.00000000000E+00 0.  1.
         12    1    3    3    0    0 -0.56939884216E+02 -0.60522665453E+01  0.23406620531E+02  0.61859924261E+02  0.00000000000E+00 0. -1.
          5    1    4    4  501    0  0.18709774583E+02  0.13877751079E+02  0.55050146534E+02  0.59960455913E+02  0.47000000000E+01 0. -1.
         -5    1    4    4    0  501 -0.13189276404E+03 -0.82092719937E+02  0.19924360907E+03  0.25269551168E+03  0.47000000000E+01 0. -1.
          1    1    1    2  502    0  0.37546619459E+02 -0.34048026317E+02  0.14896682005E+04  0.14905302293E+04  0.00000000000E+00 0. -1.
          1    1    1    2  503    0  0.12185721142E+03  0.86158445743E+02 -0.41357141334E+04  0.41384059553E+04  0.00000000000E+00 0. -1.
<mgrwt>
<rscale>  0 0.86948846E+02</rscale>
<asrwt>0</asrwt>
<pdfrwt beam="1">  1        2 0.28335654E+00 0.50685469E+02</pdfrwt>
<pdfrwt beam="2">  1        2 0.62579342E+00 0.14915719E+03</pdfrwt>
<totfact> 0.74702106E-01</totfact>
</mgrwt>
</event>
<event>
13    1  0.1589573E-008  0.1313837E+03  0.7546771E-02  0.1356912E+00
         -1   -1    0    0    0  501 -0.00000000000E+00  0.00000000000E+00  0.54680280255E+03  0.54680280255E+03  0.00000000000E+00 0.  1.
          2   -1    0    0  503    0  0.00000000000E+00 -0.00000000000E+00 -0.20397427013E+04  0.20397427013E+04  0.00000000000E+00 0. -1.
         24    2    1    2    0    0  0.33950865195E+02  0.18220822360E+02  0.85162955455E+02  0.12263032455E+03  0.79377628473E+02 0.  0.
         25    2    1    2    0    0 -0.23726095916E+02 -0.14425257596E+03 -0.31562813595E+03  0.36961842568E+03  0.12499970841E+03 0.  0.
         24    2    1    2    0    0  0.16006527484E+03 -0.55528713810E+02 -0.18838642073E+03  0.26510738952E+03  0.78026624933E+02 0.  0.
        -11    1    3    3    0    0  0.56150593970E+02  0.26246875037E+02  0.47123375031E+02  0.77861416162E+02  0.00000000000E+00 0.  1.
         12    1    3    3    0    0 -0.22199728775E+02 -0.80260526769E+01  0.38039580424E+02  0.44768908386E+02  0.00000000000E+00 0. -1.
        -13    1    5    5    0    0  0.32425440848E+02 -0.44571175214E+02 -0.35141711775E+02  0.65367719714E+02  0.00000000000E+00 0.  1.
         14    1    5    5    0    0  0.12763983399E+03 -0.10957538596E+02 -0.15324470896E+03  0.19973966981E+03  0.00000000000E+00 0. -1.
          5    1    4    4  502    0 -0.66201482181E+02 -0.95996465055E+02 -0.13842995206E+03  0.18106048485E+03  0.47000000000E+01 0.  1.
         -5    1    4    4    0  502  0.42475386265E+02 -0.48256110907E+02 -0.17719818389E+03  0.18855794083E+03  0.47000000000E+01 0.  1.
          1    1    1    2  503    0 -0.31594266477E+02  0.21663762775E+02 -0.14216933278E+04  0.14222093498E+04  0.00000000000E+00 0. -1.
         -2    1    1    2    0  501 -0.13869577764E+03  0.15989670464E+03  0.34760503034E+03  0.40698001426E+03  0.00000000000E+00 0.  1.
<mgrwt>
<rscale>  0 0.70944139E+02</rscale>
<asrwt>0</asrwt>
<pdfrwt beam="2">  1        2 0.29996217E+00 0.38308175E+02</pdfrwt>
<pdfrwt beam="1">  1       -1 0.80412175E-01 0.13138373E+03</pdfrwt>
<totfact> 0.18591469E+01</totfact>
</mgrwt>
</event>
<event>
13    1  0.1589573E-008  0.6231050E+02  0.7546771E-02  0.1476244E+00
         -1   -1    0    0    0  501 -0.00000000000E+00  0.00000000000E+00  0.11602919939E+04  0.11602919939E+04  0.00000000000E+00 0.  1.
          2   -1    0    0  503    0  0.00000000000E+00 -0.00000000000E+00 -0.44334560735E+03  0.44334560735E+03  0.00000000000E+00 0. -1.
         24    2    1    2    0    0  0.11954740713E+03  0.16642160440E+03  0.60062975351E+03  0.64059181648E+03  0.87258475677E+02 0.  0.
         25    2    1    2    0    0 -0.11520111774E+03 -0.10148251578E+02  0.17310609774E+02  0.17116983607E+03  0.12500068412E+03 0.  0.
         24    2    1    2    0    0 -0.31874216539E+02 -0.68102268383E+02  0.15833947983E+03  0.19486950447E+03  0.85140168321E+02 0.  0.
        -11    1    5    5    0    0 -0.38275319471E+02 -0.82010383762E+02  0.15454709381E+03  0.17909636325E+03  0.00000000000E+00 0.  1.
         12    1    5    5    0    0  0.64011029326E+01  0.13908115379E+02  0.37923860172E+01  0.15773141217E+02  0.00000000000E+00 0. -1.
        -13    1    3    3    0    0  0.10505448290E+03  0.16045510553E+03  0.45021455597E+03  0.48936227038E+03  0.00000000000E+00 0.  1.
         14    1    3    3    0    0  0.14492924230E+02  0.59664988703E+01  0.15041519754E+03  0.15122954610E+03  0.00000000000E+00 0. -1.
          5    1    4    4  502    0 -0.44133926549E+02 -0.25100636802E+01 -0.54101814025E+02  0.70022854648E+02  0.47000000000E+01 0. -1.
         -5    1    4    4    0  502 -0.71067191192E+02 -0.76381878982E+01  0.71412423799E+02  0.10114698142E+03  0.47000000000E+01 0. -1.
          1    1    1    2  503    0  0.15816888304E+02 -0.27888983224E+02 -0.32386114958E+03  0.32544433249E+03  0.00000000000E+00 0. -1.
         -2    1    1    2    0  501  0.11711038847E+02 -0.60282101217E+02  0.26452769305E+03  0.27156211177E+03  0.00000000000E+00 0.  1.
<mgrwt>
<rscale>  0 0.44696721E+02</rscale>
<asrwt>0</asrwt>
<pdfrwt beam="2">  1        2 0.65197884E-01 0.32061961E+02</pdfrwt>
<pdfrwt beam="1">  1       -1 0.17063118E+00 0.62310502E+02</pdfrwt>
<totfact> 0.25969536E+01</totfact>
</mgrwt>
</event>
<event>
13    1  0.1589573E-008  0.9291507E+02  0.7546771E-02  0.1417218E+00
          2   -1    0    0  503    0  0.00000000000E+00  0.00000000000E+00  0.10282140689E+04  0.10282140689E+04  0.00000000000E+00 0. -1.
          2   -1    0    0  502    0 -0.00000000000E+00 -0.00000000000E+00 -0.11562424282E+04  0.11562424282E+04  0.00000000000E+00 0. -1.
         24    2    1    2    0    0 -0.35824503250E+02 -0.59463453948E+02 -0.19737174626E+03  0.22472691226E+03  0.82020006605E+02 0.  0.
         25    2    1    2    0    0 -0.11681958758E+03  0.45749829464E+02  0.36659944130E+03  0.40713579484E+03  0.12499816856E+03 0.  0.
         24    2    1    2    0    0  0.14125843886E+02 -0.69592783141E+02  0.78578052159E+02  0.13367783308E+03  0.81563213803E+02 0.  0.
        -13    1    5    5    0    0 -0.29467316920E+02 -0.54282774916E+02  0.41162354538E+02  0.74224536712E+02  0.00000000000E+00 0.  1.
         14    1    5    5    0    0  0.43593160806E+02 -0.15310008225E+02  0.37415697621E+02  0.59453296371E+02  0.00000000000E+00 0. -1.
        -13    1    3    3    0    0 -0.38669050834E+02  0.68455517155E+01 -0.54319598707E+02  0.67028172244E+02  0.00000000000E+00 0.  1.
         14    1    3    3    0    0  0.28445475835E+01 -0.66309005663E+02 -0.14305214755E+03  0.15769874002E+03  0.00000000000E+00 0. -1.
          5    1    4    4  501    0 -0.18691872234E+02  0.27300603162E+02  0.73203681791E+01  0.34210916546E+02  0.47000000000E+01 0.  1.
         -5    1    4    4    0  501 -0.98127715343E+02  0.18449226302E+02  0.35927907312E+03  0.37292487829E+03  0.47000000000E+01 0.  1.
          1    1    1    2  502    0  0.11230324659E+03  0.62792190531E+02 -0.89222435830E+03  0.90145392779E+03  0.00000000000E+00 0. -1.
          1    1    1    2  503    0  0.26215000353E+02  0.20514217094E+02  0.51639025188E+03  0.51746202913E+03  0.00000000000E+00 0. -1.
<mgrwt>
<rscale>  0 0.55613961E+02</rscale>
<asrwt>0</asrwt>
<pdfrwt beam="1">  1        2 0.15120795E+00 0.33287525E+02</pdfrwt>
<pdfrwt beam="2">  1        2 0.17003565E+00 0.92915067E+02</pdfrwt>
<totfact> 0.11259395E+02</totfact>
</mgrwt>
</event>
<event>
13    1  0.1589573E-008  0.5172184E+02  0.7546771E-02  0.1474368E+00
          2   -1    0    0  503    0  0.00000000000E+00  0.00000000000E+00  0.29043521391E+03  0.29043521391E+03  0.00000000000E+00 0. -1.
          2   -1    0    0  502    0 -0.00000000000E+00 -0.00000000000E+00 -0.25863716598E+04  0.25863716598E+04  0.00000000000E+00 0. -1.
         24    2    1    2    0    0 -0.27903728822E+02  0.52155149743E+02 -0.16712020207E+04  0.16744423076E+04  0.85685878407E+02 0.  0.
         25    2    1    2    0    0  0.72866161198E+02  0.89406127770E+01  0.17568574373E+03  0.22778274550E+03  0.12502034470E+03 0.  0.
         24    2    1    2    0    0 -0.69332793951E+02 -0.91952443942E+02 -0.23390225478E+03  0.27302036244E+03  0.81040516124E+02 0.  0.
        -13    1    3    3    0    0 -0.25731592599E+02 -0.19288294541E+02 -0.59623926956E+03  0.59710586979E+03  0.00000000000E+00 0.  1.
         14    1    3    3    0    0 -0.21721362221E+01  0.71443444285E+02 -0.10749627512E+04  0.10773364379E+04  0.00000000000E+00 0. -1.
        -13    1    5    5    0    0  0.15686897016E+02 -0.14155325427E+00 -0.26328191359E+02  0.30647551868E+02  0.00000000000E+00 0.  1.
         14    1    5    5    0    0 -0.85019690966E+02 -0.91810890687E+02 -0.20757406342E+03  0.24237281057E+03  0.00000000000E+00 0. -1.
          5    1    4    4  501    0 -0.27057683664E+02  0.32156850347E+02  0.51165483478E+02  0.66379047667E+02  0.47000000000E+01 0.  1.
         -5    1    4    4    0  501  0.99923844862E+02 -0.23216237570E+02  0.12452026025E+03  0.16140369783E+03  0.47000000000E+01 0.  1.
          1    1    1    2  502    0 -0.91777352119E+01  0.51025999726E+02 -0.62720555891E+03  0.62934465645E+03  0.00000000000E+00 0. -1.
          1    1    1    2  503    0  0.33548096786E+02 -0.20169318305E+02  0.60687644856E+02  0.72216801626E+02  0.00000000000E+00 0. -1.
<mgrwt>
<rscale>  0 0.44995726E+02</rscale>
<asrwt>0</asrwt>
<pdfrwt beam="1">  1        2 0.42711059E-01 0.39144300E+02</pdfrwt>
<pdfrwt beam="2">  1        2 0.38034879E+00 0.51721844E+02</pdfrwt>
<totfact> 0.93788168E+01</totfact>
</mgrwt>
</event>
<event>
13    1  0.1589573E-008  0.2730120E+03  0.7546771E-02  0.1236723E+00
         -1   -1    0    0    0  501 -0.00000000000E+00  0.00000000000E+00  0.74391476339E+03  0.74391476339E+03  0.00000000000E+00 0.  1.
          2   -1    0    0  503    0  0.00000000000E+00 -0.00000000000E+00 -0.20579096403E+04  0.20579096403E+04  0.00000000000E+00 0. -1.
         24    2    1    2    0    0 -0.12546612285E+01 -0.17480042311E+03 -0.13034836130E+03  0.23977101288E+03  0.99712994288E+02 0.  0.
         25    2    1    2    0    0 -0.21099431317E+03 -0.39120643429E+02 -0.14597858776E+04  0.14807591251E+04  0.12499501299E+03 0.  0.
         24    2    1    2    0    0  0.25502638811E+01 -0.17196382822E+02 -0.76783847740E+02  0.12255474941E+03  0.93923840969E+02 0.  0.
        -11    1    3    3    0    0  0.14726449970E+02 -0.30652696434E+02  0.12473714844E+02  0.36222226456E+02  0.00000000000E+00 0.  1.
         12    1    3    3    0    0 -0.15981111198E+02 -0.14414772668E+03 -0.14282207614E+03  0.20354878642E+03  0.00000000000E+00 0. -1.
        -13    1    5    5    0    0  0.45967543177E+02 -0.23259240043E+02 -0.45045479847E+02  0.68433197556E+02  0.00000000000E+00 0.  1.
         14    1    5    5    0    0 -0.43417279296E+02  0.60628572208E+01 -0.31738367893E+02  0.54121551859E+02  0.00000000000E+00 0. -1.
          5    1    4    4  502    0 -0.22048827792E+03 -0.39969751400E+02 -0.11997378122E+04  0.12204939860E+04  0.47000000000E+01 0. -1.
         -5    1    4    4    0  502  0.94939647463E+01  0.84910797171E+00 -0.26004806536E+03  0.26026513914E+03  0.47000000000E+01 0. -1.
          1    1    1    2  503    0  0.56220386396E+02  0.24188649454E+01 -0.27097249639E+03  0.27675381940E+03  0.00000000000E+00 0. -1.
         -2    1    1    2    0  501  0.15347832412E+03  0.22869858442E+03  0.62389570617E+03  0.68198569682E+03  0.00000000000E+00 0.  1.
<mgrwt>
<rscale>  0 0.12394774E+03</rscale>
<asrwt>0</asrwt>
<pdfrwt beam="2">  1        2 0.30263377E+00 0.56272398E+02</pdfrwt>
<pdfrwt beam="1">  1       -1 0.10939923E+00 0.27301204E+03</pdfrwt>
<totfact> 0.86884755E+00</totfact>
</mgrwt>
</event>
<event>
13    1  0.1589573E-008  0.4938084E+02  0.7546771E-02  0.1536899E+00
          2   -1    0    0  503    0  0.00000000000E+00  0.00000000000E+00  0.13450761534E+03  0.13450761534E+03  0.00000000000E+00 0. -1.
          2   -1    0    0  502    0 -0.00000000000E+00 -0.00000000000E+00 -0.23259018900E+04  0.23259018900E+04  0.00000000000E+00 0. -1.
         24    2    1    2    0    0  0.36515307751E+01 -0.86752078661E+02 -0.18675034674E+04  0.18713477949E+04  0.82668687415E+02 0.  0.
         25    2    1    2    0    0  0.81622626732E+01  0.43181522663E+02 -0.40940002249E+02  0.13868414146E+03  0.12500376345E+03 0.  0.
         24    2    1    2    0    0 -0.39965322460E+02  0.10123804656E+02 -0.22139369356E+03  0.23947404739E+03  0.81442822901E+02 0.  0.
        -13    1    3    3    0    0 -0.25863325179E+02 -0.26561754232E+01 -0.68366818425E+03  0.68416237328E+03  0.00000000000E+00 0.  1.
         14    1    3    3    0    0  0.29514855954E+02 -0.84095903238E+02 -0.11838352831E+04  0.11871854216E+04  0.00000000000E+00 0. -1.
        -13    1    5    5    0    0 -0.44511221710E+02  0.26042755520E+02 -0.68785261604E+02  0.85970263389E+02  0.00000000000E+00 0.  1.
         14    1    5    5    0    0  0.45458992499E+01 -0.15918950863E+02 -0.15260843196E+03  0.15350378400E+03  0.00000000000E+00 0. -1.
          5    1    4    4  501    0  0.54294896858E+01  0.64599100903E+02 -0.74269960941E+02  0.98694682197E+02  0.47000000000E+01 0.  1.
         -5    1    4    4    0  501  0.27327729874E+01 -0.21417578240E+02  0.33329958692E+02  0.39989459265E+02  0.47000000000E+01 0.  1.
          1    1    1    2  502    0  0.69953014711E+01  0.49837945930E+02 -0.12893296543E+03  0.13840688087E+03  0.00000000000E+00 0. -1.
          1    1    1    2  503    0  0.21156227541E+02 -0.16391194589E+02  0.67375853959E+02  0.72496640753E+02  0.00000000000E+00 0. -1.
<mgrwt>
<rscale>  0 0.36353522E+02</rscale>
<asrwt>0</asrwt>
<pdfrwt beam="1">  1        2 0.19780534E-01 0.26762982E+02</pdfrwt>
<pdfrwt beam="2">  1        2 0.34204436E+00 0.49380840E+02</pdfrwt>
<totfact> 0.27510313E+02</totfact>
</mgrwt>
</event>
<event>
13    1  0.1589573E-008  0.1257249E+03  0.7546771E-02  0.1345420E+00
          4   -1    0    0  503    0 -0.00000000000E+00  0.00000000000E+00  0.16180950583E+04  0.16180950583E+04  0.00000000000E+00 0. -1.
          2   -1    0    0  502    0  0.00000000000E+00 -0.00000000000E+00 -0.29118758561E+04  0.29118758561E+04  0.00000000000E+00 0. -1.
         24    2    1    2    0    0 -0.10523763525E+03 -0.82679898061E+02  0.29100868715E+02  0.15834693638E+03  0.79473053826E+02 0.  0.
         25    2    1    2    0    0  0.78059518182E+02 -0.97617981115E+02 -0.14772310528E+04  0.14877703001E+04  0.12500529602E+03 0.  0.
         24    2    1    2    0    0  0.72169304556E+02 -0.25905412236E+02  0.40129265706E+02  0.11867692764E+03  0.81205641948E+02 0.  0.
        -13    1    3    3    0    0 -0.51936538605E+02 -0.18305364226E+01  0.32772287765E+02  0.61439219976E+02  0.00000000000E+00 0.  1.
         14    1    3    3    0    0 -0.53301096649E+02 -0.80849361639E+02 -0.36714190493E+01  0.96907716407E+02  0.00000000000E+00 0. -1.
        -13    1    5    5    0    0  0.43555632793E+02 -0.40245532386E+02 -0.90609694584E+01  0.59990809234E+02  0.00000000000E+00 0.  1.
         14    1    5    5    0    0  0.28613671764E+02  0.14340120151E+02  0.49190235164E+02  0.58686118403E+02  0.00000000000E+00 0. -1.
          5    1    4    4  501    0  0.94676776231E+02 -0.56091011325E+02 -0.13091768936E+04  0.13138021625E+04  0.47000000000E+01 0. -1.
         -5    1    4    4    0  501 -0.16617258049E+02 -0.41526969790E+02 -0.16805415918E+03  0.17396813761E+03  0.47000000000E+01 0. -1.
          1    1    1    2  502    0  0.14278513029E+02  0.41775859718E+02 -0.13198030502E+04  0.13205412488E+04  0.00000000000E+00 0. -1.
          3    1    1    2  503    0 -0.59269700513E+02  0.16442743169E+03  0.14340231708E+04  0.14446355015E+04  0.00000000000E+00 0. -1.
<mgrwt>
<rscale>  0 0.74502187E+02</rscale>
<asrwt>0</asrwt>
<pdfrwt beam="2">  1        2 0.42821703E+00 0.44148594E+02</pdfrwt>
<pdfrwt beam="1">  1        4 0.23795516E+00 0.12572486E+03</pdfrwt>
<totfact> 0.16755910E-01</totfact>
</mgrwt>
</event>
<event>
13    1  0.1589573E-008  0.1330886E+03  0.7546771E-02  0.1299651E+00
          2   -1    0    0  503    0  0.00000000000E+00  0.00000000000E+00  0.72267597451E+03  0.72267597451E+03  0.00000000000E+00 0. -1.
          2   -1    0    0  502    0 -0.00000000000E+00 -0.00000000000E+00 -0.22358292317E+04  0.22358292317E+04  0.00000000000E+00 0. -1.
         24    2    1    2    0    0 -0.28834305150E+02  0.99810609440E+02 -0.46578411574E+03  0.48407128747E+03  0.81096201933E+02 0.  0.
         25    2    1    2    0    0 -0.86271985857E+02 -0.73625520702E+02  0.18947646961E+03  0.25375031464E+03  0.12499726718E+03 0.  0.
         24    2    1    2    0    0 -0.56962442306E+01 -0.34604303863E+02 -0.16425414667E+03  0.18661446809E+03  0.81336522901E+02 0.  0.
        -11    1    5    5    0    0  0.29076387990E+02 -0.35195301497E+02 -0.52494835805E+02  0.69569054702E+02  0.00000000000E+00 0.  1.
         12    1    5    5    0    0 -0.34772632221E+02  0.59099763372E+00 -0.11175931086E+03  0.11704541338E+03  0.00000000000E+00 0. -1.
        -11    1    3    3    0    0 -0.37557726789E+02  0.69939959491E+01 -0.11953538721E+03  0.12549186275E+03  0.00000000000E+00 0.  1.
         12    1    3    3    0    0  0.87234216393E+01  0.92816613491E+02 -0.34624872853E+03  0.35857942473E+03  0.00000000000E+00 0. -1.
          5    1    4    4  501    0 -0.19056674024E+02 -0.12676119188E+01  0.14327072152E+03  0.14461449896E+03  0.47000000000E+01 0.  1.
         -5    1    4    4    0  501 -0.67215311833E+02 -0.72357908783E+02  0.46205748098E+02  0.10913581569E+03  0.47000000000E+01 0.  1.
          1    1    1    2  502    0 -0.10714389532E+01  0.62671539452E+02 -0.15434271058E+04  0.15446993561E+04  0.00000000000E+00 0. -1.
          1    1    1    2  503    0  0.12187397419E+03 -0.54252324327E+02  0.47083564139E+03  0.48936977991E+03  0.00000000000E+00 0. -1.
<mgrwt>
<rscale>  0 0.91335032E+02</rscale>
<asrwt>0</asrwt>
<pdfrwt beam="1">  1        2 0.10627588E+00 0.13308863E+03</pdfrwt>
<pdfrwt beam="2">  1        2 0.32879841E+00 0.62680697E+02</pdfrwt>
<totfact> 0.50517726E+01</totfact>
</mgrwt>
</event>
<event>
13    1  0.1589573E-008  0.1563701E+03  0.7546771E-02  0.1299209E+00
          2   -1    0    0  503    0  0.00000000000E+00  0.00000000000E+00  0.35657971270E+04  0.35657971270E+04  0.00000000000E+00 0. -1.
          2   -1    0    0  502    0 -0.00000000000E+00 -0.00000000000E+00 -0.68194807134E+03  0.68194807134E+03  0.00000000000E+00 0. -1.
         24    2    1    2    0    0 -0.18621780909E+03 -0.11450396763E+03 -0.11317502362E+03  0.25893825731E+03  0.80325612958E+02 0.  0.
         25    2    1    2    0    0  0.45509688645E+03  0.18314749503E+03  0.17708158660E+04  0.18417572428E+04  0.12499891624E+03 0.  0.
         24    2    1    2    0    0 -0.11234334027E+02 -0.74775134876E+02 -0.21618304399E+03  0.24316794887E+03  0.81719102982E+02 0.  0.
        -11    1    3    3    0    0 -0.12938466234E+03 -0.39344279615E+02 -0.44602493048E+02  0.14239994935E+03  0.00000000000E+00 0.  1.
         12    1    3    3    0    0 -0.56833146752E+02 -0.75159688017E+02 -0.68572530574E+02  0.11653830796E+03  0.00000000000E+00 0. -1.
        -13    1    5    5    0    0  0.16505700847E+02  0.11685320027E+02 -0.46776898361E+02  0.50961388177E+02  0.00000000000E+00 0.  1.
         14    1    5    5    0    0 -0.27740034874E+02 -0.86460454903E+02 -0.16940614563E+03  0.19220656069E+03  0.00000000000E+00 0. -1.
          5    1    4    4  501    0  0.15026244085E+03  0.37574204327E+02  0.37750078607E+03  0.40806807697E+03  0.47000000000E+01 0. -1.
         -5    1    4    4    0  501  0.30483444560E+03  0.14557329071E+03  0.13933150799E+04  0.14336891658E+04  0.47000000000E+01 0. -1.
          1    1    1    2  502    0 -0.20694657958E+03 -0.11161241589E+02 -0.18367951873E+03  0.27692891816E+03  0.00000000000E+00 0. -1.
          1    1    1    2  503    0 -0.50698163747E+02  0.17292849062E+02  0.16260707760E+04  0.16269528313E+04  0.00000000000E+00 0. -1.
<mgrwt>
<rscale>  0 0.91521384E+02</rscale>
<asrwt>0</asrwt>
<pdfrwt beam="1">  1        2 0.52438192E+00 0.53566281E+02</pdfrwt>
<pdfrwt beam="2">  1        2 0.10028648E+00 0.15637008E+03</pdfrwt>
<totfact> 0.11313814E+01</totfact>
</mgrwt>
</event>
<event>
13    1  0.1589573E-008  0.3700699E+02  0.7546771E-02  0.1542936E+00
          2   -1    0    0  502    0  0.00000000000E+00  0.00000000000E+00  0.30312805621E+04  0.30312805621E+04  0.00000000000E+00 0. -1.
          2   -1    0    0  503    0 -0.00000000000E+00 -0.00000000000E+00 -0.31564736977E+04  0.31564736977E+04  0.00000000000E+00 0. -1.
         24    2    1    2    0    0  0.33310590666E+03  0.15642576564E+03 -0.52349704459E+03  0.64341347159E+03  0.67105696649E+02 0.  0.
         25    2    1    2    0    0 -0.66629544462E+03 -0.29307238347E+03  0.16754198292E+04  0.18309840278E+04  0.12501945603E+03 0.  0.
         24    2    1    2    0    0  0.29994486542E+03  0.11870991254E+03  0.60436411767E+03  0.68964223733E+03  0.79318744054E+02 0.  0.
        -11    1    3    3    0    0  0.19419955048E+03  0.11042667323E+03 -0.36292171052E+03  0.42616860928E+03  0.00000000000E+00 0.  1.
         12    1    3    3    0    0  0.13890635618E+03  0.45999092408E+02 -0.16057533407E+03  0.21724486231E+03  0.00000000000E+00 0. -1.
        -11    1    5    5    0    0  0.12825179417E+03  0.73776370945E+02  0.20695490153E+03  0.25440480909E+03  0.00000000000E+00 0.  1.
         12    1    5    5    0    0  0.17169307125E+03  0.44933541595E+02  0.39740921614E+03  0.43523742825E+03  0.00000000000E+00 0. -1.
          5    1    4    4  501    0 -0.40957069154E+03 -0.24202545952E+03  0.11258392366E+04  0.12222358820E+04  0.47000000000E+01 0.  1.
         -5    1    4    4    0  501 -0.25672475308E+03 -0.51046923954E+02  0.54958059254E+03  0.60874814578E+03  0.47000000000E+01 0.  1.
          1    1    1    2  502    0  0.68352718174E-01  0.34335269855E+02  0.57046142521E+03  0.57149379094E+03  0.00000000000E+00 0. -1.
          1    1    1    2  503    0  0.33176319826E+02 -0.16398564565E+02 -0.24519414631E+04  0.24522207322E+04  0.00000000000E+00 0. -1.
<mgrwt>
<rscale>  0 0.35646144E+02</rscale>
<asrwt>0</asrwt>
<pdfrwt beam="1">  1        2 0.44577656E+00 0.34335338E+02</pdfrwt>
<pdfrwt beam="2">  1        2 0.46418731E+00 0.37006992E+02</pdfrwt>
<totfact> 0.14689735E+00</totfact>
</mgrwt>
</event>
<event>
13    1  0.1589573E-008  0.1185186E+03  0.7546771E-02  0.1283572E+00
          2   -1    0    0  503    0  0.00000000000E+00  0.00000000000E+00  0.62127251584E+03  0.62127251584E+03  0.00000000000E+00 0. -1.
         -1   -1    0    0    0  501 -0.00000000000E+00 -0.00000000000E+00 -0.82703858798E+03  0.82703858798E+03  0.00000000000E+00 0.  1.
         24    2    1    2    0    0  0.39458590451E+02  0.19036742449E+02 -0.38117681409E+03  0.39346996305E+03  0.87197880141E+02 0.  0.
         25    2    1    2    0    0 -0.12354189144E+03 -0.14940438681E+03  0.23381580971E+03  0.32844902865E+03  0.12499864723E+03 0.  0.
         24    2    1    2    0    0 -0.42128633213E+02 -0.20316474781E-01 -0.92334482027E+02  0.12942359473E+03  0.80311818264E+02 0.  0.
        -13    1    3    3    0    0  0.59557464245E+02  0.26094631701E+02 -0.18410678189E+03  0.19525196155E+03  0.00000000000E+00 0.  1.
         14    1    3    3    0    0 -0.20098873794E+02 -0.70578892519E+01 -0.19707003220E+03  0.19821800150E+03  0.00000000000E+00 0. -1.
        -13    1    5    5    0    0  0.88725891397E+01  0.22750700024E+02 -0.37572317983E+01  0.24706962185E+02  0.00000000000E+00 0.  1.
         14    1    5    5    0    0 -0.51001222352E+02 -0.22771016499E+02 -0.88577250228E+02  0.10471663255E+03  0.00000000000E+00 0. -1.
          5    1    4    4  502    0 -0.47498026760E+02 -0.12555829570E+03  0.20183792614E+03  0.24244914228E+03  0.47000000000E+01 0. -1.
         -5    1    4    4    0  502 -0.76043864682E+02 -0.23846091108E+02  0.31977883569E+02  0.85999886364E+02  0.47000000000E+01 0. -1.
          1    1    1    2  503    0  0.47678374631E+02  0.10752659039E+03  0.29807802082E+03  0.32044609772E+03  0.00000000000E+00 0. -1.
         -2    1    1    2    0  501  0.78533559574E+02  0.22861370442E+02 -0.26414860656E+03  0.27652241968E+03  0.00000000000E+00 0.  1.
<mgrwt>
<rscale>  0 0.98458335E+02</rscale>
<asrwt>0</asrwt>
<pdfrwt beam="1">  1        2 0.91363606E-01 0.11851864E+03</pdfrwt>
<pdfrwt beam="2">  1       -1 0.12162332E+00 0.81793412E+02</pdfrwt>
<totfact> 0.40957782E+01</totfact>
</mgrwt>
</event>
<event>
13    1  0.1589573E-008  0.2361698E+03  0.7546771E-02  0.1309212E+00
          2   -1    0    0  502    0  0.00000000000E+00  0.00000000000E+00  0.13880836833E+04  0.13880836833E+04  0.00000000000E+00 0. -1.
          2   -1    0    0  503    0 -0.00000000000E+00 -0.00000000000E+00 -0.12430991749E+04  0.12430991749E+04  0.00000000000E+00 0. -1.
         24    2    1    2    0    0 -0.10014524391E+03  0.10723448521E+03  0.45534801029E+02  0.17302443898E+03  0.79597322084E+02 0.  0.
         25    2    1    2    0    0  0.18644226971E+03  0.11836122845E+03 -0.62253929832E+03  0.67227006754E+03  0.12498706100E+03 0.  0.
         24    2    1    2    0    0  0.48442248970E+02 -0.26821388909E+02  0.19896129660E+02  0.10489276063E+03  0.86836610185E+02 0.  0.
        -11    1    3    3    0    0 -0.70450677750E+02  0.81263834356E+02 -0.64760179349E+01  0.10774529028E+03  0.00000000000E+00 0.  1.
         12    1    3    3    0    0 -0.29694566156E+02  0.25970650856E+02  0.52010818964E+02  0.65279148695E+02  0.00000000000E+00 0. -1.
        -13    1    5    5    0    0  0.88990972886E+01  0.31336491259E+02  0.82879091563E+01  0.33613376134E+02  0.00000000000E+00 0.  1.
         14    1    5    5    0    0  0.39543151681E+02 -0.58157880168E+02  0.11608220504E+02  0.71279384493E+02  0.00000000000E+00 0. -1.
          5    1    4    4  501    0  0.16722598604E+03  0.14288684456E+03 -0.57027503991E+03  0.61124208944E+03  0.47000000000E+01 0. -1.
         -5    1    4    4    0  501  0.19216283667E+02 -0.24525616109E+02 -0.52264258413E+02  0.61027978100E+02  0.47000000000E+01 0. -1.
          1    1    1    2  502    0 -0.10534953472E+03 -0.21232247230E+03  0.11792035715E+04  0.12027886014E+04  0.00000000000E+00 0. -1.
          1    1    1    2  503    0 -0.29389740057E+02  0.13548147543E+02 -0.47711069550E+03  0.47820698958E+03  0.00000000000E+00 0. -1.
<mgrwt>
<rscale>  0 0.87424041E+02</rscale>
<asrwt>0</asrwt>
<pdfrwt beam="1">  1        2 0.20412995E+00 0.23616977E+03</pdfrwt>
<pdfrwt beam="2">  1        2 0.18280870E+00 0.32362156E+02</pdfrwt>
<totfact> 0.62306395E+01</totfact>
</mgrwt>
</event>
<event>
13    1  0.1589573E-008  0.1158256E+03  0.7546771E-02  0.1326032E+00
          2   -1    0    0  502    0  0.00000000000E+00  0.00000000000E+00  0.17945732961E+04  0.17945732961E+04  0.00000000000E+00 0. -1.
          2   -1    0    0  503    0 -0.00000000000E+00 -0.00000000000E+00 -0.21928275629E+04  0.21928275629E+04  0.00000000000E+00 0. -1.
         24    2    1    2    0    0 -0.24363461510E+02  0.49980128379E+02 -0.21889429048E+03  0.23954079540E+03  0.79834145376E+02 0.  0.
         25    2    1    2    0    0  0.13515749499E+03 -0.25437319440E+02  0.65973252556E+03  0.68540960744E+03  0.12499887606E+03 0.  0.
         24    2    1    2    0    0  0.54002114956E+02 -0.86699874893E+01 -0.40705570290E+02  0.10514194393E+03  0.80040538595E+02 0.  0.
        -11    1    3    3    0    0 -0.47925907886E+01  0.49493957564E+02 -0.53685677709E+02  0.73176312786E+02  0.00000000000E+00 0.  1.
         12    1    3    3    0    0 -0.19570870721E+02  0.48617081427E+00 -0.16520861277E+03  0.16636448261E+03  0.00000000000E+00 0. -1.
        -13    1    5    5    0    0  0.47331954012E+02 -0.41667100154E+02 -0.23144957130E+02  0.67172540121E+02  0.00000000000E+00 0.  1.
         14    1    5    5    0    0  0.66701609439E+01  0.32997112665E+02 -0.17560613160E+02  0.37969403811E+02  0.00000000000E+00 0. -1.
          5    1    4    4  501    0  0.62357545905E+01 -0.41339918849E+02  0.71259561149E+02  0.82751970254E+02  0.47000000000E+01 0. -1.
         -5    1    4    4    0  501  0.12892174040E+03  0.15902599409E+02  0.58847296441E+03  0.60265763719E+03  0.47000000000E+01 0. -1.
          1    1    1    2  502    0 -0.50457527637E+02  0.25970080119E+02  0.10767392454E+04  0.10782336526E+04  0.00000000000E+00 0. -1.
          1    1    1    2  503    0 -0.11433862080E+03 -0.41842901569E+02 -0.18751261770E+04  0.18790748597E+04  0.00000000000E+00 0. -1.
<mgrwt>
<rscale>  0 0.81073711E+02</rscale>
<asrwt>0</asrwt>
<pdfrwt beam="1">  1        2 0.26390784E+00 0.56748631E+02</pdfrwt>
<pdfrwt beam="2">  1        2 0.32247464E+00 0.11582564E+03</pdfrwt>
<totfact> 0.13762300E+01</totfact>
</mgrwt>
</event>
<event>
13    1  0.1589573E-008  0.1453796E+03  0.7546771E-02  0.1341658E+00
          2   -1    0    0  502    0  0.00000000000E+00  0.00000000000E+00  0.29106627717E+04  0.29106627717E+04  0.00000000000E+00 0. -1.
          2   -1    0    0  503    0 -0.00000000000E+00 -0.00000000000E+00 -0.11298182476E+04  0.11298182476E+04  0.00000000000E+00 0. -1.
         24    2    1    2    0    0  0.26522423020E+03 -0.33062948976E+02 -0.48647398596E+03  0.56014303452E+03  0.75274359718E+02 0.  0.
         25    2    1    2    0    0 -0.42827724597E+03  0.35441069153E+03  0.70409474001E+03  0.90576126185E+03  0.12500289149E+03 0.  0.
         24    2    1    2    0    0  0.33181168059E+02 -0.20373762873E+03 -0.16382593221E+03  0.27594857259E+03  0.81845387007E+02 0.  0.
        -13    1    5    5    0    0  0.11510039643E+02 -0.32652308966E+02 -0.73561241234E+02  0.81301356109E+02  0.00000000000E+00 0.  1.
         14    1    5    5    0    0  0.21671128416E+02 -0.17108531977E+03 -0.90264690976E+02  0.19464721648E+03  0.00000000000E+00 0. -1.
        -13    1    3    3    0    0  0.14185739672E+02 -0.15461344340E+02 -0.74400449771E+02  0.77302750953E+02  0.00000000000E+00 0.  1.
         14    1    3    3    0    0  0.25103849052E+03 -0.17601604637E+02 -0.41207353619E+03  0.48284028357E+03  0.00000000000E+00 0. -1.
          5    1    4    4  501    0 -0.14790579590E+03  0.13882965949E+03  0.16766411105E+03  0.26321691236E+03  0.47000000000E+01 0.  1.
         -5    1    4    4    0  501 -0.28037145008E+03  0.21558103203E+03  0.53643062895E+03  0.64254434950E+03  0.47000000000E+01 0.  1.
          1    1    1    2  502    0  0.85819908655E+01 -0.38492359987E+02  0.19942867712E+04  0.19946766750E+04  0.00000000000E+00 0. -1.
          1    1    1    2  503    0  0.12128985685E+03 -0.79117753833E+02 -0.26723706893E+03  0.30395147533E+03  0.00000000000E+00 0. -1.
<mgrwt>
<rscale>  0 0.75719219E+02</rscale>
<asrwt>0</asrwt>
<pdfrwt beam="1">  1        2 0.42803864E+00 0.39437449E+02</pdfrwt>
<pdfrwt beam="2">  1        2 0.16614974E+00 0.14537959E+03</pdfrwt>
<totfact> 0.14191607E+01</totfact>
</mgrwt>
</event>
<event>
13    1  0.1589573E-008  0.2339878E+03  0.7546771E-02  0.1260604E+00
          2   -1    0    0  502    0  0.00000000000E+00  0.00000000000E+00  0.25000016115E+04  0.25000016115E+04  0.00000000000E+00 0. -1.
          2   -1    0    0  503    0 -0.00000000000E+00 -0.00000000000E+00 -0.15122335449E+04  0.15122335449E+04  0.00000000000E+00 0. -1.
         24    2    1    2    0    0  0.61253748598E+02  0.14550418073E+03 -0.34588834233E+03  0.38856670688E+03  0.80136458705E+02 0.  0.
         25    2    1    2    0    0  0.49952574754E+02 -0.31412865993E+03  0.39247935417E+03  0.52041429664E+03  0.12497568559E+03 0.  0.
         24    2    1    2    0    0 -0.39097999228E+02  0.40218967411E+01 -0.45787064149E+02  0.98721549442E+02  0.78132322913E+02 0.  0.
        -11    1    5    5    0    0  0.23636077426E+02  0.40131864436E+01 -0.70416785838E+01  0.24987097846E+02  0.00000000000E+00 0.  1.
         12    1    5    5    0    0 -0.62734076654E+02  0.87102974440E-02 -0.38745385565E+02  0.73734451595E+02  0.00000000000E+00 0. -1.
        -13    1    3    3    0    0 -0.40379489696E+01  0.90814101544E+02 -0.15819592848E+03  0.18245398833E+03  0.00000000000E+00 0.  1.
         14    1    3    3    0    0  0.65291697568E+02  0.54690079188E+02 -0.18769241385E+03  0.20611271855E+03  0.00000000000E+00 0. -1.
          5    1    4    4  501    0 -0.12063437938E+02 -0.38209147001E+02  0.12415689796E+03  0.13054689105E+03  0.47000000000E+01 0. -1.
         -5    1    4    4    0  501  0.62016012692E+02 -0.27591951293E+03  0.26832245620E+03  0.38986740560E+03  0.47000000000E+01 0. -1.
          1    1    1    2  502    0  0.50989067848E+02 -0.85123685520E+01  0.19842257754E+04  0.19848990587E+04  0.00000000000E+00 0. -1.
          1    1    1    2  503    0 -0.12309739197E+03  0.17311495101E+03 -0.99726165641E+03  0.10196335447E+04  0.00000000000E+00 0. -1.
<mgrwt>
<rscale>  0 0.10998152E+03</rscale>
<asrwt>0</asrwt>
<pdfrwt beam="1">  1        2 0.36764729E+00 0.51694733E+02</pdfrwt>
<pdfrwt beam="2">  1        2 0.22238729E+00 0.23398777E+03</pdfrwt>
<totfact> 0.13186538E+01</totfact>
</mgrwt>
</event>
<event>
13    1  0.1589573E-008  0.1263640E+03  0.7546771E-02  0.1249046E+00
          2   -1    0    0  502    0  0.00000000000E+00  0.00000000000E+00  0.79205780403E+03  0.79205780403E+03  0.00000000000E+00 0. -1.
          2   -1    0    0  503    0 -0.00000000000E+00 -0.00000000000E+00 -0.14672584556E+04  0.14672584556E+04  0.00000000000E+00 0. -1.
         24    2    1    2    0    0  0.74488911861E+02 -0.31450441268E+02 -0.74091479349E+03  0.74947834635E+03  0.78900774403E+02 0.  0.
         25    2    1    2    0    0 -0.18210238889E+02 -0.10572011514E+03  0.16027510204E+03  0.22983006635E+03  0.12500158206E+03 0.  0.
         24    2    1    2    0    0  0.44419689939E+02  0.81354614629E+02 -0.26812744804E+03  0.29453772235E+03  0.79173602432E+02 0.  0.
        -11    1    5    5    0    0 -0.22950431162E+02  0.18374906365E+02 -0.56601789297E+02  0.63781831473E+02  0.00000000000E+00 0.  1.
         12    1    5    5    0    0  0.67370121101E+02  0.62979708264E+02 -0.21152565874E+03  0.23075589088E+03  0.00000000000E+00 0. -1.
        -13    1    3    3    0    0  0.88721537380E+02 -0.18504960602E+02 -0.66573709494E+03  0.67187783439E+03  0.00000000000E+00 0.  1.
         14    1    3    3    0    0 -0.14232625519E+02 -0.12945480666E+02 -0.75177698542E+02  0.77600511963E+02  0.00000000000E+00 0. -1.
          5    1    4    4  501    0  0.45560381722E+02 -0.61505905086E+02  0.39667716974E+02  0.86338534346E+02  0.47000000000E+01 0.  1.
         -5    1    4    4    0  501 -0.63770620611E+02 -0.44214210051E+02  0.12060738507E+03  0.14349153200E+03  0.47000000000E+01 0.  1.
          1    1    1    2  502    0 -0.22832882803E+02  0.12970063317E+03  0.56471126929E+03  0.57986413274E+03  0.00000000000E+00 0. -1.
          1    1    1    2  503    0 -0.77865480108E+02 -0.73884691396E+02 -0.39114478137E+03  0.40560599183E+03  0.00000000000E+00 0. -1.
<mgrwt>
<rscale>  0 0.11646448E+03</rscale>
<asrwt>0</asrwt>
<pdfrwt beam="1">  1        2 0.11647909E+00 0.12636401E+03</pdfrwt>
<pdfrwt beam="2">  1        2 0.21577330E+00 0.10734049E+03</pdfrwt>
<totfact> 0.10064335E+02</totfact>
</mgrwt>
</event>
<event>
13    1  0.1589573E-008  0.1070235E+03  0.7546771E-02  0.1440316E+00
          2   -1    0    0  503    0  0.00000000000E+00  0.00000000000E+00  0.14372495655E+04  0.14372495655E+04  0.00000000000E+00 0. -1.
         -3   -1    0    0    0  501 -0.00000000000E+00 -0.00000000000E+00 -0.13373327428E+04  0.13373327428E+04  0.00000000000E+00 0.  1.
         24    2    1    2    0    0 -0.58000085778E+02  0.13493441974E+03 -0.69299700603E+03  0.71289292143E+03  0.80000996701E+02 0.  0.
         25    2    1    2    0    0 -0.15484388625E+03 -0.25505792502E+03  0.67972303060E+03  0.75278174239E+03  0.12500311649E+03 0.  0.
         24    2    1    2    0    0  0.18483784697E+03  0.94435866755E+00  0.21084819383E+03  0.29176572424E+03  0.80649584713E+02 0.  0.
        -11    1    3    3    0    0 -0.64491719974E+02  0.14249423299E+03 -0.63074613406E+03  0.64984957799E+03  0.00000000000E+00 0.  1.
         12    1    3    3    0    0  0.64916341960E+01 -0.75598132476E+01 -0.62250871968E+02  0.63043343437E+02  0.00000000000E+00 0. -1.
        -11    1    5    5    0    0  0.13772865907E+03 -0.24143360728E+02  0.11093352345E+03  0.17848902493E+03  0.00000000000E+00 0.  1.
         12    1    5    5    0    0  0.47109187899E+02  0.25087719395E+02  0.99914670376E+02  0.11327669930E+03  0.00000000000E+00 0. -1.
          5    1    4    4  502    0 -0.10209023560E+03 -0.55145003105E+02  0.22331184860E+03  0.25170152820E+03  0.47000000000E+01 0. -1.
         -5    1    4    4    0  502 -0.52753650650E+02 -0.19991292192E+03  0.45641118200E+03  0.50108021420E+03  0.47000000000E+01 0. -1.
          1    1    1    2  503    0 -0.13065683760E+02  0.20428693805E+02  0.45428558944E+03  0.45493234705E+03  0.00000000000E+00 0. -1.
         -4    1    1    2    0  501  0.41071808822E+02  0.98750452804E+02 -0.55194298513E+03  0.56220957324E+03  0.00000000000E+00 0.  1.
<mgrwt>
<rscale>  0 0.50943876E+02</rscale>
<asrwt>0</asrwt>
<pdfrwt beam="1">  1        2 0.21136023E+00 0.24249611E+02</pdfrwt>
<pdfrwt beam="2">  1       -3 0.19666658E+00 0.10702351E+03</pdfrwt>
<totfact> 0.20388551E+00</totfact>
</mgrwt>
</event>
<event>
13    1  0.1589573E-008  0.5781697E+02  0.7546771E-02  0.1462489E+00
         -3   -1    0    0    0  501 -0.00000000000E+00  0.00000000000E+00  0.17127147348E+03  0.17127147348E+03  0.00000000000E+00 0.  1.
          2   -1    0    0  503    0  0.00000000000E+00 -0.00000000000E+00 -0.75794774892E+03  0.75794774892E+03  0.00000000000E+00 0. -1.
         24    2    1    2    0    0  0.10632018662E+02  0.36841247513E+02 -0.16244471098E+03  0.18488503836E+03  0.79522801411E+02 0.  0.
         25    2    1    2    0    0  0.73823064397E+02 -0.18555955399E+02  0.36503957677E+02  0.15082801450E+03  0.12498953042E+03 0.  0.
         24    2    1    2    0    0 -0.63820612620E+02 -0.13001624000E+02 -0.28056792789E+03  0.30012188563E+03  0.84336654280E+02 0.  0.
        -11    1    5    5    0    0  0.73802029799E+01 -0.23994817754E+02 -0.13929684376E+03  0.14154091054E+03  0.00000000000E+00 0.  1.
         12    1    5    5    0    0 -0.71200815600E+02  0.10993193754E+02 -0.14127108413E+03  0.15858097509E+03  0.00000000000E+00 0. -1.
        -13    1    3    3    0    0  0.46364595856E+01 -0.20387906005E+02 -0.12696012223E+02  0.24461238626E+02  0.00000000000E+00 0.  1.
         14    1    3    3    0    0  0.59955590768E+01  0.57229153518E+02 -0.14974869875E+03  0.16042379973E+03  0.00000000000E+00 0. -1.
          5    1    4    4  502    0  0.17598340156E+02 -0.57560524246E+02 -0.18240447054E+02  0.63069163912E+02  0.47000000000E+01 0. -1.
         -5    1    4    4    0  502  0.56224724241E+02  0.39004568847E+02  0.54744404731E+02  0.87758850587E+02  0.47000000000E+01 0. -1.
          1    1    1    2  503    0 -0.54217090944E+02 -0.23352067046E+02 -0.22610307637E+03  0.23368229101E+03  0.00000000000E+00 0. -1.
         -4    1    1    2    0  501  0.33582620504E+02  0.18068398932E+02  0.45935482113E+02  0.59701992905E+02  0.00000000000E+00 0.  1.
<mgrwt>
<rscale>  0 0.46955680E+02</rscale>
<asrwt>0</asrwt>
<pdfrwt beam="2">  1        2 0.11146290E+00 0.57816969E+02</pdfrwt>
<pdfrwt beam="1">  1       -3 0.25186981E-01 0.38134754E+02</pdfrwt>
<totfact> 0.33424580E+02</totfact>
</mgrwt>
</event>
<event>
13    1  0.1589573E-008  0.1702749E+03  0.7546771E-02  0.1273197E+00
         -3   -1    0    0    0  501 -0.00000000000E+00  0.00000000000E+00  0.24616877248E+04  0.24616877248E+04  0.00000000000E+00 0.  1.
          2   -1    0    0  503    0  0.00000000000E+00 -0.00000000000E+00 -0.80123975972E+03  0.80123975972E+03  0.00000000000E+00 0. -1.
         24    2    1    2    0    0 -0.49097346280E+02 -0.35104415641E+02  0.51376872519E+03  0.52362642847E+03  0.81138549419E+02 0.  0.
         25    2    1    2    0    0  0.62417171118E+02 -0.24416614315E+02 -0.21203463428E+03  0.25510151285E+03  0.12500408561E+03 0.  0.
         24    2    1    2    0    0  0.21338907335E+03 -0.59760094762E+02  0.32785569237E+03  0.40400409832E+03  0.81386675121E+02 0.  0.
        -11    1    5    5    0    0  0.14904808517E+02 -0.17652900973E+02  0.82218965067E+02  0.85403374912E+02  0.00000000000E+00 0.  1.
         12    1    5    5    0    0  0.19848426483E+03 -0.42107193789E+02  0.24563672731E+03  0.31860072341E+03  0.00000000000E+00 0. -1.
        -11    1    3    3    0    0  0.18992069321E+02 -0.17701258863E+02  0.22200633871E+03  0.22351923338E+03  0.00000000000E+00 0.  1.
         12    1    3    3    0    0 -0.68089415601E+02 -0.17403156778E+02  0.29176238648E+03  0.30010719509E+03  0.00000000000E+00 0. -1.
          5    1    4    4  502    0 -0.26070866806E+02 -0.30421743087E+02 -0.23477614600E+02  0.46673985643E+02  0.47000000000E+01 0. -1.
         -5    1    4    4    0  502  0.88488037924E+02  0.60051287716E+01 -0.18855701968E+03  0.20842752721E+03  0.47000000000E+01 0. -1.
          1    1    1    2  503    0  0.57537575889E+02  0.25301658503E+02 -0.50831017858E+03  0.51218159300E+03  0.00000000000E+00 0. -1.
         -4    1    1    2    0  501 -0.28424647407E+03  0.93979466216E+02  0.15391683604E+04  0.15680138519E+04  0.00000000000E+00 0.  1.
<mgrwt>
<rscale>  0 0.10345347E+03</rscale>
<asrwt>0</asrwt>
<pdfrwt beam="2">  1        2 0.11782938E+00 0.62854964E+02</pdfrwt>
<pdfrwt beam="1">  1       -3 0.36201290E+00 0.17027488E+03</pdfrwt>
<totfact> 0.51813764E-01</totfact>
</mgrwt>
</event>
<event>
13    1  0.1589573E-008  0.1889866E+03  0.7546771E-02  0.1229314E+00
          2   -1    0    0  503    0  0.00000000000E+00  0.00000000000E+00  0.35114480879E+04  0.35114480879E+04  0.00000000000E+00 0. -1.
          2   -1    0    0  502    0 -0.00000000000E+00 -0.00000000000E+00 -0.14533074938E+04  0.14533074938E+04  0.00000000000E+00 0. -1.
         24    2    1    2    0    0  0.40505053870E+03 -0.37915137480E+03 -0.62642052429E+03  0.84067655927E+03  0.80701301949E+02 0.  0.
         25    2    1    2    0    0 -0.31741001372E+03  0.55095760573E+03  0.40900192426E+03  0.76629609868E+03  0.12499494662E+03 0.  0.
         24    2    1    2    0    0 -0.10381581593E+03  0.42623163652E+02  0.26309937881E+03  0.29670683561E+03  0.78861939148E+02 0.  0.
        -11    1    3    3    0    0  0.11338909880E+01 -0.25741786915E+01  0.24677930669E+01  0.37419389799E+01  0.00000000000E+00 0.  1.
         12    1    3    3    0    0  0.40391664771E+03 -0.37657719611E+03 -0.62888831736E+03  0.83693462029E+03  0.00000000000E+00 0. -1.
        -13    1    5    5    0    0 -0.99222339673E+02  0.55053093600E+02  0.18159586831E+03  0.21413307823E+03  0.00000000000E+00 0.  1.
         14    1    5    5    0    0 -0.45934762571E+01 -0.12429929949E+02  0.81503510504E+02  0.82573757376E+02  0.00000000000E+00 0. -1.
          5    1    4    4  501    0 -0.94258602700E+02  0.10980089611E+03  0.42611111341E+02  0.15092619977E+03  0.47000000000E+01 0. -1.
         -5    1    4    4    0  501 -0.22315141102E+03  0.44115670963E+03  0.36639081292E+03  0.61536989891E+03  0.47000000000E+01 0. -1.
          1    1    1    2  502    0  0.77830117132E+02  0.40463591398E+02 -0.51380353313E+03  0.52123785360E+03  0.00000000000E+00 0. -1.
          1    1    1    2  503    0 -0.61654826187E+02 -0.25489298598E+03  0.25262633485E+04  0.25398382345E+04  0.00000000000E+00 0. -1.
<mgrwt>
<rscale>  0 0.12875535E+03</rscale>
<asrwt>0</asrwt>
<pdfrwt beam="1">  1        2 0.51638943E+00 0.18898664E+03</pdfrwt>
<pdfrwt beam="2">  1        2 0.21372169E+00 0.87720176E+02</pdfrwt>
<totfact> 0.35621247E+00</totfact>
</mgrwt>
</event>
<event>
13    1  0.1589573E-008  0.1191296E+03  0.7546771E-02  0.1324552E+00
          2   -1    0    0  503    0  0.00000000000E+00  0.00000000000E+00  0.31527976486E+04  0.31527976486E+04  0.00000000000E+00 0. -1.
          2   -1    0    0  502    0 -0.00000000000E+00 -0.00000000000E+00 -0.72268034127E+03  0.72268034127E+03  0.00000000000E+00 0. -1.
         24    2    1    2    0    0 -0.40349654934E+02 -0.71118354581E+02  0.32195542930E+02  0.11807750782E+03  0.78865897933E+02 0.  0.
         25    2    1    2    0    0  0.82704557117E+01 -0.13440694131E+03  0.22531917968E+03  0.29073057538E+03  0.12498763307E+03 0.  0.
         24    2    1    2    0    0 -0.27122361476E+01  0.74050384467E+02  0.60599495235E+03  0.61590899818E+03  0.81383021005E+02 0.  0.
        -11    1    3    3    0    0  0.19611377872E+01 -0.35947717942E+01 -0.21567017313E+02  0.21952327472E+02  0.00000000000E+00 0.  1.
         12    1    3    3    0    0 -0.42310792721E+02 -0.67523582787E+02  0.53762560243E+02  0.96125180347E+02  0.00000000000E+00 0. -1.
        -13    1    5    5    0    0 -0.38132020730E+02  0.61708281962E+02  0.39447974225E+03  0.40109379217E+03  0.00000000000E+00 0.  1.
         14    1    5    5    0    0  0.35419784582E+02  0.12342102505E+02  0.21151521009E+03  0.21481520601E+03  0.00000000000E+00 0. -1.
          5    1    4    4  501    0 -0.38181380954E+02 -0.37921132618E+02  0.17302260100E+02  0.56721145574E+02  0.47000000000E+01 0.  1.
         -5    1    4    4    0  501  0.46451836666E+02 -0.96485808687E+02  0.20801691958E+03  0.23400942981E+03  0.47000000000E+01 0.  1.
          1    1    1    2  502    0  0.75244561717E+02  0.92891180940E+02 -0.63615475554E+03  0.64728926189E+03  0.00000000000E+00 0. -1.
          1    1    1    2  503    0 -0.40453126347E+02  0.38583730479E+02  0.22027623879E+04  0.22034716466E+04  0.00000000000E+00 0. -1.
<mgrwt>
<rscale>  0 0.81607074E+02</rscale>
<asrwt>0</asrwt>
<pdfrwt beam="1">  1        2 0.46364671E+00 0.55903128E+02</pdfrwt>
<pdfrwt beam="2">  1        2 0.10627652E+00 0.11912955E+03</pdfrwt>
<totfact> 0.17953620E+01</totfact>
</mgrwt>
</event>
<event>
13    1  0.1589573E-008  0.3416172E+02  0.7546771E-02  0.1612197E+00
          2   -1    0    0  503    0  0.00000000000E+00  0.00000000000E+00  0.19652099976E+04  0.19652099976E+04  0.00000000000E+00 0. -1.
          2   -1    0    0  502    0 -0.00000000000E+00 -0.00000000000E+00 -0.20975043142E+04  0.20975043142E+04  0.00000000000E+00 0. -1.
         24    2    1    2    0    0 -0.37365441741E+02 -0.69557485650E+03 -0.10588207687E+03  0.70892858927E+03  0.78410287848E+02 0.  0.
         25    2    1    2    0    0  0.32052551452E+01 -0.17728760510E+03  0.53443413882E+03  0.57678917755E+03  0.12499895210E+03 0.  0.
         24    2    1    2    0    0 -0.17769516814E+02  0.89628417711E+03 -0.11621909524E+04  0.14697441129E+04  0.76281491145E+02 0.  0.
        -13    1    5    5    0    0 -0.19488585518E+02  0.56180355501E+03 -0.66891636129E+03  0.87375748225E+03  0.00000000000E+00 0.  1.
         14    1    5    5    0    0  0.17190687041E+01  0.33448062209E+03 -0.49327459107E+03  0.59598663068E+03  0.00000000000E+00 0. -1.
        -13    1    3    3    0    0  0.20336667088E+02 -0.27912755283E+03 -0.57669869956E+02  0.28574741412E+03  0.00000000000E+00 0.  1.
         14    1    3    3    0    0 -0.57702108829E+02 -0.41644730368E+03 -0.48212206913E+02  0.42318117515E+03  0.00000000000E+00 0. -1.
          5    1    4    4  501    0 -0.19915671218E+02 -0.35030267633E+02  0.29128211054E+03  0.29409371216E+03  0.47000000000E+01 0. -1.
         -5    1    4    4    0  501  0.23120926363E+02 -0.14225733746E+03  0.24315202827E+03  0.28269546539E+03  0.47000000000E+01 0. -1.
          1    1    1    2  502    0  0.18743942393E+02 -0.15330559554E+02 -0.35223245196E+03  0.35306382093E+03  0.00000000000E+00 0. -1.
          1    1    1    2  503    0  0.33185761016E+02 -0.80911559512E+01  0.95357702579E+03  0.95418861115E+03  0.00000000000E+00 0. -1.
<mgrwt>
<rscale>  0 0.28761479E+02</rscale>
<asrwt>0</asrwt>
<pdfrwt beam="1">  1        2 0.28900147E+00 0.34161719E+02</pdfrwt>
<pdfrwt beam="2">  1        2 0.30845651E+00 0.24214901E+02</pdfrwt>
<totfact> 0.16228430E+01</totfact>
</mgrwt>
</event>
<event>
13    1  0.1589573E-008  0.1103015E+03  0.7546771E-02  0.1410936E+00
          2   -1    0    0  503    0  0.00000000000E+00  0.00000000000E+00  0.16504339702E+04  0.16504339702E+04  0.00000000000E+00 0. -1.
          2   -1    0    0  502    0 -0.00000000000E+00 -0.00000000000E+00 -0.13645010942E+04  0.13645010942E+04  0.00000000000E+00 0. -1.
         24    2    1    2    0    0  0.61471576347E+02 -0.78510428087E+02  0.39778831603E+02  0.13280378300E+03  0.78178304662E+02 0.  0.
         25    2    1    2    0    0  0.70506049996E+02 -0.90066443020E+02 -0.24415396138E+03  0.29718440789E+03  0.12499739275E+03 0.  0.
         24    2    1    2    0    0 -0.53772870608E+02  0.22640561049E+03  0.30863553124E+03  0.39487394478E+03  0.80737346044E+02 0.  0.
        -11    1    3    3    0    0  0.43712137516E+02 -0.80893935763E+02  0.56809547556E+02  0.10808285943E+03  0.00000000000E+00 0.  1.
         12    1    3    3    0    0  0.17759438830E+02  0.23835076758E+01 -0.17030715954E+02  0.24720923573E+02  0.00000000000E+00 0. -1.
        -11    1    5    5    0    0 -0.42357575414E+01  0.81409198218E+02  0.54298154795E+02  0.97947377762E+02  0.00000000000E+00 0.  1.
         12    1    5    5    0    0 -0.49537113066E+02  0.14499641228E+03  0.25433737645E+03  0.29692656702E+03  0.00000000000E+00 0. -1.
          5    1    4    4  501    0  0.44695930982E+02  0.21018790634E+02 -0.11241074806E+03  0.12287303237E+03  0.47000000000E+01 0.  1.
         -5    1    4    4    0  501  0.25810119014E+02 -0.11108523365E+03 -0.13174321332E+03  0.17431137552E+03  0.47000000000E+01 0.  1.
          1    1    1    2  502    0  0.24258720912E+02 -0.16681391049E+02 -0.10014131908E+04  0.10018458629E+04  0.00000000000E+00 0. -1.
          1    1    1    2  503    0 -0.10246347665E+03 -0.41147348338E+02  0.11830856653E+04  0.11882270658E+04  0.00000000000E+00 0. -1.
<mgrwt>
<rscale>  0 0.56985544E+02</rscale>
<asrwt>0</asrwt>
<pdfrwt beam="1">  1        2 0.24271088E+00 0.11030149E+03</pdfrwt>
<pdfrwt beam="2">  1        2 0.20066193E+00 0.29440692E+02</pdfrwt>
<totfact> 0.42762707E+01</totfact>
</mgrwt>
</event>
<event>
13    1  0.1589573E-008  0.1126303E+03  0.7546771E-02  0.1262445E+00
          2   -1    0    0  502    0  0.00000000000E+00  0.00000000000E+00  0.19420775921E+04  0.19420775921E+04  0.00000000000E+00 0. -1.
          2   -1    0    0  503    0 -0.00000000000E+00 -0.00000000000E+00 -0.23311623779E+04  0.23311623779E+04  0.00000000000E+00 0. -1.
         24    2    1    2    0    0  0.12260119223E+02 -0.90561307656E+02 -0.83607570792E+03  0.84477282348E+03  0.79163583536E+02 0.  0.
         25    2    1    2    0    0  0.71634647965E+02 -0.80460804823E+02  0.45566995005E+03  0.48462946528E+03  0.12500060533E+03 0.  0.
         24    2    1    2    0    0  0.21259305927E+02 -0.53652131546E+02 -0.31071100657E+03  0.32613591091E+03  0.80577872103E+02 0.  0.
        -11    1    5    5    0    0 -0.28961589130E+02 -0.79970431074E+01 -0.12012248646E+03  0.12382301117E+03  0.00000000000E+00 0.  1.
         12    1    5    5    0    0  0.50220895056E+02 -0.45655088438E+02 -0.19058852012E+03  0.20231289974E+03  0.00000000000E+00 0. -1.
        -11    1    3    3    0    0  0.32131220814E+02 -0.21502028237E+02 -0.14843546041E+03  0.15338786939E+03  0.00000000000E+00 0.  1.
         12    1    3    3    0    0 -0.19871101591E+02 -0.69059279419E+02 -0.68764024751E+03  0.69138495409E+03  0.00000000000E+00 0. -1.
          5    1    4    4  501    0  0.57238516480E+02 -0.40805055963E+02  0.42844827175E+03  0.43420192529E+03  0.47000000000E+01 0. -1.
         -5    1    4    4    0  501  0.14396131485E+02 -0.39655748860E+02  0.27221678298E+02  0.50427539983E+02  0.47000000000E+01 0. -1.
          1    1    1    2  502    0 -0.91075317093E+02  0.53285264288E+02  0.14515559405E+04  0.14553860935E+04  0.00000000000E+00 0. -1.
          1    1    1    2  503    0 -0.14078756022E+02  0.17138897974E+03 -0.11495239619E+04  0.11623156769E+04  0.00000000000E+00 0. -1.
<mgrwt>
<rscale>  0 0.10899377E+03</rscale>
<asrwt>0</asrwt>
<pdfrwt beam="1">  1        2 0.28559965E+00 0.10547469E+03</pdfrwt>
<pdfrwt beam="2">  1        2 0.34281799E+00 0.11263027E+03</pdfrwt>
<totfact> 0.94465983E+00</totfact>
</mgrwt>
</event>
<event>
13    1  0.1589573E-008  0.5175299E+02  0.7546771E-02  0.1472521E+00
          2   -1    0    0  503    0  0.00000000000E+00  0.00000000000E+00  0.18617845443E+04  0.18617845443E+04  0.00000000000E+00 0. -1.
          2   -1    0    0  502    0 -0.00000000000E+00 -0.00000000000E+00 -0.12293757051E+04  0.12293757051E+04  0.00000000000E+00 0. -1.
         24    2    1    2    0    0  0.49488948655E+03  0.45910130559E+03 -0.41583644705E+03  0.79642224346E+03  0.75357988929E+02 0.  0.
         25    2    1    2    0    0 -0.23582181226E+03 -0.35293001149E+03 -0.57556846534E+02  0.44621699194E+03  0.12500117265E+03 0.  0.
         24    2    1    2    0    0 -0.23842037166E+03 -0.12948889703E+03  0.26732359772E+03  0.38808577498E+03  0.74411119966E+02 0.  0.
        -13    1    3    3    0    0  0.24982258938E+03  0.24245705840E+03 -0.25750892823E+03  0.43302147689E+03  0.00000000000E+00 0.  1.
         14    1    3    3    0    0  0.24506689716E+03  0.21664424718E+03 -0.15832751882E+03  0.36340076656E+03  0.00000000000E+00 0. -1.
        -13    1    5    5    0    0 -0.16192842661E+03 -0.46731025096E+02  0.16533654468E+03  0.23609484759E+03  0.00000000000E+00 0.  1.
         14    1    5    5    0    0 -0.76491945047E+02 -0.82757871931E+02  0.10198705304E+03  0.15199092740E+03  0.00000000000E+00 0. -1.
          5    1    4    4  501    0 -0.19505632249E+03 -0.25422629254E+03 -0.92848229004E+02  0.33364780892E+03  0.47000000000E+01 0.  1.
         -5    1    4    4    0  501 -0.40765489762E+02 -0.98703718946E+02  0.35291382470E+02  0.11256918302E+03  0.47000000000E+01 0.  1.
          1    1    1    2  502    0 -0.28148621437E+02 -0.27909205143E+02 -0.30912918560E+03  0.31166026698E+03  0.00000000000E+00 0. -1.
          1    1    1    2  503    0  0.75013188055E+01  0.51226808072E+02  0.11476077207E+04  0.11487749720E+04  0.00000000000E+00 0. -1.
<mgrwt>
<rscale>  0 0.45292922E+02</rscale>
<asrwt>0</asrwt>
<pdfrwt beam="1">  1        2 0.27379185E+00 0.51752992E+02</pdfrwt>
<pdfrwt beam="2">  1        2 0.18079054E+00 0.39639231E+02</pdfrwt>
<totfact> 0.41453703E+01</totfact>
</mgrwt>
</event>
<event>
13    1  0.1589573E-008  0.1165096E+03  0.7546771E-02  0.1301196E+00
          2   -1    0    0  502    0  0.00000000000E+00  0.00000000000E+00  0.49704787974E+03  0.49704787974E+03  0.00000000000E+00 0. -1.
          2   -1    0    0  503    0 -0.00000000000E+00 -0.00000000000E+00 -0.26118440488E+04  0.26118440488E+04  0.00000000000E+00 0. -1.
         24    2    1    2    0    0 -0.90706302570E+02  0.90934409519E+02 -0.15595785752E+04  0.15669436024E+04  0.80809780744E+02 0.  0.
         25    2    1    2    0    0  0.10062944401E+03  0.10224921001E+03 -0.21934271549E+03  0.29037684309E+03  0.12500519275E+03 0.  0.
         24    2    1    2    0    0  0.35125490980E+02 -0.29003869734E+02  0.16962670233E+03  0.19279339411E+03  0.79505031871E+02 0.  0.
        -13    1    5    5    0    0  0.21051654544E+02 -0.56623628856E+02  0.11830812272E+03  0.13283907334E+03  0.00000000000E+00 0.  1.
         14    1    5    5    0    0  0.14073836435E+02  0.27619759122E+02  0.51318579614E+02  0.59954320775E+02  0.00000000000E+00 0. -1.
        -13    1    3    3    0    0 -0.39287586945E+01 -0.76679583886E+01 -0.20061486545E+02  0.21833368341E+02  0.00000000000E+00 0.  1.
         14    1    3    3    0    0 -0.86777543875E+02  0.98602367908E+02 -0.15395170886E+04  0.15451102340E+04  0.00000000000E+00 0. -1.
          5    1    4    4  501    0  0.93485843761E+02  0.12333170113E+03 -0.21826039931E+03  0.26760045478E+03  0.47000000000E+01 0.  1.
         -5    1    4    4    0  501  0.71436002468E+01 -0.21082491119E+02 -0.10823161729E+01  0.22776388313E+02  0.47000000000E+01 0.  1.
          1    1    1    2  502    0  0.77537475672E+01 -0.11733370370E+03  0.26245021642E+03  0.28758900314E+03  0.00000000000E+00 0. -1.
          1    1    1    2  503    0 -0.52802379984E+02 -0.46846046098E+02 -0.76795179717E+03  0.77118908585E+03  0.00000000000E+00 0. -1.
<mgrwt>
<rscale>  0 0.90687168E+02</rscale>
<asrwt>0</asrwt>
<pdfrwt beam="1">  1        2 0.73095276E-01 0.11650962E+03</pdfrwt>
<pdfrwt beam="2">  1        2 0.38409471E+00 0.70587841E+02</pdfrwt>
<totfact> 0.49954624E+01</totfact>
</mgrwt>
</event>
<event>
13    1  0.1589573E-008  0.2538171E+03  0.7546771E-02  0.1191148E+00
          2   -1    0    0  502    0  0.00000000000E+00  0.00000000000E+00  0.34688384328E+04  0.34688384328E+04  0.00000000000E+00 0. -1.
          2   -1    0    0  503    0 -0.00000000000E+00 -0.00000000000E+00 -0.60237690789E+03  0.60237690789E+03  0.00000000000E+00 0. -1.
         24    2    1    2    0    0 -0.22875519674E+03  0.49042392819E+02  0.93851440335E+03  0.97090176165E+03  0.84302130229E+02 0.  0.
         25    2    1    2    0    0  0.29055445988E+03 -0.52227093856E+01  0.61979340971E+03  0.69585833396E+03  0.12500311748E+03 0.  0.
         24    2    1    2    0    0  0.65182078930E+02  0.59871739160E+02  0.86812090921E+02  0.14671222579E+03  0.78452593990E+02 0.  0.
        -11    1    5    5    0    0 -0.13282300364E+01  0.38028162140E+02  0.61404625673E+02  0.72238724828E+02  0.00000000000E+00 0.  1.
         12    1    5    5    0    0  0.66510308966E+02  0.21843577021E+02  0.25407465248E+02  0.74473500966E+02  0.00000000000E+00 0. -1.
        -13    1    3    3    0    0 -0.20678745543E+03  0.69616980265E+02  0.84138370400E+03  0.86921465302E+03  0.00000000000E+00 0.  1.
         14    1    3    3    0    0 -0.21967741319E+02 -0.20574587446E+02  0.97130699342E+02  0.10168710863E+03  0.00000000000E+00 0. -1.
          5    1    4    4  501    0  0.34209681571E+02 -0.43238216286E+02  0.82843217202E+02  0.99623964472E+02  0.47000000000E+01 0.  1.
         -5    1    4    4    0  501  0.25634477831E+03  0.38015506901E+02  0.53695019250E+03  0.59623436949E+03  0.47000000000E+01 0.  1.
          1    1    1    2  502    0 -0.19089663376E+03 -0.17819809725E+03  0.17249758342E+04  0.17446311115E+04  0.00000000000E+00 0. -1.
          1    1    1    2  503    0  0.63915291693E+02  0.74506674659E+02 -0.50363421329E+03  0.51311190775E+03  0.00000000000E+00 0. -1.
<mgrwt>
<rscale>  0 0.15784807E+03</rscale>
<asrwt>0</asrwt>
<pdfrwt beam="1">  1        2 0.51012329E+00 0.25381713E+03</pdfrwt>
<pdfrwt beam="2">  1        2 0.88584841E-01 0.98165213E+02</pdfrwt>
<totfact> 0.11411433E+01</totfact>
</mgrwt>
</event>
<event>
13    1  0.1589573E-008  0.8657132E+02  0.7546771E-02  0.1384915E+00
          2   -1    0    0  503    0  0.00000000000E+00  0.00000000000E+00  0.99634408002E+03  0.99634408002E+03  0.00000000000E+00 0. -1.
          2   -1    0    0  502    0 -0.00000000000E+00 -0.00000000000E+00 -0.21680316475E+04  0.21680316475E+04  0.00000000000E+00 0. -1.
         24    2    1    2    0    0  0.21250521673E+03 -0.35235050083E+01 -0.98012810852E+03  0.10061543819E+04  0.80775298148E+02 0.  0.
         25    2    1    2    0    0 -0.14390621682E+03  0.35853803690E+03 -0.13406318805E+03  0.42764424951E+03  0.12509253615E+03 0.  0.
         24    2    1    2    0    0 -0.90674286808E+02 -0.29031589562E+03  0.25827811690E+03  0.40607768529E+03  0.75407925854E+02 0.  0.
        -11    1    5    5    0    0 -0.31989817328E+02 -0.16923589236E+03  0.10328206036E+03  0.20082659104E+03  0.00000000000E+00 0.  1.
         12    1    5    5    0    0 -0.58684469480E+02 -0.12108000326E+03  0.15499605654E+03  0.20525109425E+03  0.00000000000E+00 0. -1.
        -13    1    3    3    0    0  0.21114734353E+03 -0.17574463495E+02 -0.88650857587E+03  0.91147655897E+03  0.00000000000E+00 0.  1.
         14    1    3    3    0    0  0.13578731961E+01  0.14050958487E+02 -0.93619532644E+02  0.94677822886E+02  0.00000000000E+00 0. -1.
          5    1    4    4  501    0 -0.93828983311E+02  0.16658815488E+03 -0.12604461910E+03  0.22905201911E+03  0.47000000000E+01 0. -1.
         -5    1    4    4    0  501 -0.50077233514E+02  0.19194988202E+03 -0.80185689510E+01  0.19859223039E+03  0.47000000000E+01 0. -1.
          1    1    1    2  502    0  0.67137402346E+02 -0.54865256473E+02 -0.81678309507E+03  0.82137217603E+03  0.00000000000E+00 0. -1.
          1    1    1    2  503    0 -0.45062115442E+02 -0.98333797980E+01  0.50100870730E+03  0.50312723480E+03  0.00000000000E+00 0. -1.
<mgrwt>
<rscale>  0 0.63189319E+02</rscale>
<asrwt>0</asrwt>
<pdfrwt beam="1">  1        2 0.14652119E+00 0.46122550E+02</pdfrwt>
<pdfrwt beam="2">  1        2 0.31882817E+00 0.86571319E+02</pdfrwt>
<totfact> 0.36877114E+01</totfact>
</mgrwt>
</event>
<event>
13    1  0.1589573E-008  0.2349988E+03  0.7546771E-02  0.1243014E+00
         -1   -1    0    0    0  501 -0.00000000000E+00  0.00000000000E+00  0.15539449971E+04  0.15539449971E+04  0.00000000000E+00 0.  1.
          2   -1    0    0  503    0  0.00000000000E+00 -0.00000000000E+00 -0.87849257602E+03  0.87849257602E+03  0.00000000000E+00 0. -1.
         24    2    1    2    0    0  0.10287955426E+03  0.92265619280E+02 -0.20989322824E+02  0.16166024821E+03  0.81217836659E+02 0.  0.
         25    2    1    2    0    0 -0.26306031429E+03 -0.23973888557E+03  0.52073969443E+03  0.64301490348E+03  0.12499149785E+03 0.  0.
         24    2    1    2    0    0 -0.65453522707E+02 -0.14071669928E+02  0.32945825190E+03  0.34573385005E+03  0.80665852736E+02 0.  0.
        -11    1    5    5    0    0 -0.34921940981E+02  0.30855792990E+02  0.10641455212E+03  0.11617090353E+03  0.00000000000E+00 0.  1.
         12    1    5    5    0    0 -0.30531581725E+02 -0.44927462917E+02  0.22304369977E+03  0.22956294652E+03  0.00000000000E+00 0. -1.
        -11    1    3    3    0    0  0.78929557133E+02  0.25617803914E+02 -0.33958158279E+02  0.89662162479E+02  0.00000000000E+00 0.  1.
         12    1    3    3    0    0  0.23949997127E+02  0.66647815366E+02  0.12968835455E+02  0.71998085728E+02  0.00000000000E+00 0. -1.
          5    1    4    4  502    0 -0.24147661662E+03 -0.16449310890E+03  0.45464172794E+03  0.54045363357E+03  0.47000000000E+01 0. -1.
         -5    1    4    4    0  502 -0.21583697669E+02 -0.75245776678E+02  0.66097966484E+02  0.10256126991E+03  0.47000000000E+01 0. -1.
          1    1    1    2  503    0  0.16431416828E+03  0.16255196409E+03 -0.69751998005E+03  0.73481726265E+03  0.00000000000E+00 0. -1.
         -2    1    1    2    0  501  0.61320114452E+02 -0.10070278662E+01  0.54376377766E+03  0.54721130876E+03  0.00000000000E+00 0.  1.
<mgrwt>
<rscale>  0 0.12005038E+03</rscale>
<asrwt>0</asrwt>
<pdfrwt beam="2">  1        2 0.12919008E+00 0.23499876E+03</pdfrwt>
<pdfrwt beam="1">  1       -1 0.22852132E+00 0.61328383E+02</pdfrwt>
<totfact> 0.48628930E+00</totfact>
</mgrwt>
</event>
<event>
13    1  0.1589573E-008  0.1161660E+03  0.7546771E-02  0.1410667E+00
          2   -1    0    0  502    0  0.00000000000E+00  0.00000000000E+00  0.21613100194E+04  0.21613100194E+04  0.00000000000E+00 0. -1.
          2   -1    0    0  503    0 -0.00000000000E+00 -0.00000000000E+00 -0.23451361639E+04  0.23451361639E+04  0.00000000000E+00 0. -1.
         24    2    1    2    0    0 -0.54068216313E+02 -0.12391839414E+04  0.33920531548E+03  0.12884914672E+04  0.81546321125E+02 0.  0.
         25    2    1    2    0    0 -0.28335552603E+02  0.12463981088E+04 -0.46037841592E+03  0.13348722255E+04  0.12499769371E+03 0.  0.
         24    2    1    2    0    0  0.32913498362E+02 -0.82741628382E+02  0.30716022443E+03  0.33780477602E+03  0.10878964927E+03 0.  0.
        -11    1    5    5    0    0  0.31993650414E+02 -0.21966610394E+01  0.20605358295E+03  0.20853416515E+03  0.00000000000E+00 0.  1.
         12    1    5    5    0    0  0.91984794757E+00 -0.80544967342E+02  0.10110664148E+03  0.12927061087E+03  0.00000000000E+00 0. -1.
        -13    1    3    3    0    0  0.94999936100E+01 -0.39371449480E+03  0.79719552335E+02  0.40181657547E+03  0.00000000000E+00 0.  1.
         14    1    3    3    0    0 -0.63568209923E+02 -0.84546944657E+03  0.25948576315E+03  0.88667489176E+03  0.00000000000E+00 0. -1.
          5    1    4    4  501    0 -0.26487956699E+01  0.68230907211E+03 -0.18703314780E+03  0.70749994656E+03  0.47000000000E+01 0.  1.
         -5    1    4    4    0  501 -0.25686756933E+02  0.56408903671E+03 -0.27334526812E+03  0.62737227897E+03  0.47000000000E+01 0.  1.
          1    1    1    2  502    0 -0.38170528185E+01 -0.27751786002E+02  0.58386837674E+03  0.58454000109E+03  0.00000000000E+00 0. -1.
          1    1    1    2  503    0  0.53307323372E+02  0.10327924694E+03 -0.95368164521E+03  0.96073771342E+03  0.00000000000E+00 0. -1.
<mgrwt>
<rscale>  0 0.57045294E+02</rscale>
<asrwt>0</asrwt>
<pdfrwt beam="1">  1        2 0.31783971E+00 0.28013060E+02</pdfrwt>
<pdfrwt beam="2">  1        2 0.34487296E+00 0.11616602E+03</pdfrwt>
<totfact> 0.85235901E+00</totfact>
</mgrwt>
</event>
<event>
13    1  0.1589573E-008  0.9605015E+02  0.7546771E-02  0.1325319E+00
          2   -1    0    0  502    0  0.00000000000E+00  0.00000000000E+00  0.31231455260E+04  0.31231455260E+04  0.00000000000E+00 0. -1.
          2   -1    0    0  503    0 -0.00000000000E+00 -0.00000000000E+00 -0.50181685483E+04  0.50181685483E+04  0.00000000000E+00 0. -1.
         24    2    1    2    0    0  0.93487787794E+01  0.73482263205E+02 -0.21642984122E+04  0.21670033582E+04  0.78923347067E+02 0.  0.
         25    2    1    2    0    0 -0.59864056059E+01 -0.42563614177E+02 -0.16074374350E+03  0.20811390678E+03  0.12500139526E+03 0.  0.
         24    2    1    2    0    0  0.24222730020E+02 -0.56126268656E+02 -0.60997543094E+03  0.61825367363E+03  0.80191520269E+02 0.  0.
        -11    1    3    3    0    0  0.10508903252E+02  0.77459595709E+02 -0.11316240521E+04  0.11343206872E+04  0.00000000000E+00 0.  1.
         12    1    3    3    0    0 -0.11601244722E+01 -0.39773325031E+01 -0.10326743601E+04  0.10326826711E+04  0.00000000000E+00 0. -1.
        -13    1    5    5    0    0  0.38299339740E+02 -0.95062350148E+01 -0.42997023993E+03  0.43177727494E+03  0.00000000000E+00 0.  1.
         14    1    5    5    0    0 -0.14076609720E+02 -0.46620033641E+02 -0.18000519101E+03  0.18647639869E+03  0.00000000000E+00 0. -1.
          5    1    4    4  501    0  0.18104984626E+02 -0.46781324805E+02 -0.52690126345E+01  0.50657036164E+02  0.47000000000E+01 0. -1.
         -5    1    4    4    0  501 -0.24091390231E+02  0.42177106280E+01 -0.15547473086E+03  0.15745687061E+03  0.47000000000E+01 0. -1.
          1    1    1    2  502    0 -0.20889694667E+02  0.93746949040E+02  0.30926458793E+04  0.30941369401E+04  0.00000000000E+00 0. -1.
          1    1    1    2  503    0 -0.66954085264E+01 -0.68539329412E+02 -0.20526513149E+04  0.20538061955E+04  0.00000000000E+00 0. -1.
<mgrwt>
<rscale>  0 0.81329879E+02</rscale>
<asrwt>0</asrwt>
<pdfrwt beam="1">  1        2 0.45928612E+00 0.96050148E+02</pdfrwt>
<pdfrwt beam="2">  1        2 0.73796595E+00 0.68865580E+02</pdfrwt>
<totfact> 0.48149410E-02</totfact>
</mgrwt>
</event>
<event>
13    1  0.1589573E-008  0.2103932E+03  0.7546771E-02  0.1181939E+00
          2   -1    0    0  503    0  0.00000000000E+00  0.00000000000E+00  0.18227237915E+04  0.18227237915E+04  0.00000000000E+00 0. -1.
         -3   -1    0    0    0  501 -0.00000000000E+00 -0.00000000000E+00 -0.99895907243E+03  0.99895907243E+03  0.00000000000E+00 0.  1.
         24    2    1    2    0    0  0.29563689033E+03 -0.29263940785E+03 -0.63899690686E+03  0.76664534317E+03  0.79931478531E+02 0.  0.
         25    2    1    2    0    0 -0.33592304801E+03  0.14050850505E+03  0.31990232282E+03  0.50054948439E+03  0.12500142402E+03 0.  0.
         24    2    1    2    0    0  0.23094235221E+03  0.53253634592E+02  0.71367872580E+02  0.25984868325E+03  0.79105279922E+02 0.  0.
        -13    1    3    3    0    0  0.19774985883E+03 -0.16356168404E+03 -0.33299461829E+03  0.42040795302E+03  0.00000000000E+00 0.  1.
         14    1    3    3    0    0  0.97887031503E+02 -0.12907772382E+03 -0.30600228857E+03  0.34623739014E+03  0.00000000000E+00 0. -1.
        -13    1    5    5    0    0  0.10093355159E+03  0.62756063391E+02  0.43385371757E+02  0.12652349905E+03  0.00000000000E+00 0.  1.
         14    1    5    5    0    0  0.13000880062E+03 -0.95024287982E+01  0.27982500823E+02  0.13332518421E+03  0.00000000000E+00 0. -1.
          5    1    4    4  502    0 -0.76353506297E+02  0.75210864395E+02  0.14656961727E+03  0.18163500420E+03  0.47000000000E+01 0.  1.
         -5    1    4    4    0  502 -0.25956954171E+03  0.65297640655E+02  0.17333270555E+03  0.31891448019E+03  0.47000000000E+01 0.  1.
          1    1    1    2  503    0 -0.20848228723E+03 -0.31093731983E+02  0.11310791755E+04  0.11505528173E+04  0.00000000000E+00 0. -1.
         -4    1    1    2    0  501  0.17826092694E+02  0.12997100019E+03 -0.59587744883E+02  0.14408653585E+03  0.00000000000E+00 0.  1.
<mgrwt>
<rscale>  0 0.16613555E+03</rscale>
<asrwt>0</asrwt>
<pdfrwt beam="1">  1        2 0.26804762E+00 0.21039324E+03</pdfrwt>
<pdfrwt beam="2">  1       -3 0.14690575E+00 0.13118777E+03</pdfrwt>
<totfact> 0.23356053E+00</totfact>
</mgrwt>
</event>
<event>
13    1  0.1589573E-008  0.3161306E+02  0.7546771E-02  0.1587623E+00
          2   -1    0    0  502    0  0.00000000000E+00  0.00000000000E+00  0.14647493597E+04  0.14647493597E+04  0.00000000000E+00 0. -1.
          2   -1    0    0  503    0 -0.00000000000E+00 -0.00000000000E+00 -0.49218068198E+03  0.49218068198E+03  0.00000000000E+00 0. -1.
         24    2    1    2    0    0  0.18065441773E+02 -0.25764731127E+02 -0.23016268877E+03  0.24574091571E+03  0.80147069804E+02 0.  0.
         25    2    1    2    0    0 -0.33723953393E+02 -0.18946239370E+02  0.46136329355E+03  0.47955930922E+03  0.12499910963E+03 0.  0.
         24    2    1    2    0    0  0.23784709583E+02 -0.28959107267E+01  0.18616684078E+03  0.20468761749E+03  0.81638406658E+02 0.  0.
        -13    1    3    3    0    0  0.14635248229E+02  0.28079438688E+02 -0.72878055352E+02  0.79459777999E+02  0.00000000000E+00 0.  1.
         14    1    3    3    0    0  0.34301935431E+01 -0.53844169814E+02 -0.15728463341E+03  0.16628113771E+03  0.00000000000E+00 0. -1.
        -13    1    5    5    0    0 -0.55621531045E-01  0.34085902872E+02  0.42764971246E+02  0.54687243796E+02  0.00000000000E+00 0.  1.
         14    1    5    5    0    0  0.23840331114E+02 -0.36981813598E+02  0.14340186953E+03  0.15000037370E+03  0.00000000000E+00 0. -1.
          5    1    4    4  501    0  0.22776967852E+02 -0.37092297996E+02  0.35484223870E+03  0.35753284213E+03  0.47000000000E+01 0. -1.
         -5    1    4    4    0  501 -0.56500921245E+02  0.18146058626E+02  0.10652105485E+03  0.12202646709E+03  0.47000000000E+01 0. -1.
          1    1    1    2  502    0  0.14910216231E+02  0.27866843028E+02  0.78977886743E+03  0.79041099115E+03  0.00000000000E+00 0. -1.
          1    1    1    2  503    0 -0.23036414194E+02  0.19740038196E+02 -0.23457763521E+03  0.23653120815E+03  0.00000000000E+00 0. -1.
<mgrwt>
<rscale>  0 0.30968560E+02</rscale>
<asrwt>0</asrwt>
<pdfrwt beam="1">  1        2 0.21540432E+00 0.31613064E+02</pdfrwt>
<pdfrwt beam="2">  1        2 0.72379512E-01 0.30337196E+02</pdfrwt>
<totfact> 0.19381671E+02</totfact>
</mgrwt>
</event>
<event>
13    1  0.1589573E-008  0.6482113E+02  0.7546771E-02  0.1443124E+00
          2   -1    0    0  503    0  0.00000000000E+00  0.00000000000E+00  0.75325573286E+03  0.75325573286E+03  0.00000000000E+00 0. -1.
          2   -1    0    0  502    0 -0.00000000000E+00 -0.00000000000E+00 -0.32661410045E+04  0.32661410045E+04  0.00000000000E+00 0. -1.
         24    2    1    2    0    0 -0.24161853204E+00  0.39491560299E+02 -0.11841348232E+04  0.11874038674E+04  0.78695762379E+02 0.  0.
         25    2    1    2    0    0 -0.12003227397E+03  0.15886249570E+03 -0.38037001087E+02  0.23815920847E+03  0.12501182260E+03 0.  0.
         24    2    1    2    0    0  0.18675699556E+02 -0.19765613278E+03  0.21082351544E+03  0.30133629599E+03  0.83308343144E+02 0.  0.
        -11    1    5    5    0    0 -0.15873893984E+02 -0.11920320654E+02  0.23411430324E+01  0.19988884546E+02  0.00000000000E+00 0.  1.
         12    1    5    5    0    0  0.34549593540E+02 -0.18573581213E+03  0.20848237241E+03  0.28134741144E+03  0.00000000000E+00 0. -1.
        -13    1    3    3    0    0  0.19095377745E+02  0.96222066430E+01 -0.83511317575E+02  0.86205339017E+02  0.00000000000E+00 0.  1.
         14    1    3    3    0    0 -0.19336996277E+02  0.29869353656E+02 -0.11006235057E+04  0.11011985284E+04  0.00000000000E+00 0. -1.
          5    1    4    4  501    0 -0.78829350952E+01  0.39919416189E+02 -0.60517326968E+02  0.73076243184E+02  0.47000000000E+01 0.  1.
         -5    1    4    4    0  501 -0.11214933888E+03  0.11894307951E+03  0.22480325881E+02  0.16508296528E+03  0.47000000000E+01 0.  1.
          1    1    1    2  502    0  0.37803803971E+02  0.10400301736E+02 -0.18941624180E+04  0.18945681723E+04  0.00000000000E+00 0. -1.
          1    1    1    2  503    0  0.63794388977E+02 -0.11098224956E+02  0.39262545525E+03  0.39792919316E+03  0.00000000000E+00 0. -1.
<mgrwt>
<rscale>  0 0.50413577E+02</rscale>
<asrwt>0</asrwt>
<pdfrwt beam="1">  1        2 0.11077290E+00 0.64821127E+02</pdfrwt>
<pdfrwt beam="2">  1        2 0.48031484E+00 0.39208339E+02</pdfrwt>
<totfact> 0.16170682E+01</totfact>
</mgrwt>
</event>
<event>
13    1  0.1589573E-008  0.1112574E+03  0.7546771E-02  0.1318248E+00
          2   -1    0    0  502    0  0.00000000000E+00  0.00000000000E+00  0.45787022828E+04  0.45787022828E+04  0.00000000000E+00 0. -1.
          2   -1    0    0  503    0 -0.00000000000E+00 -0.00000000000E+00 -0.99915770534E+03  0.99915770534E+03  0.00000000000E+00 0. -1.
         24    2    1    2    0    0  0.75284752177E+02 -0.73565097656E+02 -0.34616214936E+03  0.37062891335E+03  0.80361310702E+02 0.  0.
         25    2    1    2    0    0 -0.13480064523E+03 -0.12121886576E+03  0.67376937989E+03  0.70884126371E+03  0.12500212997E+03 0.  0.
         24    2    1    2    0    0  0.16748086340E+02  0.52780529442E+02 -0.43024427656E+02  0.10691155052E+03  0.80701273685E+02 0.  0.
        -11    1    5    5    0    0  0.34722560500E+02  0.75478438683E+01 -0.46025282773E+02  0.58145961245E+02  0.00000000000E+00 0.  1.
         12    1    5    5    0    0 -0.17974474160E+02  0.45232685574E+02  0.30008551175E+01  0.48765589271E+02  0.00000000000E+00 0. -1.
        -13    1    3    3    0    0  0.89490710312E+02 -0.52995609417E+02 -0.30727841572E+03  0.32440275371E+03  0.00000000000E+00 0.  1.
         14    1    3    3    0    0 -0.14205958135E+02 -0.20569488240E+02 -0.38883733645E+02  0.46226159641E+02  0.00000000000E+00 0. -1.
          5    1    4    4  501    0 -0.15425862385E+03 -0.82455832372E+02  0.57063163654E+03  0.59685613170E+03  0.47000000000E+01 0. -1.
         -5    1    4    4    0  501  0.19457978623E+02 -0.38763033390E+02  0.10313774334E+03  0.11198513201E+03  0.47000000000E+01 0. -1.
          1    1    1    2  502    0 -0.12118222904E+02  0.11043226968E+03  0.38405859415E+04  0.38421924095E+04  0.00000000000E+00 0. -1.
          1    1    1    2  503    0  0.54886029613E+02  0.31571164299E+02 -0.54562416691E+03  0.54928585106E+03  0.00000000000E+00 0. -1.
<mgrwt>
<rscale>  0 0.83932337E+02</rscale>
<asrwt>0</asrwt>
<pdfrwt beam="1">  1        2 0.67333856E+00 0.11125742E+03</pdfrwt>
<pdfrwt beam="2">  1        2 0.14693496E+00 0.63318360E+02</pdfrwt>
<totfact> 0.12615817E+00</totfact>
</mgrwt>
</event>
<event>
13    1  0.1589573E-008  0.1385257E+03  0.7546771E-02  0.1302960E+00
          2   -1    0    0  503    0  0.00000000000E+00  0.00000000000E+00  0.61551812600E+03  0.61551812600E+03  0.00000000000E+00 0. -1.
         -1   -1    0    0    0  501 -0.00000000000E+00 -0.00000000000E+00 -0.23616734508E+04  0.23616734508E+04  0.00000000000E+00 0.  1.
         24    2    1    2    0    0 -0.42656779828E+02  0.11900517184E+02 -0.14184780020E+04  0.14214971074E+04  0.81320115192E+02 0.  0.
         25    2    1    2    0    0  0.23092540734E+03  0.40469658803E+02  0.70747252432E+02  0.27494385270E+03  0.12499844548E+03 0.  0.
         24    2    1    2    0    0  0.53247116978E+02 -0.23944165173E+01 -0.28874128334E+02  0.10041152167E+03  0.80048545894E+02 0.  0.
        -11    1    3    3    0    0 -0.15106018575E+02  0.33455964557E+02 -0.11692559629E+04  0.11698320393E+04  0.00000000000E+00 0.  1.
         12    1    3    3    0    0 -0.27550761253E+02 -0.21555447373E+02 -0.24922203904E+03  0.25166506810E+03  0.00000000000E+00 0. -1.
        -11    1    5    5    0    0 -0.16422310151E+02  0.53776434888E+01 -0.24754019970E+02  0.30188952033E+02  0.00000000000E+00 0.  1.
         12    1    5    5    0    0  0.69669427128E+02 -0.77720600061E+01 -0.41201083634E+01  0.70222569634E+02  0.00000000000E+00 0. -1.
          5    1    4    4  502    0  0.14808892775E+03  0.14312230360E+02 -0.18872018139E+02  0.15004470510E+03  0.47000000000E+01 0.  1.
         -5    1    4    4    0  502  0.82836479597E+02  0.26157428443E+02  0.89619270571E+02  0.12489914760E+03  0.47000000000E+01 0.  1.
          1    1    1    2  503    0 -0.19489310011E+03 -0.85169465185E+02  0.37627646504E+03  0.43222810692E+03  0.00000000000E+00 0. -1.
         -2    1    1    2    0  501 -0.46622644385E+02  0.35193705716E+02 -0.74582691201E+03  0.74811098813E+03  0.00000000000E+00 0.  1.
<mgrwt>
<rscale>  0 0.89955122E+02</rscale>
<asrwt>0</asrwt>
<pdfrwt beam="1">  1        2 0.90517370E-01 0.13852566E+03</pdfrwt>
<pdfrwt beam="2">  1       -1 0.34730492E+00 0.58414621E+02</pdfrwt>
<totfact> 0.14623906E+00</totfact>
</mgrwt>
</event>
<event>
13    1  0.1589573E-008  0.1004567E+03  0.7546771E-02  0.1372532E+00
         -3   -1    0    0    0  501 -0.00000000000E+00  0.00000000000E+00  0.28468126337E+03  0.28468126337E+03  0.00000000000E+00 0.  1.
          2   -1    0    0  503    0  0.00000000000E+00 -0.00000000000E+00 -0.21119321631E+04  0.21119321631E+04  0.00000000000E+00 0. -1.
         24    2    1    2    0    0 -0.25828668325E+02 -0.53053596871E+02  0.16643534165E+02  0.10186485627E+03  0.81348862718E+02 0.  0.
         25    2    1    2    0    0  0.13810814864E+03  0.43434915414E+02 -0.49190811149E+03  0.52778663515E+03  0.12499875798E+03 0.  0.
         24    2    1    2    0    0  0.31534454672E+02  0.11171208186E+02 -0.83602595382E+03  0.84057861821E+03  0.80708117369E+02 0.  0.
        -13    1    5    5    0    0 -0.23552539052E+02  0.87928924143E+01 -0.44188316308E+03  0.44259774837E+03  0.00000000000E+00 0.  1.
         14    1    5    5    0    0  0.55086993723E+02  0.23783157714E+01 -0.39414279074E+03  0.39798086984E+03  0.00000000000E+00 0. -1.
        -13    1    3    3    0    0 -0.22140457895E+02  0.12534102558E+02 -0.14370796088E+02  0.29220256380E+02  0.00000000000E+00 0.  1.
         14    1    3    3    0    0 -0.36882104305E+01 -0.65587699429E+02  0.31014330252E+02  0.72644599893E+02  0.00000000000E+00 0. -1.
          5    1    4    4  502    0  0.86215938543E+01  0.56081613281E+02 -0.10329807419E+03  0.11794940169E+03  0.47000000000E+01 0. -1.
         -5    1    4    4    0  502  0.12948655479E+03 -0.12646697867E+02 -0.38861003730E+03  0.40983723346E+03  0.47000000000E+01 0. -1.
          1    1    1    2  503    0 -0.43687316777E+02 -0.50613820792E+01 -0.70822052620E+03  0.70958474685E+03  0.00000000000E+00 0. -1.
         -4    1    1    2    0  501 -0.10012661821E+03  0.35088553501E+01  0.19226015761E+03  0.21679856998E+03  0.00000000000E+00 0.  1.
<mgrwt>
<rscale>  0 0.66468320E+02</rscale>
<asrwt>0</asrwt>
<pdfrwt beam="2">  1        2 0.31057825E+00 0.43979532E+02</pdfrwt>
<pdfrwt beam="1">  1       -3 0.41864892E-01 0.10045668E+03</pdfrwt>
<totfact> 0.30128433E+01</totfact>
</mgrwt>
</event>
<event>
13    1  0.1589573E-008  0.1296193E+03  0.7546771E-02  0.1275815E+00
          2   -1    0    0  503    0  0.00000000000E+00  0.00000000000E+00  0.40881422515E+04  0.40881422515E+04  0.00000000000E+00 0. -1.
          2   -1    0    0  502    0 -0.00000000000E+00 -0.00000000000E+00 -0.53046854815E+03  0.53046854815E+03  0.00000000000E+00 0. -1.
         24    2    1    2    0    0 -0.14702522032E+02 -0.12638096795E+03  0.13300240702E+03  0.20134139426E+03  0.81611295527E+02 0.  0.
         25    2    1    2    0    0 -0.66787506946E+02  0.14073589122E+03  0.19970872026E+04  0.20070491132E+04  0.12498674329E+03 0.  0.
         24    2    1    2    0    0 -0.83247067817E+01  0.17394359156E+03  0.94377896930E+03  0.96327271495E+03  0.82764163008E+02 0.  0.
        -11    1    3    3    0    0 -0.13276535923E+02 -0.51334141012E+02  0.11117458097E+03  0.12317161967E+03  0.00000000000E+00 0.  1.
         12    1    3    3    0    0 -0.14259861082E+01 -0.75046826937E+02  0.21827826053E+02  0.78169774593E+02  0.00000000000E+00 0. -1.
        -13    1    5    5    0    0  0.14259917613E+02  0.15032929666E+03  0.86340780738E+03  0.87651313996E+03  0.00000000000E+00 0.  1.
         14    1    5    5    0    0 -0.22584624395E+02  0.23614294904E+02  0.80371161927E+02  0.86759574990E+02  0.00000000000E+00 0. -1.
          5    1    4    4  501    0 -0.89824916730E+02  0.12353003875E+03  0.18868249206E+04  0.18930025243E+04  0.47000000000E+01 0. -1.
         -5    1    4    4    0  501  0.23037409784E+02  0.17205852468E+02  0.11026228202E+03  0.11404658892E+03  0.47000000000E+01 0. -1.
          1    1    1    2  502    0  0.65725927848E+02 -0.11146605018E+03 -0.47115353679E+03  0.48860027954E+03  0.00000000000E+00 0. -1.
          1    1    1    2  503    0  0.24088807911E+02 -0.76832464652E+02  0.95495866121E+03  0.95834729764E+03  0.00000000000E+00 0. -1.
<mgrwt>
<rscale>  0 0.10216148E+03</rscale>
<asrwt>0</asrwt>
<pdfrwt beam="1">  1        2 0.60119737E+00 0.80520173E+02</pdfrwt>
<pdfrwt beam="2">  1        2 0.78010083E-01 0.12961930E+03</pdfrwt>
<totfact> 0.64968670E+00</totfact>
</mgrwt>
</event>
<event>
13    1  0.1589573E-008  0.7299654E+02  0.7546771E-02  0.1423021E+00
         -3   -1    0    0    0  501 -0.00000000000E+00  0.00000000000E+00  0.11617053107E+04  0.11617053107E+04  0.00000000000E+00 0.  1.
          2   -1    0    0  503    0  0.00000000000E+00 -0.00000000000E+00 -0.18488108686E+04  0.18488108686E+04  0.00000000000E+00 0. -1.
         24    2    1    2    0    0 -0.73420860841E+02  0.53486651761E+02 -0.14329714081E+03  0.18697179020E+03  0.78568028114E+02 0.  0.
         25    2    1    2    0    0  0.21460074237E+03 -0.24978864040E+02 -0.24891640754E+03  0.35250779079E+03  0.12499976940E+03 0.  0.
         24    2    1    2    0    0 -0.60018243989E+02 -0.94743869986E+02 -0.79935079505E+02  0.15975755040E+03  0.80958430459E+02 0.  0.
        -11    1    5    5    0    0  0.66957122580E+01 -0.64715649072E+02 -0.40661413206E+02  0.76722215305E+02  0.00000000000E+00 0.  1.
         12    1    5    5    0    0 -0.66713956247E+02 -0.30028220913E+02 -0.39273666300E+02  0.83035335093E+02  0.00000000000E+00 0. -1.
        -11    1    3    3    0    0 -0.16067324021E+01  0.48011327074E+02 -0.59732108708E+02  0.76652422840E+02  0.00000000000E+00 0.  1.
         12    1    3    3    0    0 -0.71814128439E+02  0.54753246866E+01 -0.83565032104E+02  0.11031936736E+03  0.00000000000E+00 0. -1.
          5    1    4    4  502    0  0.76947635859E+02 -0.60281297293E+02 -0.55665315327E+02  0.11258548218E+03  0.47000000000E+01 0.  1.
         -5    1    4    4    0  502  0.13765310651E+03  0.35302433253E+02 -0.19325109221E+03  0.23992230861E+03  0.47000000000E+01 0.  1.
          1    1    1    2  503    0 -0.41122243870E+02  0.60003122378E+02 -0.12616783410E+04  0.12637735754E+04  0.00000000000E+00 0. -1.
         -4    1    1    2    0  501 -0.40039393672E+02  0.62329598866E+01  0.10467214110E+04  0.10475054726E+04  0.00000000000E+00 0.  1.
<mgrwt>
<rscale>  0 0.54386938E+02</rscale>
<asrwt>0</asrwt>
<pdfrwt beam="2">  1        2 0.27188395E+00 0.72996537E+02</pdfrwt>
<pdfrwt beam="1">  1       -3 0.17083902E+00 0.40521634E+02</pdfrwt>
<totfact> 0.17365541E+00</totfact>
</mgrwt>
</event>
<event>
13    1  0.1589573E-008  0.8677308E+02  0.7546771E-02  0.1323286E+00
          2   -1    0    0  502    0  0.00000000000E+00  0.00000000000E+00  0.25683295944E+04  0.25683295944E+04  0.00000000000E+00 0. -1.
          4   -1    0    0  503    0 -0.00000000000E+00 -0.00000000000E+00 -0.32623447394E+04  0.32623447394E+04  0.00000000000E+00 0. -1.
         24    2    1    2    0    0 -0.13951919399E+03  0.10860852204E+02 -0.16490182657E+04  0.16569365468E+04  0.81202929863E+02 0.  0.
         25    2    1    2    0    0  0.27381646044E+03 -0.15670944181E+03  0.87668391885E+02  0.35050176660E+03  0.12502974964E+03 0.  0.
         24    2    1    2    0    0 -0.11410171275E+03  0.10666498915E+03  0.45818115282E+03  0.49036699163E+03  0.78314729847E+02 0.  0.
        -11    1    5    5    0    0 -0.13706638727E+02  0.16501638806E+02  0.17904727265E+03  0.18032776235E+03  0.00000000000E+00 0.  1.
         12    1    5    5    0    0 -0.10039507402E+03  0.90163350341E+02  0.27913388017E+03  0.31003922928E+03  0.00000000000E+00 0. -1.
        -13    1    3    3    0    0 -0.15704634433E+02  0.30179707697E+02 -0.24752630385E+03  0.24985339981E+03  0.00000000000E+00 0.  1.
         14    1    3    3    0    0 -0.12381455955E+03 -0.19318855492E+02 -0.14014919618E+04  0.14070831470E+04  0.00000000000E+00 0. -1.
          5    1    4    4  501    0  0.23462844645E+03 -0.16442544808E+03  0.10701186732E+03  0.30587557210E+03  0.47000000000E+01 0.  1.
         -5    1    4    4    0  501  0.39188013998E+02  0.77160062752E+01 -0.19343475439E+02  0.44626194505E+02  0.47000000000E+01 0.  1.
          1    1    1    2  502    0  0.66699801921E+02  0.39691529418E+02  0.18689137376E+04  0.18705247498E+04  0.00000000000E+00 0. -1.
          3    1    1    2  503    0 -0.86895355630E+02 -0.50792896203E+00 -0.14597601617E+04  0.14623442790E+04  0.00000000000E+00 0. -1.
<mgrwt>
<rscale>  0 0.82067050E+02</rscale>
<asrwt>0</asrwt>
<pdfrwt beam="1">  1        2 0.37769553E+00 0.77616242E+02</pdfrwt>
<pdfrwt beam="2">  1        4 0.47975658E+00 0.86773084E+02</pdfrwt>
<totfact> 0.72479991E-03</totfact>
</mgrwt>
</event>
<event>
13    1  0.1589573E-008  0.1965031E+03  0.7546771E-02  0.1353113E+00
          2   -1    0    0  503    0  0.00000000000E+00  0.00000000000E+00  0.75767649797E+03  0.75767649797E+03  0.00000000000E+00 0. -1.
          2   -1    0    0  502    0 -0.00000000000E+00 -0.00000000000E+00 -0.40802107438E+04  0.40802107438E+04  0.00000000000E+00 0. -1.
         24    2    1    2    0    0  0.10502399058E+03 -0.25717959431E+02 -0.66737104284E+03  0.68083620740E+03  0.80388932409E+02 0.  0.
         25    2    1    2    0    0 -0.15522050926E+03 -0.99983103670E+02  0.33387204449E+03  0.40147342698E+03  0.12498137047E+03 0.  0.
         24    2    1    2    0    0 -0.16320643323E+03  0.99038470590E+02 -0.10001303932E+03  0.23098055702E+03  0.83093027289E+02 0.  0.
        -11    1    5    5    0    0 -0.16777517091E+03  0.10089476713E+03 -0.10647103739E+03  0.22285498381E+03  0.00000000000E+00 0.  1.
         12    1    5    5    0    0  0.45687376796E+01 -0.18562965381E+01  0.64579980741E+01  0.81255732074E+01  0.00000000000E+00 0. -1.
        -13    1    3    3    0    0  0.44406791830E+02 -0.43613390462E+02 -0.20725405871E+03  0.21639855785E+03  0.00000000000E+00 0.  1.
         14    1    3    3    0    0  0.60617198752E+02  0.17895431030E+02 -0.46011698412E+03  0.46443764954E+03  0.00000000000E+00 0. -1.
          5    1    4    4  501    0 -0.14749880261E+03 -0.12573583378E+03  0.30753299306E+03  0.36354370919E+03  0.47000000000E+01 0. -1.
         -5    1    4    4    0  501 -0.77217066490E+01  0.25752730111E+02  0.26339051425E+02  0.37929717791E+02  0.47000000000E+01 0. -1.
          1    1    1    2  502    0  0.19205235660E+03  0.11049500886E+02 -0.32033687353E+04  0.32091396750E+04  0.00000000000E+00 0. -1.
          1    1    1    2  503    0  0.21350595298E+02  0.15613091625E+02  0.31434652716E+03  0.31545737539E+03  0.00000000000E+00 0. -1.
<mgrwt>
<rscale>  0 0.72094106E+02</rscale>
<asrwt>0</asrwt>
<pdfrwt beam="1">  1        2 0.11142301E+00 0.26450266E+02</pdfrwt>
<pdfrwt beam="2">  1        2 0.60003100E+00 0.19650313E+03</pdfrwt>
<totfact> 0.38360081E+00</totfact>
</mgrwt>
</event>
<event>
13    1  0.1589573E-008  0.7613917E+02  0.7546771E-02  0.1499732E+00
          2   -1    0    0  502    0  0.00000000000E+00  0.00000000000E+00  0.43683220687E+04  0.43683220687E+04  0.00000000000E+00 0. -1.
          2   -1    0    0  503    0 -0.00000000000E+00 -0.00000000000E+00 -0.17188382035E+04  0.17188382035E+04  0.00000000000E+00 0. -1.
         24    2    1    2    0    0  0.11954688239E+04  0.25894785132E+03  0.11084143604E+04  0.16515984464E+04  0.54729656933E+02 0.  0.
         25    2    1    2    0    0 -0.54124848407E+03  0.38693839354E+03  0.89638102985E+03  0.11232963890E+04  0.12499833988E+03 0.  0.
         24    2    1    2    0    0 -0.68352207923E+03 -0.69669107122E+03  0.10527701161E+03  0.98493694864E+03  0.80228810903E+02 0.  0.
        -13    1    3    3    0    0  0.32399113734E+03  0.51932814868E+02  0.31956544154E+03  0.45802766921E+03  0.00000000000E+00 0.  1.
         14    1    3    3    0    0  0.87147768658E+03  0.20701503645E+03  0.78884891882E+03  0.11935707772E+04  0.00000000000E+00 0. -1.
        -13    1    5    5    0    0 -0.56700213015E+03 -0.56715564391E+03  0.56255650108E+02  0.80394131513E+03  0.00000000000E+00 0.  1.
         14    1    5    5    0    0 -0.11651994908E+03 -0.12953542732E+03  0.49021361502E+02  0.18099563350E+03  0.00000000000E+00 0. -1.
          5    1    4    4  501    0 -0.42267839012E+03  0.30372630185E+03  0.60670709694E+03  0.79938869105E+03  0.47000000000E+01 0.  1.
         -5    1    4    4    0  501 -0.11857009395E+03  0.83212091686E+02  0.28967393291E+03  0.32390769795E+03  0.47000000000E+01 0.  1.
          1    1    1    2  502    0 -0.21454822406E+02 -0.59624239900E+01  0.14316615863E+04  0.14318347522E+04  0.00000000000E+00 0. -1.
          1    1    1    2  503    0  0.50756561776E+02  0.56767250354E+02 -0.89225012294E+03  0.89549373597E+03  0.00000000000E+00 0. -1.
<mgrwt>
<rscale>  0 0.41175967E+02</rscale>
<asrwt>0</asrwt>
<pdfrwt beam="1">  1        2 0.64240030E+00 0.22267912E+02</pdfrwt>
<pdfrwt beam="2">  1        2 0.25277032E+00 0.76139167E+02</pdfrwt>
<totfact> 0.11866351E+00</totfact>
</mgrwt>
</event>
<event>
13    1  0.1589573E-008  0.1328767E+03  0.7546771E-02  0.1278380E+00
         -3   -1    0    0    0  501 -0.00000000000E+00  0.00000000000E+00  0.18344866570E+04  0.18344866570E+04  0.00000000000E+00 0.  1.
          2   -1    0    0  503    0  0.00000000000E+00 -0.00000000000E+00 -0.64209794762E+03  0.64209794762E+03  0.00000000000E+00 0. -1.
         24    2    1    2    0    0  0.76600091294E+02 -0.36064738283E+02  0.32468867376E+03  0.34283650457E+03  0.70327054997E+02 0.  0.
         25    2    1    2    0    0 -0.22796183351E+03  0.11392621020E+03  0.11900078705E+03  0.30778463431E+03  0.12499765954E+03 0.  0.
         24    2    1    2    0    0  0.55217349642E+02 -0.14586994820E+03  0.11151738586E+03  0.20622050534E+03  0.75919509916E+02 0.  0.
        -13    1    3    3    0    0  0.73619535688E+02 -0.77741766950E+01  0.16801145605E+03  0.18359772118E+03  0.00000000000E+00 0.  1.
         14    1    3    3    0    0  0.29805556063E+01 -0.28290561588E+02  0.15667721771E+03  0.15923878339E+03  0.00000000000E+00 0. -1.
        -13    1    5    5    0    0  0.38695567872E+02 -0.13874232018E+03  0.68307053920E+02  0.15941339968E+03  0.00000000000E+00 0.  1.
         14    1    5    5    0    0  0.16521781769E+02 -0.71276280165E+01  0.43210331945E+02  0.46807105665E+02  0.00000000000E+00 0. -1.
          5    1    4    4  502    0  0.30118978786E+01  0.41262741424E+02  0.19069711590E+02  0.45797699273E+02  0.47000000000E+01 0.  1.
         -5    1    4    4    0  502 -0.23097373139E+03  0.72663468779E+02  0.99931075462E+02  0.26198693503E+03  0.47000000000E+01 0.  1.
          1    1    1    2  503    0  0.38160756088E+02 -0.66468365095E+02 -0.48349807959E+03  0.48953516710E+03  0.00000000000E+00 0. -1.
         -4    1    1    2    0  501  0.57983636485E+02  0.13447684137E+03  0.11206799423E+04  0.11302077933E+04  0.00000000000E+00 0.  1.
<mgrwt>
<rscale>  0 0.10091674E+03</rscale>
<asrwt>0</asrwt>
<pdfrwt beam="2">  1        2 0.94426169E-01 0.76643896E+02</pdfrwt>
<pdfrwt beam="1">  1       -3 0.26977745E+00 0.13287671E+03</pdfrwt>
<totfact> 0.20730660E+00</totfact>
</mgrwt>
</event>
<event>
13    1  0.1589573E-008  0.1325291E+03  0.7546771E-02  0.1326272E+00
         -3   -1    0    0    0  501 -0.00000000000E+00  0.00000000000E+00  0.59822358357E+03  0.59822358357E+03  0.00000000000E+00 0.  1.
          2   -1    0    0  503    0  0.00000000000E+00 -0.00000000000E+00 -0.14207534626E+04  0.14207534626E+04  0.00000000000E+00 0. -1.
         24    2    1    2    0    0  0.13879375705E+03 -0.27581450578E+02  0.79211790477E+02  0.18519107314E+03  0.89424730397E+02 0.  0.
         25    2    1    2    0    0 -0.66353623481E+02 -0.19871964478E+03 -0.52985285196E+03  0.58331938962E+03  0.12500066003E+03 0.  0.
         24    2    1    2    0    0 -0.66972203652E+02  0.47122522498E+02 -0.20988574438E+02  0.11518617471E+03  0.78240184040E+02 0.  0.
        -11    1    5    5    0    0 -0.26007981222E+02  0.58977592442E+02 -0.30782799912E+02  0.71430751556E+02  0.00000000000E+00 0.  1.
         12    1    5    5    0    0 -0.40964222430E+02 -0.11855069944E+02  0.97942254734E+01  0.43755423153E+02  0.00000000000E+00 0. -1.
        -11    1    3    3    0    0  0.17632356468E+02 -0.17655373489E+02 -0.16970308501E+02  0.30176208812E+02  0.00000000000E+00 0.  1.
         12    1    3    3    0    0  0.12116140059E+03 -0.99260770891E+01  0.96182098978E+02  0.15501486433E+03  0.00000000000E+00 0. -1.
          5    1    4    4  502    0 -0.49630004097E+02 -0.18302229688E+03 -0.31875715903E+03  0.37092925862E+03  0.47000000000E+01 0. -1.
         -5    1    4    4    0  502 -0.16723619384E+02 -0.15697347901E+02 -0.21109569292E+03  0.21239013100E+03  0.47000000000E+01 0. -1.
          1    1    1    2  503    0  0.68350380354E+01  0.49016538617E+02 -0.73133451815E+03  0.73300717339E+03  0.00000000000E+00 0. -1.
         -4    1    1    2    0  501 -0.12302967956E+02  0.13016203424E+03  0.38043427507E+03  0.40227323528E+03  0.00000000000E+00 0.  1.
<mgrwt>
<rscale>  0 0.80987482E+02</rscale>
<asrwt>0</asrwt>
<pdfrwt beam="2">  1        2 0.20893433E+00 0.49490795E+02</pdfrwt>
<pdfrwt beam="1">  1       -3 0.87974058E-01 0.13252914E+03</pdfrwt>
<totfact> 0.13711948E+01</totfact>
</mgrwt>
</event>
<event>
13    1  0.1589573E-008  0.7563771E+02  0.7546771E-02  0.1372580E+00
          2   -1    0    0  503    0  0.00000000000E+00  0.00000000000E+00  0.14798791907E+04  0.14798791907E+04  0.00000000000E+00 0. -1.
          2   -1    0    0  502    0 -0.00000000000E+00 -0.00000000000E+00 -0.99634023894E+03  0.99634023894E+03  0.00000000000E+00 0. -1.
         24    2    1    2    0    0  0.29847771776E+02 -0.18758083047E+02 -0.63303966616E+02  0.10796982845E+03  0.80045840028E+02 0.  0.
         25    2    1    2    0    0 -0.16169613340E+03  0.20469586124E+03  0.39081733443E+03  0.48621873006E+03  0.12499771762E+03 0.  0.
         24    2    1    2    0    0  0.52077070303E+02 -0.92573978427E+02 -0.18584549528E+03  0.22676540977E+03  0.74846778283E+02 0.  0.
        -11    1    5    5    0    0  0.17644901377E+01 -0.38559726949E+02 -0.12586841890E+03  0.13165418658E+03  0.00000000000E+00 0.  1.
         12    1    5    5    0    0  0.50312580165E+02 -0.54014251477E+02 -0.59977076381E+02  0.95111223190E+02  0.00000000000E+00 0. -1.
        -13    1    3    3    0    0  0.14425683981E+02  0.21624057418E+02 -0.59069520401E+02  0.64536101974E+02  0.00000000000E+00 0.  1.
         14    1    3    3    0    0  0.15422087796E+02 -0.40382140465E+02 -0.42344462142E+01  0.43433726472E+02  0.00000000000E+00 0. -1.
          5    1    4    4  501    0 -0.13066324467E+03  0.18393518590E+03  0.38752318398E+03  0.44844324529E+03  0.47000000000E+01 0.  1.
         -5    1    4    4    0  501 -0.31032888723E+02  0.20760675340E+02  0.32941504521E+01  0.37775484778E+02  0.47000000000E+01 0.  1.
          1    1    1    2  502    0  0.13782730665E+02 -0.56737326769E+02 -0.65396864850E+03  0.65656993621E+03  0.00000000000E+00 0. -1.
          1    1    1    2  503    0  0.65988560651E+02 -0.36626472994E+02  0.99583972772E+03  0.99869552515E+03  0.00000000000E+00 0. -1.
<mgrwt>
<rscale>  0 0.66455166E+02</rscale>
<asrwt>0</asrwt>
<pdfrwt beam="1">  1        2 0.21762929E+00 0.75637713E+02</pdfrwt>
<pdfrwt beam="2">  1        2 0.14652062E+00 0.58387395E+02</pdfrwt>
<totfact> 0.78981333E+01</totfact>
</mgrwt>
</event>
<event>
13    1  0.1589573E-008  0.1272539E+03  0.7546771E-02  0.1271233E+00
          2   -1    0    0  502    0  0.00000000000E+00  0.00000000000E+00  0.13353780103E+04  0.13353780103E+04  0.00000000000E+00 0. -1.
          2   -1    0    0  503    0 -0.00000000000E+00 -0.00000000000E+00 -0.27928728436E+04  0.27928728436E+04  0.00000000000E+00 0. -1.
         24    2    1    2    0    0 -0.89867826613E+01  0.14934216746E+02 -0.11157223383E+04  0.11185633972E+04  0.77742807581E+02 0.  0.
         25    2    1    2    0    0  0.10984571110E+03  0.22366835747E+03  0.27102268637E+03  0.38880893603E+03  0.12500191132E+03 0.  0.
         24    2    1    2    0    0 -0.17858167796E+02 -0.84145622830E+02 -0.16095009448E+03  0.20350198828E+03  0.90048466513E+02 0.  0.
        -11    1    3    3    0    0  0.21997794089E+02 -0.22159738186E+02 -0.40876353321E+03  0.40995436700E+03  0.00000000000E+00 0.  1.
         12    1    3    3    0    0 -0.30984576751E+02  0.37093954932E+02 -0.70695880513E+03  0.70860903017E+03  0.00000000000E+00 0. -1.
        -11    1    5    5    0    0  0.32623674586E+02 -0.60414777914E+02 -0.84949160003E+02  0.10922732863E+03  0.00000000000E+00 0.  1.
         12    1    5    5    0    0 -0.50481842382E+02 -0.23730844916E+02 -0.76000934479E+02  0.94274659652E+02  0.00000000000E+00 0. -1.
          5    1    4    4  501    0 -0.30331789322E+01  0.78790221661E+02  0.14782586727E+03  0.16760571660E+03  0.47000000000E+01 0.  1.
         -5    1    4    4    0  501  0.11287889003E+03  0.14487813580E+03  0.12319681910E+03  0.22120321943E+03  0.47000000000E+01 0.  1.
          1    1    1    2  502    0 -0.11545873033E+03 -0.52894317138E+02  0.97666776646E+03  0.98489007165E+03  0.00000000000E+00 0. -1.
          1    1    1    2  503    0  0.32457969688E+02 -0.10156263424E+03 -0.14285128532E+04  0.14324864608E+04  0.00000000000E+00 0. -1.
<mgrwt>
<rscale>  0 0.10443712E+03</rscale>
<asrwt>0</asrwt>
<pdfrwt beam="1">  1        2 0.19637912E+00 0.12725393E+03</pdfrwt>
<pdfrwt beam="2">  1        2 0.41071659E+00 0.85711389E+02</pdfrwt>
<totfact> 0.11282267E+01</totfact>
</mgrwt>
</event>
<event>
13    1  0.1589573E-008  0.8228317E+02  0.7546771E-02  0.1346917E+00
          2   -1    0    0  502    0  0.00000000000E+00  0.00000000000E+00  0.15887502474E+04  0.15887502474E+04  0.00000000000E+00 0. -1.
          2   -1    0    0  503    0 -0.00000000000E+00 -0.00000000000E+00 -0.95759738126E+03  0.95759738126E+03  0.00000000000E+00 0. -1.
         24    2    1    2    0    0  0.38146412947E+02  0.81880099862E+02  0.26599126659E+02  0.12695044480E+03  0.85143422072E+02 0.  0.
         25    2    1    2    0    0 -0.10893744300E+03 -0.31545446181E+02 -0.88851842487E+02  0.19074448762E+03  0.12500531183E+03 0.  0.
         24    2    1    2    0    0  0.92159112297E+00 -0.36362293298E+02  0.47838236992E+03  0.48712005182E+03  0.84339713855E+02 0.  0.
        -11    1    3    3    0    0 -0.22753459525E+02  0.34898871905E+02  0.27695473132E+02  0.50026896891E+02  0.00000000000E+00 0.  1.
         12    1    3    3    0    0  0.60899872472E+02  0.46981227957E+02 -0.10963464725E+01  0.76923547910E+02  0.00000000000E+00 0. -1.
        -13    1    5    5    0    0 -0.14903190833E+01  0.18071140530E+02  0.30128842981E+03  0.30183357187E+03  0.00000000000E+00 0.  1.
         14    1    5    5    0    0  0.24119102062E+01 -0.54433433828E+02  0.17709394011E+03  0.18528647995E+03  0.00000000000E+00 0. -1.
          5    1    4    4  501    0  0.21357438804E+02 -0.55935654169E+01  0.10390118908E+02  0.24848998717E+02  0.47000000000E+01 0.  1.
         -5    1    4    4    0  501 -0.13029488180E+03 -0.25951880764E+02 -0.99241961395E+02  0.16589548891E+03  0.47000000000E+01 0.  1.
          1    1    1    2  502    0  0.31221945385E+02  0.58823257324E+02  0.97491370373E+03  0.97718560938E+03  0.00000000000E+00 0. -1.
          1    1    1    2  503    0  0.38647493540E+02 -0.72795617708E+02 -0.75989049165E+03  0.76434703506E+03  0.00000000000E+00 0. -1.
<mgrwt>
<rscale>  0 0.74025024E+02</rscale>
<asrwt>0</asrwt>
<pdfrwt beam="1">  1        2 0.23363974E+00 0.66595687E+02</pdfrwt>
<pdfrwt beam="2">  1        2 0.14082314E+00 0.82283169E+02</pdfrwt>
<totfact> 0.73186519E+01</totfact>
</mgrwt>
</event>
<event>
13    1  0.1589573E-008  0.3641911E+03  0.7546771E-02  0.1093039E+00
          2   -1    0    0  503    0  0.00000000000E+00  0.00000000000E+00  0.21490184868E+04  0.21490184868E+04  0.00000000000E+00 0. -1.
          2   -1    0    0  502    0 -0.00000000000E+00 -0.00000000000E+00 -0.19346726936E+04  0.19346726936E+04  0.00000000000E+00 0. -1.
         24    2    1    2    0    0  0.27287320453E+03 -0.17307377148E+02 -0.96277661190E+03  0.10040526908E+04  0.80147803656E+02 0.  0.
         25    2    1    2    0    0 -0.35181517599E+03  0.78666423247E+03  0.79207662154E+03  0.11771271015E+04  0.12501322294E+03 0.  0.
         24    2    1    2    0    0 -0.10167935153E+03 -0.30510573189E+03 -0.93239125962E+02  0.34449460609E+03  0.80961724618E+02 0.  0.
        -11    1    5    5    0    0  0.12677395581E+02 -0.17093619093E+02 -0.15879395772E+01  0.21340799528E+02  0.00000000000E+00 0.  1.
         12    1    5    5    0    0 -0.11435674711E+03 -0.28801211280E+03 -0.91651186385E+02  0.32315380656E+03  0.00000000000E+00 0. -1.
        -11    1    3    3    0    0  0.60170063526E+02 -0.34174810229E+02 -0.18423357687E+03  0.19680031770E+03  0.00000000000E+00 0.  1.
         12    1    3    3    0    0  0.21270314101E+03  0.16867433081E+02 -0.77854303503E+03  0.80725237311E+03  0.00000000000E+00 0. -1.
          5    1    4    4  501    0 -0.13773194755E+03  0.18981800170E+03  0.25110228738E+03  0.34362102944E+03  0.47000000000E+01 0.  1.
         -5    1    4    4    0  501 -0.21408322843E+03  0.59684623077E+03  0.54097433416E+03  0.83350607202E+03  0.47000000000E+01 0.  1.
          1    1    1    2  502    0 -0.28908900041E+02 -0.38826409238E+03 -0.45479596878E+03  0.59868531229E+03  0.00000000000E+00 0. -1.
          1    1    1    2  503    0  0.20953022302E+03 -0.75987031056E+02  0.93308087836E+03  0.95933146973E+03  0.00000000000E+00 0. -1.
<mgrwt>
<rscale>  0 0.28490716E+03</rscale>
<asrwt>0</asrwt>
<pdfrwt beam="1">  1        2 0.31603213E+00 0.22288325E+03</pdfrwt>
<pdfrwt beam="2">  1        2 0.28451069E+00 0.36419106E+03</pdfrwt>
<totfact> 0.96851070E+00</totfact>
</mgrwt>
</event>
<event>
13    1  0.1589573E-008  0.1400343E+03  0.7546771E-02  0.1261071E+00
          2   -1    0    0  503    0  0.00000000000E+00  0.00000000000E+00  0.12230915997E+04  0.12230915997E+04  0.00000000000E+00 0. -1.
          2   -1    0    0  502    0 -0.00000000000E+00 -0.00000000000E+00 -0.13119296853E+04  0.13119296853E+04  0.00000000000E+00 0. -1.
         24    2    1    2    0    0 -0.10455311950E+02  0.45513968611E+02 -0.27774969409E+03  0.29284651558E+03  0.80208193064E+02 0.  0.
         25    2    1    2    0    0 -0.39980728097E+02  0.99408629123E+02 -0.11404998811E+03  0.20028270887E+03  0.12500091808E+03 0.  0.
         24    2    1    2    0    0 -0.91803385035E+02  0.16067295844E+02  0.45416057352E+03  0.47040496632E+03  0.79580062203E+02 0.  0.
        -11    1    5    5    0    0 -0.46165437560E+02  0.47098174688E+02  0.21131388583E+03  0.22136631187E+03  0.00000000000E+00 0.  1.
         12    1    5    5    0    0 -0.45637947474E+02 -0.31030878844E+02  0.24284668769E+03  0.24903865446E+03  0.00000000000E+00 0. -1.
        -13    1    3    3    0    0 -0.89988478375E+00 -0.32660679922E+01 -0.20329897977E+03  0.20332720469E+03  0.00000000000E+00 0.  1.
         14    1    3    3    0    0 -0.95554271658E+01  0.48780036603E+02 -0.74450714324E+02  0.89519310892E+02  0.00000000000E+00 0. -1.
          5    1    4    4  501    0  0.14482855896E+02  0.49018998588E+02 -0.11499378682E+03  0.12592964839E+03  0.47000000000E+01 0.  1.
         -5    1    4    4    0  501 -0.54463583992E+02  0.50389630535E+02  0.94379870474E+00  0.74353060480E+02  0.47000000000E+01 0.  1.
          1    1    1    2  502    0 -0.72573574285E+02 -0.46111126314E+02 -0.83818805893E+03  0.84258672064E+03  0.00000000000E+00 0. -1.
          1    1    1    2  503    0  0.21481299937E+03 -0.11487876726E+03  0.68698908198E+03  0.72890037359E+03  0.00000000000E+00 0. -1.
<mgrwt>
<rscale>  0 0.10972984E+03</rscale>
<asrwt>0</asrwt>
<pdfrwt beam="1">  1        2 0.17986641E+00 0.14003431E+03</pdfrwt>
<pdfrwt beam="2">  1        2 0.19293084E+00 0.85983485E+02</pdfrwt>
<totfact> 0.68021567E+01</totfact>
</mgrwt>
</event>
<event>
13    1  0.1589573E-008  0.1101629E+03  0.7546771E-02  0.1302363E+00
          2   -1    0    0  503    0  0.00000000000E+00  0.00000000000E+00  0.46005238477E+03  0.46005238477E+03  0.00000000000E+00 0. -1.
          2   -1    0    0  502    0 -0.00000000000E+00 -0.00000000000E+00 -0.29650302844E+04  0.29650302844E+04  0.00000000000E+00 0. -1.
         24    2    1    2    0    0  0.84190410986E+02 -0.37186659967E+02 -0.24686443828E+03  0.27570245418E+03  0.81233732971E+02 0.  0.
         25    2    1    2    0    0 -0.87652020761E+02  0.87864062113E+02  0.25256444652E+03  0.30792542597E+03  0.12500519253E+03 0.  0.
         24    2    1    2    0    0 -0.10232144062E+03  0.51493038160E+02 -0.26622438310E+03  0.30079215658E+03  0.80494031556E+02 0.  0.
        -11    1    5    5    0    0 -0.19673750447E+02 -0.14613187835E+02 -0.10581249536E+03  0.10861347011E+03  0.00000000000E+00 0.  1.
         12    1    5    5    0    0 -0.82647690172E+02  0.66106225995E+02 -0.16041188774E+03  0.19217868647E+03  0.00000000000E+00 0. -1.
        -13    1    3    3    0    0  0.33852654329E+02 -0.49282469969E+02 -0.73357710730E+02  0.94636767564E+02  0.00000000000E+00 0.  1.
         14    1    3    3    0    0  0.50337756657E+02  0.12095810002E+02 -0.17350672755E+03  0.18106568662E+03  0.00000000000E+00 0. -1.
          5    1    4    4  501    0 -0.84956002751E+02  0.93345985005E+02  0.26484800768E+03  0.29342384445E+03  0.47000000000E+01 0.  1.
         -5    1    4    4    0  501 -0.26960180097E+01 -0.54819228925E+01 -0.12283561162E+02  0.14501581518E+02  0.47000000000E+01 0.  1.
          1    1    1    2  502    0  0.10638416051E+03 -0.28314808801E+02 -0.23819990156E+04  0.23845415971E+04  0.00000000000E+00 0. -1.
          1    1    1    2  503    0 -0.60111011298E+00 -0.73855631505E+02  0.13754549081E+03  0.15612103535E+03  0.00000000000E+00 0. -1.
<mgrwt>
<rscale>  0 0.90202106E+02</rscale>
<asrwt>0</asrwt>
<pdfrwt beam="1">  1        2 0.67654765E-01 0.73858078E+02</pdfrwt>
<pdfrwt beam="2">  1        2 0.43603385E+00 0.11016290E+03</pdfrwt>
<totfact> 0.33640397E+01</totfact>
</mgrwt>
</event>
<event>
13    1  0.1589573E-008  0.4056864E+03  0.7546771E-02  0.1147116E+00
          2   -1    0    0  503    0  0.00000000000E+00  0.00000000000E+00  0.18719523323E+04  0.18719523323E+04  0.00000000000E+00 0. -1.
          2   -1    0    0  502    0 -0.00000000000E+00 -0.00000000000E+00 -0.67887930825E+03  0.67887930825E+03  0.00000000000E+00 0. -1.
         24    2    1    2    0    0  0.58545369540E+02 -0.98856143015E+02 -0.11311962982E+03  0.18049172387E+03  0.81124068132E+02 0.  0.
         25    2    1    2    0    0  0.18947437237E+03 -0.28459898317E+03  0.49456560953E+03  0.61409962226E+03  0.12500433962E+03 0.  0.
         24    2    1    2    0    0  0.78469555193E+02 -0.25558205062E+02  0.11765768646E+03  0.16229944405E+03  0.75412766937E+02 0.  0.
        -11    1    5    5    0    0 -0.23838746879E+01  0.19180902204E+02  0.18398602211E+02  0.26685172497E+02  0.00000000000E+00 0.  1.
         12    1    5    5    0    0  0.80853429881E+02 -0.44739107265E+02  0.99259084249E+02  0.13561427155E+03  0.00000000000E+00 0. -1.
        -13    1    3    3    0    0  0.59937745169E+02 -0.22536226272E+02 -0.45968296238E+02  0.78825751183E+02  0.00000000000E+00 0.  1.
         14    1    3    3    0    0 -0.13923756290E+01 -0.76319916743E+02 -0.67151333581E+02  0.10166597269E+03  0.00000000000E+00 0. -1.
          5    1    4    4  501    0  0.19163585550E+02  0.42810043728E+01  0.71104547368E+02  0.73915605024E+02  0.47000000000E+01 0. -1.
         -5    1    4    4    0  501  0.17031078682E+03 -0.28887998754E+03  0.42346106216E+03  0.54018401723E+03  0.47000000000E+01 0. -1.
          1    1    1    2  502    0  0.15705375709E+02  0.10049926548E+03 -0.39691964060E+03  0.40974621692E+03  0.00000000000E+00 0. -1.
          1    1    1    2  503    0 -0.34219467281E+03  0.30851406577E+03  0.10908889984E+04  0.11841946334E+04  0.00000000000E+00 0. -1.
<mgrwt>
<rscale>  0 0.20314040E+03</rscale>
<asrwt>0</asrwt>
<pdfrwt beam="1">  1        2 0.27528711E+00 0.40568635E+03</pdfrwt>
<pdfrwt beam="2">  1        2 0.99835192E-01 0.10171903E+03</pdfrwt>
<totfact> 0.68337589E+01</totfact>
</mgrwt>
</event>
<event>
13    1  0.1589573E-008  0.1170215E+03  0.7546771E-02  0.1392105E+00
          2   -1    0    0  502    0  0.00000000000E+00  0.00000000000E+00  0.80578743647E+03  0.80578743647E+03  0.00000000000E+00 0. -1.
          2   -1    0    0  503    0 -0.00000000000E+00 -0.00000000000E+00 -0.19095675884E+04  0.19095675884E+04  0.00000000000E+00 0. -1.
         24    2    1    2    0    0 -0.14311864157E+03  0.30493585825E+02 -0.57366626189E+03  0.60066895611E+03  0.10147615713E+03 0.  0.
         25    2    1    2    0    0  0.13987256001E+03 -0.31340564345E+03 -0.30879207079E+03  0.47829439705E+03  0.12500222747E+03 0.  0.
         24    2    1    2    0    0 -0.58768260196E+02  0.18144377711E+03 -0.66295418875E+03  0.69484144978E+03  0.83191533725E+02 0.  0.
        -11    1    5    5    0    0  0.10439980985E+02  0.94544790880E+02 -0.35256532250E+03  0.36517121643E+03  0.00000000000E+00 0.  1.
         12    1    5    5    0    0 -0.69208241181E+02  0.86898986233E+02 -0.31038886626E+03  0.32967023334E+03  0.00000000000E+00 0. -1.
        -11    1    3    3    0    0 -0.20896181499E+02  0.31166840722E+02 -0.28117112263E+03  0.28366392538E+03  0.00000000000E+00 0.  1.
         12    1    3    3    0    0 -0.12222246007E+03 -0.67325489691E+00 -0.29249513926E+03  0.31700503073E+03  0.00000000000E+00 0. -1.
          5    1    4    4  501    0 -0.13329468355E+02 -0.36869298059E+02 -0.49565349226E+01  0.39795440749E+02  0.47000000000E+01 0.  1.
         -5    1    4    4    0  501  0.15320202837E+03 -0.27653634539E+03 -0.30383553587E+03  0.43849895630E+03  0.47000000000E+01 0.  1.
          1    1    1    2  502    0  0.85719631978E+02  0.79673933078E+02  0.68557479021E+03  0.69549161310E+03  0.00000000000E+00 0. -1.
          1    1    1    2  503    0 -0.23705290228E+02  0.21794347433E+02 -0.24394242070E+03  0.24605860883E+03  0.00000000000E+00 0. -1.
<mgrwt>
<rscale>  0 0.61386194E+02</rscale>
<asrwt>0</asrwt>
<pdfrwt beam="1">  1        2 0.11849815E+00 0.11702153E+03</pdfrwt>
<pdfrwt beam="2">  1        2 0.28081876E+00 0.32201465E+02</pdfrwt>
<totfact> 0.68253452E+01</totfact>
</mgrwt>
</event>
<event>
13    1  0.1589573E-008  0.9830494E+02  0.7546771E-02  0.1397912E+00
          2   -1    0    0  502    0  0.00000000000E+00  0.00000000000E+00  0.29697118422E+04  0.29697118422E+04  0.00000000000E+00 0. -1.
          2   -1    0    0  503    0 -0.00000000000E+00 -0.00000000000E+00 -0.15579230217E+04  0.15579230217E+04  0.00000000000E+00 0. -1.
         24    2    1    2    0    0  0.57164278171E+02  0.38456161716E+02 -0.12531330681E+04  0.12580951314E+04  0.87830760084E+02 0.  0.
         25    2    1    2    0    0 -0.87311301492E+02  0.86666520681E+02  0.28203247228E+03  0.33211485872E+03  0.12499445902E+03 0.  0.
         24    2    1    2    0    0  0.83507916293E+02 -0.78361842994E+02  0.89870446148E+03  0.90954530481E+03  0.80553099869E+02 0.  0.
        -11    1    3    3    0    0  0.78273308825E+02  0.43752652114E+02 -0.10364398853E+04  0.10403118000E+04  0.00000000000E+00 0.  1.
         12    1    3    3    0    0 -0.21109030654E+02 -0.52964903974E+01 -0.21669318279E+03  0.21778333144E+03  0.00000000000E+00 0. -1.
        -11    1    5    5    0    0  0.96853247737E+02 -0.81075228929E+02  0.80145452515E+03  0.81134647360E+03  0.00000000000E+00 0.  1.
         12    1    5    5    0    0 -0.13345331444E+02  0.27133859353E+01  0.97249936327E+02  0.98198831206E+02  0.00000000000E+00 0. -1.
          5    1    4    4  501    0 -0.86559473570E+02  0.11206800020E+03  0.19309433134E+03  0.23949799567E+03  0.47000000000E+01 0. -1.
         -5    1    4    4    0  501 -0.75182792174E+00 -0.25401479521E+02  0.88938140939E+02  0.92616863047E+02  0.47000000000E+01 0. -1.
          1    1    1    2  502    0  0.36164050158E+02 -0.56146036774E+01  0.17469067522E+04  0.17472900627E+04  0.00000000000E+00 0. -1.
          1    1    1    2  503    0 -0.89524943130E+02 -0.41146235726E+02 -0.26272179738E+03  0.28058950617E+03  0.00000000000E+00 0. -1.
<mgrwt>
<rscale>  0 0.59980790E+02</rscale>
<asrwt>0</asrwt>
<pdfrwt beam="1">  1        2 0.43672233E+00 0.36597299E+02</pdfrwt>
<pdfrwt beam="2">  1        2 0.22910633E+00 0.98304937E+02</pdfrwt>
<totfact> 0.82794873E+00</totfact>
</mgrwt>
</event>
<event>
13    1  0.1589573E-008  0.3450527E+03  0.7546771E-02  0.1242685E+00
          2   -1    0    0  503    0  0.00000000000E+00  0.00000000000E+00  0.21265759071E+04  0.21265759071E+04  0.00000000000E+00 0. -1.
          2   -1    0    0  502    0 -0.00000000000E+00 -0.00000000000E+00 -0.28774796350E+04  0.28774796350E+04  0.00000000000E+00 0. -1.
         24    2    1    2    0    0 -0.23417608210E+02 -0.25360460787E+02  0.30292174813E+02  0.93090540096E+02  0.80973424374E+02 0.  0.
         25    2    1    2    0    0  0.78279191099E+02  0.21418225193E+03 -0.93642529591E+02  0.27639752310E+03  0.12499999450E+03 0.  0.
         24    2    1    2    0    0  0.14186970811E+03  0.21696657079E+03 -0.80522348589E+03  0.85016930642E+03  0.84861536764E+02 0.  0.
        -11    1    3    3    0    0 -0.29899781492E+02  0.16961139382E+02  0.36140311649E+02  0.49877843864E+02  0.00000000000E+00 0.  1.
         12    1    3    3    0    0  0.64821732820E+01 -0.42321600168E+02 -0.58481368356E+01  0.43212696233E+02  0.00000000000E+00 0. -1.
        -11    1    5    5    0    0 -0.31895685748E+01 -0.23223020046E+01 -0.56219216499E+02  0.56357490523E+02  0.00000000000E+00 0.  1.
         12    1    5    5    0    0  0.14505927668E+03  0.21928887280E+03 -0.74900426939E+03  0.79381181590E+03  0.00000000000E+00 0. -1.
          5    1    4    4  501    0  0.16916857495E+01  0.12073409654E+03 -0.97733397065E+02  0.15541393364E+03  0.47000000000E+01 0.  1.
         -5    1    4    4    0  501  0.76587505349E+02  0.93448155393E+02  0.40908674740E+01  0.12098358946E+03  0.47000000000E+01 0.  1.
          1    1    1    2  502    0 -0.16099692903E+03 -0.38389663928E+03 -0.18095023361E+04  0.18567701379E+04  0.00000000000E+00 0. -1.
          1    1    1    2  503    0 -0.35734361968E+02 -0.21891722660E+02  0.19271724488E+04  0.19276280345E+04  0.00000000000E+00 0. -1.
<mgrwt>
<rscale>  0 0.12025018E+03</rscale>
<asrwt>0</asrwt>
<pdfrwt beam="1">  1        2 0.31273175E+00 0.41906946E+02</pdfrwt>
<pdfrwt beam="2">  1        2 0.42315877E+00 0.34505274E+03</pdfrwt>
<totfact> 0.38841529E+00</totfact>
</mgrwt>
</event>
<event>
13    1  0.1589573E-008  0.1436576E+03  0.7546771E-02  0.1330037E+00
          2   -1    0    0  503    0  0.00000000000E+00  0.00000000000E+00  0.18746212248E+04  0.18746212248E+04  0.00000000000E+00 0. -1.
          2   -1    0    0  502    0 -0.00000000000E+00 -0.00000000000E+00 -0.17304657724E+04  0.17304657724E+04  0.00000000000E+00 0. -1.
         24    2    1    2    0    0 -0.17844937614E+03 -0.24588220291E+02 -0.12677634185E+04  0.12834460113E+04  0.86952965005E+02 0.  0.
         25    2    1    2    0    0  0.34300830165E+03  0.89789177751E+02 -0.81034915148E+02  0.38458860350E+03  0.12499978013E+03 0.  0.
         24    2    1    2    0    0 -0.37934148024E+02  0.21704553116E+02  0.16052763699E+03  0.18494274215E+03  0.80775048274E+02 0.  0.
        -11    1    3    3    0    0 -0.84785898342E+02  0.30843919072E+02 -0.63784879784E+03  0.64419801677E+03  0.00000000000E+00 0.  1.
         12    1    3    3    0    0 -0.93663477798E+02 -0.55432139363E+02 -0.62991462066E+03  0.63924799450E+03  0.00000000000E+00 0. -1.
        -13    1    5    5    0    0 -0.33460010688E+02  0.50590185008E+02  0.89303529346E+02  0.10795396930E+03  0.00000000000E+00 0.  1.
         14    1    5    5    0    0 -0.44741373356E+01 -0.28885631892E+02  0.71224107647E+02  0.76988772850E+02  0.00000000000E+00 0. -1.
          5    1    4    4  501    0  0.93509266484E+02 -0.10092496530E+01 -0.73326270214E+02  0.11892784958E+03  0.47000000000E+01 0. -1.
         -5    1    4    4    0  501  0.24949903516E+03  0.90798427404E+02 -0.77086449336E+01  0.26566075392E+03  0.47000000000E+01 0. -1.
          1    1    1    2  502    0  0.28790110042E+02  0.33492201521E+02 -0.20117144927E+03  0.20596249659E+03  0.00000000000E+00 0. -1.
          1    1    1    2  503    0 -0.15541488753E+03 -0.12039771210E+03  0.15335975983E+04  0.15461471437E+04  0.00000000000E+00 0. -1.
<mgrwt>
<rscale>  0 0.79653758E+02</rscale>
<asrwt>0</asrwt>
<pdfrwt beam="1">  1        2 0.27567959E+00 0.14365762E+03</pdfrwt>
<pdfrwt beam="2">  1        2 0.25448026E+00 0.44165575E+02</pdfrwt>
<totfact> 0.21133329E+01</totfact>
</mgrwt>
</event>
<event>
13    1  0.1589573E-008  0.2008514E+03  0.7546771E-02  0.1204303E+00
          2   -1    0    0  503    0  0.00000000000E+00  0.00000000000E+00  0.77922603202E+03  0.77922603202E+03  0.00000000000E+00 0. -1.
          2   -1    0    0  502    0 -0.00000000000E+00 -0.00000000000E+00 -0.27240979424E+04  0.27240979424E+04  0.00000000000E+00 0. -1.
         24    2    1    2    0    0 -0.13542150734E+03 -0.14777223872E+03 -0.86837847572E+03  0.89490630843E+03  0.81243489501E+02 0.  0.
         25    2    1    2    0    0  0.18217551431E+03  0.98979682549E+02 -0.38804836492E+03  0.45737203829E+03  0.12499100894E+03 0.  0.
         24    2    1    2    0    0  0.23158876489E+03  0.14670272667E+03 -0.15119765427E+03  0.32662182897E+03  0.93091581058E+02 0.  0.
        -13    1    5    5    0    0  0.18542149302E+03  0.14600416944E+03 -0.15150209212E+03  0.28044826882E+03  0.00000000000E+00 0.  1.
         14    1    5    5    0    0  0.46167271870E+02  0.69855723930E+00  0.30443785645E+00  0.46173560146E+02  0.00000000000E+00 0. -1.
        -13    1    3    3    0    0 -0.12626502158E+03 -0.13272375726E+03 -0.63588094285E+03  0.66174241582E+03  0.00000000000E+00 0.  1.
         14    1    3    3    0    0 -0.91564857529E+01 -0.15048481463E+02 -0.23249753287E+03  0.23316389261E+03  0.00000000000E+00 0. -1.
          5    1    4    4  501    0 -0.17514068466E+02  0.48628243286E+01 -0.15691929223E+02  0.24468679928E+02  0.47000000000E+01 0. -1.
         -5    1    4    4    0  501  0.19968958278E+03  0.94116858220E+02 -0.37235643570E+03  0.43290335836E+03  0.47000000000E+01 0. -1.
          1    1    1    2  502    0 -0.80112820455E+02 -0.71647960893E+02 -0.11627652333E+04  0.11677219198E+04  0.00000000000E+00 0. -1.
          1    1    1    2  503    0 -0.19822995141E+03 -0.26262209609E+02  0.62551781784E+03  0.65670187888E+03  0.00000000000E+00 0. -1.
<mgrwt>
<rscale>  0 0.14692545E+03</rscale>
<asrwt>0</asrwt>
<pdfrwt beam="1">  1        2 0.11459206E+00 0.20085144E+03</pdfrwt>
<pdfrwt beam="2">  1        2 0.40060264E+00 0.10747788E+03</pdfrwt>
<totfact> 0.24387848E+01</totfact>
</mgrwt>
</event>
<event>
13    1  0.1589573E-008  0.1228764E+03  0.7546771E-02  0.1243767E+00
          2   -1    0    0  503    0  0.00000000000E+00  0.00000000000E+00  0.28710393300E+03  0.28710393300E+03  0.00000000000E+00 0. -1.
          2   -1    0    0  502    0 -0.00000000000E+00 -0.00000000000E+00 -0.32029187751E+04  0.32029187751E+04  0.00000000000E+00 0. -1.
         24    2    1    2    0    0  0.13268159792E+02  0.13966947628E+03 -0.41117015540E+03  0.44208601861E+03  0.81826306859E+02 0.  0.
         25    2    1    2    0    0  0.13166502014E+03 -0.49604835660E+02 -0.11697102956E+04  0.11847554412E+04  0.12500784970E+03 0.  0.
         24    2    1    2    0    0 -0.16837854174E+03 -0.86102484655E+02 -0.25836885088E+03  0.33202620495E+03  0.87874720413E+02 0.  0.
        -11    1    5    5    0    0  0.55461428714E+01  0.72511920858E+01 -0.23573739933E+02  0.25279649955E+02  0.00000000000E+00 0.  1.
         12    1    5    5    0    0 -0.17392468461E+03 -0.93353676740E+02 -0.23479511095E+03  0.30674655500E+03  0.00000000000E+00 0. -1.
        -13    1    3    3    0    0  0.32335381289E+02  0.30148926315E+02 -0.18314589748E+03  0.18840635447E+03  0.00000000000E+00 0.  1.
         14    1    3    3    0    0 -0.19067221497E+02  0.10952054996E+03 -0.22802425792E+03  0.25367966414E+03  0.00000000000E+00 0. -1.
          5    1    4    4  501    0  0.14188323405E+03 -0.64515870501E+02 -0.82927544679E+03  0.84380863133E+03  0.47000000000E+01 0.  1.
         -5    1    4    4    0  501 -0.10218213904E+02  0.14911034841E+02 -0.34043484884E+03  0.34094680987E+03  0.47000000000E+01 0.  1.
          1    1    1    2  502    0 -0.67106852350E+01  0.11620736999E+03 -0.12841466066E+04  0.12894113748E+04  0.00000000000E+00 0. -1.
          1    1    1    2  503    0  0.30156047034E+02 -0.12016952596E+03  0.20758106644E+03  0.24174366855E+03  0.00000000000E+00 0. -1.
<mgrwt>
<rscale>  0 0.11959484E+03</rscale>
<asrwt>0</asrwt>
<pdfrwt beam="1">  1        2 0.42221165E-01 0.12287635E+03</pdfrwt>
<pdfrwt beam="2">  1        2 0.47101749E+00 0.11640097E+03</pdfrwt>
<totfact> 0.40656273E+01</totfact>
</mgrwt>
</event>
<event>
13    1  0.1589573E-008  0.1442354E+03  0.7546771E-02  0.1285965E+00
          2   -1    0    0  502    0  0.00000000000E+00  0.00000000000E+00  0.59526289612E+03  0.59526289612E+03  0.00000000000E+00 0. -1.
          2   -1    0    0  503    0 -0.00000000000E+00 -0.00000000000E+00 -0.23875713383E+04  0.23875713383E+04  0.00000000000E+00 0. -1.
         24    2    1    2    0    0 -0.64107097635E+02  0.12449544921E+03 -0.17675575516E+03  0.23904020232E+03  0.79301856890E+02 0.  0.
         25    2    1    2    0    0  0.29547085173E+02 -0.21597923471E+03  0.22176840324E+03  0.33515106484E+03  0.12499980608E+03 0.  0.
         24    2    1    2    0    0 -0.65694658333E+02  0.44037173290E+02 -0.82104381390E+02  0.14047857983E+03  0.82085572324E+02 0.  0.
        -11    1    3    3    0    0 -0.37821366356E+02  0.92929376743E+01 -0.23378781412E+02  0.45424463276E+02  0.00000000000E+00 0.  1.
         12    1    3    3    0    0 -0.26285731280E+02  0.11520251153E+03 -0.15337697374E+03  0.19361573905E+03  0.00000000000E+00 0. -1.
        -13    1    5    5    0    0  0.32583676965E+01  0.19280491097E+02  0.10661434248E+02  0.22271517173E+02  0.00000000000E+00 0.  1.
         14    1    5    5    0    0 -0.68953026030E+02  0.24756682193E+02 -0.92765815638E+02  0.11820706266E+03  0.00000000000E+00 0. -1.
          5    1    4    4  501    0  0.74934677541E+02 -0.10758625777E+03  0.14029953673E+03  0.19208346823E+03  0.47000000000E+01 0. -1.
         -5    1    4    4    0  501 -0.45387592368E+02 -0.10839297694E+03  0.81468866506E+02  0.14306759661E+03  0.47000000000E+01 0. -1.
          1    1    1    2  502    0  0.96246339838E+02  0.11303246328E+03  0.23440257188E+03  0.27746037805E+03  0.00000000000E+00 0. -1.
          1    1    1    2  503    0  0.40083309572E+01 -0.65585851066E+02 -0.19896192807E+04  0.19907040093E+04  0.00000000000E+00 0. -1.
<mgrwt>
<rscale>  0 0.97352207E+02</rscale>
<asrwt>0</asrwt>
<pdfrwt beam="1">  1        2 0.87538661E-01 0.14423541E+03</pdfrwt>
<pdfrwt beam="2">  1        2 0.35111343E+00 0.65708223E+02</pdfrwt>
<totfact> 0.53021298E+01</totfact>
</mgrwt>
</event>
<event>
13    1  0.1589573E-008  0.7452289E+02  0.7546771E-02  0.1377956E+00
          2   -1    0    0  503    0  0.00000000000E+00  0.00000000000E+00  0.11702516890E+04  0.11702516890E+04  0.00000000000E+00 0. -1.
          2   -1    0    0  502    0 -0.00000000000E+00 -0.00000000000E+00 -0.20352112022E+04  0.20352112022E+04  0.00000000000E+00 0. -1.
         24    2    1    2    0    0  0.46686485942E+02 -0.73753499087E+02 -0.91471183049E+03  0.92221338286E+03  0.78489388457E+02 0.  0.
         25    2    1    2    0    0 -0.36761166030E+01  0.43199825748E+02  0.13911262756E+03  0.19197756600E+03  0.12499329551E+03 0.  0.
         24    2    1    2    0    0  0.14573507759E+02 -0.10820116000E+02  0.62779850092E+02  0.10293831904E+03  0.79533174906E+02 0.  0.
        -11    1    3    3    0    0 -0.21522566512E+02 -0.26263970709E+02 -0.29717940909E+03  0.29911305256E+03  0.00000000000E+00 0.  1.
         12    1    3    3    0    0  0.68209052455E+02 -0.47489528377E+02 -0.61753242140E+03  0.62310033030E+03  0.00000000000E+00 0. -1.
        -13    1    5    5    0    0 -0.17409674232E+02 -0.31473075872E+02  0.90521422970E+01  0.37088981408E+02  0.00000000000E+00 0.  1.
         14    1    5    5    0    0  0.31983181992E+02  0.20652959872E+02  0.53727707795E+02  0.65849337633E+02  0.00000000000E+00 0. -1.
          5    1    4    4  501    0  0.10974049117E+02 -0.36752974218E+02  0.87298951769E+02  0.95469407916E+02  0.47000000000E+01 0.  1.
         -5    1    4    4    0  501 -0.14650165720E+02  0.79952799966E+02  0.51813675795E+02  0.96508158087E+02  0.47000000000E+01 0.  1.
          1    1    1    2  502    0 -0.46554689975E+02 -0.32368223386E+02 -0.10679697015E+04  0.10694738540E+04  0.00000000000E+00 0. -1.
          1    1    1    2  503    0 -0.11029187124E+02  0.73742012724E+02  0.91582954107E+03  0.91885976934E+03  0.00000000000E+00 0. -1.
<mgrwt>
<rscale>  0 0.65004210E+02</rscale>
<asrwt>0</asrwt>
<pdfrwt beam="1">  1        2 0.17209584E+00 0.74522893E+02</pdfrwt>
<pdfrwt beam="2">  1        2 0.29929576E+00 0.56701332E+02</pdfrwt>
<totfact> 0.35108293E+01</totfact>
</mgrwt>
</event>
<event>
13    1  0.1589573E-008  0.2018054E+03  0.7546771E-02  0.1261185E+00
          2   -1    0    0  503    0  0.00000000000E+00  0.00000000000E+00  0.15375932024E+04  0.15375932024E+04  0.00000000000E+00 0. -1.
          2   -1    0    0  502    0 -0.00000000000E+00 -0.00000000000E+00 -0.23985889954E+04  0.23985889954E+04  0.00000000000E+00 0. -1.
         24    2    1    2    0    0 -0.10892822495E+02 -0.12568464955E+01 -0.81005744975E+03  0.81430746375E+03  0.82361036837E+02 0.  0.
         25    2    1    2    0    0  0.79387309291E+02 -0.87017250977E+02  0.77377695964E+02  0.18837954751E+03  0.12500079698E+03 0.  0.
         24    2    1    2    0    0  0.14616265280E+03 -0.76972490378E+02  0.20928194838E+03  0.27818425670E+03  0.79367886497E+02 0.  0.
        -11    1    3    3    0    0  0.32641686969E+02 -0.14651092947E+02 -0.27562601955E+03  0.27793854879E+03  0.00000000000E+00 0.  1.
         12    1    3    3    0    0 -0.43534509465E+02  0.13394246451E+02 -0.53443143020E+03  0.53636891496E+03  0.00000000000E+00 0. -1.
        -11    1    5    5    0    0  0.11119252612E+03 -0.40083395509E+02  0.90120249769E+02  0.14863416794E+03  0.00000000000E+00 0.  1.
         12    1    5    5    0    0  0.34970126673E+02 -0.36889094869E+02  0.11916169861E+03  0.12955008875E+03  0.00000000000E+00 0. -1.
          5    1    4    4  501    0  0.66936715859E+02 -0.95543910815E+02  0.77823687588E+01  0.11701204249E+03  0.47000000000E+01 0. -1.
         -5    1    4    4    0  501  0.12450593432E+02  0.85266598378E+01  0.69595327205E+02  0.71367505026E+02  0.47000000000E+01 0. -1.
          1    1    1    2  502    0 -0.40220419469E+02  0.43980082761E+02 -0.14861154623E+04  0.14873100205E+04  0.00000000000E+00 0. -1.
          1    1    1    2  503    0 -0.17443672012E+03  0.12126650509E+03  0.11485174747E+04  0.11680009094E+04  0.00000000000E+00 0. -1.
<mgrwt>
<rscale>  0 0.10966865E+03</rscale>
<asrwt>0</asrwt>
<pdfrwt beam="1">  1        2 0.22611665E+00 0.20180540E+03</pdfrwt>
<pdfrwt beam="2">  1        2 0.35273367E+00 0.59598069E+02</pdfrwt>
<totfact> 0.14200071E+01</totfact>
</mgrwt>
</event>
<event>
13    1  0.1589573E-008  0.1983197E+03  0.7546771E-02  0.1229266E+00
          2   -1    0    0  503    0  0.00000000000E+00  0.00000000000E+00  0.20401350562E+04  0.20401350562E+04  0.00000000000E+00 0. -1.
         -1   -1    0    0    0  501 -0.00000000000E+00 -0.00000000000E+00 -0.45161332549E+03  0.45161332549E+03  0.00000000000E+00 0.  1.
         24    2    1    2    0    0 -0.16511713655E+03  0.48234903303E+02 -0.89570092853E+02  0.21068031776E+03  0.82298967678E+02 0.  0.
         25    2    1    2    0    0  0.24943630679E+02  0.24272931819E+02  0.63632327746E+03  0.64941788089E+03  0.12499964259E+03 0.  0.
         24    2    1    2    0    0 -0.20797727118E+02 -0.39706350748E+02 -0.12552499300E+03  0.15530489717E+03  0.79711652077E+02 0.  0.
        -11    1    3    3    0    0 -0.12891190570E+03  0.21881955931E+02 -0.10010678211E+03  0.16467685706E+03  0.00000000000E+00 0.  1.
         12    1    3    3    0    0 -0.36205230849E+02  0.26352947372E+02  0.10536689261E+02  0.46003460703E+02  0.00000000000E+00 0. -1.
        -13    1    5    5    0    0 -0.20665532098E+02  0.17299006774E+01 -0.10857162390E+03  0.11053440319E+03  0.00000000000E+00 0.  1.
         14    1    5    5    0    0 -0.13219501972E+00 -0.41436251426E+02 -0.16953369099E+02  0.44770493984E+02  0.00000000000E+00 0. -1.
          5    1    4    4  502    0  0.44830328510E+02  0.67898091833E+02  0.41099690288E+03  0.41899934774E+03  0.47000000000E+01 0. -1.
         -5    1    4    4    0  502 -0.19886697831E+02 -0.43625160014E+02  0.22532637458E+03  0.23041853315E+03  0.47000000000E+01 0. -1.
          1    1    1    2  503    0  0.19601530882E+03  0.43136258571E+02  0.13022225769E+04  0.13175987165E+04  0.00000000000E+00 0. -1.
         -2    1    1    2    0  501 -0.35044075834E+02 -0.75937742944E+02 -0.13492903775E+03  0.15874656936E+03  0.00000000000E+00 0.  1.
<mgrwt>
<rscale>  0 0.12878760E+03</rscale>
<asrwt>0</asrwt>
<pdfrwt beam="1">  1        2 0.30001986E+00 0.19831968E+03</pdfrwt>
<pdfrwt beam="2">  1       -1 0.66413725E-01 0.83633893E+02</pdfrwt>
<totfact> 0.22996259E+01</totfact>
</mgrwt>
</event>
<event>
13    1  0.1589573E-008  0.2304362E+03  0.7546771E-02  0.1198863E+00
          2   -1    0    0  503    0  0.00000000000E+00  0.00000000000E+00  0.18494349686E+04  0.18494349686E+04  0.00000000000E+00 0. -1.
          2   -1    0    0  502    0 -0.00000000000E+00 -0.00000000000E+00 -0.16410173830E+04  0.16410173830E+04  0.00000000000E+00 0. -1.
         24    2    1    2    0    0 -0.51615797033E+03  0.33902063593E+03 -0.50222372819E+03  0.79869846330E+03  0.65852260430E+02 0.  0.
         25    2    1    2    0    0  0.33392482974E+03  0.13040781790E+03 -0.34878209085E+02  0.38125902147E+03  0.12501984281E+03 0.  0.
         24    2    1    2    0    0  0.37388622790E+03 -0.20999235199E+03  0.87399675188E+03  0.97688204239E+03  0.80873377194E+02 0.  0.
        -11    1    3    3    0    0 -0.23764947583E+03  0.17452459120E+03 -0.20222198068E+03  0.35753298556E+03  0.00000000000E+00 0.  1.
         12    1    3    3    0    0 -0.27850849450E+03  0.16449604474E+03 -0.30000174751E+03  0.44116547774E+03  0.00000000000E+00 0. -1.
        -13    1    5    5    0    0  0.68270599505E+02 -0.58474143271E+02  0.25102393269E+03  0.26663292177E+03  0.00000000000E+00 0.  1.
         14    1    5    5    0    0  0.30561562839E+03 -0.15151820872E+03  0.62297281920E+03  0.71024912063E+03  0.00000000000E+00 0. -1.
          5    1    4    4  501    0 -0.26434442936E+01  0.25728175740E+02 -0.90894222794E+01  0.27814284496E+02  0.47000000000E+01 0. -1.
         -5    1    4    4    0  501  0.33656827404E+03  0.10467964216E+03 -0.25788786806E+02  0.35344473697E+03  0.47000000000E+01 0. -1.
          1    1    1    2  502    0 -0.35691514671E+02 -0.92732974080E+02 -0.70581786992E+03  0.71277777337E+03  0.00000000000E+00 0. -1.
          1    1    1    2  503    0 -0.15596157264E+03 -0.16670312776E+03  0.57734064090E+03  0.62083505102E+03  0.00000000000E+00 0. -1.
<mgrwt>
<rscale>  0 0.15131807E+03</rscale>
<asrwt>0</asrwt>
<pdfrwt beam="1">  1        2 0.27197573E+00 0.23043617E+03</pdfrwt>
<pdfrwt beam="2">  1        2 0.24132609E+00 0.99364424E+02</pdfrwt>
<totfact> 0.21337631E+01</totfact>
</mgrwt>
</event>
<event>
13    1  0.1589573E-008  0.1891758E+03  0.7546771E-02  0.1237366E+00
          2   -1    0    0  503    0  0.00000000000E+00  0.00000000000E+00  0.10245919574E+04  0.10245919574E+04  0.00000000000E+00 0. -1.
          2   -1    0    0  502    0 -0.00000000000E+00 -0.00000000000E+00 -0.20416426722E+04  0.20416426722E+04  0.00000000000E+00 0. -1.
         24    2    1    2    0    0  0.24172889895E+02  0.76290870216E+02 -0.65761966702E+03  0.66758269114E+03  0.82452395801E+02 0.  0.
         25    2    1    2    0    0 -0.32230505605E+03 -0.25603223825E+02 -0.12222878280E+03  0.36756076474E+03  0.12499986482E+03 0.  0.
         24    2    1    2    0    0  0.10376465921E+03  0.10584099655E+02  0.29959563040E+03  0.32972729826E+03  0.89907851703E+02 0.  0.
        -11    1    3    3    0    0 -0.45558305684E+01 -0.99583479400E+01 -0.23692345556E+03  0.23717640709E+03  0.00000000000E+00 0.  1.
         12    1    3    3    0    0  0.28728720463E+02  0.86249218156E+02 -0.42069621146E+03  0.43040628405E+03  0.00000000000E+00 0. -1.
        -11    1    5    5    0    0  0.55443228436E+00  0.24145431784E+02  0.11768625851E+03  0.12013893920E+03  0.00000000000E+00 0.  1.
         12    1    5    5    0    0  0.10321022692E+03 -0.13561332129E+02  0.18190937190E+03  0.20958835906E+03  0.00000000000E+00 0. -1.
          5    1    4    4  501    0 -0.21871041129E+03 -0.68206436961E+02 -0.11179786476E+03  0.25496512431E+03  0.47000000000E+01 0.  1.
         -5    1    4    4    0  501 -0.10359464476E+03  0.42603213135E+02 -0.10430918040E+02  0.11259564043E+03  0.47000000000E+01 0.  1.
          1    1    1    2  502    0  0.50271054631E+02  0.63103297714E+02 -0.11020102812E+04  0.11049596667E+04  0.00000000000E+00 0. -1.
          1    1    1    2  503    0  0.14409645232E+03 -0.12437504376E+03  0.56521238586E+03  0.59640420875E+03  0.00000000000E+00 0. -1.
<mgrwt>
<rscale>  0 0.12354204E+03</rscale>
<asrwt>0</asrwt>
<pdfrwt beam="1">  1        2 0.15067529E+00 0.18917580E+03</pdfrwt>
<pdfrwt beam="2">  1        2 0.30024157E+00 0.80679645E+02</pdfrwt>
<totfact> 0.38434729E+01</totfact>
</mgrwt>
</event>
<event>
13    1  0.1589573E-008  0.1201723E+03  0.7546771E-02  0.1414552E+00
          4   -1    0    0  503    0 -0.00000000000E+00  0.00000000000E+00  0.68018416237E+03  0.68018416237E+03  0.00000000000E+00 0. -1.
          2   -1    0    0  502    0  0.00000000000E+00 -0.00000000000E+00 -0.51942685842E+03  0.51942685842E+03  0.00000000000E+00 0. -1.
         24    2    1    2    0    0 -0.49791862589E+02  0.92644513492E+02  0.15567625093E+03  0.20315437712E+03  0.77294051379E+02 0.  0.
         25    2    1    2    0    0  0.11785508110E+03  0.77867627087E+02 -0.88862482911E+02  0.20850136440E+03  0.12499236216E+03 0.  0.
         24    2    1    2    0    0 -0.21055029015E+02 -0.35498250072E+02  0.86212059897E+02  0.12436271821E+03  0.79562091500E+02 0.  0.
        -11    1    5    5    0    0  0.18303222420E+02 -0.44895212148E+02  0.54562960085E+02  0.72991127119E+02  0.00000000000E+00 0.  1.
         12    1    5    5    0    0 -0.39358251436E+02  0.93969620760E+01  0.31649099812E+02  0.51371591091E+02  0.00000000000E+00 0. -1.
        -11    1    3    3    0    0 -0.57780945790E+02  0.82817001598E+02  0.16048085668E+03  0.18960854098E+03  0.00000000000E+00 0.  1.
         12    1    3    3    0    0  0.79890832007E+01  0.98275118937E+01 -0.48046057496E+01  0.13545836143E+02  0.00000000000E+00 0. -1.
          5    1    4    4  501    0  0.28270691952E+02  0.39938186965E+02  0.27842641088E+02  0.56494189650E+02  0.47000000000E+01 0.  1.
         -5    1    4    4    0  501  0.89584389145E+02  0.37929440122E+02 -0.11670512400E+03  0.15200717475E+03  0.47000000000E+01 0.  1.
          1    1    1    2  502    0 -0.21848293200E+02  0.14592906887E+02 -0.31020514572E+03  0.31131580955E+03  0.00000000000E+00 0. -1.
          3    1    1    2  503    0 -0.25159896293E+02 -0.14960679739E+03  0.31793662175E+03  0.35227675151E+03  0.00000000000E+00 0. -1.
<mgrwt>
<rscale>  0 0.56190364E+02</rscale>
<asrwt>0</asrwt>
<pdfrwt beam="2">  1        2 0.76386303E-01 0.26273577E+02</pdfrwt>
<pdfrwt beam="1">  1        4 0.10002708E+00 0.12017233E+03</pdfrwt>
<totfact> 0.28526096E+01</totfact>
</mgrwt>
</event>
<event>
13    1  0.1589573E-008  0.2678993E+03  0.7546771E-02  0.1175922E+00
         -1   -1    0    0    0  501 -0.00000000000E+00  0.00000000000E+00  0.14602709800E+04  0.14602709800E+04  0.00000000000E+00 0.  1.
          2   -1    0    0  503    0  0.00000000000E+00 -0.00000000000E+00 -0.11746302565E+04  0.11746302565E+04  0.00000000000E+00 0. -1.
         24    2    1    2    0    0 -0.13223999461E+03  0.46272118846E+02  0.23756979117E+03  0.28716186426E+03  0.79962525283E+02 0.  0.
         25    2    1    2    0    0  0.89467250726E+02 -0.20551055634E+03 -0.16575135107E+03  0.30551294937E+03  0.12500269650E+03 0.  0.
         24    2    1    2    0    0  0.11262429361E+03 -0.30331206132E+03 -0.25387946103E+01  0.33300865404E+03  0.78777408784E+02 0.  0.
        -11    1    3    3    0    0 -0.13499338900E+03  0.22059868079E+02  0.19685478847E+03  0.23971161966E+03  0.00000000000E+00 0.  1.
         12    1    3    3    0    0  0.27533943931E+01  0.24212250767E+02  0.40715002698E+02  0.47450244600E+02  0.00000000000E+00 0. -1.
        -11    1    5    5    0    0  0.54640907940E+02 -0.22469210239E+03 -0.25544504575E+02  0.23264713927E+03  0.00000000000E+00 0.  1.
         12    1    5    5    0    0  0.57983385670E+02 -0.78619958929E+02  0.23005709965E+02  0.10036151477E+03  0.00000000000E+00 0. -1.
          5    1    4    4  502    0  0.96197536251E+02 -0.10126855656E+03 -0.47371665869E+02  0.14756507465E+03  0.47000000000E+01 0. -1.
         -5    1    4    4    0  502 -0.67302855245E+01 -0.10424199978E+03 -0.11837968521E+03  0.15794787473E+03  0.47000000000E+01 0. -1.
          1    1    1    2  503    0 -0.19489856880E+02  0.10851379454E+03 -0.70881405991E+03  0.71733706837E+03  0.00000000000E+00 0. -1.
         -2    1    1    2    0  501 -0.50361692850E+02  0.35403670427E+03  0.92517513797E+03  0.99188070048E+03  0.00000000000E+00 0.  1.
<mgrwt>
<rscale>  0 0.17186023E+03</rscale>
<asrwt>0</asrwt>
<pdfrwt beam="2">  1        2 0.17273974E+00 0.11025016E+03</pdfrwt>
<pdfrwt beam="1">  1       -1 0.21474573E+00 0.26789929E+03</pdfrwt>
<totfact> 0.36102685E+00</totfact>
</mgrwt>
</event>
<event>
13    1  0.1589573E-008  0.7661801E+03  0.7546771E-02  0.1149540E+00
          2   -1    0    0  503    0  0.00000000000E+00  0.00000000000E+00  0.15273900423E+04  0.15273900423E+04  0.00000000000E+00 0. -1.
          2   -1    0    0  502    0 -0.00000000000E+00 -0.00000000000E+00 -0.43464987537E+04  0.43464987537E+04  0.00000000000E+00 0. -1.
         24    2    1    2    0    0 -0.41572420157E+02 -0.37151134555E+01 -0.10641095788E+04  0.10678384674E+04  0.78789139980E+02 0.  0.
         25    2    1    2    0    0 -0.44839635479E+03  0.98326795998E+02 -0.33013593409E+03  0.57908725074E+03  0.12499943675E+03 0.  0.
         24    2    1    2    0    0 -0.84185244166E+01 -0.64822629107E+03 -0.11533890942E+04  0.13269525904E+04  0.10113643590E+03 0.  0.
        -11    1    3    3    0    0  0.90535306115E+00  0.32808320186E+02 -0.43775480257E+03  0.43898345380E+03  0.00000000000E+00 0.  1.
         12    1    3    3    0    0 -0.42477773218E+02 -0.36523433641E+02 -0.62635477624E+03  0.62885501361E+03  0.00000000000E+00 0. -1.
        -13    1    5    5    0    0  0.32600735688E+02 -0.41530597745E+03 -0.79552886944E+03  0.89800225222E+03  0.00000000000E+00 0.  1.
         14    1    5    5    0    0 -0.41019260105E+02 -0.23292031362E+03 -0.35786022476E+03  0.42895033822E+03  0.00000000000E+00 0. -1.
          5    1    4    4  501    0 -0.57588174981E+02 -0.29027111412E+02 -0.42267917209E+02  0.77250488152E+02  0.47000000000E+01 0.  1.
         -5    1    4    4    0  501 -0.39080817981E+03  0.12735390741E+03 -0.28786801689E+03  0.50183676259E+03  0.47000000000E+01 0.  1.
          1    1    1    2  502    0 -0.47668142089E+02 -0.21592745656E+02 -0.14655768247E+04  0.14665108004E+04  0.00000000000E+00 0. -1.
          1    1    1    2  503    0  0.54605544145E+03  0.57520735418E+03  0.11941027205E+04  0.14334996870E+04  0.00000000000E+00 0. -1.
<mgrwt>
<rscale>  0 0.20023665E+03</rscale>
<asrwt>0</asrwt>
<pdfrwt beam="1">  1        2 0.22461619E+00 0.76618013E+03</pdfrwt>
<pdfrwt beam="2">  1        2 0.63919098E+00 0.52330664E+02</pdfrwt>
<totfact> 0.10220697E+00</totfact>
</mgrwt>
</event>
<event>
13    1  0.3149992E-008  0.1728156E+03  0.7546771E-02  0.1197254E+00
          2   -1    0    0  503    0  0.00000000000E+00  0.00000000000E+00  0.23014672911E+04  0.23014672911E+04  0.00000000000E+00 0. -1.
          2   -1    0    0  502    0 -0.00000000000E+00 -0.00000000000E+00 -0.33063879846E+04  0.33063879846E+04  0.00000000000E+00 0. -1.
         24    2    1    2    0    0  0.26842583925E+02  0.12168352402E+02 -0.19825353494E+04  0.19846381093E+04  0.86448945862E+02 0.  0.
         25    2    1    2    0    0  0.46399589893E+02 -0.10668286330E+03  0.24066173308E+03  0.29508770042E+03  0.12499810362E+03 0.  0.
         24    2    1    2    0    0 -0.31879939907E+02  0.14641023765E+03 -0.77043009739E+02  0.18875250112E+03  0.85085798290E+02 0.  0.
        -11    1    5    5    0    0 -0.56918607150E+02  0.12761740691E+03 -0.71476508577E+02  0.15695483957E+03  0.00000000000E+00 0.  1.
         12    1    5    5    0    0  0.25038667244E+02  0.18792830741E+02 -0.55665011620E+01  0.31797661546E+02  0.00000000000E+00 0. -1.
        -13    1    3    3    0    0  0.23905717683E+02  0.45100430901E+02 -0.15502885094E+04  0.15511286196E+04  0.00000000000E+00 0.  1.
         14    1    3    3    0    0  0.29368662422E+01 -0.32932078499E+02 -0.43224683999E+03  0.43350948970E+03  0.00000000000E+00 0. -1.
          5    1    4    4  501    0 -0.35914840515E+02 -0.12936541552E+02  0.24925498403E+02  0.45832306806E+02  0.47000000000E+01 0.  1.
         -5    1    4    4    0  501  0.82314430408E+02 -0.93746321747E+02  0.21573623467E+03  0.24925539361E+03  0.47000000000E+01 0.  1.
          1    1    1    2  502    0  0.16611575974E+02 -0.21468958319E+03 -0.11488918883E+04  0.11688969726E+04  0.00000000000E+00 0. -1.
          1    1    1    2  503    0 -0.57973809885E+02  0.16279385644E+03  0.19628878209E+04  0.19704799922E+04  0.00000000000E+00 0. -1.
<mgrwt>
<rscale>  0 0.15264974E+03</rscale>
<asrwt>0</asrwt>
<pdfrwt beam="1">  1        2 0.33845107E+00 0.17281565E+03</pdfrwt>
<pdfrwt beam="2">  1        2 0.48623353E+00 0.13483700E+03</pdfrwt>
<totfact> 0.17899980E+00</totfact>
</mgrwt>
</event>
<event>
13    1  0.1589573E-008  0.1459366E+03  0.7546771E-02  0.1276232E+00
          2   -1    0    0  503    0  0.00000000000E+00  0.00000000000E+00  0.30226876775E+04  0.30226876775E+04  0.00000000000E+00 0. -1.
          2   -1    0    0  502    0 -0.00000000000E+00 -0.00000000000E+00 -0.12007276930E+04  0.12007276930E+04  0.00000000000E+00 0. -1.
         24    2    1    2    0    0 -0.38907055312E+02 -0.62775695008E+03  0.78549509566E+03  0.10094978429E+04  0.80565514652E+02 0.  0.
         25    2    1    2    0    0 -0.53623739754E+02  0.15545537376E+03  0.37582383950E+03  0.42885072953E+03  0.12501004436E+03 0.  0.
         24    2    1    2    0    0 -0.32220184208E+02  0.45625470237E+03  0.25921536998E+03  0.53315173320E+03  0.88609643269E+02 0.  0.
        -13    1    5    5    0    0 -0.27457195297E+02  0.45950173342E+02  0.46782402459E+02  0.71090851617E+02  0.00000000000E+00 0.  1.
         14    1    5    5    0    0 -0.47629889108E+01  0.41030452902E+03  0.21243296752E+03  0.46206088159E+03  0.00000000000E+00 0. -1.
        -13    1    3    3    0    0 -0.12459163996E+02 -0.21040914782E+03  0.20472888953E+03  0.29383866060E+03  0.00000000000E+00 0.  1.
         14    1    3    3    0    0 -0.26447891316E+02 -0.41734780226E+03  0.58076620612E+03  0.71565918228E+03  0.00000000000E+00 0. -1.
          5    1    4    4  501    0  0.29071412177E+02 -0.10339518101E+01  0.50693922185E+02  0.58635994140E+02  0.47000000000E+01 0. -1.
         -5    1    4    4    0  501 -0.82695151931E+02  0.15648932557E+03  0.32512991731E+03  0.37021473539E+03  0.47000000000E+01 0. -1.
          1    1    1    2  502    0 -0.11279576190E+02  0.70333860416E+02 -0.91982112386E+03  0.92257518971E+03  0.00000000000E+00 0. -1.
          1    1    1    2  503    0  0.13603055546E+03 -0.54286986459E+02  0.13212468032E+04  0.13293398752E+04  0.00000000000E+00 0. -1.
<mgrwt>
<rscale>  0 0.10195802E+03</rscale>
<asrwt>0</asrwt>
<pdfrwt beam="1">  1        2 0.44451289E+00 0.14593657E+03</pdfrwt>
<pdfrwt beam="2">  1        2 0.17657760E+00 0.71232582E+02</pdfrwt>
<totfact> 0.96177794E+00</totfact>
</mgrwt>
</event>
<event>
13    1  0.1589573E-008  0.7470455E+02  0.7546771E-02  0.1361350E+00
          2   -1    0    0  503    0  0.00000000000E+00  0.00000000000E+00  0.19823519381E+04  0.19823519381E+04  0.00000000000E+00 0. -1.
          2   -1    0    0  502    0 -0.00000000000E+00 -0.00000000000E+00 -0.47230419578E+03  0.47230419578E+03  0.00000000000E+00 0. -1.
         24    2    1    2    0    0 -0.15851018644E+02  0.83836105946E+01 -0.20173978676E+03  0.21676924243E+03  0.77255570580E+02 0.  0.
         25    2    1    2    0    0 -0.49133434432E+02  0.15293902414E+03  0.15311286431E+03  0.25469874855E+03  0.12499385509E+03 0.  0.
         24    2    1    2    0    0  0.76636271560E+02 -0.86367107696E+02  0.29769156566E+03  0.32920629281E+03  0.80150605424E+02 0.  0.
        -11    1    5    5    0    0  0.31766796461E+02 -0.87103738184E+02  0.23006924698E+03  0.24804848108E+03  0.00000000000E+00 0.  1.
         12    1    5    5    0    0  0.44869475098E+02  0.73663048792E+00  0.67622318679E+02  0.81157811722E+02  0.00000000000E+00 0. -1.
        -11    1    3    3    0    0  0.13965071145E+02 -0.25900949173E+02 -0.11669728344E+03  0.12035006582E+03  0.00000000000E+00 0.  1.
         12    1    3    3    0    0 -0.29816089789E+02  0.34284559767E+02 -0.85042503318E+02  0.96419176616E+02  0.00000000000E+00 0. -1.
          5    1    4    4  501    0 -0.76697623011E+02  0.99634365478E+02  0.14804703587E+03  0.19429242648E+03  0.47000000000E+01 0.  1.
         -5    1    4    4    0  501  0.27564188579E+02  0.53304658667E+02  0.50658284426E+01  0.60406322065E+02  0.47000000000E+01 0.  1.
          1    1    1    2  502    0 -0.61891941579E+02 -0.19541135450E+02 -0.19015035082E+03  0.20092193589E+03  0.00000000000E+00 0. -1.
          1    1    1    2  503    0  0.50240123096E+02 -0.55414391594E+02  0.14511334499E+04  0.14530599142E+04  0.00000000000E+00 0. -1.
<mgrwt>
<rscale>  0 0.69631810E+02</rscale>
<asrwt>0</asrwt>
<pdfrwt beam="1">  1        2 0.29152234E+00 0.74704548E+02</pdfrwt>
<pdfrwt beam="2">  1        2 0.69456500E-01 0.64903532E+02</pdfrwt>
<totfact> 0.10602674E+02</totfact>
</mgrwt>
</event>
<event>
13    1  0.1589573E-008  0.5289992E+02  0.7546771E-02  0.1465147E+00
          2   -1    0    0  503    0  0.00000000000E+00  0.00000000000E+00  0.21600062406E+04  0.21600062406E+04  0.00000000000E+00 0. -1.
          2   -1    0    0  502    0 -0.00000000000E+00 -0.00000000000E+00 -0.20884041002E+04  0.20884041002E+04  0.00000000000E+00 0. -1.
         24    2    1    2    0    0  0.54613084686E+02 -0.86417697954E+03 -0.56207031588E+03  0.10356141041E+04  0.82395944518E+02 0.  0.
         25    2    1    2    0    0  0.11919538249E+03  0.65282786871E+03  0.10316964246E+03  0.68312616353E+03  0.12500245916E+03 0.  0.
         24    2    1    2    0    0 -0.98157859420E+02  0.24339012394E+03  0.54809530982E+03  0.61098969433E+03  0.63452502955E+02 0.  0.
        -13    1    3    3    0    0  0.57688628766E+02 -0.37618384653E+03 -0.27367172616E+03  0.46876270967E+03  0.00000000000E+00 0.  1.
         14    1    3    3    0    0 -0.30755440796E+01 -0.48799313301E+03 -0.28839858972E+03  0.56685139445E+03  0.00000000000E+00 0. -1.
        -13    1    5    5    0    0 -0.89961518740E+02  0.19437344021E+03  0.38592516919E+03  0.44137551510E+03  0.00000000000E+00 0.  1.
         14    1    5    5    0    0 -0.81963406808E+01  0.49016683733E+02  0.16217014063E+03  0.16961417923E+03  0.00000000000E+00 0. -1.
          5    1    4    4  501    0  0.12799570740E+03  0.65109760932E+03  0.10729120567E+03  0.67219378961E+03  0.47000000000E+01 0. -1.
         -5    1    4    4    0  501 -0.88003249127E+01  0.17302593887E+01 -0.41215632084E+01  0.10932373914E+02  0.47000000000E+01 0. -1.
          1    1    1    2  502    0 -0.52852906758E+02  0.18998631168E+01 -0.96697382639E+03  0.96841903128E+03  0.00000000000E+00 0. -1.
          1    1    1    2  503    0 -0.22797700999E+02 -0.33940876230E+02  0.94938133036E+03  0.95026134757E+03  0.00000000000E+00 0. -1.
<mgrwt>
<rscale>  0 0.46506996E+02</rscale>
<asrwt>0</asrwt>
<pdfrwt beam="1">  1        2 0.31764798E+00 0.40886651E+02</pdfrwt>
<pdfrwt beam="2">  1        2 0.30711825E+00 0.52899922E+02</pdfrwt>
<totfact> 0.11851023E+01</totfact>
</mgrwt>
</event>
<event>
13    1  0.1589573E-008  0.1017163E+03  0.7546771E-02  0.1402995E+00
          2   -1    0    0  502    0  0.00000000000E+00  0.00000000000E+00  0.29996669597E+04  0.29996669597E+04  0.00000000000E+00 0. -1.
          2   -1    0    0  503    0 -0.00000000000E+00 -0.00000000000E+00 -0.29486487532E+04  0.29486487532E+04  0.00000000000E+00 0. -1.
         24    2    1    2    0    0  0.61954276312E+02 -0.47946811273E+02 -0.14214175113E+04  0.14253034401E+04  0.70177815808E+02 0.  0.
         25    2    1    2    0    0 -0.19784916315E+02  0.37909558037E+02  0.11620705202E+04  0.11695561724E+04  0.12500067566E+03 0.  0.
         24    2    1    2    0    0  0.61908339918E+00  0.96671702035E+02 -0.60801387615E+03  0.62100980172E+03  0.81403310754E+02 0.  0.
        -11    1    5    5    0    0 -0.23123568021E+02  0.76470725287E+02 -0.54371028328E+03  0.54954830849E+03  0.00000000000E+00 0.  1.
         12    1    5    5    0    0  0.23742651420E+02  0.20200976748E+02 -0.64303592870E+02  0.71461493226E+02  0.00000000000E+00 0. -1.
        -13    1    3    3    0    0  0.33933729950E+02  0.51467776669E-01 -0.22005714696E+03  0.22265814291E+03  0.00000000000E+00 0.  1.
         14    1    3    3    0    0  0.28020546362E+02 -0.47998279050E+02 -0.12013603643E+04  0.12026452972E+04  0.00000000000E+00 0. -1.
          5    1    4    4  501    0  0.22583927552E+02  0.83408590091E+01  0.97817955370E+03  0.97848706327E+03  0.47000000000E+01 0.  1.
         -5    1    4    4    0  501 -0.42368843867E+02  0.29568699028E+02  0.18389096651E+03  0.19106910911E+03  0.47000000000E+01 0.  1.
          1    1    1    2  502    0 -0.30775089617E+02  0.14395899121E+02  0.18224007405E+04  0.18227174238E+04  0.00000000000E+00 0. -1.
          1    1    1    2  503    0 -0.12013353779E+02 -0.10103034792E+03 -0.90402166677E+03  0.90972887492E+03  0.00000000000E+00 0. -1.
<mgrwt>
<rscale>  0 0.58786744E+02</rscale>
<asrwt>0</asrwt>
<pdfrwt beam="1">  1        2 0.44112749E+00 0.33975698E+02</pdfrwt>
<pdfrwt beam="2">  1        2 0.43362482E+00 0.10171627E+03</pdfrwt>
<totfact> 0.16580987E+00</totfact>
</mgrwt>
</event>
<event>
13    1  0.1589573E-008  0.6295435E+02  0.7546771E-02  0.1401681E+00
          2   -1    0    0  503    0  0.00000000000E+00  0.00000000000E+00  0.35031353015E+04  0.35031353015E+04  0.00000000000E+00 0. -1.
          2   -1    0    0  502    0 -0.00000000000E+00 -0.00000000000E+00 -0.51951015496E+04  0.51951015496E+04  0.00000000000E+00 0. -1.
         24    2    1    2    0    0  0.93306783935E+03 -0.92391586766E+02 -0.11389006572E+02  0.94142589255E+03  0.83673195036E+02 0.  0.
         25    2    1    2    0    0 -0.26174262793E+03  0.61790239572E+03  0.20339224188E+03  0.71225307829E+03  0.12499387813E+03 0.  0.
         24    2    1    2    0    0 -0.77527366977E+03 -0.50661095839E+03 -0.51318221156E+03  0.10639170115E+04  0.10420891940E+03 0.  0.
        -11    1    3    3    0    0  0.66913259398E+03 -0.29990950492E+02 -0.19584848568E+02  0.67009062949E+03  0.00000000000E+00 0.  1.
         12    1    3    3    0    0  0.26393524536E+03 -0.62400636274E+02  0.81958419961E+01  0.27133526306E+03  0.00000000000E+00 0. -1.
        -13    1    5    5    0    0 -0.72499284679E+03 -0.44825243438E+03 -0.44761249443E+03  0.96275740350E+03  0.00000000000E+00 0.  1.
         14    1    5    5    0    0 -0.50280822974E+02 -0.58358524009E+02 -0.65569717136E+02  0.10115960799E+03  0.00000000000E+00 0. -1.
          5    1    4    4  501    0  0.23783951356E+01  0.26785738808E+02  0.32848867813E+02  0.42711481870E+02  0.47000000000E+01 0. -1.
         -5    1    4    4    0  501 -0.26412102306E+03  0.59111665691E+03  0.17054337406E+03  0.66954159642E+03  0.47000000000E+01 0. -1.
          1    1    1    2  502    0  0.43080832497E+02 -0.34937799119E+02 -0.36750750137E+04  0.36754935674E+04  0.00000000000E+00 0. -1.
          1    1    1    2  503    0  0.60867625851E+02  0.16037948551E+02  0.23042877419E+04  0.23051473014E+04  0.00000000000E+00 0. -1.
<mgrwt>
<rscale>  0 0.59092302E+02</rscale>
<asrwt>0</asrwt>
<pdfrwt beam="1">  1        2 0.51516696E+00 0.62954349E+02</pdfrwt>
<pdfrwt beam="2">  1        2 0.76398552E+00 0.55467179E+02</pdfrwt>
<totfact> 0.22329978E-02</totfact>
</mgrwt>
</event>
<event>
13    1  0.1589573E-008  0.1636942E+03  0.7546771E-02  0.1225465E+00
          4   -1    0    0  503    0 -0.00000000000E+00  0.00000000000E+00  0.12364513717E+04  0.12364513717E+04  0.00000000000E+00 0. -1.
          2   -1    0    0  502    0  0.00000000000E+00 -0.00000000000E+00 -0.25708499014E+04  0.25708499014E+04  0.00000000000E+00 0. -1.
         24    2    1    2    0    0  0.15249831057E+03  0.99396955887E+01  0.36685732118E+03  0.40638103900E+03  0.84892417099E+02 0.  0.
         25    2    1    2    0    0 -0.35419320119E+03 -0.88780979948E+02 -0.11164355388E+04  0.11812696843E+04  0.12503946850E+03 0.  0.
         24    2    1    2    0    0  0.25361731167E+03 -0.14075924527E+03 -0.36457535387E+02  0.30745801547E+03  0.95217506172E+02 0.  0.
        -11    1    3    3    0    0  0.68910816429E+02 -0.19358158562E+02  0.86011670813E+02  0.11189926917E+03  0.00000000000E+00 0.  1.
         12    1    3    3    0    0  0.83587494136E+02  0.29297854151E+02  0.28084565037E+03  0.29448176983E+03  0.00000000000E+00 0. -1.
        -13    1    5    5    0    0  0.16010873066E+03 -0.13308159523E+03 -0.45789724586E+02  0.21317179808E+03  0.00000000000E+00 0.  1.
         14    1    5    5    0    0  0.93508581019E+02 -0.76776500441E+01  0.93321891990E+01  0.94286217389E+02  0.00000000000E+00 0. -1.
          5    1    4    4  501    0 -0.26216223820E+03 -0.11542684201E+03 -0.76174779198E+03  0.81383916321E+03  0.47000000000E+01 0.  1.
         -5    1    4    4    0  501 -0.92030962988E+02  0.26645862057E+02 -0.35468774681E+03  0.36743052112E+03  0.47000000000E+01 0.  1.
          1    1    1    2  502    0  0.50668364342E+02  0.92419657757E+02 -0.12181808109E+04  0.12227318448E+04  0.00000000000E+00 0. -1.
          3    1    1    2  503    0 -0.10259078539E+03  0.12718087188E+03  0.66981803416E+03  0.68946068945E+03  0.00000000000E+00 0. -1.
<mgrwt>
<rscale>  0 0.13135065E+03</rscale>
<asrwt>0</asrwt>
<pdfrwt beam="2">  1        2 0.37806616E+00 0.10539771E+03</pdfrwt>
<pdfrwt beam="1">  1        4 0.18183109E+00 0.16369420E+03</pdfrwt>
<totfact> 0.47870329E-01</totfact>
</mgrwt>
</event>
<event>
13    1  0.1589573E-008  0.1754687E+03  0.7546771E-02  0.1280490E+00
          4   -1    0    0  503    0 -0.00000000000E+00  0.00000000000E+00  0.81530695337E+03  0.81530695337E+03  0.00000000000E+00 0. -1.
          2   -1    0    0  502    0  0.00000000000E+00 -0.00000000000E+00 -0.33503431847E+04  0.33503431847E+04  0.00000000000E+00 0. -1.
         24    2    1    2    0    0  0.10241652782E+03  0.85142053485E+00 -0.43084158208E+03  0.45099202159E+03  0.85319778459E+02 0.  0.
         25    2    1    2    0    0 -0.14945564565E+03  0.15724064772E+03 -0.80272455634E+03  0.84086442365E+03  0.12499861717E+03 0.  0.
         24    2    1    2    0    0  0.32388725604E+02  0.26736553500E+02 -0.32209937742E+03  0.33455412309E+03  0.80091070071E+02 0.  0.
        -11    1    3    3    0    0  0.28643941988E+02 -0.32986183300E+02 -0.82869075167E+02  0.93679492528E+02  0.00000000000E+00 0.  1.
         12    1    3    3    0    0  0.73772585832E+02  0.33837603834E+02 -0.34797250692E+03  0.35731252906E+03  0.00000000000E+00 0. -1.
        -13    1    5    5    0    0  0.56072698697E+02  0.31770527315E+02 -0.26082289126E+03  0.26866725620E+03  0.00000000000E+00 0.  1.
         14    1    5    5    0    0 -0.23683973093E+02 -0.50339738146E+01 -0.61276486155E+02  0.65886866896E+02  0.00000000000E+00 0. -1.
          5    1    4    4  501    0 -0.92727873658E+02  0.10235374958E+03 -0.28056644885E+03  0.31275289100E+03  0.47000000000E+01 0. -1.
         -5    1    4    4    0  501 -0.56727771988E+02  0.54886898143E+02 -0.52215810749E+03  0.52811153266E+03  0.47000000000E+01 0. -1.
          1    1    1    2  502    0  0.64004935210E+02 -0.15654376517E+03 -0.17541955881E+04  0.17623293516E+04  0.00000000000E+00 0. -1.
          3    1    1    2  503    0 -0.49354542987E+02 -0.28284856583E+02  0.77482487256E+03  0.77691021821E+03  0.00000000000E+00 0. -1.
<mgrwt>
<rscale>  0 0.99907659E+02</rscale>
<asrwt>0</asrwt>
<pdfrwt beam="2">  1        2 0.49269751E+00 0.17546874E+03</pdfrwt>
<pdfrwt beam="1">  1        4 0.11989809E+00 0.56885007E+02</pdfrwt>
<totfact> 0.47524610E-01</totfact>
</mgrwt>
</event>
<event>
13    1  0.1589573E-008  0.1355557E+03  0.7546771E-02  0.1263114E+00
          2   -1    0    0  502    0  0.00000000000E+00  0.00000000000E+00  0.17732922214E+04  0.17732922214E+04  0.00000000000E+00 0. -1.
          4   -1    0    0  503    0 -0.00000000000E+00 -0.00000000000E+00 -0.15976799736E+04  0.15976799736E+04  0.00000000000E+00 0. -1.
         24    2    1    2    0    0  0.56593391063E+02  0.98385661675E+02 -0.45041656357E+02  0.14648706212E+03  0.80914511844E+02 0.  0.
         25    2    1    2    0    0  0.59251044991E+01  0.10245008411E+03  0.40933195557E+03  0.44012400988E+03  0.12500147051E+03 0.  0.
         24    2    1    2    0    0 -0.17404546315E+02 -0.32658440294E+01 -0.11939720951E+03  0.13643424140E+03  0.63600508001E+02 0.  0.
        -11    1    5    5    0    0 -0.39750333564E+02  0.51833720948E+01 -0.57566787509E+02  0.70149065488E+02  0.00000000000E+00 0.  1.
         12    1    5    5    0    0  0.22345787249E+02 -0.84492161242E+01 -0.61830421996E+02  0.66285175908E+02  0.00000000000E+00 0. -1.
        -11    1    3    3    0    0  0.61244231447E+02  0.10948896184E+03 -0.33591711341E+02  0.12987336802E+03  0.00000000000E+00 0.  1.
         12    1    3    3    0    0 -0.46508403840E+01 -0.11103300165E+02 -0.11449945016E+02  0.16613694102E+02  0.00000000000E+00 0. -1.
          5    1    4    4  501    0  0.57369834614E+02  0.35542963613E+02  0.25865840832E+03  0.26735905143E+03  0.47000000000E+01 0. -1.
         -5    1    4    4    0  501 -0.51444730114E+02  0.66907120497E+02  0.15067354724E+03  0.17276495845E+03  0.47000000000E+01 0. -1.
          1    1    1    2  502    0 -0.21267865075E+02  0.84426145538E+02  0.12730824479E+04  0.12760560393E+04  0.00000000000E+00 0. -1.
          3    1    1    2  503    0 -0.23846084171E+02 -0.28199604729E+03 -0.13423632898E+04  0.13718708424E+04  0.00000000000E+00 0. -1.
<mgrwt>
<rscale>  0 0.10863764E+03</rscale>
<asrwt>0</asrwt>
<pdfrwt beam="1">  1        2 0.26077827E+00 0.87064847E+02</pdfrwt>
<pdfrwt beam="2">  1        4 0.23495294E+00 0.13555571E+03</pdfrwt>
<totfact> 0.56595101E-01</totfact>
</mgrwt>
</event>
<event>
13    1  0.1589573E-008  0.6459802E+02  0.7546771E-02  0.1419211E+00
          2   -1    0    0  502    0  0.00000000000E+00  0.00000000000E+00  0.12046292458E+04  0.12046292458E+04  0.00000000000E+00 0. -1.
          2   -1    0    0  503    0 -0.00000000000E+00 -0.00000000000E+00 -0.72531871706E+03  0.72531871706E+03  0.00000000000E+00 0. -1.
         24    2    1    2    0    0 -0.24833609948E+02 -0.49450522099E+02 -0.39089726504E+03  0.40291681147E+03  0.80493619843E+02 0.  0.
         25    2    1    2    0    0  0.21811389954E+02  0.52534062357E+02  0.26203608036E+03  0.29584203469E+03  0.12499615048E+03 0.  0.
         24    2    1    2    0    0  0.37113122449E+02  0.49815719901E+02  0.55123040232E+02  0.11515882611E+03  0.79774782096E+02 0.  0.
        -11    1    3    3    0    0 -0.11013869521E+02 -0.71116549251E+02 -0.29130334369E+03  0.30006083874E+03  0.00000000000E+00 0.  1.
         12    1    3    3    0    0 -0.13819740428E+02  0.21666027152E+02 -0.99593921348E+02  0.10285597274E+03  0.00000000000E+00 0. -1.
        -13    1    5    5    0    0  0.49820581943E+02  0.32698322026E+02  0.67870374813E+02  0.90319756564E+02  0.00000000000E+00 0.  1.
         14    1    5    5    0    0 -0.12707459494E+02  0.17117397875E+02 -0.12747334581E+02  0.24839069542E+02  0.00000000000E+00 0. -1.
          5    1    4    4  501    0  0.55079327867E+02  0.35515187396E+02  0.55820417072E+02  0.86215253036E+02  0.47000000000E+01 0. -1.
         -5    1    4    4    0  501 -0.33267937913E+02  0.17018874961E+02  0.20621566329E+03  0.20962678165E+03  0.47000000000E+01 0. -1.
          1    1    1    2  502    0  0.11837468397E+02 -0.63558228512E+02  0.83130120165E+03  0.83381140669E+03  0.00000000000E+00 0. -1.
          1    1    1    2  503    0 -0.45928370852E+02  0.10658968353E+02 -0.27825252845E+03  0.28221888392E+03  0.00000000000E+00 0. -1.
<mgrwt>
<rscale>  0 0.55188157E+02</rscale>
<asrwt>0</asrwt>
<pdfrwt beam="1">  1        2 0.17715136E+00 0.64598024E+02</pdfrwt>
<pdfrwt beam="2">  1        2 0.10666452E+00 0.47149007E+02</pdfrwt>
<totfact> 0.16200747E+02</totfact>
</mgrwt>
</event>
<event>
13    1  0.2589567E-008  0.1075802E+03  0.7546771E-02  0.1370149E+00
          2   -1    0    0  502    0  0.00000000000E+00  0.00000000000E+00  0.38318848372E+04  0.38318848372E+04  0.00000000000E+00 0. -1.
          2   -1    0    0  503    0 -0.00000000000E+00 -0.00000000000E+00 -0.31219174622E+04  0.31219174622E+04  0.00000000000E+00 0. -1.
         24    2    1    2    0    0 -0.17536873511E+02 -0.38776916308E+02 -0.85824970590E+03  0.86329699096E+03  0.82933381478E+02 0.  0.
         25    2    1    2    0    0 -0.16810407738E+03  0.98223894770E+02 -0.17079100771E+02  0.23199919615E+03  0.12500006799E+03 0.  0.
         24    2    1    2    0    0  0.78590745694E+02  0.33286431470E+02 -0.10287636973E+04  0.10355357420E+04  0.81823200848E+02 0.  0.
        -13    1    3    3    0    0 -0.41832919289E+02  0.60101109485E+01 -0.39039509311E+03  0.39267600295E+03  0.00000000000E+00 0.  1.
         14    1    3    3    0    0  0.24296045778E+02 -0.44787027257E+02 -0.46785461279E+03  0.47062098801E+03  0.00000000000E+00 0. -1.
        -13    1    5    5    0    0  0.56514901693E+01  0.12322139584E+02 -0.21499811646E+02  0.25416852005E+02  0.00000000000E+00 0.  1.
         14    1    5    5    0    0  0.72939255525E+02  0.20964291886E+02 -0.10072638857E+04  0.10101188900E+04  0.00000000000E+00 0. -1.
          5    1    4    4  501    0 -0.13178285199E+03  0.86531987024E+02 -0.64974909252E+02  0.17058233698E+03  0.47000000000E+01 0.  1.
         -5    1    4    4    0  501 -0.36321225386E+02  0.11691907746E+02  0.47895808481E+02  0.61416859170E+02  0.47000000000E+01 0.  1.
          1    1    1    2  502    0  0.65886450638E+02 -0.85000380507E+02  0.37173400745E+04  0.37188954434E+04  0.00000000000E+00 0. -1.
          1    1    1    2  503    0  0.41163754554E+02 -0.77330294248E+01 -0.11032801955E+04  0.11040749269E+04  0.00000000000E+00 0. -1.
<mgrwt>
<rscale>  0 0.67125769E+02</rscale>
<asrwt>0</asrwt>
<pdfrwt beam="1">  1        2 0.56351248E+00 0.10758018E+03</pdfrwt>
<pdfrwt beam="2">  1        2 0.45910551E+00 0.41883821E+02</pdfrwt>
<totfact> 0.42140518E-01</totfact>
</mgrwt>
</event>
<event>
13    1  0.1589573E-008  0.9914023E+02  0.7546771E-02  0.1386386E+00
          2   -1    0    0  502    0  0.00000000000E+00  0.00000000000E+00  0.19434918590E+04  0.19434918590E+04  0.00000000000E+00 0. -1.
          2   -1    0    0  503    0 -0.00000000000E+00 -0.00000000000E+00 -0.26246781054E+04  0.26246781054E+04  0.00000000000E+00 0. -1.
         24    2    1    2    0    0 -0.24076517651E+02 -0.28144747954E+02 -0.55700367344E+03  0.56260805642E+03  0.70020906739E+02 0.  0.
         25    2    1    2    0    0  0.83120322820E+02  0.29325909616E+03  0.10295858075E+04  0.10810124085E+04  0.12502402530E+03 0.  0.
         24    2    1    2    0    0 -0.10774778959E+03 -0.14034711455E+03  0.69399812057E+02  0.20644457399E+03  0.80598570044E+02 0.  0.
        -13    1    5    5    0    0 -0.63054619819E+00  0.80103198853E+01  0.12418899804E+02  0.14791615379E+02  0.00000000000E+00 0.  1.
         14    1    5    5    0    0 -0.10711724340E+03 -0.14835743443E+03  0.56980912253E+02  0.19165295861E+03  0.00000000000E+00 0. -1.
        -13    1    3    3    0    0 -0.16591526924E+02  0.22497814681E+02 -0.18585639255E+03  0.18794687835E+03  0.00000000000E+00 0.  1.
         14    1    3    3    0    0 -0.74849907274E+01 -0.50642562634E+02 -0.37114728089E+03  0.37466117807E+03  0.00000000000E+00 0. -1.
          5    1    4    4  501    0  0.47984231669E+01  0.15910285445E+03  0.68064746845E+03  0.69902776016E+03  0.47000000000E+01 0.  1.
         -5    1    4    4    0  501  0.78321899653E+02  0.13415624172E+03  0.34893833902E+03  0.38198464838E+03  0.47000000000E+01 0.  1.
          1    1    1    2  502    0 -0.17780407654E+02 -0.35606348982E+02  0.74536778620E+03  0.74642956244E+03  0.00000000000E+00 0. -1.
          1    1    1    2  503    0  0.66484392079E+02 -0.89160884681E+02 -0.19685359787E+04  0.19716753631E+04  0.00000000000E+00 0. -1.
<mgrwt>
<rscale>  0 0.62814611E+02</rscale>
<asrwt>0</asrwt>
<pdfrwt beam="1">  1        2 0.28580763E+00 0.39798932E+02</pdfrwt>
<pdfrwt beam="2">  1        2 0.38598207E+00 0.99140231E+02</pdfrwt>
<totfact> 0.75964915E+00</totfact>
</mgrwt>
</event>
<event>
13    1  0.1589573E-008  0.3700954E+02  0.7546771E-02  0.1608873E+00
          2   -1    0    0  503    0  0.00000000000E+00  0.00000000000E+00  0.11095817611E+04  0.11095817611E+04  0.00000000000E+00 0. -1.
          2   -1    0    0  502    0 -0.00000000000E+00 -0.00000000000E+00 -0.66038174116E+03  0.66038174116E+03  0.00000000000E+00 0. -1.
         24    2    1    2    0    0 -0.20460092381E+03  0.33825983888E+02 -0.31087043721E+03  0.38235943766E+03  0.80947980960E+02 0.  0.
         25    2    1    2    0    0  0.28516230131E+03 -0.56922144132E+02  0.17255854243E+03  0.36050064382E+03  0.12500638002E+03 0.  0.
         24    2    1    2    0    0 -0.38167131988E+02  0.63488092612E+02  0.99162313221E+02  0.14750205699E+03  0.80226084189E+02 0.  0.
        -11    1    3    3    0    0 -0.12446739562E+03  0.47983808044E+02 -0.14156187735E+03  0.19451052292E+03  0.00000000000E+00 0.  1.
         12    1    3    3    0    0 -0.80133528184E+02 -0.14157824156E+02 -0.16930855986E+03  0.18784891474E+03  0.00000000000E+00 0. -1.
        -13    1    5    5    0    0 -0.83263313619E+00  0.53191599372E+02  0.15659028250E+02  0.55454888760E+02  0.00000000000E+00 0.  1.
         14    1    5    5    0    0 -0.37334498851E+02  0.10296493240E+02  0.83503284971E+02  0.92047168226E+02  0.00000000000E+00 0. -1.
          5    1    4    4  501    0  0.18497187727E+03  0.24879265838E+02  0.11071278179E+03  0.21705525403E+03  0.47000000000E+01 0. -1.
         -5    1    4    4    0  501  0.10019042405E+03 -0.81801409970E+02  0.61845760640E+02  0.14344538979E+03  0.47000000000E+01 0. -1.
          1    1    1    2  502    0 -0.30342360228E+02 -0.21041169779E+02 -0.19369139897E+03  0.19717948089E+03  0.00000000000E+00 0. -1.
          1    1    1    2  503    0 -0.12051885288E+02 -0.19350762589E+02  0.68204100044E+03  0.68242188288E+03  0.00000000000E+00 0. -1.
<mgrwt>
<rscale>  0 0.29046582E+02</rscale>
<asrwt>0</asrwt>
<pdfrwt beam="1">  1        2 0.16317379E+00 0.22796929E+02</pdfrwt>
<pdfrwt beam="2">  1        2 0.97114962E-01 0.37009544E+02</pdfrwt>
<totfact> 0.21570260E+02</totfact>
</mgrwt>
</event>
<event>
13    1  0.1589573E-008  0.1375708E+03  0.7546771E-02  0.1242777E+00
          2   -1    0    0  502    0  0.00000000000E+00  0.00000000000E+00  0.67908640064E+03  0.67908640064E+03  0.00000000000E+00 0. -1.
          2   -1    0    0  503    0 -0.00000000000E+00 -0.00000000000E+00 -0.23713686701E+04  0.23713686701E+04  0.00000000000E+00 0. -1.
         24    2    1    2    0    0  0.43285097813E+02  0.77687205662E+02 -0.23404660246E+02  0.12145062278E+03  0.79332049238E+02 0.  0.
         25    2    1    2    0    0  0.14571656336E+02 -0.17970094278E+03 -0.98664588295E+02  0.24054772189E+03  0.12499497398E+03 0.  0.
         24    2    1    2    0    0  0.31219078414E+02  0.28719190256E+02  0.31784120008E+03  0.33081403203E+03  0.81335555406E+02 0.  0.
        -11    1    5    5    0    0  0.43656786666E+02  0.48520741422E+02  0.19124394213E+03  0.20207528986E+03  0.00000000000E+00 0.  1.
         12    1    5    5    0    0 -0.12437708253E+02 -0.19801551166E+02  0.12659725795E+03  0.12873874217E+03  0.00000000000E+00 0. -1.
        -13    1    3    3    0    0 -0.51529462270E+01  0.60397665253E+02 -0.33172181070E+02  0.69100104340E+02  0.00000000000E+00 0.  1.
         14    1    3    3    0    0  0.48438044040E+02  0.17289540408E+02  0.97675208239E+01  0.52350518440E+02  0.00000000000E+00 0. -1.
          5    1    4    4  501    0  0.30708929603E+02 -0.19104846089E+03 -0.70833397703E+02  0.20611165177E+03  0.47000000000E+01 0. -1.
         -5    1    4    4    0  501 -0.16137273267E+02  0.11347518108E+02 -0.27831190592E+02  0.34436070123E+02  0.47000000000E+01 0. -1.
          1    1    1    2  502    0  0.49976816860E+02  0.78594342541E+02  0.22317623837E+03  0.24183131782E+03  0.00000000000E+00 0. -1.
          1    1    1    2  503    0 -0.13905264942E+03 -0.52997956765E+01 -0.21112304594E+04  0.21158113762E+04  0.00000000000E+00 0. -1.
<mgrwt>
<rscale>  0 0.12019402E+03</rscale>
<asrwt>0</asrwt>
<pdfrwt beam="1">  1        2 0.99865648E-01 0.10501216E+03</pdfrwt>
<pdfrwt beam="2">  1        2 0.34873068E+00 0.13757077E+03</pdfrwt>
<totfact> 0.42728521E+01</totfact>
</mgrwt>
</event>
<event>
13    1  0.1589573E-008  0.1425162E+03  0.7546771E-02  0.1386927E+00
          2   -1    0    0  502    0  0.00000000000E+00  0.00000000000E+00  0.79379762599E+03  0.79379762599E+03  0.00000000000E+00 0. -1.
          2   -1    0    0  503    0 -0.00000000000E+00 -0.00000000000E+00 -0.15029518696E+04  0.15029518696E+04  0.00000000000E+00 0. -1.
         24    2    1    2    0    0  0.11746397844E+03 -0.31015267266E+02  0.89356519961E+02  0.17204878463E+03  0.82803765604E+02 0.  0.
         25    2    1    2    0    0 -0.24819188786E+03  0.10202224451E+03 -0.14508539523E+03  0.32966369290E+03  0.12498250650E+03 0.  0.
         24    2    1    2    0    0 -0.33289680773E+01 -0.51794845962E+02 -0.51770764838E+02  0.10912207038E+03  0.80830848415E+02 0.  0.
        -11    1    3    3    0    0 -0.49154119456E+01 -0.19247189712E+02 -0.33116897783E+00  0.19867693860E+02  0.00000000000E+00 0.  1.
         12    1    3    3    0    0  0.12237939039E+03 -0.11768077553E+02  0.89687688939E+02  0.15218109077E+03  0.00000000000E+00 0. -1.
        -13    1    5    5    0    0  0.20980534054E+01  0.13085505775E+02 -0.41052717653E+02  0.43138821451E+02  0.00000000000E+00 0.  1.
         14    1    5    5    0    0 -0.54270214827E+01 -0.64880351737E+02 -0.10718047184E+02  0.65983248928E+02  0.00000000000E+00 0. -1.
          5    1    4    4  501    0  0.95743888244E+01  0.22816176590E+02 -0.47304437012E+01  0.25626430363E+02  0.47000000000E+01 0.  1.
         -5    1    4    4    0  501 -0.25776627668E+03  0.79206067920E+02 -0.14035495153E+03  0.30403726253E+03  0.47000000000E+01 0.  1.
          1    1    1    2  502    0  0.14284615591E+03  0.69141182362E+01  0.53252810135E+03  0.55139732318E+03  0.00000000000E+00 0. -1.
          1    1    1    2  503    0 -0.87892784133E+01 -0.26126249518E+02 -0.11341827048E+04  0.11345176245E+04  0.00000000000E+00 0. -1.
<mgrwt>
<rscale>  0 0.62677481E+02</rscale>
<asrwt>0</asrwt>
<pdfrwt beam="1">  1        2 0.11673495E+00 0.14251618E+03</pdfrwt>
<pdfrwt beam="2">  1        2 0.22102233E+00 0.27565056E+02</pdfrwt>
<totfact> 0.10732641E+02</totfact>
</mgrwt>
</event>
<event>
13    1  0.1589573E-008  0.1384763E+03  0.7546771E-02  0.1281189E+00
          2   -1    0    0  502    0  0.00000000000E+00  0.00000000000E+00  0.77137094137E+03  0.77137094137E+03  0.00000000000E+00 0. -1.
          2   -1    0    0  503    0 -0.00000000000E+00 -0.00000000000E+00 -0.12079063508E+04  0.12079063508E+04  0.00000000000E+00 0. -1.
         24    2    1    2    0    0 -0.72866360930E+02  0.58165914442E+02 -0.15612414472E+03  0.19895222442E+03  0.80712197844E+02 0.  0.
         25    2    1    2    0    0  0.85045652880E+02  0.72990971926E+02 -0.69972980113E+02  0.18188607112E+03  0.12500351941E+03 0.  0.
         24    2    1    2    0    0  0.35034257520E+02 -0.78272433408E+02  0.78480985529E+02  0.14445902366E+03  0.85762295885E+02 0.  0.
        -11    1    5    5    0    0  0.54194791481E+02 -0.84694746893E+02  0.60102490741E+02  0.11714343758E+03  0.00000000000E+00 0.  1.
         12    1    5    5    0    0 -0.19160533961E+02  0.64223134853E+01  0.18378494788E+02  0.27315586079E+02  0.00000000000E+00 0. -1.
        -11    1    3    3    0    0 -0.40359533017E+02 -0.50821379235E+00 -0.11099688388E+03  0.11810782538E+03  0.00000000000E+00 0.  1.
         12    1    3    3    0    0 -0.32506827913E+02  0.58674128234E+02 -0.45127260843E+02  0.80844399041E+02  0.00000000000E+00 0. -1.
          5    1    4    4  501    0  0.77778839828E+02  0.75641962663E+02  0.27205295788E+01  0.10863123732E+03  0.47000000000E+01 0.  1.
         -5    1    4    4    0  501  0.72668130516E+01 -0.26509907368E+01 -0.72693509692E+02  0.73254833801E+02  0.47000000000E+01 0.  1.
          1    1    1    2  502    0  0.34026457258E+02  0.63003001707E+02  0.57454716457E+03  0.57899190179E+03  0.00000000000E+00 0. -1.
          1    1    1    2  503    0 -0.81240006727E+02 -0.11588745467E+03 -0.86346643469E+03  0.87498807117E+03  0.00000000000E+00 0. -1.
<mgrwt>
<rscale>  0 0.99576600E+02</rscale>
<asrwt>0</asrwt>
<pdfrwt beam="1">  1        2 0.11343691E+00 0.71604316E+02</pdfrwt>
<pdfrwt beam="2">  1        2 0.17763328E+00 0.13847628E+03</pdfrwt>
<totfact> 0.14168380E+02</totfact>
</mgrwt>
</event>
<event>
13    1  0.1589573E-008  0.4158227E+02  0.7546771E-02  0.1557558E+00
          2   -1    0    0  503    0  0.00000000000E+00  0.00000000000E+00  0.15871986782E+03  0.15871986782E+03  0.00000000000E+00 0. -1.
          2   -1    0    0  502    0 -0.00000000000E+00 -0.00000000000E+00 -0.26312019186E+04  0.26312019186E+04  0.00000000000E+00 0. -1.
         24    2    1    2    0    0 -0.15270824746E+02  0.21530512272E+02 -0.99780089103E+03  0.10013191915E+04  0.79603669072E+02 0.  0.
         25    2    1    2    0    0  0.93227703042E+02  0.56383006448E+02  0.25825386096E+02  0.16781807632E+03  0.12500203256E+03 0.  0.
         24    2    1    2    0    0 -0.61699728148E+02 -0.80442338409E+02 -0.11439621265E+03  0.17283525503E+03  0.80670351735E+02 0.  0.
        -11    1    5    5    0    0 -0.53578980979E+02 -0.95212738862E+02 -0.83015666357E+02  0.13721433491E+03  0.00000000000E+00 0.  1.
         12    1    5    5    0    0 -0.81207471693E+01  0.14770400453E+02 -0.31380546297E+02  0.35620920118E+02  0.00000000000E+00 0. -1.
        -13    1    3    3    0    0 -0.23532212106E+02  0.40897054127E+02 -0.90193595234E+03  0.90316930648E+03  0.00000000000E+00 0.  1.
         14    1    3    3    0    0  0.82613873605E+01 -0.19366541854E+02 -0.95864938683E+02  0.98149885039E+02  0.00000000000E+00 0. -1.
          5    1    4    4  501    0 -0.17021097512E+02 -0.14788558395E+02 -0.18166692612E+02  0.29334926970E+02  0.47000000000E+01 0. -1.
         -5    1    4    4    0  501  0.11024880055E+03  0.71171564843E+02  0.43992078707E+02  0.13848314935E+03  0.47000000000E+01 0. -1.
          1    1    1    2  502    0 -0.39783599408E+02 -0.12317266219E+02 -0.14104022112E+04  0.14110169549E+04  0.00000000000E+00 0. -1.
          1    1    1    2  503    0  0.23526449259E+02  0.14846085907E+02  0.24291877995E+02  0.36932308593E+02  0.00000000000E+00 0. -1.
<mgrwt>
<rscale>  0 0.34011465E+02</rscale>
<asrwt>0</asrwt>
<pdfrwt beam="1">  1        2 0.23341157E-01 0.27819060E+02</pdfrwt>
<pdfrwt beam="2">  1        2 0.38694146E+00 0.41582273E+02</pdfrwt>
<totfact> 0.16944024E+02</totfact>
</mgrwt>
</event>
<event>
13    1  0.1589573E-008  0.1947108E+03  0.7546771E-02  0.1253491E+00
          2   -1    0    0  503    0  0.00000000000E+00  0.00000000000E+00  0.13710532359E+04  0.13710532359E+04  0.00000000000E+00 0. -1.
          2   -1    0    0  502    0 -0.00000000000E+00 -0.00000000000E+00 -0.23176629011E+04  0.23176629011E+04  0.00000000000E+00 0. -1.
         24    2    1    2    0    0 -0.31119325859E+02 -0.19677835313E+03 -0.21353798172E+03  0.30322157532E+03  0.81576475789E+02 0.  0.
         25    2    1    2    0    0  0.13729570042E+03  0.15881151435E+03  0.18682410008E+03  0.30756943219E+03  0.12499801920E+03 0.  0.
         24    2    1    2    0    0 -0.14401651157E+02 -0.66368845103E+02 -0.54691630581E+02  0.11797286961E+03  0.79461892456E+02 0.  0.
        -13    1    5    5    0    0 -0.38308517154E+02 -0.15939885010E+02 -0.25087455397E+01  0.41568211711E+02  0.00000000000E+00 0.  1.
         14    1    5    5    0    0  0.23906865997E+02 -0.50428960093E+02 -0.52182885041E+02  0.76404657901E+02  0.00000000000E+00 0. -1.
        -13    1    3    3    0    0  0.89987561558E+01 -0.13577433933E+03 -0.17166365828E+03  0.21905264300E+03  0.00000000000E+00 0.  1.
         14    1    3    3    0    0 -0.40118082015E+02 -0.61004013801E+02 -0.41874323440E+02  0.84168932320E+02  0.00000000000E+00 0. -1.
          5    1    4    4  501    0  0.12184707579E+03  0.47550507291E+02  0.11443078450E+03  0.17385124407E+03  0.47000000000E+01 0.  1.
         -5    1    4    4    0  501  0.15448624633E+02  0.11126100706E+03  0.72393315579E+02  0.13371818813E+03  0.47000000000E+01 0.  1.
          1    1    1    2  502    0  0.64773822661E+02 -0.15672433988E+02 -0.19027022928E+04  0.19038690313E+04  0.00000000000E+00 0. -1.
          1    1    1    2  503    0 -0.15654854606E+03  0.12000811786E+03  0.10374981398E+04  0.10560832286E+04  0.00000000000E+00 0. -1.
<mgrwt>
<rscale>  0 0.11391262E+03</rscale>
<asrwt>0</asrwt>
<pdfrwt beam="1">  1        2 0.20162548E+00 0.19471076E+03</pdfrwt>
<pdfrwt beam="2">  1        2 0.34083277E+00 0.66642879E+02</pdfrwt>
<totfact> 0.18693459E+01</totfact>
</mgrwt>
</event>
<event>
13    1  0.1589573E-008  0.9711976E+02  0.7546771E-02  0.1409457E+00
          2   -1    0    0  503    0  0.00000000000E+00  0.00000000000E+00  0.16637508390E+04  0.16637508390E+04  0.00000000000E+00 0. -1.
          2   -1    0    0  502    0 -0.00000000000E+00 -0.00000000000E+00 -0.42058569262E+04  0.42058569262E+04  0.00000000000E+00 0. -1.
         24    2    1    2    0    0  0.87732420950E-01  0.61038662397E+02 -0.14536265512E+04  0.14571688524E+04  0.81149171674E+02 0.  0.
         25    2    1    2    0    0  0.82151416558E+02  0.42223937002E+02  0.49961892971E+03  0.52323583474E+03  0.12499979092E+03 0.  0.
         24    2    1    2    0    0  0.32306454017E+02 -0.11715301275E+02 -0.94367470059E+02  0.12930264168E+03  0.81443222457E+02 0.  0.
        -11    1    3    3    0    0 -0.19334368645E+02  0.57249109623E+02 -0.13659953512E+04  0.13673311881E+04  0.00000000000E+00 0.  1.
         12    1    3    3    0    0  0.19422101066E+02  0.37895527732E+01 -0.87631199960E+02  0.89837664297E+02  0.00000000000E+00 0. -1.
        -13    1    5    5    0    0 -0.33831297268E+00  0.63043525867E+01 -0.91702544074E+02  0.91919616550E+02  0.00000000000E+00 0.  1.
         14    1    5    5    0    0  0.32644766989E+02 -0.18019653862E+02 -0.26649259852E+01  0.37383025126E+02  0.00000000000E+00 0. -1.
          5    1    4    4  501    0  0.26752379355E+02 -0.44090868093E+02  0.19606263307E+03  0.20278644071E+03  0.47000000000E+01 0.  1.
         -5    1    4    4    0  501  0.55399037203E+02  0.86314805095E+02  0.30355629665E+03  0.32044939403E+03  0.47000000000E+01 0.  1.
          1    1    1    2  502    0 -0.82254866942E+02 -0.10161775886E+03 -0.26249360775E+04  0.26281897654E+04  0.00000000000E+00 0. -1.
          1    1    1    2  503    0 -0.32290736054E+02  0.10070460734E+02  0.11312050818E+04  0.11317106710E+04  0.00000000000E+00 0. -1.
<mgrwt>
<rscale>  0 0.57315271E+02</rscale>
<asrwt>0</asrwt>
<pdfrwt beam="1">  1        2 0.24466924E+00 0.33824633E+02</pdfrwt>
<pdfrwt beam="2">  1        2 0.61850836E+00 0.97119761E+02</pdfrwt>
<totfact> 0.12260209E+00</totfact>
</mgrwt>
</event>
<event>
13    1  0.1589573E-008  0.1503214E+03  0.7546771E-02  0.1329396E+00
          2   -1    0    0  503    0  0.00000000000E+00  0.00000000000E+00  0.16949180112E+04  0.16949180112E+04  0.00000000000E+00 0. -1.
          2   -1    0    0  502    0 -0.00000000000E+00 -0.00000000000E+00 -0.68257698551E+03  0.68257698551E+03  0.00000000000E+00 0. -1.
         24    2    1    2    0    0  0.47440472883E+02  0.21258703688E+03  0.57534653675E+03  0.62044167710E+03  0.80500873435E+02 0.  0.
         25    2    1    2    0    0 -0.20256580701E+03 -0.51458681176E+01 -0.27548785348E+03  0.36411321206E+03  0.12500195061E+03 0.  0.
         24    2    1    2    0    0 -0.30730111939E+02 -0.15926286555E+03  0.16185079215E+03  0.25009119742E+03  0.10020443096E+03 0.  0.
        -11    1    3    3    0    0 -0.11119007359E+00 -0.18780993069E+01 -0.19818142506E+01  0.27326192495E+01  0.00000000000E+00 0.  1.
         12    1    3    3    0    0  0.47551662957E+02  0.21446513619E+03  0.57732835100E+03  0.61770905785E+03  0.00000000000E+00 0. -1.
        -13    1    5    5    0    0 -0.50366577109E+02 -0.28034970589E+02  0.55828111603E+02  0.80246680373E+02  0.00000000000E+00 0.  1.
         14    1    5    5    0    0  0.19636465171E+02 -0.13122789496E+03  0.10602268055E+03  0.16984451705E+03  0.00000000000E+00 0. -1.
          5    1    4    4  501    0 -0.47363880544E-01 -0.29303095727E+02 -0.62476853868E+02  0.69167340066E+02  0.47000000000E+01 0. -1.
         -5    1    4    4    0  501 -0.20251844313E+03  0.24157227610E+02 -0.21301099961E+03  0.29494587200E+03  0.47000000000E+01 0. -1.
          1    1    1    2  502    0  0.41527490089E+02 -0.87842043953E+01 -0.28793216456E+03  0.29104402771E+03  0.00000000000E+00 0. -1.
          1    1    1    2  503    0  0.14432795598E+03 -0.39394098820E+02  0.83856371483E+03  0.85180488243E+03  0.00000000000E+00 0. -1.
<mgrwt>
<rscale>  0 0.79878640E+02</rscale>
<asrwt>0</asrwt>
<pdfrwt beam="1">  1        2 0.24925265E+00 0.15032137E+03</pdfrwt>
<pdfrwt beam="2">  1        2 0.10037897E+00 0.42446374E+02</pdfrwt>
<totfact> 0.92738640E+01</totfact>
</mgrwt>
</event>
<event>
13    1  0.1589573E-008  0.1075516E+03  0.7546771E-02  0.1362528E+00
          2   -1    0    0  502    0  0.00000000000E+00  0.00000000000E+00  0.11300454002E+04  0.11300454002E+04  0.00000000000E+00 0. -1.
          2   -1    0    0  503    0 -0.00000000000E+00 -0.00000000000E+00 -0.32946090087E+04  0.32946090087E+04  0.00000000000E+00 0. -1.
         24    2    1    2    0    0  0.37726041482E+03  0.34534820835E+03 -0.40489535468E+03  0.65783574538E+03  0.84951833788E+02 0.  0.
         25    2    1    2    0    0 -0.20290752655E+03 -0.30816138441E+03 -0.41811828709E+02  0.39180199164E+03  0.12500267383E+03 0.  0.
         24    2    1    2    0    0 -0.12998397178E+03  0.13404584448E+02 -0.61743339788E+03  0.63405351414E+03  0.61027388645E+02 0.  0.
        -11    1    3    3    0    0  0.14191468587E+03  0.76734910660E+02 -0.12451277951E+03  0.20379268103E+03  0.00000000000E+00 0.  1.
         12    1    3    3    0    0  0.23534572895E+03  0.26861329769E+03 -0.28038257517E+03  0.45404306435E+03  0.00000000000E+00 0. -1.
        -13    1    5    5    0    0 -0.52934756020E+02  0.15779905593E+02 -0.39044707970E+03  0.39433490318E+03  0.00000000000E+00 0.  1.
         14    1    5    5    0    0 -0.77049215758E+02 -0.23753211457E+01 -0.22698631818E+03  0.23971861096E+03  0.00000000000E+00 0. -1.
          5    1    4    4  501    0 -0.16537251439E+03 -0.19278924992E+03  0.21353231162E+02  0.25493884342E+03  0.47000000000E+01 0. -1.
         -5    1    4    4    0  501 -0.37535012161E+02 -0.11537213449E+03 -0.63165059872E+02  0.13686314823E+03  0.47000000000E+01 0. -1.
          1    1    1    2  502    0  0.42761284740E+02  0.12809817119E+02  0.81814980544E+03  0.81936665970E+03  0.00000000000E+00 0. -1.
          1    1    1    2  503    0 -0.87130201226E+02 -0.63401225507E+02 -0.19185728327E+04  0.19215964981E+04  0.00000000000E+00 0. -1.
<mgrwt>
<rscale>  0 0.69289046E+02</rscale>
<asrwt>0</asrwt>
<pdfrwt beam="1">  1        2 0.16618315E+00 0.44638760E+02</pdfrwt>
<pdfrwt beam="2">  1        2 0.48450132E+00 0.10755164E+03</pdfrwt>
<totfact> 0.79897725E+00</totfact>
</mgrwt>
</event>
<event>
13    1  0.1589573E-008  0.1359623E+03  0.7546771E-02  0.1269284E+00
          2   -1    0    0  502    0  0.00000000000E+00  0.00000000000E+00  0.27486124802E+04  0.27486124802E+04  0.00000000000E+00 0. -1.
          2   -1    0    0  503    0 -0.00000000000E+00 -0.00000000000E+00 -0.14724907303E+04  0.14724907303E+04  0.00000000000E+00 0. -1.
         24    2    1    2    0    0 -0.57236961439E+02  0.52842261695E+02 -0.83420911638E+02  0.14047753558E+03  0.81893315521E+02 0.  0.
         25    2    1    2    0    0  0.45385049517E+03  0.41232337813E+02 -0.64031316978E+03  0.79580458805E+03  0.12499443720E+03 0.  0.
         24    2    1    2    0    0 -0.21738115188E+03  0.93515017942E+01 -0.45345409130E+02  0.23619520653E+03  0.79937185835E+02 0.  0.
        -11    1    3    3    0    0 -0.96433952855E+01  0.61846965556E+02 -0.33810993607E+02  0.71142290586E+02  0.00000000000E+00 0.  1.
         12    1    3    3    0    0 -0.47593566153E+02 -0.90047038603E+01 -0.49609918031E+02  0.69335244990E+02  0.00000000000E+00 0. -1.
        -13    1    5    5    0    0 -0.14526206262E+03  0.19693749083E+02  0.65631658799E+01  0.14673781290E+03  0.00000000000E+00 0.  1.
         14    1    5    5    0    0 -0.72119089268E+02 -0.10342247289E+02 -0.51908575010E+02  0.89457393631E+02  0.00000000000E+00 0. -1.
          5    1    4    4  501    0  0.33899314664E+03  0.79244105111E+02 -0.43169472368E+03  0.55459751723E+03  0.47000000000E+01 0.  1.
         -5    1    4    4    0  501  0.11485734853E+03 -0.38011767298E+02 -0.20861844610E+03  0.24120707082E+03  0.47000000000E+01 0.  1.
          1    1    1    2  502    0 -0.80145616555E+02 -0.16102394415E+02  0.25375519002E+04  0.25388683017E+04  0.00000000000E+00 0. -1.
          1    1    1    2  503    0 -0.99086765289E+02 -0.87323706888E+02 -0.49235065972E+03  0.50975757863E+03  0.00000000000E+00 0. -1.
<mgrwt>
<rscale>  0 0.10542550E+03</rscale>
<asrwt>0</asrwt>
<pdfrwt beam="1">  1        2 0.40420772E+00 0.81747214E+02</pdfrwt>
<pdfrwt beam="2">  1        2 0.21654275E+00 0.13596225E+03</pdfrwt>
<totfact> 0.10139900E+01</totfact>
</mgrwt>
</event>
<event>
13    1  0.1589573E-008  0.1921207E+03  0.7546771E-02  0.1204513E+00
          2   -1    0    0  503    0  0.00000000000E+00  0.00000000000E+00  0.33976660590E+04  0.33976660590E+04  0.00000000000E+00 0. -1.
          2   -1    0    0  502    0 -0.00000000000E+00 -0.00000000000E+00 -0.10458991077E+04  0.10458991077E+04  0.00000000000E+00 0. -1.
         24    2    1    2    0    0 -0.42503147291E+03 -0.10998921200E+03  0.29998537778E+03  0.54160118153E+03  0.10291371741E+03 0.  0.
         25    2    1    2    0    0  0.38957104275E+02 -0.31289468417E+02  0.10472642126E+02  0.13502498222E+03  0.12500153112E+03 0.  0.
         24    2    1    2    0    0  0.25448542227E+03  0.11866244063E+03  0.80321610362E+03  0.85467923889E+03  0.80479111118E+02 0.  0.
        -13    1    5    5    0    0  0.22320464576E+03  0.12595444539E+03  0.66254314524E+03  0.71038599050E+03  0.00000000000E+00 0.  1.
         14    1    5    5    0    0  0.31280776506E+02 -0.72920047593E+01  0.14067295838E+03  0.14429324839E+03  0.00000000000E+00 0. -1.
        -13    1    3    3    0    0 -0.13588189271E+03 -0.88345586445E+01  0.14271838574E+03  0.19725738470E+03  0.00000000000E+00 0.  1.
         14    1    3    3    0    0 -0.28914958020E+03 -0.10115465336E+03  0.15726699205E+03  0.34434379683E+03  0.00000000000E+00 0. -1.
          5    1    4    4  501    0  0.56071260925E+02 -0.63208308036E+02 -0.20574926595E+02  0.87090149333E+02  0.47000000000E+01 0. -1.
         -5    1    4    4    0  501 -0.17114156649E+02  0.31918839619E+02  0.31047568721E+02  0.47934832888E+02  0.47000000000E+01 0. -1.
          1    1    1    2  502    0  0.17457568828E+03 -0.80922094113E+02 -0.82448334815E+03  0.84663914841E+03  0.00000000000E+00 0. -1.
          1    1    1    2  503    0 -0.42986741918E+02  0.10353833391E+03  0.20625761759E+04  0.20656206157E+04  0.00000000000E+00 0. -1.
<mgrwt>
<rscale>  0 0.14675875E+03</rscale>
<asrwt>0</asrwt>
<pdfrwt beam="1">  1        2 0.49965677E+00 0.11210730E+03</pdfrwt>
<pdfrwt beam="2">  1        2 0.15380869E+00 0.19212069E+03</pdfrwt>
<totfact> 0.71261372E+00</totfact>
</mgrwt>
</event>
<event>
13    1  0.1589573E-008  0.7215962E+02  0.7546771E-02  0.1370712E+00
          2   -1    0    0  502    0  0.00000000000E+00  0.00000000000E+00  0.12233706856E+04  0.12233706856E+04  0.00000000000E+00 0. -1.
          2   -1    0    0  503    0 -0.00000000000E+00 -0.00000000000E+00 -0.38994436144E+03  0.38994436144E+03  0.00000000000E+00 0. -1.
         24    2    1    2    0    0 -0.22371269820E+02 -0.67690958804E+01  0.25865148315E+02  0.87936630273E+02  0.80731348769E+02 0.  0.
         25    2    1    2    0    0  0.15245030681E+02 -0.20963085259E+03  0.13810558094E+03  0.28085075683E+03  0.12500596309E+03 0.  0.
         24    2    1    2    0    0 -0.17161860789E+02  0.11016720309E+03  0.55301777975E+03  0.56971607710E+03  0.79475793078E+02 0.  0.
        -11    1    5    5    0    0 -0.46658732626E+02  0.86106849844E+02  0.36693304303E+03  0.37977794168E+03  0.00000000000E+00 0.  1.
         12    1    5    5    0    0  0.29496871837E+02  0.24060353241E+02  0.18608473672E+03  0.18993813542E+03  0.00000000000E+00 0. -1.
        -13    1    3    3    0    0 -0.48204137893E+02 -0.23125880520E+02  0.15931262312E+02  0.55787546806E+02  0.00000000000E+00 0.  1.
         14    1    3    3    0    0  0.25832868073E+02  0.16356784639E+02  0.99338860025E+01  0.32149083466E+02  0.00000000000E+00 0. -1.
          5    1    4    4  501    0  0.34911830699E+02 -0.86083583376E+02  0.12379635278E+03  0.15484458728E+03  0.47000000000E+01 0.  1.
         -5    1    4    4    0  501 -0.19666800018E+02 -0.12354726922E+03  0.14309228162E+02  0.12600616955E+03  0.47000000000E+01 0.  1.
          1    1    1    2  502    0  0.51058506441E+02  0.50140636896E+02  0.38885969311E+03  0.39538957431E+03  0.00000000000E+00 0. -1.
          1    1    1    2  503    0 -0.26770406514E+02  0.56092108494E+02 -0.27242187792E+03  0.27942200856E+03  0.00000000000E+00 0. -1.
<mgrwt>
<rscale>  0 0.66969603E+02</rscale>
<asrwt>0</asrwt>
<pdfrwt beam="1">  1        2 0.17990745E+00 0.72159623E+02</pdfrwt>
<pdfrwt beam="2">  1        2 0.57344760E-01 0.62152870E+02</pdfrwt>
<totfact> 0.30369247E+02</totfact>
</mgrwt>
</event>
<event>
13    1  0.1589573E-008  0.7374459E+02  0.7546771E-02  0.1435835E+00
          2   -1    0    0  503    0  0.00000000000E+00  0.00000000000E+00  0.25404888982E+04  0.25404888982E+04  0.00000000000E+00 0. -1.
          2   -1    0    0  502    0 -0.00000000000E+00 -0.00000000000E+00 -0.17294786323E+04  0.17294786323E+04  0.00000000000E+00 0. -1.
         24    2    1    2    0    0 -0.21047707748E+02 -0.31689095912E+03  0.31326781875E+02  0.32687266400E+03  0.70721179514E+02 0.  0.
         25    2    1    2    0    0 -0.64320494307E+02  0.32595484279E+03  0.16045117748E+04  0.16433077297E+04  0.12497429166E+03 0.  0.
         24    2    1    2    0    0  0.37379153236E+02  0.88624433659E+02 -0.17202660102E+02  0.12335608357E+03  0.75294757454E+02 0.  0.
        -11    1    3    3    0    0 -0.18625068583E+02 -0.43504519390E+02  0.24730308662E+02  0.53395922631E+02  0.00000000000E+00 0.  1.
         12    1    3    3    0    0 -0.24226391641E+01 -0.27338643973E+03  0.65964732132E+01  0.27347674137E+03  0.00000000000E+00 0. -1.
        -11    1    5    5    0    0  0.47119513391E+02  0.17753925290E+02 -0.31463207777E+01  0.50451459243E+02  0.00000000000E+00 0.  1.
         12    1    5    5    0    0 -0.97403601542E+01  0.70870508369E+02 -0.14056339325E+02  0.72904624322E+02  0.00000000000E+00 0. -1.
          5    1    4    4  501    0 -0.41516073600E+02  0.19442498794E+03  0.12235935777E+04  0.12396483347E+04  0.47000000000E+01 0.  1.
         -5    1    4    4    0  501 -0.22804420707E+02  0.13152985485E+03  0.38091819708E+03  0.40365939502E+03  0.47000000000E+01 0.  1.
          1    1    1    2  502    0  0.22027343718E+02 -0.28971833741E+02 -0.14898344176E+04  0.14902788876E+04  0.00000000000E+00 0. -1.
          1    1    1    2  503    0  0.25961705100E+02 -0.68716483581E+02  0.68220878695E+03  0.68615216552E+03  0.00000000000E+00 0. -1.
<mgrwt>
<rscale>  0 0.51806456E+02</rscale>
<asrwt>0</asrwt>
<pdfrwt beam="1">  1        2 0.37360131E+00 0.73744586E+02</pdfrwt>
<pdfrwt beam="2">  1        2 0.25433509E+00 0.36394656E+02</pdfrwt>
<totfact> 0.11019687E+01</totfact>
</mgrwt>
</event>
<event>
13    1  0.1589573E-008  0.9237712E+02  0.7546771E-02  0.1309033E+00
          2   -1    0    0  502    0  0.00000000000E+00  0.00000000000E+00  0.51887220397E+03  0.51887220397E+03  0.00000000000E+00 0. -1.
          2   -1    0    0  503    0 -0.00000000000E+00 -0.00000000000E+00 -0.35443303402E+04  0.35443303402E+04  0.00000000000E+00 0. -1.
         24    2    1    2    0    0  0.16961998534E+02 -0.51591475943E+02 -0.69246140692E+03  0.69943095330E+03  0.82167320575E+02 0.  0.
         25    2    1    2    0    0  0.18052866965E+03  0.23635506297E+02 -0.27547571718E+02  0.22255938012E+03  0.12499828499E+03 0.  0.
         24    2    1    2    0    0 -0.65801596425E+02 -0.81747885602E+02  0.77376424157E+02  0.15273679974E+03  0.79554082778E+02 0.  0.
        -11    1    3    3    0    0  0.18039960028E+02  0.19881899264E+02 -0.17155050431E+03  0.17363843355E+03  0.00000000000E+00 0.  1.
         12    1    3    3    0    0 -0.10779614936E+01 -0.71473375207E+02 -0.52091090261E+03  0.52579251975E+03  0.00000000000E+00 0. -1.
        -13    1    5    5    0    0 -0.34324998341E+02  0.12080425351E+01  0.48498566735E+02  0.59428746017E+02  0.00000000000E+00 0.  1.
         14    1    5    5    0    0 -0.31476598085E+02 -0.82955928137E+02  0.28877857423E+02  0.93308053722E+02  0.00000000000E+00 0. -1.
          5    1    4    4  501    0  0.16838355955E+03 -0.42365667771E+01 -0.59028396327E+02  0.17854246889E+03  0.47000000000E+01 0.  1.
         -5    1    4    4    0  501  0.12145110102E+02  0.27872073074E+02  0.31480824609E+02  0.44016911237E+02  0.47000000000E+01 0.  1.
          1    1    1    2  502    0 -0.73468684557E+02  0.38341104206E+02  0.29634911067E+03  0.30771818808E+03  0.00000000000E+00 0. -1.
          1    1    1    2  503    0 -0.58220387200E+02  0.71362751042E+02 -0.26791746924E+04  0.26807572229E+04  0.00000000000E+00 0. -1.
<mgrwt>
<rscale>  0 0.87495327E+02</rscale>
<asrwt>0</asrwt>
<pdfrwt beam="1">  1        2 0.76304735E-01 0.82871514E+02</pdfrwt>
<pdfrwt beam="2">  1        2 0.52122505E+00 0.92377124E+02</pdfrwt>
<totfact> 0.14423103E+01</totfact>
</mgrwt>
</event>
<event>
13    1  0.1589573E-008  0.4816347E+02  0.7546771E-02  0.1492896E+00
          2   -1    0    0  503    0  0.00000000000E+00  0.00000000000E+00  0.16706411950E+04  0.16706411950E+04  0.00000000000E+00 0. -1.
          2   -1    0    0  502    0 -0.00000000000E+00 -0.00000000000E+00 -0.29459873996E+04  0.29459873996E+04  0.00000000000E+00 0. -1.
         24    2    1    2    0    0  0.41451334386E+02 -0.17751411788E+03 -0.18657397904E+04  0.18765931826E+04  0.85950756277E+02 0.  0.
         25    2    1    2    0    0 -0.30682683565E+03  0.95059573897E+02  0.10515812098E+04  0.11066298195E+04  0.12500994790E+03 0.  0.
         24    2    1    2    0    0  0.28477408389E+03  0.80000604604E+02 -0.31906857431E+03  0.44247327707E+03  0.80507578612E+02 0.  0.
        -13    1    5    5    0    0  0.23820356033E+03  0.66819892635E+02 -0.21526375884E+03  0.32793950674E+03  0.00000000000E+00 0.  1.
         14    1    5    5    0    0  0.46570523561E+02  0.13180711969E+02 -0.10380481547E+03  0.11453377033E+03  0.00000000000E+00 0. -1.
        -13    1    3    3    0    0 -0.21899388392E+02 -0.95089088299E+02 -0.90575728698E+03  0.91099823317E+03  0.00000000000E+00 0.  1.
         14    1    3    3    0    0  0.63350722778E+02 -0.82425029581E+02 -0.95998250341E+03  0.96559494947E+03  0.00000000000E+00 0. -1.
          5    1    4    4  501    0 -0.14346726375E+02 -0.23614965544E+02  0.11123261528E+03  0.11470954562E+03  0.47000000000E+01 0.  1.
         -5    1    4    4    0  501 -0.29248010927E+03  0.11867453944E+03  0.94034859447E+03  0.99192027389E+03  0.47000000000E+01 0.  1.
          1    1    1    2  502    0  0.10395284282E+02 -0.35409609563E+02 -0.66490628735E+03  0.66592963092E+03  0.00000000000E+00 0. -1.
          1    1    1    2  503    0 -0.29793866913E+02  0.37863548943E+02  0.52278723771E+03  0.52500268452E+03  0.00000000000E+00 0. -1.
<mgrwt>
<rscale>  0 0.42159493E+02</rscale>
<asrwt>0</asrwt>
<pdfrwt beam="1">  1        2 0.24568253E+00 0.48163470E+02</pdfrwt>
<pdfrwt beam="2">  1        2 0.43323343E+00 0.36903962E+02</pdfrwt>
<totfact> 0.79847842E+00</totfact>
</mgrwt>
</event>
<event>
13    1  0.1589573E-008  0.1124070E+03  0.7546771E-02  0.1387553E+00
          2   -1    0    0  503    0  0.00000000000E+00  0.00000000000E+00  0.17990607297E+04  0.17990607297E+04  0.00000000000E+00 0. -1.
          2   -1    0    0  502    0 -0.00000000000E+00 -0.00000000000E+00 -0.18920375584E+04  0.18920375584E+04  0.00000000000E+00 0. -1.
         24    2    1    2    0    0  0.13764991637E+01 -0.11998547427E+03 -0.34919036389E+03  0.37787036607E+03  0.80334889906E+02 0.  0.
         25    2    1    2    0    0  0.88537723017E+02 -0.53762453054E+02  0.12263735946E+03  0.20346227695E+03  0.12501058536E+03 0.  0.
         24    2    1    2    0    0 -0.63047924060E+01  0.81877447985E+02  0.23093061680E+02  0.11810045575E+03  0.81674728376E+02 0.  0.
        -11    1    3    3    0    0  0.20678733729E+02 -0.92714545694E+02 -0.16261796899E+03  0.18833003172E+03  0.00000000000E+00 0.  1.
         12    1    3    3    0    0 -0.19302234566E+02 -0.27270928573E+02 -0.18657239490E+03  0.18954033434E+03  0.00000000000E+00 0. -1.
        -11    1    5    5    0    0  0.60323738337E+01  0.83184879935E+01  0.40271203548E+02  0.41561479904E+02  0.00000000000E+00 0.  1.
         12    1    5    5    0    0 -0.12337166240E+02  0.73558959991E+02 -0.17178141868E+02  0.76538975848E+02  0.00000000000E+00 0. -1.
          5    1    4    4  501    0  0.28335162876E+02 -0.78253091368E+01 -0.24079088974E+02  0.38288502767E+02  0.47000000000E+01 0.  1.
         -5    1    4    4    0  501  0.60202560141E+02 -0.45937143917E+02  0.14671644843E+03  0.16517377419E+03  0.47000000000E+01 0.  1.
          1    1    1    2  502    0 -0.88952504284E+02  0.12623005182E+03 -0.14362567374E+04  0.14445345236E+04  0.00000000000E+00 0. -1.
          1    1    1    2  503    0  0.53430745089E+01 -0.34359572486E+02  0.15467398515E+04  0.15471306658E+04  0.00000000000E+00 0. -1.
<mgrwt>
<rscale>  0 0.62519407E+02</rscale>
<asrwt>0</asrwt>
<pdfrwt beam="1">  1        2 0.26456776E+00 0.34772527E+02</pdfrwt>
<pdfrwt beam="2">  1        2 0.27824082E+00 0.11240702E+03</pdfrwt>
<totfact> 0.20214341E+01</totfact>
</mgrwt>
</event>
<event>
13    1  0.1589573E-008  0.5417518E+02  0.7546771E-02  0.1557413E+00
         -1   -1    0    0    0  501 -0.00000000000E+00  0.00000000000E+00  0.95798462791E+03  0.95798462791E+03  0.00000000000E+00 0.  1.
          2   -1    0    0  503    0  0.00000000000E+00 -0.00000000000E+00 -0.18181672110E+04  0.18181672110E+04  0.00000000000E+00 0. -1.
         24    2    1    2    0    0 -0.28481281179E+03 -0.39763515324E+03 -0.32670895800E+03  0.59442840805E+03  0.85873955320E+02 0.  0.
         25    2    1    2    0    0 -0.99586171459E+02 -0.42328285968E+03  0.38132299288E+02  0.45405440590E+03  0.12500218570E+03 0.  0.
         24    2    1    2    0    0  0.39860174488E+03  0.76480671632E+03 -0.79898750144E+03  0.11784450537E+04  0.80864409304E+02 0.  0.
        -13    1    3    3    0    0 -0.15889389566E+03 -0.22901819756E+03 -0.13482446399E+03  0.30963565845E+03  0.00000000000E+00 0.  1.
         14    1    3    3    0    0 -0.12591891613E+03 -0.16861695568E+03 -0.19188449402E+03  0.28479274960E+03  0.00000000000E+00 0. -1.
        -13    1    5    5    0    0  0.17187993478E+03  0.38593906978E+03 -0.34857153797E+03  0.54771689279E+03  0.00000000000E+00 0.  1.
         14    1    5    5    0    0  0.22672181011E+03  0.37886764654E+03 -0.45041596347E+03  0.63072816088E+03  0.00000000000E+00 0. -1.
          5    1    4    4  502    0  0.29151155444E+02 -0.98261304567E+02  0.14700124184E+02  0.10364968640E+03  0.47000000000E+01 0. -1.
         -5    1    4    4    0  502 -0.12873732690E+03 -0.32502155511E+03  0.23432175104E+02  0.35040471951E+03  0.47000000000E+01 0. -1.
          1    1    1    2  503    0 -0.21237802960E+02  0.23943932930E+01 -0.15830998738E+03  0.15974614079E+03  0.00000000000E+00 0. -1.
         -2    1    1    2    0  501  0.70350413226E+01  0.53716903305E+02  0.38569156449E+03  0.38947783047E+03  0.00000000000E+00 0.  1.
<mgrwt>
<rscale>  0 0.34027211E+02</rscale>
<asrwt>0</asrwt>
<pdfrwt beam="2">  1        2 0.26737753E+00 0.21372351E+02</pdfrwt>
<pdfrwt beam="1">  1       -1 0.14088009E+00 0.54175185E+02</pdfrwt>
<totfact> 0.74636288E+00</totfact>
</mgrwt>
</event>
<event>
13    1  0.1589573E-008  0.1104408E+03  0.7546771E-02  0.1311088E+00
          2   -1    0    0  502    0  0.00000000000E+00  0.00000000000E+00  0.33523152722E+04  0.33523152722E+04  0.00000000000E+00 0. -1.
          2   -1    0    0  503    0 -0.00000000000E+00 -0.00000000000E+00 -0.29286303694E+04  0.29286303694E+04  0.00000000000E+00 0. -1.
         24    2    1    2    0    0  0.29622023187E+02  0.81232494464E+01 -0.10454624295E+03  0.13773597632E+03  0.84248625022E+02 0.  0.
         25    2    1    2    0    0  0.34090323433E+02 -0.38111971069E+02  0.92844037259E+03  0.93821141155E+03  0.12499781922E+03 0.  0.
         24    2    1    2    0    0 -0.24692410672E+02  0.17606740097E+03 -0.43757445701E+02  0.19980380027E+03  0.79983746591E+02 0.  0.
        -13    1    5    5    0    0 -0.15191556616E+02  0.18259500872E+03 -0.43272731250E+02  0.18826643320E+03  0.00000000000E+00 0.  1.
         14    1    5    5    0    0 -0.95008540557E+01 -0.65276077487E+01 -0.48471445050E+00  0.11537367066E+02  0.00000000000E+00 0. -1.
        -13    1    3    3    0    0  0.12655641835E+02 -0.38181847546E+02 -0.50712828804E+02  0.64728739811E+02  0.00000000000E+00 0.  1.
         14    1    3    3    0    0  0.16966381352E+02  0.46305096993E+02 -0.53833414143E+02  0.73007236504E+02  0.00000000000E+00 0. -1.
          5    1    4    4  501    0 -0.16515588242E+02 -0.56709327618E+02  0.73376617541E+03  0.73615460514E+03  0.47000000000E+01 0.  1.
         -5    1    4    4    0  501  0.50605911675E+02  0.18597356548E+02  0.19467419718E+03  0.20205680640E+03  0.47000000000E+01 0.  1.
          1    1    1    2  502    0  0.63438993940E+02 -0.24586292068E+02  0.23215170624E+04  0.23225138241E+04  0.00000000000E+00 0. -1.
          1    1    1    2  503    0 -0.10245892989E+03 -0.12149238728E+03 -0.26779688435E+04  0.26826806294E+04  0.00000000000E+00 0. -1.
<mgrwt>
<rscale>  0 0.86683488E+02</rscale>
<asrwt>0</asrwt>
<pdfrwt beam="1">  1        2 0.49298754E+00 0.68036694E+02</pdfrwt>
<pdfrwt beam="2">  1        2 0.43068093E+00 0.11044080E+03</pdfrwt>
<totfact> 0.95977385E-01</totfact>
</mgrwt>
</event>
<event>
13    1  0.1589573E-008  0.6188243E+02  0.7546771E-02  0.1508864E+00
          2   -1    0    0  502    0  0.00000000000E+00  0.00000000000E+00  0.27797469215E+03  0.27797469215E+03  0.00000000000E+00 0. -1.
          2   -1    0    0  503    0 -0.00000000000E+00 -0.00000000000E+00 -0.11158762587E+04  0.11158762587E+04  0.00000000000E+00 0. -1.
         24    2    1    2    0    0 -0.10468140218E+03 -0.39788213999E+02 -0.30871490489E+03  0.33792139108E+03  0.79653475174E+02 0.  0.
         25    2    1    2    0    0  0.18298435877E+03  0.83207818790E+02  0.14802811803E+02  0.23716986066E+03  0.12499441151E+03 0.  0.
         24    2    1    2    0    0  0.70454877218E+01 -0.26850674431E+02 -0.25517194828E+03  0.26635791893E+03  0.71156308035E+02 0.  0.
        -11    1    3    3    0    0 -0.80103176266E+02 -0.52482199078E+02 -0.28758887687E+03  0.30311427246E+03  0.00000000000E+00 0.  1.
         12    1    3    3    0    0 -0.24578225919E+02  0.12693985079E+02 -0.21126028022E+02  0.34807118618E+02  0.00000000000E+00 0. -1.
        -13    1    5    5    0    0 -0.18065250103E+02 -0.40468273699E+02 -0.19167124912E+03  0.19672799032E+03  0.00000000000E+00 0.  1.
         14    1    5    5    0    0  0.25110737825E+02  0.13617599269E+02 -0.63500699158E+02  0.69629928605E+02  0.00000000000E+00 0. -1.
          5    1    4    4  501    0  0.22822279263E+02  0.72282024737E+02  0.88194218705E+01  0.76455344699E+02  0.47000000000E+01 0.  1.
         -5    1    4    4    0  501  0.16016207950E+03  0.10925794053E+02  0.59833899322E+01  0.16071451596E+03  0.47000000000E+01 0.  1.
          1    1    1    2  502    0 -0.24438804603E+02 -0.80841257761E+01  0.12825856132E+03  0.13081615654E+03  0.00000000000E+00 0. -1.
          1    1    1    2  503    0 -0.60909639701E+02 -0.84848045837E+01 -0.41707608653E+03  0.42158562365E+03  0.00000000000E+00 0. -1.
<mgrwt>
<rscale>  0 0.39911486E+02</rscale>
<asrwt>0</asrwt>
<pdfrwt beam="1">  1        2 0.40878631E-01 0.25741178E+02</pdfrwt>
<pdfrwt beam="2">  1        2 0.16409945E+00 0.61882432E+02</pdfrwt>
<totfact> 0.48646641E+02</totfact>
</mgrwt>
</event>
<event>
13    1  0.1589573E-008  0.1322116E+03  0.7546771E-02  0.1404207E+00
          2   -1    0    0  502    0  0.00000000000E+00  0.00000000000E+00  0.11752736943E+04  0.11752736943E+04  0.00000000000E+00 0. -1.
          2   -1    0    0  503    0 -0.00000000000E+00 -0.00000000000E+00 -0.13057085711E+04  0.13057085711E+04  0.00000000000E+00 0. -1.
         24    2    1    2    0    0  0.19310655628E+02  0.55506606396E+02  0.45603958458E+02  0.11028575475E+03  0.81420770685E+02 0.  0.
         25    2    1    2    0    0  0.50690607481E+02 -0.12548862218E+01  0.68185429179E+03  0.69506975353E+03  0.12500229846E+03 0.  0.
         24    2    1    2    0    0  0.36632257623E+02 -0.75266833531E+02  0.29033510911E+03  0.31292433720E+03  0.81364283941E+02 0.  0.
        -11    1    3    3    0    0  0.75203826538E+01  0.73995852880E+02  0.47539361732E+02  0.88271928225E+02  0.00000000000E+00 0.  1.
         12    1    3    3    0    0  0.11790272974E+02 -0.18489246484E+02 -0.19354032734E+01  0.22013826523E+02  0.00000000000E+00 0. -1.
        -13    1    5    5    0    0  0.49872583117E+02 -0.20739639411E+02  0.19460232882E+03  0.20195908885E+03  0.00000000000E+00 0.  1.
         14    1    5    5    0    0 -0.13240325493E+02 -0.54527194120E+02  0.95732780297E+02  0.11096524835E+03  0.00000000000E+00 0. -1.
          5    1    4    4  501    0  0.55401411664E+02 -0.10591465433E+02  0.11573041257E+03  0.12882978672E+03  0.47000000000E+01 0.  1.
         -5    1    4    4    0  501 -0.47108041831E+01  0.93365792110E+01  0.56612387922E+03  0.56623996681E+03  0.47000000000E+01 0.  1.
          1    1    1    2  502    0  0.25155740913E+02  0.61247626597E+01  0.10211431496E+03  0.10534541916E+03  0.00000000000E+00 0. -1.
          1    1    1    2  503    0 -0.13178926165E+03  0.14890350697E+02 -0.12503425512E+04  0.12573570007E+04  0.00000000000E+00 0. -1.
<mgrwt>
<rscale>  0 0.58506748E+02</rscale>
<asrwt>0</asrwt>
<pdfrwt beam="1">  1        2 0.17283437E+00 0.25890616E+02</pdfrwt>
<pdfrwt beam="2">  1        2 0.19201597E+00 0.13221159E+03</pdfrwt>
<totfact> 0.78345042E+01</totfact>
</mgrwt>
</event>
<event>
13    1  0.1589573E-008  0.6274850E+02  0.7546771E-02  0.1502361E+00
          2   -1    0    0  502    0  0.00000000000E+00  0.00000000000E+00  0.83886177866E+03  0.83886177866E+03  0.00000000000E+00 0. -1.
          2   -1    0    0  503    0 -0.00000000000E+00 -0.00000000000E+00 -0.10245152814E+04  0.10245152814E+04  0.00000000000E+00 0. -1.
         24    2    1    2    0    0 -0.31123538566E+02  0.22181109672E+02 -0.25120839959E+03  0.26657740665E+03  0.80605070764E+02 0.  0.
         25    2    1    2    0    0 -0.34753562516E+02  0.19655100214E+02 -0.16166707443E+03  0.20823137890E+03  0.12501972297E+03 0.  0.
         24    2    1    2    0    0  0.23264367938E+02 -0.25663510834E+01  0.76158864956E+02  0.10437338011E+03  0.67422643011E+02 0.  0.
        -11    1    3    3    0    0 -0.19934917169E+02 -0.22365831794E+01 -0.23360280325E+03  0.23446251921E+03  0.00000000000E+00 0.  1.
         12    1    3    3    0    0 -0.11188621397E+02  0.24417692852E+02 -0.17605596339E+02  0.32114887442E+02  0.00000000000E+00 0. -1.
        -13    1    5    5    0    0  0.19345484041E+02 -0.29884060965E+02  0.65956744958E+02  0.74950630804E+02  0.00000000000E+00 0.  1.
         14    1    5    5    0    0  0.39188838972E+01  0.27317709882E+02  0.10202119998E+02  0.29422749305E+02  0.00000000000E+00 0. -1.
          5    1    4    4  501    0 -0.56505280165E+02 -0.27319559898E+02 -0.36633789031E+02  0.72823962666E+02  0.47000000000E+01 0. -1.
         -5    1    4    4    0  501  0.21751717650E+02  0.46974660112E+02 -0.12503328540E+03  0.13540741624E+03  0.47000000000E+01 0. -1.
          1    1    1    2  502    0  0.18647958664E+02  0.18880028794E+02  0.71563684067E+03  0.71612868227E+03  0.00000000000E+00 0. -1.
          1    1    1    2  503    0  0.23964774480E+02 -0.58149887596E+02 -0.56457373432E+03  0.56806621210E+03  0.00000000000E+00 0. -1.
<mgrwt>
<rscale>  0 0.40806183E+02</rscale>
<asrwt>0</asrwt>
<pdfrwt beam="1">  1        2 0.12336203E+00 0.26536802E+02</pdfrwt>
<pdfrwt beam="2">  1        2 0.15066401E+00 0.62748504E+02</pdfrwt>
<totfact> 0.17512566E+02</totfact>
</mgrwt>
</event>
<event>
13    1  0.1589573E-008  0.1041234E+03  0.7546771E-02  0.1356789E+00
          2   -1    0    0  502    0  0.00000000000E+00  0.00000000000E+00  0.71260290408E+03  0.71260290408E+03  0.00000000000E+00 0. -1.
          2   -1    0    0  503    0 -0.00000000000E+00 -0.00000000000E+00 -0.25847201685E+04  0.25847201685E+04  0.00000000000E+00 0. -1.
         24    2    1    2    0    0  0.69024903340E+02  0.20285156623E+02 -0.10339612191E+04  0.10396024119E+04  0.80755478055E+02 0.  0.
         25    2    1    2    0    0  0.51277350669E+02 -0.13253355686E+03  0.52282251402E+03  0.55602289934E+03  0.12499429202E+03 0.  0.
         24    2    1    2    0    0 -0.13567676899E+03 -0.11526676821E+02 -0.33110238105E+03  0.36717112700E+03  0.81515641701E+02 0.  0.
        -11    1    3    3    0    0  0.28152792062E+01  0.16891002852E+02 -0.63034955762E+03  0.63058210930E+03  0.00000000000E+00 0.  1.
         12    1    3    3    0    0  0.66209624133E+02  0.33941537718E+01 -0.40361166151E+03  0.40902030257E+03  0.00000000000E+00 0. -1.
        -13    1    5    5    0    0 -0.69345077380E+02  0.27691744009E+02 -0.21698178920E+03  0.22947041049E+03  0.00000000000E+00 0.  1.
         14    1    5    5    0    0 -0.66331691614E+02 -0.39218420829E+02 -0.11412059185E+03  0.13770071652E+03  0.00000000000E+00 0. -1.
          5    1    4    4  501    0  0.20920788336E+02  0.20878012331E+02  0.12517777260E+03  0.12870561579E+03  0.47000000000E+01 0. -1.
         -5    1    4    4    0  501  0.30356562333E+02 -0.15341156919E+03  0.39764474143E+03  0.42731728355E+03  0.47000000000E+01 0. -1.
          1    1    1    2  502    0  0.42422110675E+02  0.23274656392E+02  0.14612548226E+03  0.15392856028E+03  0.00000000000E+00 0. -1.
          1    1    1    2  503    0 -0.27047595690E+02  0.10050042067E+03 -0.11760016605E+04  0.11805980741E+04  0.00000000000E+00 0. -1.
<mgrwt>
<rscale>  0 0.70980741E+02</rscale>
<asrwt>0</asrwt>
<pdfrwt beam="1">  1        2 0.10479455E+00 0.48387448E+02</pdfrwt>
<pdfrwt beam="2">  1        2 0.38010590E+00 0.10412340E+03</pdfrwt>
<totfact> 0.33466165E+01</totfact>
</mgrwt>
</event>
<event>
13    1  0.1589573E-008  0.8932769E+02  0.7546771E-02  0.1307171E+00
          2   -1    0    0  503    0  0.00000000000E+00  0.00000000000E+00  0.15622256098E+04  0.15622256098E+04  0.00000000000E+00 0. -1.
         -3   -1    0    0    0  501 -0.00000000000E+00 -0.00000000000E+00 -0.99417461763E+03  0.99417461763E+03  0.00000000000E+00 0.  1.
         24    2    1    2    0    0  0.84782515625E+01  0.62457048492E+00 -0.12520437746E+03  0.15237705239E+03  0.86431239271E+02 0.  0.
         25    2    1    2    0    0  0.65806072695E+02 -0.50674376773E+02  0.30774308109E+03  0.34238778574E+03  0.12500104080E+03 0.  0.
         24    2    1    2    0    0  0.53341927916E+02  0.64462892008E+02 -0.48193700793E+02  0.12581318648E+03  0.80656675949E+02 0.  0.
        -11    1    5    5    0    0 -0.21323960094E+01  0.53616043454E+02 -0.35339678534E+01  0.53774679517E+02  0.00000000000E+00 0.  1.
         12    1    5    5    0    0  0.55474323925E+02  0.10846848554E+02 -0.44659732940E+02  0.72038506958E+02  0.00000000000E+00 0. -1.
        -11    1    3    3    0    0  0.71374272051E+01 -0.64712518040E+01 -0.13765072484E+03  0.13798747050E+03  0.00000000000E+00 0.  1.
         12    1    3    3    0    0  0.13408243574E+01  0.70958222889E+01  0.12446347376E+02  0.14389581889E+02  0.00000000000E+00 0. -1.
          5    1    4    4  502    0  0.49901883681E+02  0.17450851892E+02  0.23668004823E+03  0.24255775695E+03  0.47000000000E+01 0.  1.
         -5    1    4    4    0  502  0.15904189014E+02 -0.68125228664E+02  0.71063032861E+02  0.99830028790E+02  0.47000000000E+01 0.  1.
          1    1    1    2  503    0 -0.69331957130E+02  0.57309760292E+02  0.11802026611E+04  0.11836256377E+04  0.00000000000E+00 0. -1.
         -4    1    1    2    0  501 -0.58294295043E+02 -0.71722846013E+02 -0.74649667182E+03  0.75219656508E+03  0.00000000000E+00 0.  1.
<mgrwt>
<rscale>  0 0.88239993E+02</rscale>
<asrwt>0</asrwt>
<pdfrwt beam="1">  1        2 0.22973906E+00 0.89327691E+02</pdfrwt>
<pdfrwt beam="2">  1       -3 0.14620215E+00 0.87165540E+02</pdfrwt>
<totfact> 0.34271965E+00</totfact>
</mgrwt>
</event>
<event>
13    1  0.1589573E-008  0.1607777E+03  0.7546771E-02  0.1400000E+00
          2   -1    0    0  503    0  0.00000000000E+00  0.00000000000E+00  0.65810322704E+03  0.65810322704E+03  0.00000000000E+00 0. -1.
          2   -1    0    0  502    0 -0.00000000000E+00 -0.00000000000E+00 -0.11119664135E+04  0.11119664135E+04  0.00000000000E+00 0. -1.
         24    2    1    2    0    0  0.35761157320E+02  0.72034909932E+02 -0.92122022213E+02  0.14586488482E+03  0.79512319952E+02 0.  0.
         25    2    1    2    0    0 -0.12237961046E+03 -0.17298190189E+03 -0.41040314461E+03  0.47849268667E+03  0.12500001060E+03 0.  0.
         24    2    1    2    0    0 -0.26678225870E+02 -0.16903030179E+02 -0.10099294425E+03  0.13679318769E+03  0.86691183203E+02 0.  0.
        -13    1    5    5    0    0 -0.24900592328E+02 -0.41768961112E+02 -0.20933856415E+02  0.52942534460E+02  0.00000000000E+00 0.  1.
         14    1    5    5    0    0 -0.17776335419E+01  0.24865930932E+02 -0.80059087831E+02  0.83850653227E+02  0.00000000000E+00 0. -1.
        -13    1    3    3    0    0 -0.23663306246E+02  0.37200296031E+02 -0.32660321375E+02  0.54868120795E+02  0.00000000000E+00 0.  1.
         14    1    3    3    0    0  0.59424463567E+02  0.34834613901E+02 -0.59461700839E+02  0.90996764022E+02  0.00000000000E+00 0. -1.
          5    1    4    4  501    0 -0.15496090878E+02 -0.84293708649E+02 -0.69807449991E+02  0.11063782456E+03  0.47000000000E+01 0.  1.
         -5    1    4    4    0  501 -0.10688351959E+03 -0.88688193237E+02 -0.34059569462E+03  0.36785486210E+03  0.47000000000E+01 0.  1.
          1    1    1    2  502    0 -0.11813192204E+02  0.18570486243E+02 -0.41832843064E+03  0.41890701874E+03  0.00000000000E+00 0. -1.
          1    1    1    2  503    0  0.12510987122E+03  0.99279535891E+02  0.56798335528E+03  0.59001186259E+03  0.00000000000E+00 0. -1.
<mgrwt>
<rscale>  0 0.59486326E+02</rscale>
<asrwt>0</asrwt>
<pdfrwt beam="1">  1        2 0.96779889E-01 0.16077768E+03</pdfrwt>
<pdfrwt beam="2">  1        2 0.16352447E+00 0.22009418E+02</pdfrwt>
<totfact> 0.20878431E+02</totfact>
</mgrwt>
</event>
<event>
13    1  0.1589573E-008  0.9622640E+02  0.7546771E-02  0.1345448E+00
          2   -1    0    0  502    0  0.00000000000E+00  0.00000000000E+00  0.11302194979E+04  0.11302194979E+04  0.00000000000E+00 0. -1.
          2   -1    0    0  503    0 -0.00000000000E+00 -0.00000000000E+00 -0.16971199993E+04  0.16971199993E+04  0.00000000000E+00 0. -1.
         24    2    1    2    0    0  0.16376794861E+02  0.22579785248E+02 -0.29591737336E+03  0.30802712987E+03  0.80842901782E+02 0.  0.
         25    2    1    2    0    0 -0.93105097924E+02 -0.27235913957E+02  0.56948730730E+03  0.59106449438E+03  0.12502435389E+03 0.  0.
         24    2    1    2    0    0 -0.33311122677E+02 -0.85645216547E+01  0.90235626982E+02  0.12648632510E+03  0.81690514355E+02 0.  0.
        -13    1    5    5    0    0 -0.81028037952E+01  0.17766712284E+02 -0.84547684409E+01  0.21278970936E+02  0.00000000000E+00 0.  1.
         14    1    5    5    0    0 -0.25208318882E+02 -0.26331233939E+02  0.98690395422E+02  0.10520735416E+03  0.00000000000E+00 0. -1.
        -13    1    3    3    0    0  0.22307076875E+02 -0.26528328282E+02 -0.95484631997E+02  0.10158086841E+03  0.00000000000E+00 0.  1.
         14    1    3    3    0    0 -0.59302820140E+01  0.49108113530E+02 -0.20043274136E+03  0.20644626146E+03  0.00000000000E+00 0. -1.
          5    1    4    4  501    0 -0.70752000070E+02  0.43796606884E+02  0.28265887852E+03  0.29468987071E+03  0.47000000000E+01 0. -1.
         -5    1    4    4    0  501 -0.22353097854E+02 -0.71032520841E+02  0.28682842878E+03  0.29637462367E+03  0.47000000000E+01 0. -1.
          1    1    1    2  502    0  0.19363117963E+02  0.54320241459E+02  0.43179461160E+03  0.43562851786E+03  0.00000000000E+00 0. -1.
          1    1    1    2  503    0  0.90676307777E+02 -0.41099591096E+02 -0.13625006739E+04  0.13661330300E+04  0.00000000000E+00 0. -1.
<mgrwt>
<rscale>  0 0.74492963E+02</rscale>
<asrwt>0</asrwt>
<pdfrwt beam="1">  1        2 0.16620875E+00 0.57668180E+02</pdfrwt>
<pdfrwt beam="2">  1        2 0.24957647E+00 0.96226404E+02</pdfrwt>
<totfact> 0.51365592E+01</totfact>
</mgrwt>
</event>
<event>
13    1  0.1589573E-008  0.7956989E+02  0.7546771E-02  0.1363017E+00
          2   -1    0    0  503    0  0.00000000000E+00  0.00000000000E+00  0.16877103808E+04  0.16877103808E+04  0.00000000000E+00 0. -1.
          2   -1    0    0  502    0 -0.00000000000E+00 -0.00000000000E+00 -0.21550176253E+03  0.21550176253E+03  0.00000000000E+00 0. -1.
         24    2    1    2    0    0  0.69961296445E+02  0.89232133397E+02  0.23639464879E+02  0.14073794706E+03  0.79946161965E+02 0.  0.
         25    2    1    2    0    0 -0.19026075151E+03  0.12094035823E+02  0.33238724392E+03  0.40305079928E+03  0.12499299024E+03 0.  0.
         24    2    1    2    0    0  0.51811241487E+02  0.19677291309E+02  0.33182416571E+02  0.10414357112E+03  0.81689718441E+02 0.  0.
        -11    1    3    3    0    0 -0.15400602630E+02  0.16794027369E+02  0.17289010448E+02  0.28602933397E+02  0.00000000000E+00 0.  1.
         12    1    3    3    0    0  0.85361899075E+02  0.72438106028E+02  0.63504544311E+01  0.11213501367E+03  0.00000000000E+00 0. -1.
        -13    1    5    5    0    0  0.15737588489E+01  0.41465483919E+02  0.29662761801E+01  0.41601224356E+02  0.00000000000E+00 0.  1.
         14    1    5    5    0    0  0.50237482638E+02 -0.21788192610E+02  0.30216140391E+02  0.62542346767E+02  0.00000000000E+00 0. -1.
          5    1    4    4  501    0  0.15026212749E+02 -0.16912502743E+01  0.57613699809E+02  0.59750111320E+02  0.47000000000E+01 0.  1.
         -5    1    4    4    0  501 -0.20528696426E+03  0.13785286097E+02  0.27477354412E+03  0.34330068796E+03  0.47000000000E+01 0.  1.
          1    1    1    2  502    0  0.29561056674E+02 -0.52315662957E+02 -0.74149402491E+02  0.95440654609E+02  0.00000000000E+00 0. -1.
          1    1    1    2  503    0  0.38927156902E+02 -0.68687797571E+02  0.11571488954E+04  0.11598391713E+04  0.00000000000E+00 0. -1.
<mgrwt>
<rscale>  0 0.69147226E+02</rscale>
<asrwt>0</asrwt>
<pdfrwt beam="1">  1        2 0.24819270E+00 0.79569885E+02</pdfrwt>
<pdfrwt beam="2">  1        2 0.31691437E-01 0.60089805E+02</pdfrwt>
<totfact> 0.32810107E+02</totfact>
</mgrwt>
</event>
<event>
13    1  0.1589573E-008  0.1633904E+03  0.7546771E-02  0.1185176E+00
          2   -1    0    0  503    0  0.00000000000E+00  0.00000000000E+00  0.29195077545E+04  0.29195077545E+04  0.00000000000E+00 0. -1.
          2   -1    0    0  502    0 -0.00000000000E+00 -0.00000000000E+00 -0.22309160198E+04  0.22309160198E+04  0.00000000000E+00 0. -1.
         24    2    1    2    0    0 -0.21145768159E+03 -0.36148570824E+03 -0.33853541811E+03  0.54447349860E+03  0.80367238342E+02 0.  0.
         25    2    1    2    0    0  0.20786501976E+03  0.44334652594E+02  0.20626908259E+03  0.32147396455E+03  0.12500059036E+03 0.  0.
         24    2    1    2    0    0  0.44876722306E+01  0.31632221331E+03  0.85348723238E+02  0.33716931782E+03  0.79491273030E+02 0.  0.
        -11    1    3    3    0    0 -0.12169832326E+03 -0.15851608703E+03 -0.12052469507E+03  0.23337530686E+03  0.00000000000E+00 0.  1.
         12    1    3    3    0    0 -0.89759358329E+02 -0.20296962121E+03 -0.21801072304E+03  0.31109819174E+03  0.00000000000E+00 0. -1.
        -13    1    5    5    0    0 -0.99941175613E+01  0.86283968130E+02  0.59379073794E+02  0.10521729870E+03  0.00000000000E+00 0.  1.
         14    1    5    5    0    0  0.14481789792E+02  0.23003824518E+03  0.25969649444E+02  0.23195201912E+03  0.00000000000E+00 0. -1.
          5    1    4    4  501    0  0.90917129724E+01  0.43784628742E+02  0.58307547275E+02  0.73631603460E+02  0.47000000000E+01 0.  1.
         -5    1    4    4    0  501  0.19877330679E+03  0.55002385148E+00  0.14796153532E+03  0.24784236109E+03  0.47000000000E+01 0.  1.
          1    1    1    2  502    0  0.13181835535E+03 -0.95755363658E+02 -0.15988772341E+04  0.16071569862E+04  0.00000000000E+00 0. -1.
          1    1    1    2  503    0 -0.13271336575E+03  0.96584205991E+02  0.23343865811E+04  0.23401500072E+04  0.00000000000E+00 0. -1.
<mgrwt>
<rscale>  0 0.16315850E+03</rscale>
<asrwt>0</asrwt>
<pdfrwt beam="1">  1        2 0.42933938E+00 0.16339045E+03</pdfrwt>
<pdfrwt beam="2">  1        2 0.32807588E+00 0.16292688E+03</pdfrwt>
<totfact> 0.31041006E+00</totfact>
</mgrwt>
</event>
<event>
13    1  0.1589573E-008  0.1204286E+03  0.7546771E-02  0.1269990E+00
         -1   -1    0    0    0  501 -0.00000000000E+00  0.00000000000E+00  0.11251075808E+04  0.11251075808E+04  0.00000000000E+00 0.  1.
          2   -1    0    0  503    0  0.00000000000E+00 -0.00000000000E+00 -0.35045421487E+03  0.35045421487E+03  0.00000000000E+00 0. -1.
         24    2    1    2    0    0 -0.10115271867E+03  0.76124934828E+02 -0.32995463001E+02  0.15373637545E+03  0.80742147355E+02 0.  0.
         25    2    1    2    0    0 -0.64281074297E+01  0.84243357963E+02 -0.21933515422E+02  0.15245984665E+03  0.12499864725E+03 0.  0.
         24    2    1    2    0    0  0.77615859174E+01  0.10583573138E+02  0.15465009744E+03  0.17673769726E+03  0.84541745657E+02 0.  0.
        -11    1    5    5    0    0  0.35734517136E+02 -0.18662452164E+01  0.13656921126E+03  0.14117927627E+03  0.00000000000E+00 0.  1.
         12    1    5    5    0    0 -0.27972931218E+02  0.12449818354E+02  0.18080886187E+02  0.35558420990E+02  0.00000000000E+00 0. -1.
        -13    1    3    3    0    0 -0.90805036297E+02  0.40291679995E+02  0.63207136315E+01  0.99543586004E+02  0.00000000000E+00 0.  1.
         14    1    3    3    0    0 -0.10347682374E+02  0.35833254833E+02 -0.39316176633E+02  0.54192789442E+02  0.00000000000E+00 0. -1.
          5    1    4    4  502    0 -0.46551380175E+02 -0.97786018157E+01  0.16460423023E-01  0.47798978238E+02  0.47000000000E+01 0. -1.
         -5    1    4    4    0  502  0.40123272745E+02  0.94021959778E+02 -0.21949975845E+02  0.10466086841E+03  0.47000000000E+01 0. -1.
          1    1    1    2  503    0  0.89134743802E+02 -0.65294103552E+02 -0.13574263930E+03  0.17502681691E+03  0.00000000000E+00 0. -1.
         -2    1    1    2    0  501  0.10684496381E+02 -0.10565776238E+03  0.81067488626E+03  0.81760105946E+03  0.00000000000E+00 0.  1.
<mgrwt>
<rscale>  0 0.10506580E+03</rscale>
<asrwt>0</asrwt>
<pdfrwt beam="2">  1        2 0.51537385E-01 0.12042858E+03</pdfrwt>
<pdfrwt beam="1">  1       -1 0.16545700E+00 0.91662816E+02</pdfrwt>
<totfact> 0.34971728E+01</totfact>
</mgrwt>
</event>
<event>
13    1  0.1589573E-008  0.2551580E+03  0.7546771E-02  0.1271904E+00
          2   -1    0    0  503    0  0.00000000000E+00  0.00000000000E+00  0.10662533942E+04  0.10662533942E+04  0.00000000000E+00 0. -1.
          2   -1    0    0  502    0 -0.00000000000E+00 -0.00000000000E+00 -0.34587966886E+04  0.34587966886E+04  0.00000000000E+00 0. -1.
         24    2    1    2    0    0  0.87092311039E+02 -0.16426798919E+03 -0.83030545689E+03  0.85456325166E+03  0.79386122425E+02 0.  0.
         25    2    1    2    0    0 -0.31791796426E+02 -0.91650009621E+02  0.62227137767E+03  0.64207270099E+03  0.12500097322E+03 0.  0.
         24    2    1    2    0    0  0.25786332993E+02 -0.41166460663E+01 -0.13331859829E+02  0.83555136554E+02  0.78242192033E+02 0.  0.
        -13    1    3    3    0    0  0.10015757092E+03 -0.12782332664E+03 -0.70236954913E+03  0.72089758315E+03  0.00000000000E+00 0.  1.
         14    1    3    3    0    0 -0.13065259884E+02 -0.36444662547E+02 -0.12793590776E+03  0.13366566851E+03  0.00000000000E+00 0. -1.
        -13    1    5    5    0    0 -0.82834292011E+00 -0.28548215363E+02  0.19625214962E+02  0.34653077998E+02  0.00000000000E+00 0.  1.
         14    1    5    5    0    0  0.26614675913E+02  0.24431569297E+02 -0.32957074791E+02  0.48902058556E+02  0.00000000000E+00 0. -1.
          5    1    4    4  501    0  0.23374984750E+02  0.15709781122E+02  0.22607191237E+03  0.22786791502E+03  0.47000000000E+01 0. -1.
         -5    1    4    4    0  501 -0.55166781176E+02 -0.10735979074E+03  0.39619946531E+03  0.41420478597E+03  0.47000000000E+01 0. -1.
          1    1    1    2  502    0 -0.11348483076E+03  0.28749617099E+03 -0.25474826574E+04  0.25661645982E+04  0.00000000000E+00 0. -1.
          1    1    1    2  503    0  0.32397983151E+02 -0.27461526118E+02  0.37630530208E+03  0.37869439539E+03  0.00000000000E+00 0. -1.
<mgrwt>
<rscale>  0 0.10409973E+03</rscale>
<asrwt>0</asrwt>
<pdfrwt beam="1">  1        2 0.15680197E+00 0.42470751E+02</pdfrwt>
<pdfrwt beam="2">  1        2 0.50864657E+00 0.25515804E+03</pdfrwt>
<totfact> 0.60331978E+00</totfact>
</mgrwt>
</event>
<event>
13    1  0.1589573E-008  0.1076135E+03  0.7546771E-02  0.1315294E+00
          2   -1    0    0  502    0  0.00000000000E+00  0.00000000000E+00  0.11862397480E+04  0.11862397480E+04  0.00000000000E+00 0. -1.
          2   -1    0    0  503    0 -0.00000000000E+00 -0.00000000000E+00 -0.22792966744E+04  0.22792966744E+04  0.00000000000E+00 0. -1.
         24    2    1    2    0    0 -0.74522714797E+02 -0.65383995729E+02 -0.12264910734E+03  0.18025437958E+03  0.87293389817E+02 0.  0.
         25    2    1    2    0    0  0.77014880349E+02  0.77462640735E+01  0.39281997426E+03  0.41943216998E+03  0.12499806651E+03 0.  0.
         24    2    1    2    0    0 -0.25031513740E+02  0.20348784546E+02  0.10226021522E+03  0.13535155501E+03  0.82596865037E+02 0.  0.
        -11    1    3    3    0    0  0.20027871695E+02 -0.12902582884E+02 -0.25303617607E+02  0.34754357334E+02  0.00000000000E+00 0.  1.
         12    1    3    3    0    0 -0.94550586492E+02 -0.52481412845E+02 -0.97345489737E+02  0.14550002224E+03  0.00000000000E+00 0. -1.
        -13    1    5    5    0    0 -0.19185541158E+02 -0.30591578008E+02  0.53837659390E+02  0.64826099706E+02  0.00000000000E+00 0.  1.
         14    1    5    5    0    0 -0.58459725818E+01  0.50940362554E+02  0.48422555825E+02  0.70525455299E+02  0.00000000000E+00 0. -1.
          5    1    4    4  501    0 -0.25217717681E+02 -0.23344233108E+02  0.15234325280E+03  0.15624161794E+03  0.47000000000E+01 0.  1.
         -5    1    4    4    0  501  0.10223259803E+03  0.31090497181E+02  0.24047672147E+03  0.26319055204E+03  0.47000000000E+01 0.  1.
          1    1    1    2  502    0 -0.43599372710E+01 -0.67080884566E+02  0.62932970262E+03  0.63290973190E+03  0.00000000000E+00 0. -1.
          1    1    1    2  503    0  0.26899285459E+02  0.10436983168E+03 -0.20948177111E+04  0.20975885860E+04  0.00000000000E+00 0. -1.
<mgrwt>
<rscale>  0 0.85053167E+02</rscale>
<asrwt>0</asrwt>
<pdfrwt beam="1">  1        2 0.17444702E+00 0.67222423E+02</pdfrwt>
<pdfrwt beam="2">  1        2 0.33519069E+00 0.10761351E+03</pdfrwt>
<totfact> 0.24594050E+01</totfact>
</mgrwt>
</event>
<event>
13    1  0.1589573E-008  0.8803409E+02  0.7546771E-02  0.1311778E+00
         -1   -1    0    0    0  501 -0.00000000000E+00  0.00000000000E+00  0.52299960808E+03  0.52299960808E+03  0.00000000000E+00 0.  1.
          2   -1    0    0  503    0  0.00000000000E+00 -0.00000000000E+00 -0.33620407471E+04  0.33620407471E+04  0.00000000000E+00 0. -1.
         24    2    1    2    0    0  0.23380456010E+02  0.41675331932E+02  0.65569606655E+02  0.11519700478E+03  0.81777121367E+02 0.  0.
         25    2    1    2    0    0 -0.57617700608E+02 -0.20425667864E+03 -0.28919687254E+03  0.37986864278E+03  0.12499905793E+03 0.  0.
         24    2    1    2    0    0  0.10718437576E+03  0.66521114849E+01 -0.64911901570E+03  0.66269504655E+03  0.79224284056E+02 0.  0.
        -11    1    5    5    0    0  0.21410238598E+02  0.34100285127E+02 -0.27246322400E+03  0.27542228703E+03  0.00000000000E+00 0.  1.
         12    1    5    5    0    0  0.85774137159E+02 -0.27448173642E+02 -0.37665579171E+03  0.38727275952E+03  0.00000000000E+00 0. -1.
        -13    1    3    3    0    0  0.13664724770E+02 -0.15473272599E+02 -0.74663929796E+01  0.21952081725E+02  0.00000000000E+00 0.  1.
         14    1    3    3    0    0  0.97157312397E+01  0.57148604530E+02  0.73035999635E+02  0.93244923057E+02  0.00000000000E+00 0. -1.
          5    1    4    4  502    0 -0.62282403782E+02 -0.15889098629E+03 -0.28703533536E+03  0.33397128184E+03  0.47000000000E+01 0. -1.
         -5    1    4    4    0  502  0.46647031737E+01 -0.45365692353E+02 -0.21615371800E+01  0.45897360941E+02  0.47000000000E+01 0. -1.
          1    1    1    2  503    0 -0.41041497147E+02  0.77337006066E+02 -0.23412315985E+04  0.23428680746E+04  0.00000000000E+00 0. -1.
         -2    1    1    2    0  501 -0.31905634010E+02  0.78592229158E+02  0.37493674111E+03  0.38441158646E+03  0.00000000000E+00 0.  1.
<mgrwt>
<rscale>  0 0.86412932E+02</rscale>
<asrwt>0</asrwt>
<pdfrwt beam="2">  1        2 0.49441776E+00 0.88034094E+02</pdfrwt>
<pdfrwt beam="1">  1       -1 0.76911707E-01 0.84821624E+02</pdfrwt>
<totfact> 0.39423568E+00</totfact>
</mgrwt>
</event>
<event>
13    1  0.1589573E-008  0.1182195E+03  0.7546771E-02  0.1274337E+00
          2   -1    0    0  502    0  0.00000000000E+00  0.00000000000E+00  0.31371965528E+04  0.31371965528E+04  0.00000000000E+00 0. -1.
          2   -1    0    0  503    0 -0.00000000000E+00 -0.00000000000E+00 -0.12353082308E+04  0.12353082308E+04  0.00000000000E+00 0. -1.
         24    2    1    2    0    0 -0.22338068920E+03  0.23840094724E+02 -0.67433280584E+03  0.71533689390E+03  0.80714659895E+02 0.  0.
         25    2    1    2    0    0  0.65389467163E+02  0.45549193951E+02  0.40487903858E+03  0.43116453951E+03  0.12500125106E+03 0.  0.
         24    2    1    2    0    0  0.68846190878E+02 -0.12025423078E+03  0.99725698527E+03  0.10100171852E+04  0.80077098412E+02 0.  0.
        -11    1    5    5    0    0  0.66817414010E+02 -0.36283693359E+02  0.48022761275E+03  0.48620945411E+03  0.00000000000E+00 0.  1.
         12    1    5    5    0    0  0.20287768686E+01 -0.83970537419E+02  0.51702937252E+03  0.52380773108E+03  0.00000000000E+00 0. -1.
        -13    1    3    3    0    0 -0.18464875697E+02  0.11015406422E+02 -0.19343668878E+02  0.28921762374E+02  0.00000000000E+00 0.  1.
         14    1    3    3    0    0 -0.20491581351E+03  0.12824688302E+02 -0.65498913696E+03  0.68641513153E+03  0.00000000000E+00 0. -1.
          5    1    4    4  501    0  0.38761457854E+02  0.88676814119E+02  0.24914957465E+03  0.26732681969E+03  0.47000000000E+01 0. -1.
         -5    1    4    4    0  501  0.26628009309E+02 -0.43127620168E+02  0.15572946393E+03  0.16383771982E+03  0.47000000000E+01 0. -1.
          1    1    1    2  502    0  0.11292122878E+03 -0.35465584266E+02  0.16891014723E+04  0.16932432771E+04  0.00000000000E+00 0. -1.
          1    1    1    2  503    0 -0.23776197621E+02  0.86330526369E+02 -0.51501636825E+03  0.52274288797E+03  0.00000000000E+00 0. -1.
<mgrwt>
<rscale>  0 0.10288800E+03</rscale>
<asrwt>0</asrwt>
<pdfrwt beam="1">  1        2 0.46135243E+00 0.11821953E+03</pdfrwt>
<pdfrwt beam="2">  1        2 0.18166298E+00 0.89544778E+02</pdfrwt>
<totfact> 0.81332108E+00</totfact>
</mgrwt>
</event>
<event>
13    1  0.1589573E-008  0.1082775E+03  0.7546771E-02  0.1313598E+00
          2   -1    0    0  502    0  0.00000000000E+00  0.00000000000E+00  0.11397112607E+03  0.11397112607E+03  0.00000000000E+00 0. -1.
          2   -1    0    0  503    0 -0.00000000000E+00 -0.00000000000E+00 -0.40426812346E+04  0.40426812346E+04  0.00000000000E+00 0. -1.
         24    2    1    2    0    0  0.46414475648E+02 -0.66050194103E+02 -0.16983049492E+04  0.17035426340E+04  0.10630556898E+03 0.  0.
         25    2    1    2    0    0 -0.10801242482E+03 -0.57495556836E+02 -0.64508368751E+02  0.18643575236E+03  0.12499814859E+03 0.  0.
         24    2    1    2    0    0  0.44911548279E+02  0.22186511320E+02 -0.35263339623E+03  0.36511111694E+03  0.80290267926E+02 0.  0.
        -13    1    5    5    0    0  0.52614789744E+02  0.29896787297E+02 -0.14407545736E+03  0.15626858739E+03  0.00000000000E+00 0.  1.
         14    1    5    5    0    0 -0.77032414651E+01 -0.77102759765E+01 -0.20855793887E+03  0.20884252955E+03  0.00000000000E+00 0. -1.
        -13    1    3    3    0    0  0.53575442433E+02 -0.69643508194E+02 -0.73915573873E+03  0.74435996156E+03  0.00000000000E+00 0.  1.
         14    1    3    3    0    0 -0.71609667852E+01  0.35933140912E+01 -0.95914921042E+03  0.95918267249E+03  0.00000000000E+00 0. -1.
          5    1    4    4  501    0 -0.35245983226E+02 -0.87000448813E+02 -0.49962177258E+02  0.10644090653E+03  0.47000000000E+01 0. -1.
         -5    1    4    4    0  501 -0.72766441593E+02  0.29504891978E+02 -0.14546191493E+02  0.79994845832E+02  0.47000000000E+01 0. -1.
          1    1    1    2  502    0  0.67571377846E+02 -0.60152826250E+01  0.14971310445E+02  0.69470964190E+02  0.00000000000E+00 0. -1.
          1    1    1    2  503    0 -0.50884976954E+02  0.10737452224E+03 -0.18282347048E+04  0.18320918931E+04  0.00000000000E+00 0. -1.
<mgrwt>
<rscale>  0 0.85705269E+02</rscale>
<asrwt>0</asrwt>
<pdfrwt beam="1">  1        2 0.16760461E-01 0.67838593E+02</pdfrwt>
<pdfrwt beam="2">  1        2 0.59451191E+00 0.10827750E+03</pdfrwt>
<totfact> 0.33851725E+01</totfact>
</mgrwt>
</event>
<event>
13    1  0.1589573E-008  0.6135808E+02  0.7546771E-02  0.1450467E+00
          2   -1    0    0  502    0  0.00000000000E+00  0.00000000000E+00  0.76402011828E+03  0.76402011828E+03  0.00000000000E+00 0. -1.
          2   -1    0    0  503    0 -0.00000000000E+00 -0.00000000000E+00 -0.11835049387E+04  0.11835049387E+04  0.00000000000E+00 0. -1.
         24    2    1    2    0    0  0.14037424995E+03 -0.85046227183E+01 -0.23814765473E+03  0.28798563679E+03  0.80275543522E+02 0.  0.
         25    2    1    2    0    0 -0.19481035304E+03  0.10009264152E+03  0.18240812509E+03  0.31123309494E+03  0.12499481887E+03 0.  0.
         24    2    1    2    0    0  0.52651048679E+02  0.81099678012E+00 -0.21277963142E+03  0.23332429084E+03  0.79951626053E+02 0.  0.
        -13    1    5    5    0    0 -0.19753822740E+02  0.47985465167E+01 -0.74002276526E+02  0.76743576230E+02  0.00000000000E+00 0.  1.
         14    1    5    5    0    0  0.72404871419E+02 -0.39875497365E+01 -0.13877735489E+03  0.15658071461E+03  0.00000000000E+00 0. -1.
        -13    1    3    3    0    0  0.20346552360E+02  0.63954468789E+01 -0.50411112502E+00  0.21333964979E+02  0.00000000000E+00 0.  1.
         14    1    3    3    0    0  0.12002769759E+03 -0.14900069597E+02 -0.23764354360E+03  0.26665167181E+03  0.00000000000E+00 0. -1.
          5    1    4    4  501    0 -0.17835798737E+03  0.80826277522E+02  0.20007261205E+03  0.27999214077E+03  0.47000000000E+01 0.  1.
         -5    1    4    4    0  501 -0.16452365673E+02  0.19266363999E+02 -0.17664486959E+02  0.31240954171E+02  0.47000000000E+01 0.  1.
          1    1    1    2  502    0 -0.18449755743E+02 -0.34620881014E+02  0.47972540910E+03  0.48132677780E+03  0.00000000000E+00 0. -1.
          1    1    1    2  503    0  0.20234810161E+02 -0.57778134569E+02 -0.63069106852E+03  0.63365525665E+03  0.00000000000E+00 0. -1.
<mgrwt>
<rscale>  0 0.49062024E+02</rscale>
<asrwt>0</asrwt>
<pdfrwt beam="1">  1        2 0.11235590E+00 0.39230076E+02</pdfrwt>
<pdfrwt beam="2">  1        2 0.17404484E+00 0.61358082E+02</pdfrwt>
<totfact> 0.15805892E+02</totfact>
</mgrwt>
</event>
<event>
13    1  0.1589573E-008  0.1163735E+03  0.7546771E-02  0.1267741E+00
          2   -1    0    0  503    0  0.00000000000E+00  0.00000000000E+00  0.97929840152E+03  0.97929840152E+03  0.00000000000E+00 0. -1.
         -1   -1    0    0    0  501 -0.00000000000E+00 -0.00000000000E+00 -0.36971605252E+03  0.36971605252E+03  0.00000000000E+00 0.  1.
         24    2    1    2    0    0 -0.11761098047E+03 -0.27648272211E+02 -0.75044181275E+02  0.16345240181E+03  0.80549915148E+02 0.  0.
         25    2    1    2    0    0 -0.87808173193E+02 -0.75778272294E+02  0.26378247466E+03  0.31409783199E+03  0.12499452904E+03 0.  0.
         24    2    1    2    0    0  0.66116574341E+01  0.18496474124E+02  0.36899890414E+02  0.89887961972E+02  0.79576442656E+02 0.  0.
        -13    1    3    3    0    0 -0.40066076618E+02 -0.47723514756E+02 -0.48846542110E+02  0.79175810904E+02  0.00000000000E+00 0.  1.
         14    1    3    3    0    0 -0.77544903849E+02  0.20075242546E+02 -0.26197639165E+02  0.84276590902E+02  0.00000000000E+00 0. -1.
        -13    1    5    5    0    0  0.42372654459E+02  0.95530363990E+01  0.28887013157E+02  0.52164757064E+02  0.00000000000E+00 0.  1.
         14    1    5    5    0    0 -0.35760997025E+02  0.89434377251E+01  0.80128772568E+01  0.37723204908E+02  0.00000000000E+00 0. -1.
          5    1    4    4  502    0  0.30194245125E+02 -0.40850655265E+01  0.33293516155E+02  0.45375416439E+02  0.47000000000E+01 0.  1.
         -5    1    4    4    0  502 -0.11800241832E+03 -0.71693206767E+02  0.23048895851E+03  0.26872241555E+03  0.47000000000E+01 0.  1.
          1    1    1    2  503    0  0.11915205825E+03  0.16570176557E+02  0.56208281753E+03  0.57481203667E+03  0.00000000000E+00 0. -1.
         -2    1    1    2    0  501  0.79655437973E+02  0.68359893823E+02 -0.17813865233E+03  0.20676422160E+03  0.00000000000E+00 0.  1.
<mgrwt>
<rscale>  0 0.10621634E+03</rscale>
<asrwt>0</asrwt>
<pdfrwt beam="1">  1        2 0.14401447E+00 0.11637353E+03</pdfrwt>
<pdfrwt beam="2">  1       -1 0.54370008E-01 0.96945681E+02</pdfrwt>
<totfact> 0.12261933E+02</totfact>
</mgrwt>
</event>
<event>
13    1  0.1589573E-008  0.1863251E+03  0.7546771E-02  0.1243940E+00
          2   -1    0    0  503    0  0.00000000000E+00  0.00000000000E+00  0.31296592578E+04  0.31296592578E+04  0.00000000000E+00 0. -1.
         -1   -1    0    0    0  501 -0.00000000000E+00 -0.00000000000E+00 -0.33164446931E+03  0.33164446931E+03  0.00000000000E+00 0.  1.
         24    2    1    2    0    0  0.84448394402E+02 -0.16459598307E+03 -0.52966451251E+02  0.20908229180E+03  0.81771577132E+02 0.  0.
         25    2    1    2    0    0 -0.21344282073E+02  0.54168007611E+02  0.20681739518E+04  0.20727663859E+04  0.12500897626E+03 0.  0.
         24    2    1    2    0    0  0.31196016765E+02 -0.60075636955E+01  0.32061006337E+03  0.33196540100E+03  0.80005827545E+02 0.  0.
        -11    1    3    3    0    0  0.69966231516E+02 -0.16250184724E+03 -0.66637075683E+02  0.18905719707E+03  0.00000000000E+00 0.  1.
         12    1    3    3    0    0  0.14482162886E+02 -0.20941358358E+01  0.13670624432E+02  0.20025094734E+02  0.00000000000E+00 0. -1.
        -13    1    5    5    0    0  0.77280006703E-01  0.34764747438E+02  0.12547013320E+03  0.13019734238E+03  0.00000000000E+00 0.  1.
         14    1    5    5    0    0  0.31118736759E+02 -0.40772311133E+02  0.19513993017E+03  0.20176805862E+03  0.00000000000E+00 0. -1.
          5    1    4    4  502    0  0.35539920309E+02  0.41806992627E+02  0.16022991646E+04  0.16032453379E+04  0.47000000000E+01 0.  1.
         -5    1    4    4    0  502 -0.56884202382E+02  0.12361014983E+02  0.46587478720E+03  0.46952104801E+03  0.47000000000E+01 0.  1.
          1    1    1    2  503    0  0.75466626969E+02  0.13296474273E+02  0.60054766458E+03  0.60541680307E+03  0.00000000000E+00 0. -1.
         -2    1    1    2    0  501 -0.16976675606E+03  0.10313906488E+03 -0.13835044005E+03  0.24207284530E+03  0.00000000000E+00 0.  1.
<mgrwt>
<rscale>  0 0.11949020E+03</rscale>
<asrwt>0</asrwt>
<pdfrwt beam="1">  1        2 0.46024399E+00 0.76629029E+02</pdfrwt>
<pdfrwt beam="2">  1       -1 0.48771247E-01 0.18632505E+03</pdfrwt>
<totfact> 0.12772561E+01</totfact>
</mgrwt>
</event>
<event>
13    1  0.1589573E-008  0.2749318E+03  0.7546771E-02  0.1328894E+00
          2   -1    0    0  502    0  0.00000000000E+00  0.00000000000E+00  0.19823759385E+04  0.19823759385E+04  0.00000000000E+00 0. -1.
          2   -1    0    0  503    0 -0.00000000000E+00 -0.00000000000E+00 -0.24874233451E+04  0.24874233451E+04  0.00000000000E+00 0. -1.
         24    2    1    2    0    0 -0.31347022185E+03 -0.35256128211E+02  0.31919467805E+03  0.45583988939E+03  0.79988672316E+02 0.  0.
         25    2    1    2    0    0 -0.19343805438E+01 -0.10598056355E+03  0.10496311598E+04  0.10623496058E+04  0.12500196668E+03 0.  0.
         24    2    1    2    0    0  0.20393337283E+02  0.10842309363E+03  0.56491917571E+01  0.13616129084E+03  0.79602313519E+02 0.  0.
        -11    1    3    3    0    0 -0.20970610313E+03 -0.24967341252E+02  0.15754734717E+03  0.26347900186E+03  0.00000000000E+00 0.  1.
         12    1    3    3    0    0 -0.10376411872E+03 -0.10288786959E+02  0.16164733088E+03  0.19236088753E+03  0.00000000000E+00 0. -1.
        -13    1    5    5    0    0  0.20370976886E+02  0.11822559217E+03  0.16997027909E+02  0.12116586277E+03  0.00000000000E+00 0.  1.
         14    1    5    5    0    0  0.22360397042E-01 -0.98024985404E+01 -0.11347836152E+02  0.14995428069E+02  0.00000000000E+00 0. -1.
          5    1    4    4  501    0 -0.24653438413E+02 -0.12283294754E+02  0.67187732334E+03  0.67245810202E+03  0.47000000000E+01 0.  1.
         -5    1    4    4    0  501  0.22719057870E+02 -0.93697268797E+02  0.37775383648E+03  0.38989150381E+03  0.47000000000E+01 0.  1.
          1    1    1    2  502    0  0.22091828955E+02  0.74397293904E+01  0.45966568134E+03  0.46025638191E+03  0.00000000000E+00 0. -1.
          1    1    1    2  503    0  0.27291943615E+03  0.25373868746E+02 -0.23391881176E+04  0.23551921156E+04  0.00000000000E+00 0. -1.
<mgrwt>
<rscale>  0 0.80055676E+02</rscale>
<asrwt>0</asrwt>
<pdfrwt beam="1">  1        2 0.29152588E+00 0.23310909E+02</pdfrwt>
<pdfrwt beam="2">  1        2 0.36579755E+00 0.27493185E+03</pdfrwt>
<totfact> 0.80412199E+00</totfact>
</mgrwt>
</event>
<event>
13    1  0.1589573E-008  0.1632258E+03  0.7546771E-02  0.1314921E+00
          2   -1    0    0  503    0  0.00000000000E+00  0.00000000000E+00  0.14920153239E+04  0.14920153239E+04  0.00000000000E+00 0. -1.
          2   -1    0    0  502    0 -0.00000000000E+00 -0.00000000000E+00 -0.99446600772E+03  0.99446600772E+03  0.00000000000E+00 0. -1.
         24    2    1    2    0    0  0.48938846261E+02 -0.33581717216E+03  0.14086007415E+03  0.37639398415E+03  0.81625284235E+02 0.  0.
         25    2    1    2    0    0 -0.15578424465E+03  0.17682033719E+03  0.85269877492E+03  0.89345084739E+03  0.12500021375E+03 0.  0.
         24    2    1    2    0    0 -0.65812709440E+02  0.16263116334E+03  0.25025837187E+03  0.31164690821E+03  0.60945341838E+02 0.  0.
        -13    1    3    3    0    0 -0.18991736463E+02 -0.13243057175E+03  0.41603970731E+02  0.14010507759E+03  0.00000000000E+00 0.  1.
         14    1    3    3    0    0  0.67930582725E+02 -0.20338660041E+03  0.99256103423E+02  0.23628890656E+03  0.00000000000E+00 0. -1.
        -13    1    5    5    0    0 -0.53835963770E+02  0.16153889733E+03  0.24537443537E+03  0.29866660322E+03  0.00000000000E+00 0.  1.
         14    1    5    5    0    0 -0.11976745671E+02  0.10922660059E+01  0.48839365063E+01  0.12980304992E+02  0.00000000000E+00 0. -1.
          5    1    4    4  501    0 -0.12194291664E+03  0.44209158305E+02  0.42047156224E+03  0.44004880326E+03  0.47000000000E+01 0. -1.
         -5    1    4    4    0  501 -0.33841328010E+02  0.13261117889E+03  0.43222721267E+03  0.45340204413E+03  0.47000000000E+01 0. -1.
          1    1    1    2  502    0  0.15858643753E+03  0.38548577876E+02 -0.81055461247E+03  0.82682188579E+03  0.00000000000E+00 0. -1.
          1    1    1    2  503    0  0.14071670302E+02 -0.42182906250E+02  0.64286707710E+02  0.78167706074E+02  0.00000000000E+00 0. -1.
<mgrwt>
<rscale>  0 0.85195862E+02</rscale>
<asrwt>0</asrwt>
<pdfrwt beam="1">  1        2 0.21941402E+00 0.44468073E+02</pdfrwt>
<pdfrwt beam="2">  1        2 0.14624500E+00 0.16322576E+03</pdfrwt>
<totfact> 0.77639860E+01</totfact>
</mgrwt>
</event>
<event>
13    1  0.1589573E-008  0.7038826E+02  0.7546771E-02  0.1467406E+00
          2   -1    0    0  502    0  0.00000000000E+00  0.00000000000E+00  0.13144219207E+04  0.13144219207E+04  0.00000000000E+00 0. -1.
          2   -1    0    0  503    0 -0.00000000000E+00 -0.00000000000E+00 -0.14998796289E+04  0.14998796289E+04  0.00000000000E+00 0. -1.
         24    2    1    2    0    0  0.16779090844E+03 -0.84936279708E+02  0.14696923832E+02  0.20876142442E+03  0.89428028001E+02 0.  0.
         25    2    1    2    0    0 -0.18616482477E+03 -0.45193933754E+02  0.10043405375E+03  0.24982213109E+03  0.12499705756E+03 0.  0.
         24    2    1    2    0    0 -0.17071927554E+02  0.48745677194E+02 -0.78389482538E+02  0.12261726490E+03  0.78882766965E+02 0.  0.
        -11    1    3    3    0    0  0.59369430257E+02 -0.37994813513E+02  0.48870970633E+02  0.85771247360E+02  0.00000000000E+00 0.  1.
         12    1    3    3    0    0  0.10842147818E+03 -0.46941466194E+02 -0.34174046802E+02  0.12299017706E+03  0.00000000000E+00 0. -1.
        -11    1    5    5    0    0  0.31791776058E+02  0.19822209944E+02 -0.29424687626E+02  0.47638737115E+02  0.00000000000E+00 0.  1.
         12    1    5    5    0    0 -0.48863703612E+02  0.28923467249E+02 -0.48964794912E+02  0.74978527788E+02  0.00000000000E+00 0. -1.
          5    1    4    4  501    0 -0.13106765485E+03 -0.21779050011E+01  0.47810137589E+01  0.13125708176E+03  0.47000000000E+01 0. -1.
         -5    1    4    4    0  501 -0.55097169917E+02 -0.43016028753E+02  0.95653039991E+02  0.11856504933E+03  0.47000000000E+01 0. -1.
          1    1    1    2  502    0  0.46111162893E+02  0.53095788229E+02  0.10040345720E+04  0.10064943238E+04  0.00000000000E+00 0. -1.
          1    1    1    2  503    0 -0.10665319005E+02  0.28288748039E+02 -0.12262337752E+04  0.12266064054E+04  0.00000000000E+00 0. -1.
<mgrwt>
<rscale>  0 0.46130371E+02</rscale>
<asrwt>0</asrwt>
<pdfrwt beam="1">  1        2 0.19329734E+00 0.70388262E+02</pdfrwt>
<pdfrwt beam="2">  1        2 0.22057053E+00 0.30232471E+02</pdfrwt>
<totfact> 0.55968377E+01</totfact>
</mgrwt>
</event>
<event>
13    1  0.1589573E-008  0.1474275E+03  0.7546771E-02  0.1419361E+00
          2   -1    0    0  503    0  0.00000000000E+00  0.00000000000E+00  0.17541847680E+04  0.17541847680E+04  0.00000000000E+00 0. -1.
          2   -1    0    0  502    0 -0.00000000000E+00 -0.00000000000E+00 -0.40252085422E+04  0.40252085422E+04  0.00000000000E+00 0. -1.
         24    2    1    2    0    0  0.38218346330E+03  0.47003196521E+03  0.21616430122E+03  0.65111863507E+03  0.10116434089E+03 0.  0.
         25    2    1    2    0    0 -0.58895109610E+03 -0.18808665259E+03  0.39019861257E+03  0.74170145774E+03  0.12500445064E+03 0.  0.
         24    2    1    2    0    0  0.19885271554E+03 -0.11990273037E+03  0.21631179363E+02  0.24632249869E+03  0.79295638016E+02 0.  0.
        -11    1    5    5    0    0  0.17698591170E+03 -0.70986638529E+02  0.26486415704E+02  0.19252180658E+03  0.00000000000E+00 0.  1.
         12    1    5    5    0    0  0.21866803840E+02 -0.48916091842E+02 -0.48552363410E+01  0.53800692107E+02  0.00000000000E+00 0. -1.
        -11    1    3    3    0    0  0.19081407291E+03  0.27006531133E+03  0.16534666738E+03  0.36970907916E+03  0.00000000000E+00 0.  1.
         12    1    3    3    0    0  0.19136939039E+03  0.19996665389E+03  0.50817633838E+02  0.28140955590E+03  0.00000000000E+00 0. -1.
          5    1    4    4  501    0 -0.22455558108E+03 -0.25622803022E+02  0.18995095143E+03  0.29527138531E+03  0.47000000000E+01 0. -1.
         -5    1    4    4    0  501 -0.36439551501E+03 -0.16246384957E+03  0.20024766114E+03  0.44643007243E+03  0.47000000000E+01 0. -1.
          1    1    1    2  502    0  0.20809411503E+02 -0.14593203438E+03 -0.35179188330E+04  0.35210058373E+04  0.00000000000E+00 0. -1.
          1    1    1    2  503    0 -0.12894494248E+02 -0.16110547873E+02  0.61890096578E+03  0.61924488143E+03  0.00000000000E+00 0. -1.
<mgrwt>
<rscale>  0 0.55156300E+02</rscale>
<asrwt>0</asrwt>
<pdfrwt beam="1">  1        2 0.25796834E+00 0.20635352E+02</pdfrwt>
<pdfrwt beam="2">  1        2 0.59194244E+00 0.14742746E+03</pdfrwt>
<totfact> 0.14404806E+00</totfact>
</mgrwt>
</event>
<event>
13    1  0.4710743E-008  0.4948620E+02  0.7546771E-02  0.1518651E+00
          2   -1    0    0  502    0  0.00000000000E+00  0.00000000000E+00  0.12584551566E+04  0.12584551566E+04  0.00000000000E+00 0. -1.
          2   -1    0    0  503    0 -0.00000000000E+00 -0.00000000000E+00 -0.35450211040E+04  0.35450211040E+04  0.00000000000E+00 0. -1.
         24    2    1    2    0    0  0.63734465594E+03  0.10269872600E+04 -0.10639601407E+04  0.16122256346E+04  0.79682328106E+02 0.  0.
         25    2    1    2    0    0 -0.62398696019E+03 -0.37977224596E+02 -0.25669383380E+03  0.68725396961E+03  0.12499719339E+03 0.  0.
         24    2    1    2    0    0  0.22587779065E+02 -0.95861845971E+03  0.14600514938E+03  0.97609312767E+03  0.10945652649E+03 0.  0.
        -11    1    5    5    0    0  0.21355827428E+02 -0.49522520136E+03  0.12987585532E+03  0.51241761213E+03  0.00000000000E+00 0.  1.
         12    1    5    5    0    0  0.12319516366E+01 -0.46339325834E+03  0.16129294061E+02  0.46367551554E+03  0.00000000000E+00 0. -1.
        -11    1    3    3    0    0  0.25323505772E+03  0.41263034353E+03 -0.47849783456E+03  0.68069961991E+03  0.00000000000E+00 0.  1.
         12    1    3    3    0    0  0.38410959822E+03  0.61435691648E+03 -0.58546230610E+03  0.93152601474E+03  0.00000000000E+00 0. -1.
          5    1    4    4  501    0 -0.24929772771E+03 -0.76131472623E+02 -0.97585000399E+02  0.27837076080E+03  0.47000000000E+01 0.  1.
         -5    1    4    4    0  501 -0.37468923249E+03  0.38154248027E+02 -0.15910883340E+03  0.40888320882E+03  0.47000000000E+01 0.  1.
          1    1    1    2  502    0 -0.11583937216E+02 -0.48126980683E+02  0.20487310725E+03  0.21076855540E+03  0.00000000000E+00 0. -1.
          1    1    1    2  503    0 -0.24361537595E+02  0.17735404976E+02 -0.13167902295E+04  0.13171349732E+04  0.00000000000E+00 0. -1.
<mgrwt>
<rscale>  0 0.38615973E+02</rscale>
<asrwt>0</asrwt>
<pdfrwt beam="1">  1        2 0.18506693E+00 0.49486197E+02</pdfrwt>
<pdfrwt beam="2">  1        2 0.52132663E+00 0.30133521E+02</pdfrwt>
<totfact> 0.62808029E+00</totfact>
</mgrwt>
</event>
<event>
13    1  0.1589573E-008  0.1770431E+03  0.7546771E-02  0.1282031E+00
          2   -1    0    0  503    0  0.00000000000E+00  0.00000000000E+00  0.31664532960E+04  0.31664532960E+04  0.00000000000E+00 0. -1.
          2   -1    0    0  502    0 -0.00000000000E+00 -0.00000000000E+00 -0.22688382331E+04  0.22688382331E+04  0.00000000000E+00 0. -1.
         24    2    1    2    0    0  0.11080391584E+03  0.13510998113E+03 -0.82182025632E+03  0.84417109211E+03  0.81878472702E+02 0.  0.
         25    2    1    2    0    0 -0.59450175706E+02  0.69594498988E+02  0.10598417603E+04  0.10711080109E+04  0.12502038434E+03 0.  0.
         24    2    1    2    0    0  0.55051515528E+02 -0.53789379079E+01 -0.15879516061E+03  0.18591924135E+03  0.79312413519E+02 0.  0.
        -11    1    3    3    0    0  0.62276988457E+02  0.17477255560E+02 -0.31969653754E+03  0.32617442246E+03  0.00000000000E+00 0.  1.
         12    1    3    3    0    0  0.48526927383E+02  0.11763272557E+03 -0.50212371878E+03  0.51799666965E+03  0.00000000000E+00 0. -1.
        -13    1    5    5    0    0  0.44364918325E+02 -0.38787541480E+02 -0.11953935678E+03  0.13327556855E+03  0.00000000000E+00 0.  1.
         14    1    5    5    0    0  0.10686597203E+02  0.33408603572E+02 -0.39255803823E+02  0.52643672803E+02  0.00000000000E+00 0. -1.
          5    1    4    4  501    0  0.27337828628E+01 -0.21687067590E+02  0.49753986322E+03  0.49804197410E+03  0.47000000000E+01 0.  1.
         -5    1    4    4    0  501 -0.62183958569E+02  0.91281566578E+02  0.56230189708E+03  0.57306603682E+03  0.47000000000E+01 0.  1.
          1    1    1    2  502    0 -0.31885384092E+01 -0.55468440287E+02 -0.12534610603E+04  0.12546918125E+04  0.00000000000E+00 0. -1.
          1    1    1    2  503    0 -0.10321671725E+03 -0.14385710193E+03  0.20718497799E+04  0.20794013722E+04  0.00000000000E+00 0. -1.
<mgrwt>
<rscale>  0 0.99179222E+02</rscale>
<asrwt>0</asrwt>
<pdfrwt beam="1">  1        2 0.46565490E+00 0.17704313E+03</pdfrwt>
<pdfrwt beam="2">  1        2 0.33365268E+00 0.55560009E+02</pdfrwt>
<totfact> 0.24435159E+00</totfact>
</mgrwt>
</event>
<event>
13    1  0.1589573E-008  0.1217390E+03  0.7546771E-02  0.1385630E+00
          2   -1    0    0  503    0  0.00000000000E+00  0.00000000000E+00  0.16318458483E+04  0.16318458483E+04  0.00000000000E+00 0. -1.
          2   -1    0    0  502    0 -0.00000000000E+00 -0.00000000000E+00 -0.82386482888E+03  0.82386482888E+03  0.00000000000E+00 0. -1.
         24    2    1    2    0    0  0.36340911357E+03 -0.10764909273E+03 -0.43187170137E+03  0.58005003374E+03  0.79311816248E+02 0.  0.
         25    2    1    2    0    0 -0.27726308489E+03  0.22782568190E+03  0.11375669805E+02  0.38017093711E+03  0.12498470301E+03 0.  0.
         24    2    1    2    0    0  0.62592870702E+01 -0.42851241731E+02  0.13408504025E+03  0.16229494154E+03  0.80532244713E+02 0.  0.
        -13    1    5    5    0    0 -0.38368735694E+01 -0.65988847308E+02  0.10024037778E+03  0.12007240693E+03  0.00000000000E+00 0.  1.
         14    1    5    5    0    0  0.10096160640E+02  0.23137605577E+02  0.33844662476E+02  0.42222534619E+02  0.00000000000E+00 0. -1.
        -13    1    3    3    0    0  0.12540025592E+03 -0.68824086815E+01 -0.10762348161E+03  0.16539469619E+03  0.00000000000E+00 0.  1.
         14    1    3    3    0    0  0.23800885766E+03 -0.10076668405E+03 -0.32424821977E+03  0.41465533755E+03  0.00000000000E+00 0. -1.
          5    1    4    4  501    0 -0.18240668607E+03  0.21806708753E+03  0.32859607549E+01  0.28435601159E+03  0.47000000000E+01 0. -1.
         -5    1    4    4    0  501 -0.94856398819E+02  0.97585943699E+01  0.80897090503E+01  0.95814925525E+02  0.47000000000E+01 0. -1.
          1    1    1    2  502    0 -0.95906701313E+01  0.31167351135E+02 -0.11325660719E+03  0.11785772695E+03  0.00000000000E+00 0. -1.
          1    1    1    2  503    0 -0.82814645622E+02 -0.10849269857E+03  0.12076486179E+04  0.12153370378E+04  0.00000000000E+00 0. -1.
<mgrwt>
<rscale>  0 0.63006812E+02</rscale>
<asrwt>0</asrwt>
<pdfrwt beam="1">  1        2 0.23997733E+00 0.12173902E+03</pdfrwt>
<pdfrwt beam="2">  1        2 0.12115659E+00 0.32609580E+02</pdfrwt>
<totfact> 0.82734604E+01</totfact>
</mgrwt>
</event>
<event>
13    1  0.1589573E-008  0.1134386E+03  0.7546771E-02  0.1305145E+00
          2   -1    0    0  502    0  0.00000000000E+00  0.00000000000E+00  0.22769127688E+04  0.22769127688E+04  0.00000000000E+00 0. -1.
          2   -1    0    0  503    0 -0.00000000000E+00 -0.00000000000E+00 -0.92770715026E+03  0.92770715026E+03  0.00000000000E+00 0. -1.
         24    2    1    2    0    0 -0.18239934228E+03  0.21590709748E+03 -0.51354812146E+02  0.29927774014E+03  0.83931246900E+02 0.  0.
         25    2    1    2    0    0 -0.99390441590E+01 -0.19016408869E+03  0.50255861553E+03  0.55177143571E+03  0.12500155998E+03 0.  0.
         24    2    1    2    0    0  0.14239266551E+03 -0.77175455394E+02 -0.99659306989E-01  0.18078839821E+03  0.80328779958E+02 0.  0.
        -11    1    3    3    0    0  0.51454537804E+00 -0.58939543569E+01  0.30876495869E+01  0.66736073362E+01  0.00000000000E+00 0.  1.
         12    1    3    3    0    0 -0.18291388766E+03  0.22180105184E+03 -0.54442461733E+02  0.29260413280E+03  0.00000000000E+00 0. -1.
        -13    1    5    5    0    0  0.42219876137E+02 -0.99582905767E+01  0.34349306772E+02  0.55331368752E+02  0.00000000000E+00 0.  1.
         14    1    5    5    0    0  0.10017278937E+03 -0.67217164817E+02 -0.34448966079E+02  0.12545702946E+03  0.00000000000E+00 0. -1.
          5    1    4    4  501    0 -0.38723269707E+01 -0.19000994949E+03  0.50797092262E+03  0.54237931750E+03  0.47000000000E+01 0. -1.
         -5    1    4    4    0  501 -0.60667171883E+01 -0.15413919966E+00 -0.54123070956E+01  0.93921182080E+01  0.47000000000E+01 0. -1.
          1    1    1    2  502    0  0.33760384494E+02 -0.61229476124E+02  0.15295553572E+04  0.15311526387E+04  0.00000000000E+00 0. -1.
          1    1    1    2  503    0  0.16185336433E+02  0.11266192272E+03 -0.63145388274E+03  0.64162970627E+03  0.00000000000E+00 0. -1.
<mgrwt>
<rscale>  0 0.89059722E+02</rscale>
<asrwt>0</asrwt>
<pdfrwt beam="1">  1        2 0.33484011E+00 0.69920042E+02</pdfrwt>
<pdfrwt beam="2">  1        2 0.13642752E+00 0.11343864E+03</pdfrwt>
<totfact> 0.35245461E+01</totfact>
</mgrwt>
</event>
<event>
13    1  0.1589573E-008  0.2262701E+03  0.7546771E-02  0.1251736E+00
          2   -1    0    0  503    0  0.00000000000E+00  0.00000000000E+00  0.17709876924E+04  0.17709876924E+04  0.00000000000E+00 0. -1.
          2   -1    0    0  502    0 -0.00000000000E+00 -0.00000000000E+00 -0.29961203602E+04  0.29961203602E+04  0.00000000000E+00 0. -1.
         24    2    1    2    0    0 -0.17612660613E+03  0.24006581378E+03 -0.36309784007E+03  0.48221118635E+03  0.10970601828E+03 0.  0.
         25    2    1    2    0    0  0.50883151723E+03 -0.20361487013E+03  0.11332442425E+03  0.57344145064E+03  0.12499657561E+03 0.  0.
         24    2    1    2    0    0 -0.22139380894E+03  0.19166802255E+03 -0.13949163735E+03  0.33503508734E+03  0.83897218989E+02 0.  0.
        -13    1    3    3    0    0 -0.96708894275E+02  0.45552209502E+02 -0.11246255725E+03  0.15516262696E+03  0.00000000000E+00 0.  1.
         14    1    3    3    0    0 -0.79417711853E+02  0.19451360427E+03 -0.25063528282E+03  0.32704855939E+03  0.00000000000E+00 0. -1.
        -13    1    5    5    0    0 -0.19447493678E+03  0.17580047333E+03 -0.15003804733E+03  0.30205582779E+03  0.00000000000E+00 0.  1.
         14    1    5    5    0    0 -0.26918872161E+02  0.15867549216E+02  0.10546409982E+02  0.32979259544E+02  0.00000000000E+00 0. -1.
          5    1    4    4  501    0  0.49082862812E+03 -0.20787663258E+03  0.85754708844E+02  0.53990869288E+03  0.47000000000E+01 0.  1.
         -5    1    4    4    0  501  0.18002889111E+02  0.42617624506E+01  0.27569715408E+02  0.33532757763E+02  0.47000000000E+01 0.  1.
          1    1    1    2  502    0 -0.14009047016E+03 -0.17735082207E+03 -0.20994055041E+04  0.21115354897E+04  0.00000000000E+00 0. -1.
          1    1    1    2  503    0  0.28779367995E+02 -0.50768144122E+02  0.12635378894E+04  0.12648848385E+04  0.00000000000E+00 0. -1.
<mgrwt>
<rscale>  0 0.11491158E+03</rscale>
<asrwt>0</asrwt>
<pdfrwt beam="1">  1        2 0.26043937E+00 0.58358003E+02</pdfrwt>
<pdfrwt beam="2">  1        2 0.44060594E+00 0.22627008E+03</pdfrwt>
<totfact> 0.49933653E+00</totfact>
</mgrwt>
</event>
<event>
13    1  0.1589573E-008  0.1629215E+03  0.7546771E-02  0.1193434E+00
          2   -1    0    0  502    0  0.00000000000E+00  0.00000000000E+00  0.13133527478E+04  0.13133527478E+04  0.00000000000E+00 0. -1.
          4   -1    0    0  503    0 -0.00000000000E+00 -0.00000000000E+00 -0.26335431184E+03  0.26335431184E+03  0.00000000000E+00 0. -1.
         24    2    1    2    0    0 -0.74545432350E+01 -0.36917136989E+02  0.64364405694E+02  0.11255319172E+03  0.84303019088E+02 0.  0.
         25    2    1    2    0    0  0.24643416465E+02  0.56442542894E+02  0.28608805753E+03  0.31822529181E+03  0.12501160370E+03 0.  0.
         24    2    1    2    0    0  0.34470540412E+02  0.54090225994E+02  0.24966533698E+03  0.26273710574E+03  0.50833409696E+02 0.  0.
        -11    1    3    3    0    0  0.15347172508E+02 -0.38903065368E+02  0.76098183756E+02  0.86832699889E+02  0.00000000000E+00 0.  1.
         12    1    3    3    0    0 -0.22801715743E+02  0.19859283793E+01 -0.11733778062E+02  0.25720491830E+02  0.00000000000E+00 0. -1.
        -13    1    5    5    0    0  0.39930833792E+02  0.39587540123E+02  0.12440669518E+03  0.13652351675E+03  0.00000000000E+00 0.  1.
         14    1    5    5    0    0 -0.54602933802E+01  0.14502685871E+02  0.12525864179E+03  0.12621358899E+03  0.00000000000E+00 0. -1.
          5    1    4    4  501    0 -0.30369492423E+02 -0.15588859720E+02  0.15500740075E+03  0.15879138171E+03  0.47000000000E+01 0. -1.
         -5    1    4    4    0  501  0.55012908888E+02  0.72031402614E+02  0.13108065678E+03  0.15943391009E+03  0.47000000000E+01 0. -1.
          1    1    1    2  502    0  0.12096093023E+03  0.28336391996E+03  0.36505591436E+03  0.47769496374E+03  0.00000000000E+00 0. -1.
          3    1    1    2  503    0 -0.17262034387E+03 -0.35697955185E+03  0.84824721451E+02  0.40549650668E+03  0.00000000000E+00 0. -1.
<mgrwt>
<rscale>  0 0.15587554E+03</rscale>
<asrwt>0</asrwt>
<pdfrwt beam="1">  1        2 0.19314011E+00 0.16292147E+03</pdfrwt>
<pdfrwt beam="2">  1        4 0.38728576E-01 0.14913433E+03</pdfrwt>
<totfact> 0.64365749E+01</totfact>
</mgrwt>
</event>
<event>
13    1  0.1589573E-008  0.9416350E+02  0.7546771E-02  0.1385994E+00
          2   -1    0    0  502    0  0.00000000000E+00  0.00000000000E+00  0.26781971533E+04  0.26781971533E+04  0.00000000000E+00 0. -1.
          2   -1    0    0  503    0 -0.00000000000E+00 -0.00000000000E+00 -0.25258688742E+04  0.25258688742E+04  0.00000000000E+00 0. -1.
         24    2    1    2    0    0  0.10256785524E+03  0.22712387525E+03 -0.15232115797E+04  0.15454687199E+04  0.78705958511E+02 0.  0.
         25    2    1    2    0    0 -0.16080691570E+03 -0.18203899518E+03  0.14875041475E+03  0.31104398040E+03  0.12499844779E+03 0.  0.
         24    2    1    2    0    0  0.16391946583E+03 -0.24694662966E+02  0.39674655588E+03  0.43496685603E+03  0.65642353587E+02 0.  0.
        -11    1    3    3    0    0  0.57856627294E+02  0.20001296734E+03 -0.12642590334E+04  0.12812897721E+04  0.00000000000E+00 0.  1.
         12    1    3    3    0    0  0.44711227950E+02  0.27110907914E+02 -0.25895254628E+03  0.26417894780E+03  0.00000000000E+00 0. -1.
        -11    1    5    5    0    0  0.73143481812E+02  0.20565296115E+02  0.19155020451E+03  0.20606887486E+03  0.00000000000E+00 0.  1.
         12    1    5    5    0    0  0.90775984015E+02 -0.45259959081E+02  0.20519635137E+03  0.22889798117E+03  0.00000000000E+00 0. -1.
          5    1    4    4  501    0 -0.23759613876E+02 -0.13455651095E+02  0.77573034081E+02  0.82372564695E+02  0.47000000000E+01 0. -1.
         -5    1    4    4    0  501 -0.13704730182E+03 -0.16858334409E+03  0.71177380665E+02  0.22867141570E+03  0.47000000000E+01 0. -1.
          1    1    1    2  502    0 -0.27386382751E+02  0.31889676213E+02  0.20186091646E+04  0.20190467862E+04  0.00000000000E+00 0. -1.
          1    1    1    2  503    0 -0.78294022624E+02 -0.52279893312E+02 -0.88856627638E+03  0.89353968504E+03  0.00000000000E+00 0. -1.
<mgrwt>
<rscale>  0 0.62914145E+02</rscale>
<asrwt>0</asrwt>
<pdfrwt beam="1">  1        2 0.39385252E+00 0.42035288E+02</pdfrwt>
<pdfrwt beam="2">  1        2 0.37145131E+00 0.94163497E+02</pdfrwt>
<totfact> 0.38458337E+00</totfact>
</mgrwt>
</event>
<event>
13    1  0.1589573E-008  0.1746345E+03  0.7546771E-02  0.1221871E+00
          2   -1    0    0  502    0  0.00000000000E+00  0.00000000000E+00  0.14696927720E+04  0.14696927720E+04  0.00000000000E+00 0. -1.
          2   -1    0    0  503    0 -0.00000000000E+00 -0.00000000000E+00 -0.29940280689E+04  0.29940280689E+04  0.00000000000E+00 0. -1.
         24    2    1    2    0    0 -0.86172297938E+01  0.79654380601E+02 -0.31357436383E+03  0.32991716676E+03  0.64010766855E+02 0.  0.
         25    2    1    2    0    0  0.28660987459E+03  0.36104761014E+02 -0.24782473808E+02  0.31573208843E+03  0.12499522662E+03 0.  0.
         24    2    1    2    0    0 -0.80101327106E+02 -0.84583841672E+02  0.53126100188E+03  0.54995916472E+03  0.81524118300E+02 0.  0.
        -11    1    5    5    0    0 -0.15892300460E+02  0.48278606584E+01  0.15969753003E+02  0.23041407583E+02  0.00000000000E+00 0.  1.
         12    1    5    5    0    0 -0.64209026646E+02 -0.89411702330E+02  0.51529124888E+03  0.52691775713E+03  0.00000000000E+00 0. -1.
        -13    1    3    3    0    0 -0.33090236967E+02  0.25357860151E+02 -0.10399892365E+03  0.11204356730E+03  0.00000000000E+00 0.  1.
         14    1    3    3    0    0  0.24473007173E+02  0.54296520449E+02 -0.20957544018E+03  0.21787359946E+03  0.00000000000E+00 0. -1.
          5    1    4    4  501    0  0.26001290490E+03  0.60405936580E+02  0.75657612863E+01  0.26708597611E+03  0.47000000000E+01 0. -1.
         -5    1    4    4    0  501  0.26596969688E+02 -0.24301175566E+02 -0.32348235094E+02  0.48646112323E+02  0.47000000000E+01 0. -1.
          1    1    1    2  502    0  0.74500175744E+02 -0.70615613396E+02  0.76439775713E+03  0.77125921203E+03  0.00000000000E+00 0. -1.
          1    1    1    2  503    0 -0.27239149344E+03  0.39440313453E+02 -0.24816372182E+04  0.24968532089E+04  0.00000000000E+00 0. -1.
<mgrwt>
<rscale>  0 0.13383720E+03</rscale>
<asrwt>0</asrwt>
<pdfrwt beam="1">  1        2 0.21613129E+00 0.10257076E+03</pdfrwt>
<pdfrwt beam="2">  1        2 0.44029824E+00 0.17463453E+03</pdfrwt>
<totfact> 0.69153820E+00</totfact>
</mgrwt>
</event>
<event>
13    1  0.1589573E-008  0.9893156E+02  0.7546771E-02  0.1402969E+00
          2   -1    0    0  503    0  0.00000000000E+00  0.00000000000E+00  0.14133745717E+04  0.14133745717E+04  0.00000000000E+00 0. -1.
          2   -1    0    0  502    0 -0.00000000000E+00 -0.00000000000E+00 -0.14268140731E+04  0.14268140731E+04  0.00000000000E+00 0. -1.
         24    2    1    2    0    0 -0.80352247043E+01  0.81759260392E+01 -0.61145008808E+02  0.10309204610E+03  0.82206126688E+02 0.  0.
         25    2    1    2    0    0 -0.10314590750E+03 -0.12890776700E+03  0.73827121700E+03  0.76676349401E+03  0.12500230106E+03 0.  0.
         24    2    1    2    0    0  0.33702564284E+02  0.79409905076E+02  0.29328549161E+03  0.31633813188E+03  0.81311980838E+02 0.  0.
        -11    1    3    3    0    0  0.83595829038E+01 -0.34015489476E+02 -0.13962739776E+02  0.37708013109E+02  0.00000000000E+00 0.  1.
         12    1    3    3    0    0 -0.16394807608E+02  0.42191415515E+02 -0.47182269031E+02  0.65384032994E+02  0.00000000000E+00 0. -1.
        -11    1    5    5    0    0 -0.89475581997E+01  0.20258766186E+02  0.18164991818E+03  0.18299499769E+03  0.00000000000E+00 0.  1.
         12    1    5    5    0    0  0.42650122483E+02  0.59151138889E+02  0.11163557343E+03  0.13334313419E+03  0.00000000000E+00 0. -1.
          5    1    4    4  501    0 -0.21805299715E+02 -0.50797668549E+02  0.50046767393E+03  0.50353337216E+03  0.47000000000E+01 0. -1.
         -5    1    4    4    0  501 -0.81340607790E+02 -0.78110098446E+02  0.23780354307E+03  0.26323012185E+03  0.47000000000E+01 0. -1.
          1    1    1    2  502    0  0.11228304669E+03  0.44385447687E+02 -0.13152396267E+04  0.13207697855E+04  0.00000000000E+00 0. -1.
          1    1    1    2  503    0 -0.34804478765E+02 -0.30635118064E+01  0.33138842551E+03  0.33322518724E+03  0.00000000000E+00 0. -1.
<mgrwt>
<rscale>  0 0.58792637E+02</rscale>
<asrwt>0</asrwt>
<pdfrwt beam="1">  1        2 0.20784920E+00 0.34939045E+02</pdfrwt>
<pdfrwt beam="2">  1        2 0.20982560E+00 0.98931558E+02</pdfrwt>
<totfact> 0.52029577E+01</totfact>
</mgrwt>
</event>
<event>
13    1  0.1589573E-008  0.8512397E+02  0.7546771E-02  0.1383024E+00
          2   -1    0    0  502    0  0.00000000000E+00  0.00000000000E+00  0.13544030715E+04  0.13544030715E+04  0.00000000000E+00 0. -1.
          2   -1    0    0  503    0 -0.00000000000E+00 -0.00000000000E+00 -0.10914238062E+04  0.10914238062E+04  0.00000000000E+00 0. -1.
         24    2    1    2    0    0 -0.11723864553E+03  0.95603426236E+02 -0.28384442186E+03  0.33198458783E+03  0.82226489796E+02 0.  0.
         25    2    1    2    0    0  0.23930166874E+03  0.92553003367E-01  0.27668328532E+03  0.38658249621E+03  0.12500835481E+03 0.  0.
         24    2    1    2    0    0 -0.11147655071E+02 -0.35922754088E+02 -0.16702087822E+03  0.19172930668E+03  0.86310131534E+02 0.  0.
        -11    1    5    5    0    0 -0.27922661979E+02  0.68166462778E+01 -0.12886236509E+03  0.13202897734E+03  0.00000000000E+00 0.  1.
         12    1    5    5    0    0  0.16775006908E+02 -0.42739400366E+02 -0.38158513126E+02  0.59700329349E+02  0.00000000000E+00 0. -1.
        -11    1    3    3    0    0 -0.60129884037E+02  0.97396964387E+02 -0.17617190238E+03  0.21009119642E+03  0.00000000000E+00 0.  1.
         12    1    3    3    0    0 -0.57108761495E+02 -0.17935381514E+01 -0.10767251948E+03  0.12189339141E+03  0.00000000000E+00 0. -1.
          5    1    4    4  501    0  0.14560023058E+03  0.41254317596E+02  0.22664432169E+03  0.27256390887E+03  0.47000000000E+01 0. -1.
         -5    1    4    4    0  501  0.93701438159E+02 -0.41161764592E+02  0.50038963634E+02  0.11401858734E+03  0.47000000000E+01 0. -1.
          1    1    1    2  502    0 -0.82152391270E+02 -0.21807053267E+02  0.98347657949E+03  0.98714271783E+03  0.00000000000E+00 0. -1.
          1    1    1    2  503    0 -0.28762976863E+02 -0.37966171884E+02 -0.54631529938E+03  0.54838776918E+03  0.00000000000E+00 0. -1.
<mgrwt>
<rscale>  0 0.63675456E+02</rscale>
<asrwt>0</asrwt>
<pdfrwt beam="1">  1        2 0.19917692E+00 0.85123968E+02</pdfrwt>
<pdfrwt beam="2">  1        2 0.16050350E+00 0.47631282E+02</pdfrwt>
<totfact> 0.81070752E+01</totfact>
</mgrwt>
</event>
<event>
13    1  0.1589573E-008  0.1002158E+03  0.7546771E-02  0.1426281E+00
          2   -1    0    0  502    0  0.00000000000E+00  0.00000000000E+00  0.23807825213E+04  0.23807825213E+04  0.00000000000E+00 0. -1.
          2   -1    0    0  503    0 -0.00000000000E+00 -0.00000000000E+00 -0.29264398926E+04  0.29264398926E+04  0.00000000000E+00 0. -1.
         24    2    1    2    0    0 -0.19389209485E+03 -0.20116427817E+03 -0.14542183937E+04  0.14830723434E+04  0.81799926129E+02 0.  0.
         25    2    1    2    0    0  0.20348738814E+03  0.45182737332E+02  0.32059693673E+03  0.40231327043E+03  0.12499989936E+03 0.  0.
         24    2    1    2    0    0  0.94209103502E+02  0.12344886151E+03 -0.23432508509E+03  0.29169974506E+03  0.77881443093E+02 0.  0.
        -11    1    3    3    0    0 -0.21437310094E+01 -0.13378785836E+02 -0.21358076951E+02  0.25293377476E+02  0.00000000000E+00 0.  1.
         12    1    3    3    0    0 -0.19174836384E+03 -0.18778549234E+03 -0.14328603167E+04  0.14577789659E+04  0.00000000000E+00 0. -1.
        -13    1    5    5    0    0  0.10183285063E+03  0.11237111397E+03 -0.17822974245E+03  0.23401503758E+03  0.00000000000E+00 0.  1.
         14    1    5    5    0    0 -0.76237471322E+01  0.11077747536E+02 -0.56095342640E+02  0.57684707477E+02  0.00000000000E+00 0. -1.
          5    1    4    4  501    0  0.11580943412E+03  0.11959046573E+02  0.27349194166E+03  0.29727895314E+03  0.47000000000E+01 0.  1.
         -5    1    4    4    0  501  0.87677954019E+02  0.33223690759E+02  0.47104995070E+02  0.10503431729E+03  0.47000000000E+01 0.  1.
          1    1    1    2  502    0 -0.10013334501E+03  0.39780866787E+01  0.19747628054E+04  0.19773038840E+04  0.00000000000E+00 0. -1.
          1    1    1    2  503    0 -0.36710517855E+01  0.28554592657E+02 -0.11524736348E+04  0.11528331710E+04  0.00000000000E+00 0. -1.
<mgrwt>
<rscale>  0 0.53713803E+02</rscale>
<asrwt>0</asrwt>
<pdfrwt beam="1">  1        2 0.35011508E+00 0.10021578E+03</pdfrwt>
<pdfrwt beam="2">  1        2 0.43035881E+00 0.28789605E+02</pdfrwt>
<totfact> 0.36202780E+00</totfact>
</mgrwt>
</event>
<event>
13    1  0.1589573E-008  0.1440380E+03  0.7546771E-02  0.1290929E+00
          2   -1    0    0  502    0  0.00000000000E+00  0.00000000000E+00  0.11123065593E+04  0.11123065593E+04  0.00000000000E+00 0. -1.
          2   -1    0    0  503    0 -0.00000000000E+00 -0.00000000000E+00 -0.21383078967E+04  0.21383078967E+04  0.00000000000E+00 0. -1.
         24    2    1    2    0    0  0.28993646891E+03 -0.58921223032E+02 -0.13664602426E+04  0.14003425018E+04  0.78807748531E+02 0.  0.
         25    2    1    2    0    0 -0.14353555655E+03  0.71360248391E+02 -0.65787236885E+02  0.21365091983E+03  0.12499605579E+03 0.  0.
         24    2    1    2    0    0 -0.16639110177E+02 -0.95593311360E+01 -0.98978241720E+02  0.12841616267E+03  0.79534757826E+02 0.  0.
        -11    1    3    3    0    0  0.14445211293E+03 -0.21239622461E+02 -0.85047875988E+03  0.86292042246E+03  0.00000000000E+00 0.  1.
         12    1    3    3    0    0  0.14548435598E+03 -0.37681600571E+02 -0.51598148267E+03  0.53742207930E+03  0.00000000000E+00 0. -1.
        -13    1    5    5    0    0  0.21623170934E+02  0.67718763950E+01 -0.18269820304E+01  0.22732305085E+02  0.00000000000E+00 0.  1.
         14    1    5    5    0    0 -0.38262281111E+02 -0.16331207531E+02 -0.97151259690E+02  0.10568385759E+03  0.00000000000E+00 0. -1.
          5    1    4    4  501    0 -0.90965605778E+02 -0.24005496135E+02 -0.27582851174E+02  0.98152478105E+02  0.47000000000E+01 0.  1.
         -5    1    4    4    0  501 -0.52569950777E+02  0.95365744526E+02 -0.38204385711E+02  0.11549844173E+03  0.47000000000E+01 0.  1.
          1    1    1    2  502    0  0.30236944098E+01 -0.62729210283E+02  0.99512838925E+03  0.99710812234E+03  0.00000000000E+00 0. -1.
          1    1    1    2  503    0 -0.13278549659E+03  0.59849516060E+02 -0.48990400544E+03  0.51109674937E+03  0.00000000000E+00 0. -1.
<mgrwt>
<rscale>  0 0.95109841E+02</rscale>
<asrwt>0</asrwt>
<pdfrwt beam="1">  1        2 0.16357450E+00 0.62802043E+02</pdfrwt>
<pdfrwt beam="2">  1        2 0.31445704E+00 0.14403802E+03</pdfrwt>
<totfact> 0.30662370E+01</totfact>
</mgrwt>
</event>
<event>
13    1  0.1589573E-008  0.1594004E+03  0.7546771E-02  0.1353570E+00
          2   -1    0    0  502    0  0.00000000000E+00  0.00000000000E+00  0.39501852312E+03  0.39501852312E+03  0.00000000000E+00 0. -1.
          2   -1    0    0  503    0 -0.00000000000E+00 -0.00000000000E+00 -0.26989813434E+04  0.26989813434E+04  0.00000000000E+00 0. -1.
         24    2    1    2    0    0 -0.14525436441E+03  0.33826354949E+02 -0.91524419461E+03  0.93084474054E+03  0.80974950207E+02 0.  0.
         25    2    1    2    0    0  0.22779470650E+03 -0.25489916638E+03  0.20259927455E+03  0.41657995096E+03  0.12501350393E+03 0.  0.
         24    2    1    2    0    0  0.59999974239E+02  0.87247387938E+02 -0.31348011140E+03  0.33979264810E+03  0.77312093821E+02 0.  0.
        -11    1    3    3    0    0 -0.13354477665E+03  0.51732308017E+02 -0.69744014098E+03  0.71199240819E+03  0.00000000000E+00 0.  1.
         12    1    3    3    0    0 -0.11709587755E+02 -0.17905953068E+02 -0.21780405363E+03  0.21885233235E+03  0.00000000000E+00 0. -1.
        -13    1    5    5    0    0  0.13862170812E+02 -0.86165927977E+01 -0.99434458002E+02  0.10076515712E+03  0.00000000000E+00 0.  1.
         14    1    5    5    0    0  0.46137803427E+02  0.95863980736E+02 -0.21404565339E+03  0.23902749098E+03  0.00000000000E+00 0. -1.
          5    1    4    4  501    0  0.29846836609E+02 -0.77876989595E+02  0.16845919194E+01  0.83549907325E+02  0.47000000000E+01 0.  1.
         -5    1    4    4    0  501  0.19794786989E+03 -0.17702217678E+03  0.20091468263E+03  0.33303004363E+03  0.47000000000E+01 0.  1.
          1    1    1    2  502    0 -0.24140285310E+00  0.32479925882E+02  0.54281170864E+02  0.63257010449E+02  0.00000000000E+00 0. -1.
          1    1    1    2  503    0 -0.14229891348E+03  0.10134549761E+03 -0.13321189597E+04  0.13435255165E+04  0.00000000000E+00 0. -1.
<mgrwt>
<rscale>  0 0.71954553E+02</rscale>
<asrwt>0</asrwt>
<pdfrwt beam="1">  1        2 0.58090960E-01 0.32480823E+02</pdfrwt>
<pdfrwt beam="2">  1        2 0.39690901E+00 0.15940045E+03</pdfrwt>
<totfact> 0.51589585E+01</totfact>
</mgrwt>
</event>
<event>
13    1  0.1589573E-008  0.1637295E+03  0.7546771E-02  0.1276291E+00
         -3   -1    0    0    0  502 -0.00000000000E+00  0.00000000000E+00  0.11520326865E+04  0.11520326865E+04  0.00000000000E+00 0.  1.
         -1   -1    0    0    0  501  0.00000000000E+00 -0.00000000000E+00 -0.31127801211E+03  0.31127801211E+03  0.00000000000E+00 0.  1.
         24    2    1    2    0    0 -0.65479375954E+02 -0.67015163594E+02  0.32211641993E+03  0.34536110927E+03  0.82077566891E+02 0.  0.
         25    2    1    2    0    0  0.15790526819E+02 -0.12128562866E+03  0.34934310994E+03  0.39067266236E+03  0.12499990480E+03 0.  0.
         24    2    1    2    0    0 -0.48987768799E+02  0.70585091713E+01  0.87044350986E+02  0.12079151835E+03  0.67559217152E+02 0.  0.
        -11    1    3    3    0    0 -0.73721447857E+02 -0.38199092609E+02  0.15757287388E+03  0.17811017134E+03  0.00000000000E+00 0.  1.
         12    1    3    3    0    0  0.82420719029E+01 -0.28816070985E+02  0.16454354604E+03  0.16725093794E+03  0.00000000000E+00 0. -1.
        -13    1    5    5    0    0 -0.40886924313E+02  0.18602155281E+02  0.14967098170E+02  0.47347595383E+02  0.00000000000E+00 0.  1.
         14    1    5    5    0    0 -0.81008444858E+01 -0.11543646110E+02  0.72077252815E+02  0.73443922964E+02  0.00000000000E+00 0. -1.
          5    1    4    4  503    0 -0.35536269079E+01 -0.60727228232E+02  0.30959425392E+03  0.31554891312E+03  0.47000000000E+01 0. -1.
         -5    1    4    4    0  503  0.19344153727E+02 -0.60558400426E+02  0.39748856025E+02  0.75123749246E+02  0.47000000000E+01 0. -1.
         -2    1    1    2    0  501  0.11948924307E+03  0.12129705037E+03 -0.23094528860E+03  0.28692573946E+03  0.00000000000E+00 0.  1.
         -4    1    1    2    0  502 -0.20812625132E+02  0.59945232707E+02  0.31319608214E+03  0.31955966916E+03  0.00000000000E+00 0.  1.
<mgrwt>
<rscale>  0 0.10192906E+03</rscale>
<asrwt>0</asrwt>
<pdfrwt beam="2">  1       -1 0.45776178E-01 0.16372952E+03</pdfrwt>
<pdfrwt beam="1">  1       -3 0.16941657E+00 0.63455467E+02</pdfrwt>
<totfact> 0.56664277E+00</totfact>
</mgrwt>
</event>
<event>
13    1  0.1589573E-008  0.1124532E+03  0.7546771E-02  0.1316838E+00
         -1   -1    0    0    0  501 -0.00000000000E+00  0.00000000000E+00  0.95857056065E+03  0.95857056065E+03  0.00000000000E+00 0.  1.
          2   -1    0    0  503    0  0.00000000000E+00 -0.00000000000E+00 -0.20153507009E+04  0.20153507009E+04  0.00000000000E+00 0. -1.
         24    2    1    2    0    0 -0.94691751696E+02 -0.19214805959E+03 -0.29483347162E+03  0.37316973623E+03  0.80258777744E+02 0.  0.
         25    2    1    2    0    0  0.15756128699E+03  0.19460392126E+03  0.26112616635E+03  0.38276718571E+03  0.12501039307E+03 0.  0.
         24    2    1    2    0    0  0.17041704109E+02  0.53626143988E+02 -0.10126911470E+04  0.10174032949E+04  0.79999513880E+02 0.  0.
        -11    1    3    3    0    0 -0.65663724986E+02 -0.63860143406E+02 -0.16281613930E+03  0.18681257429E+03  0.00000000000E+00 0.  1.
         12    1    3    3    0    0 -0.29028026711E+02 -0.12828791619E+03 -0.13201733232E+03  0.18635716194E+03  0.00000000000E+00 0. -1.
        -11    1    5    5    0    0  0.45641044489E+02  0.23889830524E+02 -0.71692378016E+03  0.71877224174E+03  0.00000000000E+00 0.  1.
         12    1    5    5    0    0 -0.28599340380E+02  0.29736313464E+02 -0.29576736689E+03  0.29863105318E+03  0.00000000000E+00 0. -1.
          5    1    4    4  502    0  0.13850265103E+03  0.86409562237E+02  0.19539404466E+03  0.25465765152E+03  0.47000000000E+01 0.  1.
         -5    1    4    4    0  502  0.19058635955E+02  0.10819435902E+03  0.65732121698E+02  0.12810953419E+03  0.47000000000E+01 0.  1.
          1    1    1    2  503    0 -0.11674817834E+03 -0.10773438238E+03 -0.59331042438E+03  0.61421013828E+03  0.00000000000E+00 0. -1.
         -2    1    1    2    0  501  0.36836938941E+02  0.51652376727E+02  0.58292873645E+03  0.58637090640E+03  0.00000000000E+00 0.  1.
<mgrwt>
<rscale>  0 0.84464727E+02</rscale>
<asrwt>0</asrwt>
<pdfrwt beam="2">  1        2 0.29637510E+00 0.11245317E+03</pdfrwt>
<pdfrwt beam="1">  1       -1 0.14096626E+00 0.63442321E+02</pdfrwt>
<totfact> 0.49934065E+00</totfact>
</mgrwt>
</event>
<event>
13    1  0.1589573E-008  0.9130789E+02  0.7546771E-02  0.1457066E+00
          2   -1    0    0  503    0  0.00000000000E+00  0.00000000000E+00  0.16811441054E+04  0.16811441054E+04  0.00000000000E+00 0. -1.
          2   -1    0    0  502    0 -0.00000000000E+00 -0.00000000000E+00 -0.16557394018E+04  0.16557394018E+04  0.00000000000E+00 0. -1.
         24    2    1    2    0    0 -0.56602298871E+03  0.10275314929E+02 -0.47469740178E+03  0.74405018071E+03  0.88235153509E+02 0.  0.
         25    2    1    2    0    0  0.63062604960E+03 -0.80288263985E+03  0.54489457961E+03  0.11639774820E+04  0.12499491192E+03 0.  0.
         24    2    1    2    0    0 -0.83868509167E+02  0.71894632511E+03 -0.12757929204E+02  0.72846655178E+03  0.81135732493E+02 0.  0.
        -11    1    5    5    0    0 -0.40486014630E+01  0.29381151034E+03  0.20995575895E+02  0.29458854185E+03  0.00000000000E+00 0.  1.
         12    1    5    5    0    0 -0.79819907704E+02  0.42513481477E+03 -0.33753505099E+02  0.43387800993E+03  0.00000000000E+00 0. -1.
        -11    1    3    3    0    0 -0.35722773084E+03 -0.35012890349E+02 -0.28471942437E+03  0.45815139942E+03  0.00000000000E+00 0.  1.
         12    1    3    3    0    0 -0.20879525787E+03  0.45288205278E+02 -0.18997797741E+03  0.28589878129E+03  0.00000000000E+00 0. -1.
          5    1    4    4  501    0  0.51461089333E+03 -0.71812383721E+03  0.48859431464E+03  0.10095903681E+04  0.47000000000E+01 0. -1.
         -5    1    4    4    0  501  0.11601515627E+03 -0.84758802634E+02  0.56300264977E+02  0.15438711392E+03  0.47000000000E+01 0. -1.
          1    1    1    2  502    0  0.14524225534E+01  0.91369836744E+02 -0.36002361580E+03  0.37143984780E+03  0.00000000000E+00 0. -1.
          1    1    1    2  503    0  0.17813025727E+02 -0.17708836935E+02  0.32798907071E+03  0.32894944489E+03  0.00000000000E+00 0. -1.
<mgrwt>
<rscale>  0 0.47890067E+02</rscale>
<asrwt>0</asrwt>
<pdfrwt beam="1">  1        2 0.24722707E+00 0.25117858E+02</pdfrwt>
<pdfrwt beam="2">  1        2 0.24349109E+00 0.91307887E+02</pdfrwt>
<totfact> 0.31346983E+01</totfact>
</mgrwt>
</event>
<event>
13    1  0.1589573E-008  0.1044394E+03  0.7546771E-02  0.1360651E+00
          2   -1    0    0  503    0  0.00000000000E+00  0.00000000000E+00  0.38492961172E+03  0.38492961172E+03  0.00000000000E+00 0. -1.
          2   -1    0    0  502    0 -0.00000000000E+00 -0.00000000000E+00 -0.28978824815E+04  0.28978824815E+04  0.00000000000E+00 0. -1.
         24    2    1    2    0    0 -0.43547107299E+02  0.46323803321E+02 -0.70648292300E+02  0.12423585810E+03  0.80007011727E+02 0.  0.
         25    2    1    2    0    0 -0.17015513130E+02 -0.14726986952E+03 -0.23292870615E+03  0.30308397743E+03  0.12500469220E+03 0.  0.
         24    2    1    2    0    0  0.12170563998E+03  0.15813725400E+02  0.24496858295E+03  0.28564626437E+03  0.80757940777E+02 0.  0.
        -11    1    3    3    0    0 -0.52120558015E+02  0.63657492095E+02 -0.51739431516E+02  0.97189493471E+02  0.00000000000E+00 0.  1.
         12    1    3    3    0    0  0.85734507159E+01 -0.17333688774E+02 -0.18908860784E+02  0.27046364632E+02  0.00000000000E+00 0. -1.
        -13    1    5    5    0    0  0.39984721608E+02 -0.23380546205E+02  0.38752931529E+02  0.60392198213E+02  0.00000000000E+00 0.  1.
         14    1    5    5    0    0  0.81720918370E+02  0.39194271605E+02  0.20621565142E+03  0.22525406615E+03  0.00000000000E+00 0. -1.
          5    1    4    4  501    0 -0.45582418946E+02 -0.16148831014E+02 -0.11317055673E+03  0.12315927318E+03  0.47000000000E+01 0. -1.
         -5    1    4    4    0  501  0.28566905816E+02 -0.13112103851E+03 -0.11975814942E+03  0.17992470425E+03  0.47000000000E+01 0. -1.
          1    1    1    2  502    0 -0.42745279328E+02 -0.18802329095E+02 -0.24634601044E+04  0.24639026711E+04  0.00000000000E+00 0. -1.
          1    1    1    2  503    0 -0.18397740221E+02  0.10393466990E+03  0.91156501228E+01  0.10594332225E+03  0.00000000000E+00 0. -1.
<mgrwt>
<rscale>  0 0.69836174E+02</rscale>
<asrwt>0</asrwt>
<pdfrwt beam="1">  1        2 0.56607296E-01 0.10443937E+03</pdfrwt>
<pdfrwt beam="2">  1        2 0.42615919E+00 0.46697821E+02</pdfrwt>
<totfact> 0.50288359E+01</totfact>
</mgrwt>
</event>
<event>
13    1  0.1589573E-008  0.3102902E+03  0.7546771E-02  0.1120896E+00
          2   -1    0    0  502    0  0.00000000000E+00  0.00000000000E+00  0.27207364287E+04  0.27207364287E+04  0.00000000000E+00 0. -1.
          2   -1    0    0  503    0 -0.00000000000E+00 -0.00000000000E+00 -0.26839072857E+04  0.26839072857E+04  0.00000000000E+00 0. -1.
         24    2    1    2    0    0  0.72640555172E+03 -0.54629017174E+03  0.28202372443E+03  0.95481720474E+03  0.77720885248E+02 0.  0.
         25    2    1    2    0    0  0.34480267178E+03  0.44555962242E+03  0.96709270890E+02  0.58513871613E+03  0.12498949734E+03 0.  0.
         24    2    1    2    0    0 -0.12049473407E+04 -0.11381384173E+02  0.88098471466E+02  0.12097811138E+04  0.61492870144E+02 0.  0.
        -11    1    5    5    0    0 -0.83011593001E+03  0.19979227550E+02  0.66741953384E+02  0.83303428208E+03  0.00000000000E+00 0.  1.
         12    1    5    5    0    0 -0.37483141065E+03 -0.31360611723E+02  0.21356518081E+02  0.37674683176E+03  0.00000000000E+00 0. -1.
        -13    1    3    3    0    0  0.39798807044E+03 -0.29552364306E+03  0.19410375611E+03  0.53235795848E+03  0.00000000000E+00 0.  1.
         14    1    3    3    0    0  0.32841748128E+03 -0.25076652868E+03  0.87919968323E+02  0.42245924626E+03  0.00000000000E+00 0. -1.
          5    1    4    4  501    0  0.17435323877E+03  0.18638504350E+03  0.10191563621E+03  0.27485873320E+03  0.47000000000E+01 0.  1.
         -5    1    4    4    0  501  0.17044943301E+03  0.25917457891E+03 -0.52063653227E+01  0.31027998293E+03  0.47000000000E+01 0.  1.
          1    1    1    2  502    0  0.30821154200E+03  0.56599623530E+02  0.10847618711E+04  0.11291174381E+04  0.00000000000E+00 0. -1.
          1    1    1    2  503    0 -0.17447242484E+03  0.55512309967E+02 -0.15147641949E+04  0.15257892415E+04  0.00000000000E+00 0. -1.
<mgrwt>
<rscale>  0 0.23835119E+03</rscale>
<asrwt>0</asrwt>
<pdfrwt beam="1">  1        2 0.40010830E+00 0.31029023E+03</pdfrwt>
<pdfrwt beam="2">  1        2 0.39469225E+00 0.18309081E+03</pdfrwt>
<totfact> 0.21167049E+00</totfact>
</mgrwt>
</event>
<event>
13    1  0.1589573E-008  0.9115931E+02  0.7546771E-02  0.1331792E+00
          2   -1    0    0  502    0  0.00000000000E+00  0.00000000000E+00  0.36819741320E+04  0.36819741320E+04  0.00000000000E+00 0. -1.
          2   -1    0    0  503    0 -0.00000000000E+00 -0.00000000000E+00 -0.17325418260E+04  0.17325418260E+04  0.00000000000E+00 0. -1.
         24    2    1    2    0    0  0.17544163622E+03 -0.14420121321E+02 -0.39665864045E+03  0.44218389535E+03  0.84857602178E+02 0.  0.
         25    2    1    2    0    0 -0.76637821480E+03 -0.12864925851E+03 -0.21639493532E+03  0.81629578772E+03  0.12500338068E+03 0.  0.
         24    2    1    2    0    0  0.51264122326E+03  0.17980260196E+03  0.13181428913E+04  0.14297205010E+04  0.10709822382E+03 0.  0.
        -11    1    5    5    0    0  0.35075091881E+03  0.11283385266E+03  0.75776062056E+03  0.84259055503E+03  0.00000000000E+00 0.  1.
         12    1    5    5    0    0  0.16189030445E+03  0.66968749297E+02  0.56038227078E+03  0.58712994598E+03  0.00000000000E+00 0. -1.
        -13    1    3    3    0    0  0.88518701200E+02  0.37094325707E+00 -0.10420357017E+03  0.13672630360E+03  0.00000000000E+00 0.  1.
         14    1    3    3    0    0  0.86922935016E+02 -0.14791064578E+02 -0.29245507029E+03  0.30545759175E+03  0.00000000000E+00 0. -1.
          5    1    4    4  501    0 -0.44521013455E+03 -0.13226842113E+02 -0.13453765262E+03  0.46530579540E+03  0.47000000000E+01 0.  1.
         -5    1    4    4    0  501 -0.32116808025E+03 -0.11542241640E+03 -0.81857282703E+02  0.35098999232E+03  0.47000000000E+01 0.  1.
          1    1    1    2  502    0  0.85610901673E+02  0.31410685131E+02  0.19826943875E+04  0.19847903899E+04  0.00000000000E+00 0. -1.
          1    1    1    2  503    0 -0.73155463483E+01 -0.68143907251E+02 -0.73835139718E+03  0.74152538394E+03  0.00000000000E+00 0. -1.
<mgrwt>
<rscale>  0 0.79042049E+02</rscale>
<asrwt>0</asrwt>
<pdfrwt beam="1">  1        2 0.54146678E+00 0.91159314E+02</pdfrwt>
<pdfrwt beam="2">  1        2 0.25478556E+00 0.68535460E+02</pdfrwt>
<totfact> 0.23897041E+00</totfact>
</mgrwt>
</event>
<event>
13    1  0.1589573E-008  0.6352473E+02  0.7546771E-02  0.1406174E+00
          2   -1    0    0  503    0  0.00000000000E+00  0.00000000000E+00  0.13917114658E+04  0.13917114658E+04  0.00000000000E+00 0. -1.
          2   -1    0    0  502    0 -0.00000000000E+00 -0.00000000000E+00 -0.91550442461E+03  0.91550442461E+03  0.00000000000E+00 0. -1.
         24    2    1    2    0    0  0.14404060396E+03  0.21053065076E+03 -0.39401380450E+03  0.47627590649E+03  0.80752773708E+02 0.  0.
         25    2    1    2    0    0  0.64520710805E+02 -0.99255416842E+02  0.18811298553E+03  0.25500945147E+03  0.12501505958E+03 0.  0.
         24    2    1    2    0    0 -0.25592335035E+03 -0.12103312245E+03 -0.14574805692E+03  0.32819620279E+03  0.79526558108E+02 0.  0.
        -11    1    5    5    0    0 -0.78904268414E+02 -0.27185491916E+02 -0.84310947281E+02  0.11863081546E+03  0.00000000000E+00 0.  1.
         12    1    5    5    0    0 -0.17701908194E+03 -0.93847630535E+02 -0.61437109637E+02  0.20956538733E+03  0.00000000000E+00 0. -1.
        -11    1    3    3    0    0 -0.82984768676E+01  0.72275812520E+01 -0.61142193434E+01  0.12589135286E+02  0.00000000000E+00 0.  1.
         12    1    3    3    0    0  0.15233908082E+03  0.20330306951E+03 -0.38789958516E+03  0.46368677120E+03  0.00000000000E+00 0. -1.
          5    1    4    4  501    0  0.50765385532E+02 -0.10196119432E+03  0.65431977797E+02  0.13144064529E+03  0.47000000000E+01 0. -1.
         -5    1    4    4    0  501  0.13755325273E+02  0.27057774765E+01  0.12268100773E+03  0.12356880619E+03  0.47000000000E+01 0. -1.
          1    1    1    2  502    0  0.21713568651E+02 -0.48412449218E+02 -0.20559430327E+03  0.21233054853E+03  0.00000000000E+00 0. -1.
          1    1    1    2  503    0  0.25648466938E+02  0.58170337748E+02  0.10334502203E+04  0.10354037811E+04  0.00000000000E+00 0. -1.
<mgrwt>
<rscale>  0 0.58056442E+02</rscale>
<asrwt>0</asrwt>
<pdfrwt beam="1">  1        2 0.20466345E+00 0.63524725E+02</pdfrwt>
<pdfrwt beam="2">  1        2 0.13463300E+00 0.53058876E+02</pdfrwt>
<totfact> 0.98820987E+01</totfact>
</mgrwt>
</event>
<event>
13    1  0.1589573E-008  0.2670029E+03  0.7546771E-02  0.1169621E+00
          2   -1    0    0  503    0  0.00000000000E+00  0.00000000000E+00  0.29427056299E+04  0.29427056299E+04  0.00000000000E+00 0. -1.
          2   -1    0    0  502    0 -0.00000000000E+00 -0.00000000000E+00 -0.16499958529E+04  0.16499958529E+04  0.00000000000E+00 0. -1.
         24    2    1    2    0    0  0.63512105384E+03  0.65903279843E+03 -0.65244007429E+02  0.92108556719E+03  0.80242502058E+02 0.  0.
         25    2    1    2    0    0 -0.31542455588E+03 -0.63510074444E+02  0.97638225114E+02  0.35872651378E+03  0.12500123472E+03 0.  0.
         24    2    1    2    0    0 -0.66300023345E+03 -0.52227542896E+03  0.15110177408E+04  0.17317283744E+04  0.58031167018E+02 0.  0.
        -11    1    5    5    0    0 -0.32916884007E+03 -0.29530354927E+03  0.77692104650E+03  0.89395896101E+03  0.00000000000E+00 0.  1.
         12    1    5    5    0    0 -0.33383139337E+03 -0.22697187969E+03  0.73409669432E+03  0.83776941337E+03  0.00000000000E+00 0. -1.
        -11    1    3    3    0    0  0.21470194990E+03  0.17405454812E+03 -0.51294328131E+01  0.27643846349E+03  0.00000000000E+00 0.  1.
         12    1    3    3    0    0  0.42041910393E+03  0.48497825031E+03 -0.60114574616E+02  0.64464710370E+03  0.00000000000E+00 0. -1.
          5    1    4    4  501    0 -0.28238587689E+03 -0.52116629171E+02  0.38347605492E+02  0.28974222224E+03  0.47000000000E+01 0. -1.
         -5    1    4    4    0  501 -0.33038678990E+02 -0.11393445273E+02  0.59290619622E+02  0.68984291544E+02  0.47000000000E+01 0. -1.
          1    1    1    2  502    0  0.26585808196E+03  0.16897718544E+02 -0.89097726158E+03  0.92994974772E+03  0.00000000000E+00 0. -1.
          1    1    1    2  503    0  0.77445653530E+02 -0.90145013571E+02  0.64027508005E+03  0.65121127974E+03  0.00000000000E+00 0. -1.
<mgrwt>
<rscale>  0 0.17813411E+03</rscale>
<asrwt>0</asrwt>
<pdfrwt beam="1">  1        2 0.43275083E+00 0.11884424E+03</pdfrwt>
<pdfrwt beam="2">  1        2 0.24264645E+00 0.26700293E+03</pdfrwt>
<totfact> 0.58789618E+00</totfact>
</mgrwt>
</event>
<event>
13    1  0.1589573E-008  0.3384659E+02  0.7546771E-02  0.1639471E+00
          2   -1    0    0  502    0  0.00000000000E+00  0.00000000000E+00  0.61922650150E+03  0.61922650150E+03  0.00000000000E+00 0. -1.
          2   -1    0    0  503    0 -0.00000000000E+00 -0.00000000000E+00 -0.23977329488E+03  0.23977329488E+03  0.00000000000E+00 0. -1.
         24    2    1    2    0    0  0.14132425809E+03  0.65555495685E+02  0.70029805516E+01  0.17454777423E+03  0.78408002241E+02 0.  0.
         25    2    1    2    0    0 -0.22784177298E+03 -0.14636601624E+03  0.19618176525E+03  0.35699634106E+03  0.12499687310E+03 0.  0.
         24    2    1    2    0    0  0.63726734227E+02  0.32777993033E+02  0.34079908472E+02  0.11844042663E+03  0.87927248426E+02 0.  0.
        -13    1    5    5    0    0 -0.17822038818E+02  0.97047481777E+01 -0.10317651733E+02  0.22765349593E+02  0.00000000000E+00 0.  1.
         14    1    5    5    0    0  0.81548773045E+02  0.23073244855E+02  0.44397560205E+02  0.95675077034E+02  0.00000000000E+00 0. -1.
        -13    1    3    3    0    0  0.87317547236E+02  0.14861273828E+02 -0.27625387786E+02  0.92781321210E+02  0.00000000000E+00 0.  1.
         14    1    3    3    0    0  0.54006710851E+02  0.50694221857E+02  0.34628368338E+02  0.81766453025E+02  0.00000000000E+00 0. -1.
          5    1    4    4  501    0 -0.15394366352E+03 -0.62135681798E+02  0.51381545805E+02  0.17384374519E+03  0.47000000000E+01 0.  1.
         -5    1    4    4    0  501 -0.73898109461E+02 -0.84230334440E+02  0.14480021945E+03  0.18315259587E+03  0.47000000000E+01 0.  1.
          1    1    1    2  502    0  0.88652581122E+01  0.32511755139E+02  0.17053085910E+03  0.17382859641E+03  0.00000000000E+00 0. -1.
          1    1    1    2  503    0  0.13925522557E+02  0.15520772381E+02 -0.28342306748E+02  0.35186658062E+02  0.00000000000E+00 0. -1.
<mgrwt>
<rscale>  0 0.26566446E+02</rscale>
<asrwt>0</asrwt>
<pdfrwt beam="1">  1        2 0.91062721E-01 0.33846588E+02</pdfrwt>
<pdfrwt beam="2">  1        2 0.35260779E-01 0.20852207E+02</pdfrwt>
<totfact> 0.11547717E+03</totfact>
</mgrwt>
</event>
<event>
13    1  0.1589573E-008  0.6649599E+02  0.7546771E-02  0.1523785E+00
          2   -1    0    0  503    0  0.00000000000E+00  0.00000000000E+00  0.13776441406E+04  0.13776441406E+04  0.00000000000E+00 0. -1.
          2   -1    0    0  502    0 -0.00000000000E+00 -0.00000000000E+00 -0.67151659007E+03  0.67151659007E+03  0.00000000000E+00 0. -1.
         24    2    1    2    0    0 -0.14370247497E+02 -0.83855131290E+02 -0.38352650340E+03  0.40146518968E+03  0.82725646897E+02 0.  0.
         25    2    1    2    0    0  0.40877966726E+02  0.14340632014E+03  0.20040484656E+03  0.27932742784E+03  0.12500131440E+03 0.  0.
         24    2    1    2    0    0  0.56441633860E+02 -0.88057132757E+02  0.21270599949E+02  0.13353235982E+03  0.80241734992E+02 0.  0.
        -11    1    3    3    0    0  0.29790359412E+02 -0.58521513029E+02 -0.17799423667E+03  0.18972132534E+03  0.00000000000E+00 0.  1.
         12    1    3    3    0    0 -0.44160606909E+02 -0.25333618261E+02 -0.20553226673E+03  0.21174386433E+03  0.00000000000E+00 0. -1.
        -13    1    5    5    0    0  0.32847413907E+02 -0.30381373387E+02  0.48094514502E+02  0.65689137416E+02  0.00000000000E+00 0.  1.
         14    1    5    5    0    0  0.23594219953E+02 -0.57675759371E+02 -0.26823914553E+02  0.67843222404E+02  0.00000000000E+00 0. -1.
          5    1    4    4  501    0  0.13459033131E+01 -0.10708367433E+02 -0.10035575846E+02  0.15468787004E+02  0.47000000000E+01 0.  1.
         -5    1    4    4    0  501  0.39532063413E+02  0.15411468757E+03  0.21044042241E+03  0.26385864084E+03  0.47000000000E+01 0.  1.
          1    1    1    2  502    0 -0.62021393837E+02  0.22884941595E+02 -0.17735612742E+03  0.18927643746E+03  0.00000000000E+00 0. -1.
          1    1    1    2  503    0 -0.20927959252E+02  0.56210023166E+01  0.10453347348E+04  0.10455593158E+04  0.00000000000E+00 0. -1.
<mgrwt>
<rscale>  0 0.37959808E+02</rscale>
<asrwt>0</asrwt>
<pdfrwt beam="1">  1        2 0.20259473E+00 0.21669683E+02</pdfrwt>
<pdfrwt beam="2">  1        2 0.98752440E-01 0.66495990E+02</pdfrwt>
<totfact> 0.15571078E+02</totfact>
</mgrwt>
</event>
<event>
13    1  0.1589573E-008  0.9395182E+02  0.7546771E-02  0.1417398E+00
          2   -1    0    0  503    0  0.00000000000E+00  0.00000000000E+00  0.12665473219E+04  0.12665473219E+04  0.00000000000E+00 0. -1.
          2   -1    0    0  502    0 -0.00000000000E+00 -0.00000000000E+00 -0.27097525782E+04  0.27097525782E+04  0.00000000000E+00 0. -1.
         24    2    1    2    0    0 -0.69988432404E+02 -0.46981534181E+02 -0.84254617190E+03  0.85059138646E+03  0.80721804486E+02 0.  0.
         25    2    1    2    0    0 -0.17989402640E+01  0.79703561892E+02  0.25561188729E+03  0.29550244576E+03  0.12501345752E+03 0.  0.
         24    2    1    2    0    0  0.15922667469E+01 -0.10138515066E+02 -0.12220457898E+03  0.14672977830E+03  0.80562670716E+02 0.  0.
        -11    1    3    3    0    0 -0.13107477411E+02 -0.44883064964E+02 -0.58325476028E+03  0.58512597864E+03  0.00000000000E+00 0.  1.
         12    1    3    3    0    0 -0.56880954992E+02 -0.20984692172E+01 -0.25929141162E+03  0.26546540783E+03  0.00000000000E+00 0. -1.
        -13    1    5    5    0    0  0.77729078087E+01  0.29886670049E+02 -0.19995482893E+02  0.36789271242E+02  0.00000000000E+00 0.  1.
         14    1    5    5    0    0 -0.61806410618E+01 -0.40025185115E+02 -0.10220909609E+03  0.10994050705E+03  0.00000000000E+00 0. -1.
          5    1    4    4  501    0 -0.45543192285E+02  0.21540757140E+02  0.30982836218E+02  0.59331380582E+02  0.47000000000E+01 0.  1.
         -5    1    4    4    0  501  0.43744252021E+02  0.58162804752E+02  0.22462905107E+03  0.23617106518E+03  0.47000000000E+01 0.  1.
          1    1    1    2  502    0  0.10119652659E+03 -0.33521144295E+02 -0.17068307485E+04  0.17101566034E+04  0.00000000000E+00 0. -1.
          1    1    1    2  503    0 -0.31001420672E+02  0.10937631651E+02  0.97276435569E+03  0.97331968621E+03  0.00000000000E+00 0. -1.
<mgrwt>
<rscale>  0 0.55575181E+02</rscale>
<asrwt>0</asrwt>
<pdfrwt beam="1">  1        2 0.18625696E+00 0.32874304E+02</pdfrwt>
<pdfrwt beam="2">  1        2 0.39849302E+00 0.93951820E+02</pdfrwt>
<totfact> 0.14588316E+01</totfact>
</mgrwt>
</event>
<event>
13    1  0.1589573E-008  0.1443468E+03  0.7546771E-02  0.1304799E+00
          2   -1    0    0  503    0  0.00000000000E+00  0.00000000000E+00  0.14653270758E+04  0.14653270758E+04  0.00000000000E+00 0. -1.
          2   -1    0    0  502    0 -0.00000000000E+00 -0.00000000000E+00 -0.30568788300E+04  0.30568788300E+04  0.00000000000E+00 0. -1.
         24    2    1    2    0    0  0.33845342940E+02  0.63951309397E+02 -0.14714580182E+03  0.18257027631E+03  0.80279147899E+02 0.  0.
         25    2    1    2    0    0  0.34618574988E+02  0.14726916428E+03  0.74128979320E+03  0.76682563123E+03  0.12499735491E+03 0.  0.
         24    2    1    2    0    0 -0.54725099988E+02  0.92191179768E+02  0.63212541254E+02  0.14703842704E+03  0.78297020756E+02 0.  0.
        -13    1    3    3    0    0 -0.16359032377E+02  0.39068461967E+02 -0.10256573703E+03  0.11096708104E+03  0.00000000000E+00 0.  1.
         14    1    3    3    0    0  0.50204375317E+02  0.24882847430E+02 -0.44580064783E+02  0.71603195272E+02  0.00000000000E+00 0. -1.
        -13    1    5    5    0    0 -0.33222190090E+02  0.19711943111E+02 -0.11945483069E+02  0.40434752149E+02  0.00000000000E+00 0.  1.
         14    1    5    5    0    0 -0.21502909897E+02  0.72479236657E+02  0.75158024322E+02  0.10660367489E+03  0.00000000000E+00 0. -1.
          5    1    4    4  501    0  0.41353611009E+02  0.10810752405E+03  0.69927597069E+03  0.70880627190E+03  0.47000000000E+01 0.  1.
         -5    1    4    4    0  501 -0.67350360209E+01  0.39161640229E+02  0.42013822504E+02  0.58019359330E+02  0.47000000000E+01 0.  1.
          1    1    1    2  502    0  0.99321648823E+01 -0.25363016299E+03 -0.28303571022E+04  0.28417157201E+04  0.00000000000E+00 0. -1.
          1    1    1    2  503    0 -0.23670982823E+02 -0.49781490453E+02  0.58144881544E+03  0.58405585109E+03  0.00000000000E+00 0. -1.
<mgrwt>
<rscale>  0 0.89200815E+02</rscale>
<asrwt>0</asrwt>
<pdfrwt beam="1">  1        2 0.21548928E+00 0.55122701E+02</pdfrwt>
<pdfrwt beam="2">  1        2 0.44954100E+00 0.14434680E+03</pdfrwt>
<totfact> 0.69300324E+00</totfact>
</mgrwt>
</event>
<event>
13    1  0.1589573E-008  0.9044736E+02  0.7546771E-02  0.1311941E+00
          2   -1    0    0  503    0  0.00000000000E+00  0.00000000000E+00  0.39950503795E+04  0.39950503795E+04  0.00000000000E+00 0. -1.
          2   -1    0    0  502    0 -0.00000000000E+00 -0.00000000000E+00 -0.16407089202E+04  0.16407089202E+04  0.00000000000E+00 0. -1.
         24    2    1    2    0    0 -0.48539969332E+03 -0.43178463700E+03 -0.15337784032E+03  0.67218498266E+03  0.79101542315E+02 0.  0.
         25    2    1    2    0    0  0.56584824284E+01 -0.28126638164E+03  0.19727358529E+03  0.36562975086E+03  0.12500180556E+03 0.  0.
         24    2    1    2    0    0  0.50890789674E+03  0.70914811945E+03  0.22274441663E+04  0.23934573249E+04  0.72471712619E+02 0.  0.
        -11    1    5    5    0    0  0.33840581478E+03  0.44686651122E+03  0.13413705694E+04  0.14537823698E+04  0.00000000000E+00 0.  1.
         12    1    5    5    0    0  0.17050208196E+03  0.26228160823E+03  0.88607359691E+03  0.93967495503E+03  0.00000000000E+00 0. -1.
        -11    1    3    3    0    0 -0.35292563243E+03 -0.33274133493E+03 -0.81551830995E+02  0.49185770212E+03  0.00000000000E+00 0.  1.
         12    1    3    3    0    0 -0.13247406089E+03 -0.99043302073E+02 -0.71826009322E+02  0.18032728055E+03  0.00000000000E+00 0. -1.
          5    1    4    4  501    0  0.22896410006E+02 -0.83988061007E+01  0.48103603970E+02  0.54137161451E+02  0.47000000000E+01 0.  1.
         -5    1    4    4    0  501 -0.17237927577E+02 -0.27286757554E+03  0.14916998132E+03  0.31149258941E+03  0.47000000000E+01 0.  1.
          1    1    1    2  502    0 -0.48936013561E+02 -0.76128544528E+02 -0.10573218604E+04  0.10611879218E+04  0.00000000000E+00 0. -1.
          1    1    1    2  503    0  0.19769327709E+02  0.80031443722E+02  0.11403234084E+04  0.11432993195E+04  0.00000000000E+00 0. -1.
<mgrwt>
<rscale>  0 0.86349342E+02</rscale>
<asrwt>0</asrwt>
<pdfrwt beam="1">  1        2 0.58750741E+00 0.82436996E+02</pdfrwt>
<pdfrwt beam="2">  1        2 0.24128072E+00 0.90447364E+02</pdfrwt>
<totfact> 0.16628878E+00</totfact>
</mgrwt>
</event>
<event>
13    1  0.1589573E-008  0.3753841E+02  0.7546771E-02  0.1543905E+00
          2   -1    0    0  503    0  0.00000000000E+00  0.00000000000E+00  0.31659641041E+04  0.31659641041E+04  0.00000000000E+00 0. -1.
          2   -1    0    0  502    0 -0.00000000000E+00 -0.00000000000E+00 -0.21073520414E+04  0.21073520414E+04  0.00000000000E+00 0. -1.
         24    2    1    2    0    0  0.76187562408E+02  0.73680778730E+01 -0.33423370730E+03  0.35393146490E+03  0.87729570382E+02 0.  0.
         25    2    1    2    0    0 -0.15001508088E+03 -0.73200749357E+01  0.15871074528E+04  0.15990912586E+04  0.12499871341E+03 0.  0.
         24    2    1    2    0    0  0.23738096809E+02 -0.49270330363E+02  0.18277604033E+03  0.20606706473E+03  0.77881265735E+02 0.  0.
        -11    1    3    3    0    0  0.30999257946E+02 -0.39020887658E+02 -0.11502561432E+03  0.12535739155E+03  0.00000000000E+00 0.  1.
         12    1    3    3    0    0  0.45188304462E+02  0.46388965531E+02 -0.21920809298E+03  0.22857407336E+03  0.00000000000E+00 0. -1.
        -13    1    5    5    0    0  0.41233450304E+02 -0.61032733830E+02  0.14978628664E+03  0.16691651712E+03  0.00000000000E+00 0.  1.
         14    1    5    5    0    0 -0.17495353495E+02  0.11762403468E+02  0.32989753688E+02  0.39150547604E+02  0.00000000000E+00 0. -1.
          5    1    4    4  501    0 -0.14150440342E+03  0.33198185758E+02  0.13925029044E+04  0.14000757281E+04  0.47000000000E+01 0.  1.
         -5    1    4    4    0  501 -0.85106774555E+01 -0.40518260694E+02  0.19460454848E+03  0.19901553047E+03  0.47000000000E+01 0.  1.
          1    1    1    2  502    0  0.30499395987E+02  0.21878093335E+02 -0.17452235301E+04  0.17456271177E+04  0.00000000000E+00 0. -1.
          1    1    1    2  503    0  0.19590025673E+02  0.27344234090E+02  0.13681858069E+04  0.13685992395E+04  0.00000000000E+00 0. -1.
<mgrwt>
<rscale>  0 0.35534428E+02</rscale>
<asrwt>0</asrwt>
<pdfrwt beam="1">  1        2 0.46558296E+00 0.33637423E+02</pdfrwt>
<pdfrwt beam="2">  1        2 0.30990471E+00 0.37538415E+02</pdfrwt>
<totfact> 0.40449286E+00</totfact>
</mgrwt>
</event>
<event>
13    1  0.1589573E-008  0.4900336E+02  0.7546771E-02  0.1558543E+00
          2   -1    0    0  502    0  0.00000000000E+00  0.00000000000E+00  0.24270479710E+04  0.24270479710E+04  0.00000000000E+00 0. -1.
          2   -1    0    0  503    0 -0.00000000000E+00 -0.00000000000E+00 -0.43160388493E+04  0.43160388493E+04  0.00000000000E+00 0. -1.
         24    2    1    2    0    0 -0.98753593888E+03  0.16153296171E+04 -0.55945695979E+03  0.19752394724E+04  0.63732888890E+02 0.  0.
         25    2    1    2    0    0  0.87520250722E+03 -0.99087149422E+03 -0.92467110006E+03  0.16181620941E+04  0.12500469087E+03 0.  0.
         24    2    1    2    0    0  0.80868553808E+02 -0.64333580267E+03 -0.82649135400E+03  0.10535479328E+04  0.80340590403E+02 0.  0.
        -11    1    3    3    0    0 -0.55591296603E+03  0.92254211196E+03 -0.28611063448E+03  0.11144426721E+04  0.00000000000E+00 0.  1.
         12    1    3    3    0    0 -0.43162297284E+03  0.69278750511E+03 -0.27334632531E+03  0.86079680034E+03  0.00000000000E+00 0. -1.
        -13    1    5    5    0    0  0.21468039661E+02 -0.21130800981E+03 -0.33312397220E+03  0.39507408494E+03  0.00000000000E+00 0.  1.
         14    1    5    5    0    0  0.59400514147E+02 -0.43202779286E+03 -0.49336738180E+03  0.65847384785E+03  0.00000000000E+00 0. -1.
          5    1    4    4  501    0  0.42749271615E+03 -0.39791867606E+03 -0.37765080462E+03  0.69550809869E+03  0.47000000000E+01 0.  1.
         -5    1    4    4    0  501  0.44770979106E+03 -0.59295281816E+03 -0.54702029545E+03  0.92265399539E+03  0.47000000000E+01 0.  1.
          1    1    1    2  502    0  0.48902008804E+02  0.31848402722E+01  0.12582415292E+04  0.12591954953E+04  0.00000000000E+00 0. -1.
          1    1    1    2  503    0 -0.17437130952E+02  0.15692839547E+02 -0.83661299353E+03  0.83694182575E+03  0.00000000000E+00 0. -1.
<mgrwt>
<rscale>  0 0.33905216E+02</rscale>
<asrwt>0</asrwt>
<pdfrwt beam="1">  1        2 0.35691882E+00 0.49003363E+02</pdfrwt>
<pdfrwt beam="2">  1        2 0.63471159E+00 0.23458874E+02</pdfrwt>
<totfact> 0.61873025E-01</totfact>
</mgrwt>
</event>
<event>
13    1  0.1589573E-008  0.8453976E+02  0.7546771E-02  0.1398424E+00
          2   -1    0    0  502    0  0.00000000000E+00  0.00000000000E+00  0.10495837104E+04  0.10495837104E+04  0.00000000000E+00 0. -1.
          2   -1    0    0  503    0 -0.00000000000E+00 -0.00000000000E+00 -0.13832132321E+04  0.13832132321E+04  0.00000000000E+00 0. -1.
         24    2    1    2    0    0  0.55537232518E+02  0.14098308638E+03 -0.10371588321E+04  0.10512603930E+04  0.80556539393E+02 0.  0.
         25    2    1    2    0    0  0.34507299419E+02 -0.81233665734E+02  0.48309766311E+03  0.50674904685E+03  0.12498632813E+03 0.  0.
         24    2    1    2    0    0 -0.50774477342E+02 -0.43775318152E+02 -0.38790398546E+02  0.11212865644E+03  0.81079063549E+02 0.  0.
        -11    1    5    5    0    0 -0.15713599919E+01  0.17542742486E+02 -0.27566922754E+02  0.32713181078E+02  0.00000000000E+00 0.  1.
         12    1    5    5    0    0 -0.49203117350E+02 -0.61318060638E+02 -0.11223475793E+02  0.79415475357E+02  0.00000000000E+00 0. -1.
        -11    1    3    3    0    0  0.71912100525E+02  0.76607430184E+02 -0.61672840565E+03  0.62561487745E+03  0.00000000000E+00 0.  1.
         12    1    3    3    0    0 -0.16374868007E+02  0.64375656200E+02 -0.42043042641E+03  0.42564551550E+03  0.00000000000E+00 0. -1.
          5    1    4    4  501    0  0.66501711528E+02 -0.14260450096E+02  0.32443409600E+03  0.33151984966E+03  0.47000000000E+01 0.  1.
         -5    1    4    4    0  501 -0.31994412109E+02 -0.66973215639E+02  0.15866356711E+03  0.17522919719E+03  0.47000000000E+01 0.  1.
          1    1    1    2  502    0 -0.76726478566E+02 -0.35808303355E+02  0.50561071964E+03  0.51265133074E+03  0.00000000000E+00 0. -1.
          1    1    1    2  503    0  0.37456423971E+02  0.19834200857E+02 -0.24638867381E+03  0.25000751550E+03  0.00000000000E+00 0. -1.
<mgrwt>
<rscale>  0 0.59859078E+02</rscale>
<asrwt>0</asrwt>
<pdfrwt beam="1">  1        2 0.15435055E+00 0.84539764E+02</pdfrwt>
<pdfrwt beam="2">  1        2 0.20341371E+00 0.42383714E+02</pdfrwt>
<totfact> 0.84360284E+01</totfact>
</mgrwt>
</event>
<event>
13    1  0.1589573E-008  0.1311889E+03  0.7546771E-02  0.1321705E+00
          2   -1    0    0  503    0  0.00000000000E+00  0.00000000000E+00  0.14910300410E+04  0.14910300410E+04  0.00000000000E+00 0. -1.
          2   -1    0    0  502    0 -0.00000000000E+00 -0.00000000000E+00 -0.45768179398E+04  0.45768179398E+04  0.00000000000E+00 0. -1.
         24    2    1    2    0    0 -0.17290067931E+03  0.17804144773E+03 -0.73112638274E+03  0.77599752900E+03  0.77672231002E+02 0.  0.
         25    2    1    2    0    0  0.47764888790E+02 -0.17555710644E+03  0.62346535944E+03  0.66138941289E+03  0.12500047537E+03 0.  0.
         24    2    1    2    0    0  0.20508476106E+03 -0.55345163606E+01  0.21911772755E+02  0.22248862971E+03  0.83250672517E+02 0.  0.
        -11    1    5    5    0    0  0.29625637099E+02 -0.16870113634E+02 -0.22867345200E+02  0.41051121594E+02  0.00000000000E+00 0.  1.
         12    1    5    5    0    0  0.17545912396E+03  0.11335597274E+02  0.44779117955E+02  0.18143750812E+03  0.00000000000E+00 0. -1.
        -13    1    3    3    0    0 -0.95167001865E+02  0.14914601337E+03 -0.48345721111E+03  0.51481274899E+03  0.00000000000E+00 0.  1.
         14    1    3    3    0    0 -0.77733677445E+02  0.28895434357E+02 -0.24766917163E+03  0.26118478001E+03  0.00000000000E+00 0. -1.
          5    1    4    4  501    0 -0.18775144044E+02 -0.28085971032E+02  0.27434667327E+02  0.43773037066E+02  0.47000000000E+01 0. -1.
         -5    1    4    4    0  501  0.66540032833E+02 -0.14747113541E+03  0.59603069212E+03  0.61761637583E+03  0.47000000000E+01 0. -1.
          1    1    1    2  502    0 -0.13109408323E+03 -0.66962513299E+01 -0.37018779758E+04  0.37042045092E+04  0.00000000000E+00 0. -1.
          1    1    1    2  503    0  0.51145112691E+02  0.97464264048E+01  0.70183932749E+03  0.70376789994E+03  0.00000000000E+00 0. -1.
<mgrwt>
<rscale>  0 0.82646315E+02</rscale>
<asrwt>0</asrwt>
<pdfrwt beam="1">  1        2 0.21926912E+00 0.52065491E+02</pdfrwt>
<pdfrwt beam="2">  1        2 0.67306147E+00 0.13118888E+03</pdfrwt>
<totfact> 0.69048532E-01</totfact>
</mgrwt>
</event>
<event>
13    1  0.1589573E-008  0.7616569E+02  0.7546771E-02  0.1381215E+00
          2   -1    0    0  503    0  0.00000000000E+00  0.00000000000E+00  0.11957167006E+04  0.11957167006E+04  0.00000000000E+00 0. -1.
         -3   -1    0    0    0  501 -0.00000000000E+00 -0.00000000000E+00 -0.68308025887E+03  0.68308025887E+03  0.00000000000E+00 0.  1.
         24    2    1    2    0    0 -0.45971753838E+02  0.12039286505E+02 -0.37823093918E+03  0.38962461531E+03  0.80562714295E+02 0.  0.
         25    2    1    2    0    0 -0.10657788713E+02  0.88360935481E+02  0.50290966496E+03  0.52579926395E+03  0.12500196592E+03 0.  0.
         24    2    1    2    0    0  0.74028556601E+02  0.27253047141E+02 -0.20900040644E+02  0.11347165846E+03  0.78841929225E+02 0.  0.
        -11    1    5    5    0    0  0.39436367529E+02  0.54429047224E+02 -0.16857486449E+02  0.69295909800E+02  0.00000000000E+00 0.  1.
         12    1    5    5    0    0  0.34592189072E+02 -0.27176000083E+02 -0.40425541952E+01  0.44175748661E+02  0.00000000000E+00 0. -1.
        -11    1    3    3    0    0  0.10767561910E+02 -0.18994704183E+02 -0.17487287006E+03  0.17623070067E+03  0.00000000000E+00 0.  1.
         12    1    3    3    0    0 -0.56739315748E+02  0.31033990687E+02 -0.20335806912E+03  0.21339391464E+03  0.00000000000E+00 0. -1.
          5    1    4    4  502    0 -0.39643172070E+02  0.36257777592E+02  0.42066521752E+03  0.42410791405E+03  0.47000000000E+01 0. -1.
         -5    1    4    4    0  502  0.28985383357E+02  0.52103157889E+02  0.82244447431E+02  0.10169134990E+03  0.47000000000E+01 0. -1.
          1    1    1    2  503    0 -0.41346573860E+00 -0.54020495889E+02  0.62170006098E+03  0.62404274754E+03  0.00000000000E+00 0. -1.
         -4    1    1    2    0  501 -0.16985548312E+02 -0.73632773239E+02 -0.21284230443E+03  0.22585867417E+03  0.00000000000E+00 0.  1.
<mgrwt>
<rscale>  0 0.64145373E+02</rscale>
<asrwt>0</asrwt>
<pdfrwt beam="1">  1        2 0.17584069E+00 0.54022078E+02</pdfrwt>
<pdfrwt beam="2">  1       -3 0.10045298E+00 0.76165691E+02</pdfrwt>
<totfact> 0.12990360E+01</totfact>
</mgrwt>
</event>
<event>
13    1  0.1589573E-008  0.1357211E+03  0.7546771E-02  0.1310939E+00
         -3   -1    0    0    0  501 -0.00000000000E+00  0.00000000000E+00  0.28834786782E+03  0.28834786782E+03  0.00000000000E+00 0.  1.
          2   -1    0    0  503    0  0.00000000000E+00 -0.00000000000E+00 -0.20121859134E+04  0.20121859134E+04  0.00000000000E+00 0. -1.
         24    2    1    2    0    0  0.70594941905E+02 -0.11184824362E+03 -0.29939735819E+03  0.33714035209E+03  0.80815614179E+02 0.  0.
         25    2    1    2    0    0 -0.49806756909E+02  0.33429920054E+03 -0.58973206045E+02  0.36515774306E+03  0.12500267905E+03 0.  0.
         24    2    1    2    0    0 -0.10506607914E+03 -0.63026431986E+02 -0.47101264817E+03  0.49366698399E+03  0.82722211210E+02 0.  0.
        -11    1    3    3    0    0  0.41380907408E+01 -0.78795396521E+02 -0.18027885119E+03  0.19678999592E+03  0.00000000000E+00 0.  1.
         12    1    3    3    0    0  0.66456851164E+02 -0.33052847099E+02 -0.11911850700E+03  0.14035035617E+03  0.00000000000E+00 0. -1.
        -11    1    5    5    0    0  0.12743992526E+02  0.16802360548E-01 -0.64851241307E+02  0.66091551101E+02  0.00000000000E+00 0.  1.
         12    1    5    5    0    0 -0.11781007167E+03 -0.63043234347E+02 -0.40616140686E+03  0.42757543289E+03  0.00000000000E+00 0. -1.
          5    1    4    4  502    0 -0.78960394915E+01  0.78910876607E+02 -0.70272664555E+02  0.10606418467E+03  0.47000000000E+01 0.  1.
         -5    1    4    4    0  502 -0.41910717418E+02  0.25538832393E+03  0.11299458511E+02  0.25909355839E+03  0.47000000000E+01 0.  1.
          1    1    1    2  503    0  0.85597463851E+02 -0.10400161934E+03 -0.98729215520E+03  0.99643818793E+03  0.00000000000E+00 0. -1.
         -4    1    1    2    0  501 -0.13195697057E+01 -0.55422905599E+02  0.92837322029E+02  0.10813051415E+03  0.00000000000E+00 0.  1.
<mgrwt>
<rscale>  0 0.86742071E+02</rscale>
<asrwt>0</asrwt>
<pdfrwt beam="2">  1        2 0.29590970E+00 0.13572106E+03</pdfrwt>
<pdfrwt beam="1">  1       -3 0.42404097E-01 0.55438612E+02</pdfrwt>
<totfact> 0.27823884E+01</totfact>
</mgrwt>
</event>
<event>
13    1  0.1589573E-008  0.7066675E+02  0.7546771E-02  0.1364770E+00
          2   -1    0    0  503    0  0.00000000000E+00  0.00000000000E+00  0.22615889525E+04  0.22615889525E+04  0.00000000000E+00 0. -1.
          2   -1    0    0  502    0 -0.00000000000E+00 -0.00000000000E+00 -0.38423938010E+04  0.38423938010E+04  0.00000000000E+00 0. -1.
         24    2    1    2    0    0 -0.10972254559E+02 -0.53600449938E+02 -0.67164654262E+03  0.67857710824E+03  0.79777283854E+02 0.  0.
         25    2    1    2    0    0  0.20433010139E+03 -0.75263644915E+02  0.69893400011E+03  0.74266343718E+03  0.12499935131E+03 0.  0.
         24    2    1    2    0    0 -0.11494709239E+03  0.15145280063E+03 -0.33960894843E+03  0.39809962030E+03  0.83655752671E+02 0.  0.
        -13    1    3    3    0    0 -0.30285343769E+02  0.25974202132E+01 -0.12208426776E+03  0.12581143459E+03  0.00000000000E+00 0.  1.
         14    1    3    3    0    0  0.19313089210E+02 -0.56197870152E+02 -0.54956227485E+03  0.55276567365E+03  0.00000000000E+00 0. -1.
        -13    1    5    5    0    0 -0.12000158604E+03  0.13860242556E+03 -0.33756990672E+03  0.38414119142E+03  0.00000000000E+00 0.  1.
         14    1    5    5    0    0  0.50544936496E+01  0.12850375068E+02 -0.20390417109E+01  0.13958428871E+02  0.00000000000E+00 0. -1.
          5    1    4    4  501    0  0.41374045384E+02 -0.53767592748E+02  0.35484050617E+03  0.36129854758E+03  0.47000000000E+01 0. -1.
         -5    1    4    4    0  501  0.16295605601E+03 -0.21496052167E+02  0.34409349394E+03  0.38136488960E+03  0.47000000000E+01 0. -1.
          1    1    1    2  502    0 -0.20690887605E+02 -0.63385349341E+02 -0.27753341377E+04  0.27761349735E+04  0.00000000000E+00 0. -1.
          1    1    1    2  503    0 -0.57719866838E+02  0.40796643564E+02  0.15068507800E+04  0.15085076143E+04  0.00000000000E+00 0. -1.
<mgrwt>
<rscale>  0 0.68642869E+02</rscale>
<asrwt>0</asrwt>
<pdfrwt beam="1">  1        2 0.33258661E+00 0.70666755E+02</pdfrwt>
<pdfrwt beam="2">  1        2 0.56505791E+00 0.66676948E+02</pdfrwt>
<totfact> 0.11311203E+00</totfact>
</mgrwt>
</event>
<event>
13    1  0.1589573E-008  0.1413683E+03  0.7546771E-02  0.1218933E+00
          2   -1    0    0  502    0  0.00000000000E+00  0.00000000000E+00  0.36790761287E+04  0.36790761287E+04  0.00000000000E+00 0. -1.
          2   -1    0    0  503    0 -0.00000000000E+00 -0.00000000000E+00 -0.29206021147E+03  0.29206021147E+03  0.00000000000E+00 0. -1.
         24    2    1    2    0    0 -0.11569826842E+03  0.13169579948E+03 -0.11674819115E+02  0.19322523972E+03  0.80435184748E+02 0.  0.
         25    2    1    2    0    0  0.25692191442E+03  0.14682146151E+03  0.91851767461E+03  0.97307153930E+03  0.12501236079E+03 0.  0.
         24    2    1    2    0    0 -0.23173836285E+01 -0.11813246331E+03  0.40909363543E+03  0.43349828618E+03  0.81255845417E+02 0.  0.
        -11    1    3    3    0    0 -0.49487012086E+02  0.19428460882E+02  0.23647447906E+02  0.58186177482E+02  0.00000000000E+00 0.  1.
         12    1    3    3    0    0 -0.66211256333E+02  0.11226733860E+03 -0.35322267021E+02  0.13503906224E+03  0.00000000000E+00 0. -1.
        -13    1    5    5    0    0  0.12499634858E+02 -0.10258764819E+03  0.39379717695E+03  0.40713226722E+03  0.00000000000E+00 0.  1.
         14    1    5    5    0    0 -0.14817018487E+02 -0.15544815113E+02  0.15296458475E+02  0.26366018956E+02  0.00000000000E+00 0. -1.
          5    1    4    4  501    0  0.13826424193E+03  0.62750249046E+02  0.28388972684E+03  0.32197835541E+03  0.47000000000E+01 0. -1.
         -5    1    4    4    0  501  0.11865767249E+03  0.84071212462E+02  0.63462794777E+03  0.65109318389E+03  0.47000000000E+01 0. -1.
          1    1    1    2  502    0 -0.97441500110E+01 -0.14056610923E+03  0.21900764270E+04  0.21946044144E+04  0.00000000000E+00 0. -1.
          1    1    1    2  503    0 -0.12916211236E+03 -0.19818688453E+02 -0.11899700076E+03  0.17673686053E+03  0.00000000000E+00 0. -1.
<mgrwt>
<rscale>  0 0.13591588E+03</rscale>
<asrwt>0</asrwt>
<pdfrwt beam="1">  1        2 0.54104058E+00 0.14136829E+03</pdfrwt>
<pdfrwt beam="2">  1        2 0.42950033E-01 0.13067376E+03</pdfrwt>
<totfact> 0.20293446E+01</totfact>
</mgrwt>
</event>
<event>
13    1  0.1589573E-008  0.1395983E+03  0.7546771E-02  0.1336127E+00
          2   -1    0    0  503    0  0.00000000000E+00  0.00000000000E+00  0.67873438866E+03  0.67873438866E+03  0.00000000000E+00 0. -1.
          2   -1    0    0  502    0 -0.00000000000E+00 -0.00000000000E+00 -0.27255951410E+04  0.27255951410E+04  0.00000000000E+00 0. -1.
         24    2    1    2    0    0  0.10002429159E+03 -0.47859294481E+02 -0.12979210858E+04  0.13070582317E+04  0.10726931067E+03 0.  0.
         25    2    1    2    0    0 -0.12222964056E+03  0.48998158384E+02  0.34920634808E+03  0.39358249185E+03  0.12498479826E+03 0.  0.
         24    2    1    2    0    0  0.40540096019E+02 -0.99173879082E+02 -0.70764173681E+03  0.72024954521E+03  0.80768942171E+02 0.  0.
        -11    1    3    3    0    0  0.42402164583E+02 -0.74535501867E+02 -0.57574855937E+03  0.58209955180E+03  0.00000000000E+00 0.  1.
         12    1    3    3    0    0  0.57622127010E+02  0.26676207387E+02 -0.72217252643E+03  0.72495867986E+03  0.00000000000E+00 0. -1.
        -13    1    5    5    0    0 -0.70373175600E+01  0.11301931524E+02 -0.93041242113E+02  0.93988989933E+02  0.00000000000E+00 0.  1.
         14    1    5    5    0    0  0.47577413579E+02 -0.11047581061E+03 -0.61460049470E+03  0.62626055528E+03  0.00000000000E+00 0. -1.
          5    1    4    4  501    0 -0.12481172583E+03  0.78934382405E+02  0.31422557667E+03  0.34722961663E+03  0.47000000000E+01 0.  1.
         -5    1    4    4    0  501  0.25820852678E+01 -0.29936224021E+02  0.34980771411E+02  0.46352875223E+02  0.47000000000E+01 0.  1.
          1    1    1    2  502    0  0.25208760087E+02 -0.34946404174E+02 -0.66972957882E+03  0.67111432818E+03  0.00000000000E+00 0. -1.
          1    1    1    2  503    0 -0.43543507135E+02  0.13298141935E+03  0.27922530100E+03  0.31232493277E+03  0.00000000000E+00 0. -1.
<mgrwt>
<rscale>  0 0.77558150E+02</rscale>
<asrwt>0</asrwt>
<pdfrwt beam="1">  1        2 0.99813881E-01 0.13959832E+03</pdfrwt>
<pdfrwt beam="2">  1        2 0.40082281E+00 0.43089822E+02</pdfrwt>
<totfact> 0.33227391E+01</totfact>
</mgrwt>
</event>
<event>
13    1  0.1589573E-008  0.4926065E+02  0.7546771E-02  0.1531589E+00
          2   -1    0    0  502    0  0.00000000000E+00  0.00000000000E+00  0.13725636919E+04  0.13725636919E+04  0.00000000000E+00 0. -1.
          2   -1    0    0  503    0 -0.00000000000E+00 -0.00000000000E+00 -0.20469578829E+04  0.20469578829E+04  0.00000000000E+00 0. -1.
         24    2    1    2    0    0 -0.13776408778E+03  0.16191833711E+03 -0.11293326012E+03  0.25563655890E+03  0.86021144106E+02 0.  0.
         25    2    1    2    0    0  0.23910038276E+03 -0.25304290428E+03  0.17967200118E+03  0.41122861831E+03  0.12500897597E+03 0.  0.
         24    2    1    2    0    0 -0.10644933725E+03  0.11311389603E+03 -0.26877249618E+02  0.17943273184E+03  0.85717581831E+02 0.  0.
        -11    1    5    5    0    0 -0.84975434586E+02  0.12308022791E+03 -0.91258848933E+01  0.14984274677E+03  0.00000000000E+00 0.  1.
         12    1    5    5    0    0 -0.21473902660E+02 -0.99663318857E+01 -0.17751364724E+02  0.29589985067E+02  0.00000000000E+00 0. -1.
        -11    1    3    3    0    0 -0.11369810363E+03  0.15388327919E+03 -0.66198449025E+02  0.20245877861E+03  0.00000000000E+00 0.  1.
         12    1    3    3    0    0 -0.24065984149E+02  0.80350579156E+01 -0.46734811092E+02  0.53177780290E+02  0.00000000000E+00 0. -1.
          5    1    4    4  501    0  0.14041505057E+03 -0.11471990005E+03  0.28221582736E+02  0.18356358469E+03  0.47000000000E+01 0.  1.
         -5    1    4    4    0  501  0.98685332197E+02 -0.13832300423E+03  0.15145041844E+03  0.22766503363E+03  0.47000000000E+01 0.  1.
          1    1    1    2  502    0 -0.16681177497E+02  0.22213217994E+02  0.92890689439E+03  0.92932217621E+03  0.00000000000E+00 0. -1.
          1    1    1    2  503    0  0.21794219757E+02 -0.44202546850E+02 -0.16431625768E+04  0.16439014895E+04  0.00000000000E+00 0. -1.
<mgrwt>
<rscale>  0 0.36992239E+02</rscale>
<asrwt>0</asrwt>
<pdfrwt beam="1">  1        2 0.20184761E+00 0.27779286E+02</pdfrwt>
<pdfrwt beam="2">  1        2 0.30102321E+00 0.49260652E+02</pdfrwt>
<totfact> 0.29898133E+01</totfact>
</mgrwt>
</event>
<event>
13    1  0.1589573E-008  0.2085937E+03  0.7546771E-02  0.1210670E+00
         -3   -1    0    0    0  501 -0.00000000000E+00  0.00000000000E+00  0.40509546228E+03  0.40509546228E+03  0.00000000000E+00 0.  1.
          2   -1    0    0  503    0  0.00000000000E+00 -0.00000000000E+00 -0.23160767459E+04  0.23160767459E+04  0.00000000000E+00 0. -1.
         24    2    1    2    0    0  0.13404061507E+02  0.62094361662E+02 -0.77676778169E+02  0.12875156837E+03  0.80671592738E+02 0.  0.
         25    2    1    2    0    0  0.24085489769E+03 -0.59339488843E+01 -0.12904003422E+04  0.13186373284E+04  0.12500026927E+03 0.  0.
         24    2    1    2    0    0 -0.40416164706E+02 -0.70865851162E+02 -0.13321120407E+03  0.17545735453E+03  0.79903836811E+02 0.  0.
        -11    1    3    3    0    0 -0.31770938552E+02  0.36019806433E+02 -0.51396835436E+02  0.70345246356E+02  0.00000000000E+00 0.  1.
         12    1    3    3    0    0  0.45175000059E+02  0.26074555229E+02 -0.26279942733E+02  0.58406322010E+02  0.00000000000E+00 0. -1.
        -11    1    5    5    0    0  0.21575927963E+02 -0.14343822446E+02 -0.13325903774E+02  0.29134955315E+02  0.00000000000E+00 0.  1.
         12    1    5    5    0    0 -0.61992092669E+02 -0.56522028715E+02 -0.11988530030E+03  0.14632239921E+03  0.00000000000E+00 0. -1.
          5    1    4    4  502    0  0.32554707833E+01 -0.27742300280E+02 -0.78259388325E+02  0.83227730810E+02  0.47000000000E+01 0. -1.
         -5    1    4    4    0  502  0.23759942691E+03  0.21808351396E+02 -0.12121409539E+04  0.12354095976E+04  0.47000000000E+01 0. -1.
          1    1    1    2  503    0 -0.16605402945E+03  0.98723950125E+02 -0.73447989512E+03  0.75946104269E+03  0.00000000000E+00 0. -1.
         -4    1    1    2    0  501 -0.47788765041E+02 -0.84018511741E+02  0.32478693587E+03  0.33886491422E+03  0.00000000000E+00 0.  1.
<mgrwt>
<rscale>  0 0.14199425E+03</rscale>
<asrwt>0</asrwt>
<pdfrwt beam="2">  1        2 0.34059952E+00 0.20859370E+03</pdfrwt>
<pdfrwt beam="1">  1       -3 0.59572862E-01 0.96658556E+02</pdfrwt>
<totfact> 0.99436294E+00</totfact>
</mgrwt>
</event>
<event>
13    1  0.1589573E-008  0.8120670E+02  0.7546771E-02  0.1417481E+00
          4   -1    0    0  503    0 -0.00000000000E+00  0.00000000000E+00  0.44733476903E+03  0.44733476903E+03  0.00000000000E+00 0. -1.
          2   -1    0    0  502    0  0.00000000000E+00 -0.00000000000E+00 -0.16420596236E+04  0.16420596236E+04  0.00000000000E+00 0. -1.
         24    2    1    2    0    0  0.88710114185E+01 -0.30069424960E+02  0.17675521293E+03  0.19766200101E+03  0.82734492103E+02 0.  0.
         25    2    1    2    0    0 -0.27175067692E+02 -0.78719803311E+02 -0.49087754103E+03  0.51334522641E+03  0.12500907747E+03 0.  0.
         24    2    1    2    0    0  0.46347283572E+02  0.14759179962E+03  0.36006533805E+02  0.17831474055E+03  0.81044840748E+02 0.  0.
        -13    1    5    5    0    0  0.64424750251E+01  0.12876677906E+03  0.37163906303E+02  0.13417728871E+03  0.00000000000E+00 0.  1.
         14    1    5    5    0    0  0.39904808547E+02  0.18825020567E+02 -0.11573724982E+01  0.44137451848E+02  0.00000000000E+00 0. -1.
        -13    1    3    3    0    0  0.38561097707E+02 -0.12345135949E+02  0.14557833924E+03  0.15110398239E+03  0.00000000000E+00 0.  1.
         14    1    3    3    0    0 -0.29690086288E+02 -0.17724289011E+02  0.31176873695E+02  0.46558018624E+02  0.00000000000E+00 0. -1.
          5    1    4    4  501    0 -0.66631862608E+01 -0.76628860203E+02 -0.48542878863E+03  0.49150745579E+03  0.47000000000E+01 0.  1.
         -5    1    4    4    0  501 -0.20511881431E+02 -0.20909431079E+01 -0.54487524034E+01  0.21837770621E+02  0.47000000000E+01 0.  1.
          1    1    1    2  502    0 -0.26949871566E+02 -0.76796437294E+02 -0.10541953420E+04  0.10573324016E+04  0.00000000000E+00 0. -1.
          3    1    1    2  503    0 -0.10933557322E+01  0.37993865943E+02  0.13758628170E+03  0.14274002308E+03  0.00000000000E+00 0. -1.
<mgrwt>
<rscale>  0 0.55557482E+02</rscale>
<asrwt>0</asrwt>
<pdfrwt beam="2">  1        2 0.24147936E+00 0.81206701E+02</pdfrwt>
<pdfrwt beam="1">  1        4 0.65784525E-01 0.38009595E+02</pdfrwt>
<totfact> 0.14124953E+01</totfact>
</mgrwt>
</event>
<event>
13    1  0.1589573E-008  0.5273846E+02  0.7546771E-02  0.1502039E+00
          2   -1    0    0  503    0  0.00000000000E+00  0.00000000000E+00  0.16844857563E+04  0.16844857563E+04  0.00000000000E+00 0. -1.
          2   -1    0    0  502    0 -0.00000000000E+00 -0.00000000000E+00 -0.10309499913E+04  0.10309499913E+04  0.00000000000E+00 0. -1.
         24    2    1    2    0    0 -0.42912028919E+03  0.64249438382E+03 -0.13132987198E+03  0.78802875267E+03  0.82453161982E+02 0.  0.
         25    2    1    2    0    0 -0.11853289112E+02 -0.39563269558E+03  0.30911007665E+03  0.51752683132E+03  0.12497700338E+03 0.  0.
         24    2    1    2    0    0  0.50319656933E+03 -0.30350589523E+03 -0.30394274598E+02  0.59300454813E+03  0.73538876524E+02 0.  0.
        -11    1    5    5    0    0  0.10450540226E+03 -0.71491916923E+02 -0.36162164073E+02  0.13168209976E+03  0.00000000000E+00 0.  1.
         12    1    5    5    0    0  0.39869116706E+03 -0.23201397831E+03  0.57678894751E+01  0.46132244837E+03  0.00000000000E+00 0. -1.
        -11    1    3    3    0    0 -0.69481071595E+02  0.16141323136E+03 -0.16537668113E+02  0.17650876759E+03  0.00000000000E+00 0.  1.
         12    1    3    3    0    0 -0.35963921759E+03  0.48108115246E+03 -0.11479220386E+03  0.61151998508E+03  0.00000000000E+00 0. -1.
          5    1    4    4  501    0 -0.10589692765E+02 -0.14112675661E+03  0.40097571978E+02  0.14716931848E+03  0.47000000000E+01 0.  1.
         -5    1    4    4    0  501 -0.12635963467E+01 -0.25450593898E+03  0.26901250467E+03  0.37035751284E+03  0.47000000000E+01 0.  1.
          1    1    1    2  502    0 -0.37526552259E+02  0.36860490630E+02 -0.15051857896E+03  0.15944522729E+03  0.00000000000E+00 0. -1.
          1    1    1    2  503    0 -0.24696438766E+02  0.19783716360E+02  0.65666841390E+03  0.65743038820E+03  0.00000000000E+00 0. -1.
<mgrwt>
<rscale>  0 0.40851291E+02</rscale>
<asrwt>0</asrwt>
<pdfrwt beam="1">  1        2 0.24771849E+00 0.31643475E+02</pdfrwt>
<pdfrwt beam="2">  1        2 0.15161029E+00 0.52738455E+02</pdfrwt>
<totfact> 0.65667849E+01</totfact>
</mgrwt>
</event>
<event>
13    1  0.1589573E-008  0.1301511E+03  0.7546771E-02  0.1293572E+00
          2   -1    0    0  503    0  0.00000000000E+00  0.00000000000E+00  0.25428536850E+04  0.25428536850E+04  0.00000000000E+00 0. -1.
          2   -1    0    0  502    0 -0.00000000000E+00 -0.00000000000E+00 -0.23035814696E+04  0.23035814696E+04  0.00000000000E+00 0. -1.
         24    2    1    2    0    0  0.50596851810E+02  0.15563727875E+03 -0.16936313256E+04  0.17035327476E+04  0.82787384517E+02 0.  0.
         25    2    1    2    0    0  0.14422778040E+03  0.19332460183E+03  0.16982578774E+03  0.32040061407E+03  0.12505879019E+03 0.  0.
         24    2    1    2    0    0 -0.14781595167E+03 -0.20275339334E+03  0.85881547634E+03  0.89836324197E+03  0.80833149372E+02 0.  0.
        -13    1    5    5    0    0 -0.83868045224E+02 -0.51106918008E+02  0.28731297776E+03  0.30363549408E+03  0.00000000000E+00 0.  1.
         14    1    5    5    0    0 -0.63947906449E+02 -0.15164647534E+03  0.57150249858E+03  0.59472774789E+03  0.00000000000E+00 0. -1.
        -13    1    3    3    0    0  0.20544991389E+01 -0.96774986180E+01 -0.56446221858E+02  0.57306639304E+02  0.00000000000E+00 0.  1.
         14    1    3    3    0    0  0.48542352672E+02  0.16531477737E+03 -0.16371851038E+04  0.16462261083E+04  0.00000000000E+00 0. -1.
          5    1    4    4  501    0  0.10272541696E+03  0.19112652764E+03  0.17426758567E+03  0.27833997606E+03  0.47000000000E+01 0. -1.
         -5    1    4    4    0  501  0.41502363434E+02  0.21980741894E+01 -0.44417979304E+01  0.42060638008E+02  0.47000000000E+01 0. -1.
          1    1    1    2  502    0 -0.65540161888E+02 -0.17396813219E+02 -0.50467182586E+03  0.50920704408E+03  0.00000000000E+00 0. -1.
          1    1    1    2  503    0  0.18531481352E+02 -0.12881167402E+03  0.14089341028E+04  0.14149315069E+04  0.00000000000E+00 0. -1.
<mgrwt>
<rscale>  0 0.93944194E+02</rscale>
<asrwt>0</asrwt>
<pdfrwt beam="1">  1        2 0.37394907E+00 0.13015107E+03</pdfrwt>
<pdfrwt beam="2">  1        2 0.33876198E+00 0.67809748E+02</pdfrwt>
<totfact> 0.51300306E+00</totfact>
</mgrwt>
</event>
<event>
13    1  0.1589573E-008  0.1589820E+03  0.7546771E-02  0.1409280E+00
          2   -1    0    0  503    0  0.00000000000E+00  0.00000000000E+00  0.10035742571E+04  0.10035742571E+04  0.00000000000E+00 0. -1.
          2   -1    0    0  502    0 -0.00000000000E+00 -0.00000000000E+00 -0.11934911160E+04  0.11934911160E+04  0.00000000000E+00 0. -1.
         24    2    1    2    0    0 -0.64177615437E+02 -0.88882089715E+01 -0.44937809686E+03  0.46101586493E+03  0.79982418056E+02 0.  0.
         25    2    1    2    0    0  0.21146119240E+03 -0.13990918149E+03  0.68023988234E+02  0.29076086761E+03  0.12499681677E+03 0.  0.
         24    2    1    2    0    0  0.13744446719E+02 -0.15968096565E+02  0.12830194222E+03  0.16700232290E+03  0.10480695374E+03 0.  0.
        -11    1    3    3    0    0  0.26368047766E+01  0.26477457742E+02 -0.14254963786E+03  0.14501175043E+03  0.00000000000E+00 0.  1.
         12    1    3    3    0    0 -0.66814420214E+02 -0.35365666714E+02 -0.30682845900E+03  0.31600411450E+03  0.00000000000E+00 0. -1.
        -13    1    5    5    0    0 -0.20650813783E+02  0.36853865424E+02  0.37638802220E+02  0.56580411267E+02  0.00000000000E+00 0.  1.
         14    1    5    5    0    0  0.34395260502E+02 -0.52821961989E+02  0.90663140001E+02  0.11042191163E+03  0.00000000000E+00 0. -1.
          5    1    4    4  501    0  0.71573246311E+01 -0.51380365396E+02  0.41257302057E+02  0.66448658505E+02  0.47000000000E+01 0.  1.
         -5    1    4    4    0  501  0.20430386777E+03 -0.88528816090E+02  0.26766686177E+02  0.22431220911E+03  0.47000000000E+01 0.  1.
          1    1    1    2  502    0 -0.14322920225E+03  0.15421383767E+03 -0.58917978889E+03  0.62564313769E+03  0.00000000000E+00 0. -1.
          1    1    1    2  503    0 -0.17798821440E+02  0.10551649350E+02  0.65231509640E+03  0.65264317995E+03  0.00000000000E+00 0. -1.
<mgrwt>
<rscale>  0 0.57354737E+02</rscale>
<asrwt>0</asrwt>
<pdfrwt beam="1">  1        2 0.14758445E+00 0.20691432E+02</pdfrwt>
<pdfrwt beam="2">  1        2 0.17551340E+00 0.15898203E+03</pdfrwt>
<totfact> 0.11013450E+02</totfact>
</mgrwt>
</event>
<event>
13    1  0.1589573E-008  0.3978080E+03  0.7546771E-02  0.1138442E+00
          2   -1    0    0  503    0  0.00000000000E+00  0.00000000000E+00  0.35148712109E+04  0.35148712109E+04  0.00000000000E+00 0. -1.
          2   -1    0    0  502    0 -0.00000000000E+00 -0.00000000000E+00 -0.11916061010E+04  0.11916061010E+04  0.00000000000E+00 0. -1.
         24    2    1    2    0    0 -0.48543834493E+03 -0.35703720845E+03 -0.16050803723E+03  0.62817632037E+03  0.75608891743E+02 0.  0.
         25    2    1    2    0    0  0.22155053538E+03 -0.19157952445E+03  0.19746003450E+04  0.20001146810E+04  0.12499944450E+03 0.  0.
         24    2    1    2    0    0  0.11181977222E+03  0.97387128346E+02  0.30667968115E+03  0.34998067330E+03  0.80287798764E+02 0.  0.
        -11    1    3    3    0    0 -0.19618185316E+02 -0.35103897378E+02 -0.24486689905E+01  0.40288370357E+02  0.00000000000E+00 0.  1.
         12    1    3    3    0    0 -0.46582015962E+03 -0.32193331108E+03 -0.15805936824E+03  0.58788795001E+03  0.00000000000E+00 0. -1.
        -13    1    5    5    0    0  0.95267186817E+02  0.45003620669E+02  0.24875137578E+03  0.27014516414E+03  0.00000000000E+00 0.  1.
         14    1    5    5    0    0  0.16552585402E+02  0.52383507677E+02  0.57928305364E+02  0.79835509157E+02  0.00000000000E+00 0. -1.
          5    1    4    4  501    0  0.62613600581E+02 -0.59349630175E+02  0.10049025287E+04  0.10086099463E+04  0.47000000000E+01 0. -1.
         -5    1    4    4    0  501  0.15893693479E+03 -0.13222989427E+03  0.96969781625E+03  0.99150473475E+03  0.47000000000E+01 0. -1.
          1    1    1    2  502    0  0.15382697100E+03  0.33612920447E+03 -0.71426357990E+03  0.80424998643E+03  0.00000000000E+00 0. -1.
          1    1    1    2  503    0 -0.17589336590E+01  0.11510040008E+03  0.91675670096E+03  0.92395565083E+03  0.00000000000E+00 0. -1.
<mgrwt>
<rscale>  0 0.21399348E+03</rscale>
<asrwt>0</asrwt>
<pdfrwt beam="1">  1        2 0.51689282E+00 0.11511384E+03</pdfrwt>
<pdfrwt beam="2">  1        2 0.17523619E+00 0.39780805E+03</pdfrwt>
<totfact> 0.48166432E+00</totfact>
</mgrwt>
</event>
<event>
13    1  0.1589573E-008  0.1587659E+03  0.7546771E-02  0.1330058E+00
          2   -1    0    0  502    0  0.00000000000E+00  0.00000000000E+00  0.14687432770E+04  0.14687432770E+04  0.00000000000E+00 0. -1.
          2   -1    0    0  503    0 -0.00000000000E+00 -0.00000000000E+00 -0.20708275414E+04  0.20708275414E+04  0.00000000000E+00 0. -1.
         24    2    1    2    0    0  0.85389474429E+02  0.71919623965E+02 -0.10936918291E+03  0.17538222855E+03  0.79583373048E+02 0.  0.
         25    2    1    2    0    0  0.31162424228E+03  0.15802117630E+03  0.35414045685E+03  0.51295008889E+03  0.12498787932E+03 0.  0.
         24    2    1    2    0    0 -0.14840936426E+03 -0.95785409413E+02 -0.33267974059E+03  0.38309525567E+03  0.69899792976E+02 0.  0.
        -13    1    5    5    0    0 -0.11001696104E+03 -0.10307404230E+03 -0.25839186626E+03  0.29915605704E+03  0.00000000000E+00 0.  1.
         14    1    5    5    0    0 -0.38392403213E+02  0.72886328832E+01 -0.74287874329E+02  0.83939198627E+02  0.00000000000E+00 0. -1.
        -13    1    3    3    0    0 -0.43271289830E+00  0.42582920879E+02 -0.16779915826E+02  0.45771803178E+02  0.00000000000E+00 0.  1.
         14    1    3    3    0    0  0.85822187327E+02  0.29336703086E+02 -0.92589267081E+02  0.12961042537E+03  0.00000000000E+00 0. -1.
          5    1    4    4  501    0  0.18358882879E+03  0.15898904682E+03  0.22787106713E+03  0.33306108795E+03  0.47000000000E+01 0. -1.
         -5    1    4    4    0  501  0.12803541349E+03 -0.96787052401E+00  0.12626938972E+03  0.17988900095E+03  0.47000000000E+01 0. -1.
          1    1    1    2  502    0 -0.37060897188E+02  0.14930026592E+02  0.96533832432E+03  0.96616483903E+03  0.00000000000E+00 0. -1.
          1    1    1    2  503    0 -0.21154345527E+03 -0.14908541744E+03 -0.14795141221E+04  0.15019784062E+04  0.00000000000E+00 0. -1.
<mgrwt>
<rscale>  0 0.79646199E+02</rscale>
<asrwt>0</asrwt>
<pdfrwt beam="1">  1        2 0.21599166E+00 0.39955172E+02</pdfrwt>
<pdfrwt beam="2">  1        2 0.30453346E+00 0.15876585E+03</pdfrwt>
<totfact> 0.22426860E+01</totfact>
</mgrwt>
</event>
<event>
13    1  0.1589573E-008  0.1124402E+03  0.7546771E-02  0.1371155E+00
          2   -1    0    0  502    0  0.00000000000E+00  0.00000000000E+00  0.21179713988E+04  0.21179713988E+04  0.00000000000E+00 0. -1.
          2   -1    0    0  503    0 -0.00000000000E+00 -0.00000000000E+00 -0.14774843032E+04  0.14774843032E+04  0.00000000000E+00 0. -1.
         24    2    1    2    0    0  0.19222907581E+03  0.76838037204E+03  0.23532451147E+03  0.83360177996E+03  0.11024467397E+03 0.  0.
         25    2    1    2    0    0  0.28369452011E+02 -0.37282019495E+03  0.59182641253E+03  0.71111369348E+03  0.12499783567E+03 0.  0.
         24    2    1    2    0    0 -0.11915482835E+03 -0.50287059812E+03  0.18112830335E+03  0.55355043063E+03  0.80832576443E+02 0.  0.
        -11    1    3    3    0    0  0.34645504452E+02  0.10621543250E+03 -0.48099778815E+01  0.11182649492E+03  0.00000000000E+00 0.  1.
         12    1    3    3    0    0  0.15758357136E+03  0.66216493954E+03  0.24013448936E+03  0.72177528504E+03  0.00000000000E+00 0. -1.
        -13    1    5    5    0    0 -0.32813873703E+02 -0.30905986603E+03  0.11316210914E+03  0.33075733407E+03  0.00000000000E+00 0.  1.
         14    1    5    5    0    0 -0.86340954645E+02 -0.19381073209E+03  0.67966194210E+02  0.22279309656E+03  0.00000000000E+00 0. -1.
          5    1    4    4  501    0  0.51318972831E+02 -0.19590352877E+03  0.40449933615E+03  0.45238659629E+03  0.47000000000E+01 0. -1.
         -5    1    4    4    0  501 -0.22949520820E+02 -0.17691666618E+03  0.18732707638E+03  0.25872709719E+03  0.47000000000E+01 0. -1.
          1    1    1    2  502    0 -0.65085929122E+02  0.91263296992E+02  0.55870588161E+03  0.56983982810E+03  0.00000000000E+00 0. -1.
          1    1    1    2  503    0 -0.36357770351E+02  0.16047124034E+02 -0.92649801336E+03  0.92734996976E+03  0.00000000000E+00 0. -1.
<mgrwt>
<rscale>  0 0.66847273E+02</rscale>
<asrwt>0</asrwt>
<pdfrwt beam="1">  1        2 0.31146638E+00 0.11244021E+03</pdfrwt>
<pdfrwt beam="2">  1        2 0.21727710E+00 0.39741636E+02</pdfrwt>
<totfact> 0.21854511E+01</totfact>
</mgrwt>
</event>
<event>
13    1  0.1589573E-008  0.1120280E+03  0.7546771E-02  0.1372176E+00
          2   -1    0    0  502    0  0.00000000000E+00  0.00000000000E+00  0.21834412294E+04  0.21834412294E+04  0.00000000000E+00 0. -1.
          4   -1    0    0  503    0 -0.00000000000E+00 -0.00000000000E+00 -0.21129719303E+03  0.21129719303E+03  0.00000000000E+00 0. -1.
         24    2    1    2    0    0  0.61531213025E+01 -0.23022848741E+01  0.14091460717E+02  0.82655938983E+02  0.81180499916E+02 0.  0.
         25    2    1    2    0    0  0.92899263021E+02 -0.70475492074E+02  0.60432816842E+02  0.18130556089E+03  0.12499005163E+03 0.  0.
         24    2    1    2    0    0 -0.22782845576E+02  0.22118149657E+02  0.14750814496E+04  0.14776548195E+04  0.81180120668E+02 0.  0.
        -11    1    3    3    0    0  0.26851102054E+02 -0.27621327878E+02 -0.12508090293E+02  0.40501503158E+02  0.00000000000E+00 0.  1.
         12    1    3    3    0    0 -0.20697980752E+02  0.25319043003E+02  0.26599551010E+02  0.42154435826E+02  0.00000000000E+00 0. -1.
        -11    1    5    5    0    0  0.26347350702E+02  0.73416105425E+01  0.24845633375E+03  0.24995726018E+03  0.00000000000E+00 0.  1.
         12    1    5    5    0    0 -0.49130196278E+02  0.14776539115E+02  0.12266251158E+04  0.12276975593E+04  0.00000000000E+00 0. -1.
          5    1    4    4  501    0  0.52336134930E+02 -0.10337291358E+03  0.55727843416E+02  0.12865734651E+03  0.47000000000E+01 0.  1.
         -5    1    4    4    0  501  0.40563128091E+02  0.32897421501E+02  0.47049734264E+01  0.52648214375E+02  0.47000000000E+01 0.  1.
          1    1    1    2  502    0 -0.93821735617E+02  0.86104624045E+02  0.52660967099E+03  0.54178803045E+03  0.00000000000E+00 0. -1.
          3    1    1    2  503    0  0.17552196870E+02 -0.35444996754E+02 -0.10407136172E+03  0.11133407268E+03  0.00000000000E+00 0. -1.
<mgrwt>
<rscale>  0 0.66565947E+02</rscale>
<asrwt>0</asrwt>
<pdfrwt beam="1">  1        2 0.32109429E+00 0.11202798E+03</pdfrwt>
<pdfrwt beam="2">  1        4 0.31073118E-01 0.39552843E+02</pdfrwt>
<totfact> 0.32519158E+01</totfact>
</mgrwt>
</event>
<event>
13    1  0.1589573E-008  0.1204145E+03  0.7546771E-02  0.1407303E+00
          2   -1    0    0  503    0  0.00000000000E+00  0.00000000000E+00  0.14827986101E+04  0.14827986101E+04  0.00000000000E+00 0. -1.
          2   -1    0    0  502    0 -0.00000000000E+00 -0.00000000000E+00 -0.19327320030E+04  0.19327320030E+04  0.00000000000E+00 0. -1.
         24    2    1    2    0    0 -0.10622164833E+03  0.64879353044E+02 -0.80554838285E+03  0.81893378888E+03  0.79069491180E+02 0.  0.
         25    2    1    2    0    0  0.14684327808E+03 -0.21522272721E+03  0.10384910719E+04  0.10779478608E+04  0.12499645444E+03 0.  0.
         24    2    1    2    0    0 -0.60055852258E+02  0.45924733357E+02  0.10030305985E+03  0.15214078790E+03  0.85850620282E+02 0.  0.
        -11    1    3    3    0    0 -0.65674724137E+02  0.76520844331E+02 -0.64961033618E+03  0.65739044554E+03  0.00000000000E+00 0.  1.
         12    1    3    3    0    0 -0.40546924192E+02 -0.11641491286E+02 -0.15593804666E+03  0.16154334334E+03  0.00000000000E+00 0. -1.
        -13    1    5    5    0    0 -0.63912043138E+02  0.32774769160E+01  0.85574583241E+02  0.10685738351E+03  0.00000000000E+00 0.  1.
         14    1    5    5    0    0  0.38561908805E+01  0.42647256441E+02  0.14728476609E+02  0.45283404392E+02  0.00000000000E+00 0. -1.
          5    1    4    4  501    0  0.15727026800E+03 -0.20363512389E+03  0.83375867612E+03  0.87256909232E+03  0.47000000000E+01 0. -1.
         -5    1    4    4    0  501 -0.10426989916E+02 -0.11587603317E+02  0.20473239576E+03  0.20537876848E+03  0.47000000000E+01 0. -1.
          1    1    1    2  502    0 -0.33359978079E+01  0.12027016072E+03 -0.10708070514E+04  0.10775452574E+04  0.00000000000E+00 0. -1.
          1    1    1    2  503    0  0.22770220314E+02 -0.15851519921E+02  0.28762790961E+03  0.28896291805E+03  0.00000000000E+00 0. -1.
<mgrwt>
<rscale>  0 0.57799942E+02</rscale>
<asrwt>0</asrwt>
<pdfrwt beam="1">  1        2 0.21805862E+00 0.27744434E+02</pdfrwt>
<pdfrwt beam="2">  1        2 0.28422529E+00 0.12041454E+03</pdfrwt>
<totfact> 0.27364197E+01</totfact>
</mgrwt>
</event>
<event>
13    1  0.1589573E-008  0.1197432E+03  0.7546771E-02  0.1382502E+00
          2   -1    0    0  503    0  0.00000000000E+00  0.00000000000E+00  0.18755896229E+04  0.18755896229E+04  0.00000000000E+00 0. -1.
          2   -1    0    0  502    0 -0.00000000000E+00 -0.00000000000E+00 -0.86319558714E+03  0.86319558714E+03  0.00000000000E+00 0. -1.
         24    2    1    2    0    0  0.14121739230E+03  0.17581945677E+03  0.10430715329E+03  0.26396855559E+03  0.89132389450E+02 0.  0.
         25    2    1    2    0    0 -0.13417802238E+03  0.34272244140E+02 -0.91866340215E+02  0.20795101186E+03  0.12500348180E+03 0.  0.
         24    2    1    2    0    0 -0.46383687313E+02 -0.13167584574E+03 -0.51247376027E+02  0.16902424642E+03  0.80330115956E+02 0.  0.
        -11    1    3    3    0    0  0.69654669401E+02  0.12527247747E+03  0.24418265159E+02  0.14540020032E+03  0.00000000000E+00 0.  1.
         12    1    3    3    0    0  0.71562722897E+02  0.50546979299E+02  0.79888888133E+02  0.11856835527E+03  0.00000000000E+00 0. -1.
        -13    1    5    5    0    0  0.39241212158E+00  0.43001514665E+01  0.11387323563E+02  0.12178523221E+02  0.00000000000E+00 0.  1.
         14    1    5    5    0    0 -0.46776099434E+02 -0.13597599721E+03 -0.62634699590E+02  0.15684572320E+03  0.00000000000E+00 0. -1.
          5    1    4    4  501    0 -0.75719693470E+02 -0.56048111889E+00 -0.11338499794E+03  0.13642592816E+03  0.47000000000E+01 0. -1.
         -5    1    4    4    0  501 -0.58458328907E+02  0.34832725259E+02  0.21518657721E+02  0.71525083696E+02  0.47000000000E+01 0. -1.
          1    1    1    2  502    0  0.63373647184E+02 -0.10247591095E+03 -0.51619824883E+03  0.53007373410E+03  0.00000000000E+00 0. -1.
          1    1    1    2  503    0 -0.24029329793E+02  0.24060055787E+02  0.15673988476E+04  0.15677676621E+04  0.00000000000E+00 0. -1.
<mgrwt>
<rscale>  0 0.63810575E+02</rscale>
<asrwt>0</asrwt>
<pdfrwt beam="1">  1        2 0.27582200E+00 0.34004338E+02</pdfrwt>
<pdfrwt beam="2">  1        2 0.12694053E+00 0.11974324E+03</pdfrwt>
<totfact> 0.64504918E+01</totfact>
</mgrwt>
</event>
<event>
13    1  0.1589573E-008  0.6311712E+02  0.7546771E-02  0.1391724E+00
          2   -1    0    0  502    0  0.00000000000E+00  0.00000000000E+00  0.15541274547E+04  0.15541274547E+04  0.00000000000E+00 0. -1.
          2   -1    0    0  503    0 -0.00000000000E+00 -0.00000000000E+00 -0.21338064649E+04  0.21338064649E+04  0.00000000000E+00 0. -1.
         24    2    1    2    0    0  0.68275735472E+02 -0.66678848317E+02 -0.18958056139E+03  0.22697496789E+03  0.80431349131E+02 0.  0.
         25    2    1    2    0    0 -0.10639998487E+03  0.25777492773E+02  0.10807088243E+03  0.19821553840E+03  0.12499859247E+03 0.  0.
         24    2    1    2    0    0  0.41540893602E+02  0.40815935885E+02 -0.10291230605E+03  0.14347987057E+03  0.81264654430E+02 0.  0.
        -11    1    3    3    0    0  0.54054220694E+02 -0.82491255788E+02 -0.17597822682E+03  0.20173002348E+03  0.00000000000E+00 0.  1.
         12    1    3    3    0    0  0.14221514778E+02  0.15812407471E+02 -0.13602334569E+02  0.25244944411E+02  0.00000000000E+00 0. -1.
        -13    1    5    5    0    0 -0.78274431683E+01 -0.99702446675E+01 -0.58550555198E+02  0.59906945835E+02  0.00000000000E+00 0.  1.
         14    1    5    5    0    0  0.49368336770E+02  0.50786180553E+02 -0.44361750854E+02  0.83572924739E+02  0.00000000000E+00 0. -1.
          5    1    4    4  501    0 -0.30895798031E+02  0.69923474465E+02  0.65738730347E+02  0.10093321200E+03  0.47000000000E+01 0. -1.
         -5    1    4    4    0  501 -0.75504186839E+02 -0.44145981692E+02  0.42332152081E+02  0.97282326399E+02  0.47000000000E+01 0. -1.
          1    1    1    2  502    0 -0.62308454162E+02 -0.10777368195E+02  0.13607586299E+04  0.13622270530E+04  0.00000000000E+00 0. -1.
          1    1    1    2  503    0  0.58891809958E+02  0.10862787854E+02 -0.17560156551E+04  0.17570364897E+04  0.00000000000E+00 0. -1.
<mgrwt>
<rscale>  0 0.61479963E+02</rscale>
<asrwt>0</asrwt>
<pdfrwt beam="1">  1        2 0.22854816E+00 0.63117122E+02</pdfrwt>
<pdfrwt beam="2">  1        2 0.31379507E+00 0.59885269E+02</pdfrwt>
<totfact> 0.20395080E+01</totfact>
</mgrwt>
</event>
<event>
13    1  0.1589573E-008  0.1997803E+03  0.7546771E-02  0.1246902E+00
          2   -1    0    0  503    0  0.00000000000E+00  0.00000000000E+00  0.46615503259E+04  0.46615503259E+04  0.00000000000E+00 0. -1.
         -1   -1    0    0    0  501 -0.00000000000E+00 -0.00000000000E+00 -0.59978238426E+03  0.59978238426E+03  0.00000000000E+00 0.  1.
         24    2    1    2    0    0  0.16682136531E+03 -0.37569693031E+02 -0.27206399850E+03  0.33237450594E+03  0.84930225223E+02 0.  0.
         25    2    1    2    0    0 -0.75453141820E+02  0.17217674801E+03  0.52288816035E+03  0.56953699414E+03  0.12498940075E+03 0.  0.
         24    2    1    2    0    0  0.76211011740E+02 -0.41928246578E+01  0.16766843101E+03  0.20110030258E+03  0.80640751799E+02 0.  0.
        -11    1    5    5    0    0  0.38220638821E+01 -0.32598333742E+02  0.58310070819E+02  0.66912808147E+02  0.00000000000E+00 0.  1.
         12    1    5    5    0    0  0.72388947858E+02  0.28405509085E+02  0.10935836019E+03  0.13418749443E+03  0.00000000000E+00 0. -1.
        -13    1    3    3    0    0  0.10782963461E+03 -0.62560517068E+02 -0.15486073291E+03  0.19880365941E+03  0.00000000000E+00 0.  1.
         14    1    3    3    0    0  0.58991730704E+02  0.24990824038E+02 -0.11720326559E+03  0.13357084653E+03  0.00000000000E+00 0. -1.
          5    1    4    4  502    0 -0.12951154573E+02  0.86538385015E+02  0.38870093592E+03  0.39845593491E+03  0.47000000000E+01 0.  1.
         -5    1    4    4    0  502 -0.62501987247E+02  0.85638362992E+02  0.13418722443E+03  0.17108105923E+03  0.47000000000E+01 0.  1.
          1    1    1    2  503    0  0.33434024245E+02 -0.60780119556E+02  0.38564996914E+04  0.38571235301E+04  0.00000000000E+00 0. -1.
         -2    1    1    2    0  501 -0.20101325947E+03 -0.69634110763E+02 -0.21322434260E+03  0.30119737738E+03  0.00000000000E+00 0.  1.
<mgrwt>
<rscale>  0 0.11772237E+03</rscale>
<asrwt>0</asrwt>
<pdfrwt beam="1">  1        2 0.68552209E+00 0.69368991E+02</pdfrwt>
<pdfrwt beam="2">  1       -1 0.88203294E-01 0.19978028E+03</pdfrwt>
<totfact> 0.40087084E-01</totfact>
</mgrwt>
</event>
<event>
13    1  0.1589573E-008  0.4399551E+02  0.7546771E-02  0.1564115E+00
          2   -1    0    0  503    0  0.00000000000E+00  0.00000000000E+00  0.30506187263E+04  0.30506187263E+04  0.00000000000E+00 0. -1.
          2   -1    0    0  502    0 -0.00000000000E+00 -0.00000000000E+00 -0.27793021867E+04  0.27793021867E+04  0.00000000000E+00 0. -1.
         24    2    1    2    0    0 -0.30446051386E+03 -0.72382367084E+03 -0.23091519247E+03  0.82243800365E+03  0.80408536640E+02 0.  0.
         25    2    1    2    0    0 -0.32349708170E+03 -0.99727004489E+02 -0.24244497286E+03  0.43474155652E+03  0.12499927521E+03 0.  0.
         24    2    1    2    0    0  0.56940878644E+03  0.83839983276E+03  0.14557019596E+04  0.17744753268E+04  0.50535578053E+02 0.  0.
        -11    1    5    5    0    0  0.20202041119E+03  0.27177822156E+03  0.51973687936E+03  0.62032416688E+03  0.00000000000E+00 0.  1.
         12    1    5    5    0    0  0.36738837525E+03  0.56662161120E+03  0.93596508026E+03  0.11541511599E+04  0.00000000000E+00 0. -1.
        -13    1    3    3    0    0 -0.36290688735E+02 -0.16593984918E+03 -0.37733096276E+02  0.17400239708E+03  0.00000000000E+00 0.  1.
         14    1    3    3    0    0 -0.26816982512E+03 -0.55788382166E+03 -0.19318209619E+03  0.64843560657E+03  0.00000000000E+00 0. -1.
          5    1    4    4  501    0 -0.17075270627E+02 -0.25095657837E+02 -0.67261985186E+02  0.73943367251E+02  0.47000000000E+01 0.  1.
         -5    1    4    4    0  501 -0.30642181108E+03 -0.74631346651E+02 -0.17518298767E+03  0.36079818926E+03  0.47000000000E+01 0.  1.
          1    1    1    2  502    0  0.22801024958E+02  0.10787021533E+02 -0.17540913655E+04  0.17542727169E+04  0.00000000000E+00 0. -1.
          1    1    1    2  503    0  0.35747784162E+02 -0.25636178962E+02  0.10430661109E+04  0.10439933091E+04  0.00000000000E+00 0. -1.
<mgrwt>
<rscale>  0 0.33312755E+02</rscale>
<asrwt>0</asrwt>
<pdfrwt beam="1">  1        2 0.44862040E+00 0.43995511E+02</pdfrwt>
<pdfrwt beam="2">  1        2 0.40872091E+00 0.25223929E+02</pdfrwt>
<totfact> 0.22763260E+00</totfact>
</mgrwt>
</event>
<event>
13    1  0.1589573E-008  0.1011364E+03  0.7546771E-02  0.1322037E+00
         -1   -1    0    0    0  501 -0.00000000000E+00  0.00000000000E+00  0.14857175080E+04  0.14857175080E+04  0.00000000000E+00 0.  1.
          2   -1    0    0  503    0  0.00000000000E+00 -0.00000000000E+00 -0.37527552879E+04  0.37527552879E+04  0.00000000000E+00 0. -1.
         24    2    1    2    0    0 -0.49838298229E+03  0.14935390780E+03 -0.10128565322E+03  0.53244309364E+03  0.50444797667E+02 0.  0.
         25    2    1    2    0    0  0.64689884276E+03 -0.21063916030E+03 -0.54569199533E+03  0.88105119656E+03  0.12499795429E+03 0.  0.
         24    2    1    2    0    0 -0.49154682471E+02 -0.39336019899E+02 -0.56435067337E+03  0.57344576828E+03  0.79905327450E+02 0.  0.
        -13    1    3    3    0    0 -0.36305219044E+03  0.10575918486E+03 -0.50666954813E+02  0.38152200261E+03  0.00000000000E+00 0.  1.
         14    1    3    3    0    0 -0.13533079185E+03  0.43594722939E+02 -0.50618698410E+02  0.15092109104E+03  0.00000000000E+00 0. -1.
        -13    1    5    5    0    0 -0.30505946995E+02 -0.25014511592E+02 -0.87117193194E+02  0.95633382991E+02  0.00000000000E+00 0.  1.
         14    1    5    5    0    0 -0.18648735476E+02 -0.14321508307E+02 -0.47723348018E+03  0.47781238529E+03  0.00000000000E+00 0. -1.
          5    1    4    4  502    0  0.37419036085E+03 -0.63567220946E+02 -0.26484003788E+03  0.46284074301E+03  0.47000000000E+01 0.  1.
         -5    1    4    4    0  502  0.27270848192E+03 -0.14707193935E+03 -0.28085195745E+03  0.41821045355E+03  0.47000000000E+01 0.  1.
          1    1    1    2  503    0 -0.95377175033E+02  0.33402196734E+02 -0.21514014296E+04  0.21537735776E+04  0.00000000000E+00 0. -1.
         -2    1    1    2    0  501 -0.39840029726E+01  0.67219075662E+02  0.10956919716E+04  0.10977591598E+04  0.00000000000E+00 0.  1.
<mgrwt>
<rscale>  0 0.82524074E+02</rscale>
<asrwt>0</asrwt>
<pdfrwt beam="2">  1        2 0.55187577E+00 0.10113636E+03</pdfrwt>
<pdfrwt beam="1">  1       -1 0.21848787E+00 0.67337036E+02</pdfrwt>
<totfact> 0.17669136E-01</totfact>
</mgrwt>
</event>
<event>
13    1  0.1589573E-008  0.5788491E+02  0.7546771E-02  0.1448525E+00
          2   -1    0    0  502    0  0.00000000000E+00  0.00000000000E+00  0.36086163746E+04  0.36086163746E+04  0.00000000000E+00 0. -1.
          2   -1    0    0  503    0 -0.00000000000E+00 -0.00000000000E+00 -0.32646709915E+04  0.32646709915E+04  0.00000000000E+00 0. -1.
         24    2    1    2    0    0 -0.11970887439E+03  0.93408375364E+03 -0.90344608610E+02  0.94943997701E+03  0.80196310497E+02 0.  0.
         25    2    1    2    0    0 -0.42221215875E+03 -0.52990669875E+03  0.38383950541E+03  0.78868363399E+03  0.12499956893E+03 0.  0.
         24    2    1    2    0    0  0.60538237217E+03 -0.32706862077E+03  0.84896763121E+02  0.69961508242E+03  0.93766219580E+02 0.  0.
        -11    1    5    5    0    0  0.36175123690E+03 -0.23383974334E+03  0.83412509894E+02  0.43875121627E+03  0.00000000000E+00 0.  1.
         12    1    5    5    0    0  0.24363113527E+03 -0.93228877432E+02  0.14842532277E+01  0.26086386616E+03  0.00000000000E+00 0. -1.
        -13    1    3    3    0    0 -0.35923804658E+02  0.56847897558E+03 -0.68582954435E+02  0.57372684011E+03  0.00000000000E+00 0.  1.
         14    1    3    3    0    0 -0.83785069735E+02  0.36560477806E+03 -0.21761654175E+02  0.37571313691E+03  0.00000000000E+00 0. -1.
          5    1    4    4  501    0 -0.22550724732E+03 -0.21744504339E+03  0.23002241570E+03  0.38867501491E+03  0.47000000000E+01 0. -1.
         -5    1    4    4    0  501 -0.19670491143E+03 -0.31246165536E+03  0.15381708970E+03  0.40000861908E+03  0.47000000000E+01 0. -1.
          1    1    1    2  502    0 -0.34386118951E+02 -0.46545335671E+02  0.21999716249E+04  0.22007326107E+04  0.00000000000E+00 0. -1.
          1    1    1    2  503    0 -0.29075220076E+02 -0.30563098448E+02 -0.22344179017E+04  0.22348160620E+04  0.00000000000E+00 0. -1.
<mgrwt>
<rscale>  0 0.49414619E+02</rscale>
<asrwt>0</asrwt>
<pdfrwt beam="1">  1        2 0.53067888E+00 0.57884914E+02</pdfrwt>
<pdfrwt beam="2">  1        2 0.48009867E+00 0.42183781E+02</pdfrwt>
<totfact> 0.54819607E-01</totfact>
</mgrwt>
</event>
<event>
13    1  0.1589573E-008  0.9915008E+02  0.7546771E-02  0.1305166E+00
          2   -1    0    0  503    0  0.00000000000E+00  0.00000000000E+00  0.41695683190E+04  0.41695683190E+04  0.00000000000E+00 0. -1.
          2   -1    0    0  502    0 -0.00000000000E+00 -0.00000000000E+00 -0.27630853914E+04  0.27630853914E+04  0.00000000000E+00 0. -1.
         24    2    1    2    0    0  0.98914853274E+01 -0.42884824829E+02 -0.21525460721E+03  0.23415737841E+03  0.80982604651E+02 0.  0.
         25    2    1    2    0    0 -0.55975981527E+01  0.12267528352E+03  0.89294636400E+02  0.19666941044E+03  0.12499906648E+03 0.  0.
         24    2    1    2    0    0  0.21219362198E+02 -0.95391140174E+02  0.94033934000E+03  0.94897519841E+03  0.82256439850E+02 0.  0.
        -11    1    5    5    0    0  0.35125609280E+02 -0.58433019760E+01  0.33558004643E+03  0.33746395388E+03  0.00000000000E+00 0.  1.
         12    1    5    5    0    0 -0.13906247082E+02 -0.89547838198E+02  0.60475929357E+03  0.61151124453E+03  0.00000000000E+00 0. -1.
        -11    1    3    3    0    0 -0.10475654820E+02  0.17711325359E+02 -0.10246593769E+03  0.10451171598E+03  0.00000000000E+00 0.  1.
         12    1    3    3    0    0  0.20367140147E+02 -0.60596150188E+02 -0.11278866951E+03  0.12964566243E+03  0.00000000000E+00 0. -1.
          5    1    4    4  501    0  0.42346718616E+02  0.94077396549E+02  0.16143409190E+02  0.10452990376E+03  0.47000000000E+01 0.  1.
         -5    1    4    4    0  501 -0.47944316769E+02  0.28597886972E+02  0.73151227211E+02  0.92139506685E+02  0.47000000000E+01 0.  1.
          1    1    1    2  502    0  0.25651241214E+02  0.10163934783E+03 -0.24784505348E+04  0.24806663614E+04  0.00000000000E+00 0. -1.
          1    1    1    2  503    0 -0.51164490587E+02 -0.86038666347E+02  0.30705540932E+04  0.30721853617E+04  0.00000000000E+00 0. -1.
<mgrwt>
<rscale>  0 0.89050991E+02</rscale>
<asrwt>0</asrwt>
<pdfrwt beam="1">  1        2 0.61317181E+00 0.99150075E+02</pdfrwt>
<pdfrwt beam="2">  1        2 0.40633609E+00 0.79980564E+02</pdfrwt>
<totfact> 0.35027668E-01</totfact>
</mgrwt>
</event>
<event>
13    1  0.1589573E-008  0.7487594E+02  0.7546771E-02  0.1370509E+00
          2   -1    0    0  503    0  0.00000000000E+00  0.00000000000E+00  0.52575809817E+03  0.52575809817E+03  0.00000000000E+00 0. -1.
          2   -1    0    0  502    0 -0.00000000000E+00 -0.00000000000E+00 -0.16613637420E+04  0.16613637420E+04  0.00000000000E+00 0. -1.
         24    2    1    2    0    0 -0.35321283990E+02 -0.14873787000E+03 -0.72834164799E+03  0.74866749161E+03  0.81553109803E+02 0.  0.
         25    2    1    2    0    0 -0.81880049402E+02  0.10156444477E+03 -0.82725895537E+02  0.19868403534E+03  0.12494836204E+03 0.  0.
         24    2    1    2    0    0 -0.94278570972E+01  0.40896598678E+01  0.16141243084E+03  0.18072162931E+03  0.80627071537E+02 0.  0.
        -11    1    5    5    0    0 -0.43244324066E+02  0.98494692666E+01  0.11296185725E+03  0.12135676661E+03  0.00000000000E+00 0.  1.
         12    1    5    5    0    0  0.33816466969E+02 -0.57598093988E+01  0.48450573597E+02  0.59364862709E+02  0.00000000000E+00 0. -1.
        -11    1    3    3    0    0 -0.31130693228E+00 -0.65225856040E+02 -0.47843151583E+03  0.48285735424E+03  0.00000000000E+00 0.  1.
         12    1    3    3    0    0 -0.35009977057E+02 -0.83512013957E+02 -0.24991013216E+03  0.26581013736E+03  0.00000000000E+00 0. -1.
          5    1    4    4  501    0 -0.11538255817E+03  0.77828082994E+02 -0.61647419324E+02  0.15229195495E+03  0.47000000000E+01 0. -1.
         -5    1    4    4    0  501  0.33502508766E+02  0.23736361778E+02 -0.21078476213E+02  0.46392080397E+02  0.47000000000E+01 0. -1.
          1    1    1    2  502    0  0.54040196402E+02  0.26067393838E+02 -0.76645758282E+03  0.76880236610E+03  0.00000000000E+00 0. -1.
          1    1    1    2  503    0  0.72588994087E+02  0.17016371518E+02  0.28050705168E+03  0.29024631781E+03  0.00000000000E+00 0. -1.
<mgrwt>
<rscale>  0 0.67025846E+02</rscale>
<asrwt>0</asrwt>
<pdfrwt beam="1">  1        2 0.77317366E-01 0.74875941E+02</pdfrwt>
<pdfrwt beam="2">  1        2 0.24431820E+00 0.59998765E+02</pdfrwt>
<totfact> 0.13696717E+02</totfact>
</mgrwt>
</event>
<event>
13    1  0.1589573E-008  0.2446592E+03  0.7546771E-02  0.1305382E+00
          2   -1    0    0  502    0  0.00000000000E+00  0.00000000000E+00  0.28658157184E+04  0.28658157184E+04  0.00000000000E+00 0. -1.
          2   -1    0    0  503    0 -0.00000000000E+00 -0.00000000000E+00 -0.12165749985E+04  0.12165749985E+04  0.00000000000E+00 0. -1.
         24    2    1    2    0    0 -0.10849804836E+03 -0.11074655209E+03 -0.18884938198E+03  0.25682001670E+03  0.79093657173E+02 0.  0.
         25    2    1    2    0    0 -0.12557393199E+03 -0.21372132046E+03  0.92583285836E+03  0.96655953166E+03  0.12500092562E+03 0.  0.
         24    2    1    2    0    0 -0.25958868606E+02 -0.93059465467E+02  0.26488321169E+03  0.29394268126E+03  0.83097876372E+02 0.  0.
        -11    1    3    3    0    0 -0.11039323803E+03 -0.93755431781E+02 -0.12692555071E+03  0.19257944702E+03  0.00000000000E+00 0.  1.
         12    1    3    3    0    0  0.18951896777E+01 -0.16991120313E+02 -0.61923831267E+02  0.64240569675E+02  0.00000000000E+00 0. -1.
        -13    1    5    5    0    0  0.17244491683E+02  0.26957796509E+00  0.85031113264E+02  0.86762522950E+02  0.00000000000E+00 0.  1.
         14    1    5    5    0    0 -0.43203360290E+02 -0.93329043432E+02  0.17985209842E+03  0.20718015831E+03  0.00000000000E+00 0. -1.
          5    1    4    4  501    0  0.65434937461E+01  0.12448460305E+02  0.35162417958E+02  0.38161068001E+02  0.47000000000E+01 0. -1.
         -5    1    4    4    0  501 -0.13211742574E+03 -0.22616978076E+03  0.89067044040E+03  0.92839846366E+03  0.47000000000E+01 0. -1.
          1    1    1    2  502    0  0.29967019260E+02 -0.12182915035E+02  0.15440966609E+04  0.15444354774E+04  0.00000000000E+00 0. -1.
          1    1    1    2  503    0  0.23006382969E+03  0.42971025306E+03 -0.89672262906E+03  0.10206330098E+04  0.00000000000E+00 0. -1.
<mgrwt>
<rscale>  0 0.88963116E+02</rscale>
<asrwt>0</asrwt>
<pdfrwt beam="1">  1        2 0.42144349E+00 0.32348812E+02</pdfrwt>
<pdfrwt beam="2">  1        2 0.17890809E+00 0.24465925E+03</pdfrwt>
<totfact> 0.13452798E+01</totfact>
</mgrwt>
</event>
<event>
13    1  0.1589573E-008  0.1129329E+03  0.7546771E-02  0.1267985E+00
          2   -1    0    0  502    0  0.00000000000E+00  0.00000000000E+00  0.29769176790E+04  0.29769176790E+04  0.00000000000E+00 0. -1.
          2   -1    0    0  503    0 -0.00000000000E+00 -0.00000000000E+00 -0.71960952564E+03  0.71960952564E+03  0.00000000000E+00 0. -1.
         24    2    1    2    0    0  0.23305513417E+02  0.13676689598E+03  0.18475186843E+03  0.24477508223E+03  0.80828566734E+02 0.  0.
         25    2    1    2    0    0  0.25122248358E+02 -0.38452657704E+02  0.11400530637E+04  0.11478056569E+04  0.12500841459E+03 0.  0.
         24    2    1    2    0    0  0.12342687784E+02 -0.24592394876E+02  0.23036024614E+02  0.89305245956E+02  0.81777996416E+02 0.  0.
        -11    1    5    5    0    0 -0.10590854868E+02  0.17365654893E+02 -0.17335133918E+02  0.26725251068E+02  0.00000000000E+00 0.  1.
         12    1    5    5    0    0  0.22933542651E+02 -0.41958049769E+02  0.40371158533E+02  0.62579994888E+02  0.00000000000E+00 0. -1.
        -11    1    3    3    0    0  0.45169994217E+02  0.13007462050E+03  0.15919738076E+03  0.21048406428E+03  0.00000000000E+00 0.  1.
         12    1    3    3    0    0 -0.21864480800E+02  0.66922754797E+01  0.25554487668E+02  0.34291017946E+02  0.00000000000E+00 0. -1.
          5    1    4    4  501    0  0.35833627394E+02  0.31122770945E+02  0.74329483437E+03  0.74482345326E+03  0.47000000000E+01 0. -1.
         -5    1    4    4    0  501 -0.10711379036E+02 -0.69575428649E+02  0.39675822936E+03  0.40298220367E+03  0.47000000000E+01 0. -1.
          1    1    1    2  502    0 -0.85074128261E+02  0.52019305870E+02  0.15541576461E+04  0.15573533974E+04  0.00000000000E+00 0. -1.
          1    1    1    2  503    0  0.24303678702E+02 -0.12574114927E+03 -0.64469044951E+03  0.65728782212E+03  0.00000000000E+00 0. -1.
<mgrwt>
<rscale>  0 0.10609085E+03</rscale>
<asrwt>0</asrwt>
<pdfrwt beam="1">  1        2 0.43778201E+00 0.99663313E+02</pdfrwt>
<pdfrwt beam="2">  1        2 0.10582493E+00 0.11293291E+03</pdfrwt>
<totfact> 0.20393804E+01</totfact>
</mgrwt>
</event>
<event>
13    1  0.1589573E-008  0.5919702E+02  0.7546771E-02  0.1520519E+00
          4   -1    0    0  503    0  0.00000000000E+00  0.00000000000E+00  0.63468085253E+03  0.63468085253E+03  0.00000000000E+00 0. -1.
         -1   -1    0    0    0  501 -0.00000000000E+00 -0.00000000000E+00 -0.14553003973E+04  0.14553003973E+04  0.00000000000E+00 0.  1.
         24    2    1    2    0    0 -0.10460490037E+03 -0.67772679119E+02 -0.77026827060E+03  0.78462057697E+03  0.82346341110E+02 0.  0.
         25    2    1    2    0    0 -0.50696234287E+02  0.56376337881E+02  0.14733399269E+03  0.20755808177E+03  0.12499860905E+03 0.  0.
         24    2    1    2    0    0  0.96142820023E+02  0.58698399876E+02 -0.97484643413E+02  0.16954422934E+03  0.80950886409E+02 0.  0.
        -11    1    5    5    0    0  0.96587659303E+02  0.22909721803E+02 -0.87651394032E+02  0.13242657648E+03  0.00000000000E+00 0.  1.
         12    1    5    5    0    0 -0.44483928005E+00  0.35788678073E+02 -0.98332493815E+01  0.37117652857E+02  0.00000000000E+00 0. -1.
        -11    1    3    3    0    0 -0.11421487115E+03 -0.58832698206E+02 -0.74644465125E+03  0.75742058366E+03  0.00000000000E+00 0.  1.
         12    1    3    3    0    0  0.96099707819E+01 -0.89399809130E+01 -0.23823619350E+02  0.27199993310E+02  0.00000000000E+00 0. -1.
          5    1    4    4  502    0  0.15680743574E+02 -0.31058654002E+02  0.47753766509E+02  0.59270885966E+02  0.47000000000E+01 0.  1.
         -5    1    4    4    0  502 -0.66376977861E+02  0.87434991882E+02  0.99580226177E+02  0.14828719581E+03  0.47000000000E+01 0.  1.
          3    1    1    2  503    0  0.24863969529E+02  0.81989361692E+00  0.41195479028E+03  0.41270526825E+03  0.00000000000E+00 0. -1.
         -2    1    1    2    0  501  0.34294345103E+02 -0.48121952255E+02 -0.51215541372E+03  0.51555309348E+03  0.00000000000E+00 0.  1.
<mgrwt>
<rscale>  0 0.38375421E+02</rscale>
<asrwt>0</asrwt>
<pdfrwt beam="1">  1        4 0.93335421E-01 0.24877484E+02</pdfrwt>
<pdfrwt beam="2">  1       -1 0.21401476E+00 0.59197022E+02</pdfrwt>
<totfact> 0.53074710E-01</totfact>
</mgrwt>
</event>
<event>
13    1  0.1589573E-008  0.1639181E+03  0.7546771E-02  0.1351874E+00
          2   -1    0    0  503    0  0.00000000000E+00  0.00000000000E+00  0.11384714942E+04  0.11384714942E+04  0.00000000000E+00 0. -1.
          2   -1    0    0  502    0 -0.00000000000E+00 -0.00000000000E+00 -0.26450403275E+04  0.26450403275E+04  0.00000000000E+00 0. -1.
         24    2    1    2    0    0  0.11955199335E+02  0.67340162254E+02 -0.87884707273E+03  0.88539753783E+03  0.82939728144E+02 0.  0.
         25    2    1    2    0    0  0.22537227652E+03  0.13298850511E+03  0.80927400310E+03  0.85966668877E+03  0.12499519263E+03 0.  0.
         24    2    1    2    0    0  0.18684387490E+01  0.31481591599E+02  0.84422190207E+02  0.11566974998E+03  0.72510710849E+02 0.  0.
        -11    1    5    5    0    0  0.35863625640E+02  0.20152207326E+02  0.58181092608E+02  0.71255530601E+02  0.00000000000E+00 0.  1.
         12    1    5    5    0    0 -0.33995186891E+02  0.11329384273E+02  0.26241097599E+02  0.44414219378E+02  0.00000000000E+00 0. -1.
        -11    1    3    3    0    0  0.31885135715E+02  0.46501123220E+01 -0.48720583845E+03  0.48827022686E+03  0.00000000000E+00 0.  1.
         12    1    3    3    0    0 -0.19929936379E+02  0.62690049932E+02 -0.39164123428E+03  0.39712731097E+03  0.00000000000E+00 0. -1.
          5    1    4    4  501    0  0.88107701821E+02  0.11783994123E+03  0.34070545228E+03  0.37114891092E+03  0.47000000000E+01 0. -1.
         -5    1    4    4    0  501  0.13726457470E+03  0.15148563881E+02  0.46856855082E+03  0.48851777785E+03  0.47000000000E+01 0. -1.
          1    1    1    2  502    0 -0.21222073803E+03 -0.21451398798E+03 -0.17074994718E+04  0.17339574213E+04  0.00000000000E+00 0. -1.
          1    1    1    2  503    0 -0.26975176571E+02 -0.17296270981E+02  0.18608151791E+03  0.18882042381E+03  0.00000000000E+00 0. -1.
<mgrwt>
<rscale>  0 0.72474812E+02</rscale>
<asrwt>0</asrwt>
<pdfrwt beam="1">  1        2 0.16742228E+00 0.32044050E+02</pdfrwt>
<pdfrwt beam="2">  1        2 0.38897651E+00 0.16391805E+03</pdfrwt>
<totfact> 0.16951293E+01</totfact>
</mgrwt>
</event>
<event>
13    1  0.1589573E-008  0.7128233E+02  0.7546771E-02  0.1408862E+00
          2   -1    0    0  503    0  0.00000000000E+00  0.00000000000E+00  0.21619574780E+04  0.21619574780E+04  0.00000000000E+00 0. -1.
          2   -1    0    0  502    0 -0.00000000000E+00 -0.00000000000E+00 -0.22267688088E+04  0.22267688088E+04  0.00000000000E+00 0. -1.
         24    2    1    2    0    0  0.50651985971E+02  0.38120756935E+02 -0.43358693962E+03  0.44508038519E+03  0.77974991371E+02 0.  0.
         25    2    1    2    0    0 -0.36447354099E+02  0.13702775089E+03 -0.20622549848E+02  0.19014447554E+03  0.12499847151E+03 0.  0.
         24    2    1    2    0    0 -0.32816130887E+02 -0.71630225132E+02  0.80590019075E+03  0.81354531167E+03  0.78568881207E+02 0.  0.
        -11    1    5    5    0    0 -0.12128874589E+01  0.16855746857E+02  0.15006675554E+03  0.15101529200E+03  0.00000000000E+00 0.  1.
         12    1    5    5    0    0 -0.31603243428E+02 -0.88485971988E+02  0.65583343521E+03  0.66253001967E+03  0.00000000000E+00 0. -1.
        -11    1    3    3    0    0 -0.45862028825E+01 -0.18177522039E+02 -0.13314072706E+03  0.13445411398E+03  0.00000000000E+00 0.  1.
         12    1    3    3    0    0  0.55238188853E+02  0.56298278974E+02 -0.30044621256E+03  0.31062627120E+03  0.00000000000E+00 0. -1.
          5    1    4    4  501    0  0.30829552319E+02  0.81623163338E+02 -0.46669144544E+02  0.99060088542E+02  0.47000000000E+01 0. -1.
         -5    1    4    4    0  501 -0.67276906418E+02  0.55404587554E+02  0.26046594696E+02  0.91084386996E+02  0.47000000000E+01 0. -1.
          1    1    1    2  502    0  0.31918240418E+02 -0.33539293553E+02 -0.16769039003E+04  0.16775429500E+04  0.00000000000E+00 0. -1.
          1    1    1    2  503    0 -0.13306741403E+02 -0.69978989143E+02  0.12604018682E+04  0.12624131644E+04  0.00000000000E+00 0. -1.
<mgrwt>
<rscale>  0 0.57448652E+02</rscale>
<asrwt>0</asrwt>
<pdfrwt beam="1">  1        2 0.31793492E+00 0.71282333E+02</pdfrwt>
<pdfrwt beam="2">  1        2 0.32746600E+00 0.46299657E+02</pdfrwt>
<totfact> 0.96838235E+00</totfact>
</mgrwt>
</event>
<event>
13    1  0.1589573E-008  0.6160742E+02  0.7546771E-02  0.1422762E+00
         -1   -1    0    0    0  501 -0.00000000000E+00  0.00000000000E+00  0.35234342317E+03  0.35234342317E+03  0.00000000000E+00 0.  1.
          2   -1    0    0  503    0  0.00000000000E+00 -0.00000000000E+00 -0.24418416244E+04  0.24418416244E+04  0.00000000000E+00 0. -1.
         24    2    1    2    0    0 -0.32392011940E+02 -0.67561227553E+01  0.12135138386E+02  0.87004653718E+02  0.79546593595E+02 0.  0.
         25    2    1    2    0    0 -0.16941572791E+02  0.93942562338E+02 -0.94813738331E+03  0.96109398179E+03  0.12499968918E+03 0.  0.
         24    2    1    2    0    0  0.33440658186E+02  0.21046417087E+02 -0.94185238873E+02  0.12618157994E+03  0.74092527307E+02 0.  0.
        -11    1    5    5    0    0  0.41533576119E+02  0.25564565468E+02 -0.10263883484E+03  0.11363676945E+03  0.00000000000E+00 0.  1.
         12    1    5    5    0    0 -0.80929179331E+01 -0.45181483805E+01  0.84535959703E+01  0.12544810492E+02  0.00000000000E+00 0. -1.
        -13    1    3    3    0    0 -0.18721923642E+02  0.64522270701E+01 -0.32743747975E+02  0.38266103675E+02  0.00000000000E+00 0.  1.
         14    1    3    3    0    0 -0.13670088298E+02 -0.13208349825E+02  0.44878886361E+02  0.48738550042E+02  0.00000000000E+00 0. -1.
          5    1    4    4  502    0 -0.28178213022E+02  0.85264641983E+02 -0.93956054432E+03  0.94385389616E+03  0.47000000000E+01 0.  1.
         -5    1    4    4    0  502  0.11236640231E+02  0.86779203552E+01 -0.85768389935E+01  0.17240085629E+02  0.47000000000E+01 0.  1.
          1    1    1    2  503    0  0.10022520252E+02 -0.47052309479E+02 -0.13358003471E+04  0.13366663525E+04  0.00000000000E+00 0. -1.
         -2    1    1    2    0  501  0.58704062933E+01 -0.61180547191E+02  0.27648962964E+03  0.28323847959E+03  0.00000000000E+00 0.  1.
<mgrwt>
<rscale>  0 0.54440829E+02</rscale>
<asrwt>0</asrwt>
<pdfrwt beam="2">  1        2 0.35909436E+00 0.48107907E+02</pdfrwt>
<pdfrwt beam="1">  1       -1 0.51815209E-01 0.61607417E+02</pdfrwt>
<totfact> 0.27572314E+01</totfact>
</mgrwt>
</event>
<event>
13    1  0.1589573E-008  0.2647431E+03  0.7546771E-02  0.1163642E+00
          2   -1    0    0  502    0  0.00000000000E+00  0.00000000000E+00  0.92699985835E+03  0.92699985835E+03  0.00000000000E+00 0. -1.
          2   -1    0    0  503    0 -0.00000000000E+00 -0.00000000000E+00 -0.20216743830E+04  0.20216743830E+04  0.00000000000E+00 0. -1.
         24    2    1    2    0    0  0.33904200865E+01 -0.14674559737E+03 -0.52789231246E+03  0.55404611077E+03  0.82164676193E+02 0.  0.
         25    2    1    2    0    0  0.27839023344E+03  0.42175250965E+03 -0.22702789851E+03  0.56792896626E+03  0.12500137019E+03 0.  0.
         24    2    1    2    0    0  0.34800944171E+02  0.16649437033E+02 -0.26791943649E+03  0.28179405147E+03  0.78350198007E+02 0.  0.
        -11    1    5    5    0    0  0.47605936009E+02 -0.57014861976E+00 -0.24795497977E+03  0.25248430090E+03  0.00000000000E+00 0.  1.
         12    1    5    5    0    0 -0.12804991838E+02  0.17219585653E+02 -0.19964456721E+02  0.29309750565E+02  0.00000000000E+00 0. -1.
        -11    1    3    3    0    0  0.35376954414E+02 -0.12355067676E+03 -0.39229051012E+03  0.41280521189E+03  0.00000000000E+00 0.  1.
         12    1    3    3    0    0 -0.31986534327E+02 -0.23194920609E+02 -0.13560180234E+03  0.14124089889E+03  0.00000000000E+00 0. -1.
          5    1    4    4  501    0  0.96876175670E+02  0.62812091162E+02 -0.75758778606E+02  0.13817320559E+03  0.47000000000E+01 0. -1.
         -5    1    4    4    0  501  0.18151405777E+03  0.35894041848E+03 -0.15126911990E+03  0.42975576066E+03  0.47000000000E+01 0. -1.
          1    1    1    2  502    0 -0.31391171734E+03 -0.98239664403E+02  0.68706475599E+03  0.76174114820E+03  0.00000000000E+00 0. -1.
          1    1    1    2  503    0 -0.26698803531E+01 -0.19341668490E+03 -0.75889963317E+03  0.78316396463E+03  0.00000000000E+00 0. -1.
<mgrwt>
<rscale>  0 0.18436748E+03</rscale>
<asrwt>0</asrwt>
<pdfrwt beam="1">  1        2 0.13632351E+00 0.26474315E+03</pdfrwt>
<pdfrwt beam="2">  1        2 0.29730505E+00 0.12839376E+03</pdfrwt>
<totfact> 0.42226829E+01</totfact>
</mgrwt>
</event>
<event>
13    1  0.1589573E-008  0.1633761E+03  0.7546771E-02  0.1254547E+00
          2   -1    0    0  502    0  0.00000000000E+00  0.00000000000E+00  0.88671214298E+03  0.88671214298E+03  0.00000000000E+00 0. -1.
          2   -1    0    0  503    0 -0.00000000000E+00 -0.00000000000E+00 -0.38280481211E+04  0.38280481211E+04  0.00000000000E+00 0. -1.
         24    2    1    2    0    0  0.91463168022E+01  0.10285750903E+03 -0.31741742640E+03  0.34344506483E+03  0.80853990003E+02 0.  0.
         25    2    1    2    0    0  0.14836187479E+03 -0.15611993165E+03  0.24312305234E+03  0.34802058808E+03  0.12499932879E+03 0.  0.
         24    2    1    2    0    0  0.52203165460E+02 -0.45925963462E+02  0.22415042399E+02  0.10662281465E+03  0.77663542759E+02 0.  0.
        -13    1    3    3    0    0 -0.34136235790E+02  0.25888076642E+02 -0.10503393216E+03  0.11343545306E+03  0.00000000000E+00 0.  1.
         14    1    3    3    0    0  0.43282552593E+02  0.76969432384E+02 -0.21238349424E+03  0.23000961177E+03  0.00000000000E+00 0. -1.
        -13    1    5    5    0    0 -0.83028458969E+01 -0.42580075892E+02  0.56527287426E+01  0.43748753756E+02  0.00000000000E+00 0.  1.
         14    1    5    5    0    0  0.60506011357E+02 -0.33458875693E+01  0.16762313657E+02  0.62874060893E+02  0.00000000000E+00 0. -1.
          5    1    4    4  501    0  0.55279666193E+02 -0.98542780786E+02  0.45167673564E+02  0.12177327241E+03  0.47000000000E+01 0.  1.
         -5    1    4    4    0  501  0.93082208601E+02 -0.57577150869E+02  0.19795537878E+03  0.22624731567E+03  0.47000000000E+01 0.  1.
          1    1    1    2  502    0 -0.14665891234E+03  0.52264641727E+02  0.50134260805E+03  0.52496175098E+03  0.00000000000E+00 0. -1.
          1    1    1    2  503    0 -0.63052444720E+02  0.46923744363E+02 -0.33907992545E+04  0.33917100455E+04  0.00000000000E+00 0. -1.
<mgrwt>
<rscale>  0 0.11331740E+03</rscale>
<asrwt>0</asrwt>
<pdfrwt beam="1">  1        2 0.13039884E+00 0.16337615E+03</pdfrwt>
<pdfrwt beam="2">  1        2 0.56294826E+00 0.78596747E+02</pdfrwt>
<totfact> 0.52581292E+00</totfact>
</mgrwt>
</event>
<event>
13    1  0.1589573E-008  0.2069885E+03  0.7546771E-02  0.1256972E+00
          2   -1    0    0  503    0  0.00000000000E+00  0.00000000000E+00  0.26567670007E+04  0.26567670007E+04  0.00000000000E+00 0. -1.
          2   -1    0    0  502    0 -0.00000000000E+00 -0.00000000000E+00 -0.31777124556E+04  0.31777124556E+04  0.00000000000E+00 0. -1.
         24    2    1    2    0    0 -0.12502531305E+03 -0.10679208442E+02 -0.36399542712E+03  0.39360127911E+03  0.81755253973E+02 0.  0.
         25    2    1    2    0    0  0.79366478816E+02 -0.14938940481E+03  0.14131787637E+04  0.14287462118E+04  0.12500114921E+03 0.  0.
         24    2    1    2    0    0 -0.52702608439E+01 -0.16963750180E+03  0.11656919633E+02  0.18130793170E+03  0.62705858244E+02 0.  0.
        -11    1    3    3    0    0 -0.13252378422E+03 -0.57722158580E+01 -0.28801074826E+03  0.31708999192E+03  0.00000000000E+00 0.  1.
         12    1    3    3    0    0  0.74984711660E+01 -0.49069925837E+01 -0.75984678860E+02  0.76511287190E+02  0.00000000000E+00 0. -1.
        -13    1    5    5    0    0  0.15061660720E+01 -0.11671622228E+02 -0.16944825927E+02  0.20630618686E+02  0.00000000000E+00 0.  1.
         14    1    5    5    0    0 -0.67764269159E+01 -0.15796587957E+03  0.28601745559E+02  0.16067731302E+03  0.00000000000E+00 0. -1.
          5    1    4    4  501    0  0.96655666298E+01 -0.50383246891E+02  0.12964545999E+03  0.13950602153E+03  0.47000000000E+01 0.  1.
         -5    1    4    4    0  501  0.69700912187E+02 -0.99006157916E+02  0.12835333037E+04  0.12892401902E+04  0.47000000000E+01 0.  1.
          1    1    1    2  502    0  0.16935014000E+02  0.27958012801E+03 -0.26982347391E+04  0.27127334094E+04  0.00000000000E+00 0. -1.
          1    1    1    2  503    0  0.33994081078E+02  0.50125987034E+02  0.11164490281E+04  0.11180906244E+04  0.00000000000E+00 0. -1.
<mgrwt>
<rscale>  0 0.11196616E+03</rscale>
<asrwt>0</asrwt>
<pdfrwt beam="1">  1        2 0.39070103E+00 0.60565767E+02</pdfrwt>
<pdfrwt beam="2">  1        2 0.46731065E+00 0.20698855E+03</pdfrwt>
<totfact> 0.15093645E+00</totfact>
</mgrwt>
</event>
<event>
13    1  0.1589573E-008  0.2532943E+03  0.7546771E-02  0.1309855E+00
         -3   -1    0    0    0  501 -0.00000000000E+00  0.00000000000E+00  0.54705504902E+03  0.54705504902E+03  0.00000000000E+00 0.  1.
          2   -1    0    0  503    0  0.00000000000E+00 -0.00000000000E+00 -0.33316067124E+04  0.33316067124E+04  0.00000000000E+00 0. -1.
         24    2    1    2    0    0  0.49782288825E+02  0.81031570734E+02 -0.45103842101E+02  0.13269291557E+03  0.80800133262E+02 0.  0.
         25    2    1    2    0    0  0.15637792599E+02  0.11843348949E+03  0.19736142156E+03  0.26238688312E+03  0.12499725486E+03 0.  0.
         24    2    1    2    0    0  0.37177723466E+02  0.37264497036E+02  0.35195856957E+02  0.11739750684E+03  0.98856463644E+02 0.  0.
        -11    1    5    5    0    0 -0.98630396633E+01 -0.16455327715E+02 -0.19572823541E+02  0.27407166635E+02  0.00000000000E+00 0.  1.
         12    1    5    5    0    0  0.47040763129E+02  0.53719824751E+02  0.54768680498E+02  0.89990340207E+02  0.00000000000E+00 0. -1.
        -13    1    3    3    0    0  0.18459117030E+02 -0.13418887663E+01 -0.40402303093E+02  0.44439686793E+02  0.00000000000E+00 0.  1.
         14    1    3    3    0    0  0.31323171795E+02  0.82373459500E+02 -0.47015390070E+01  0.88253228782E+02  0.00000000000E+00 0. -1.
          5    1    4    4  502    0  0.35282117772E+02 -0.14306026346E+02  0.50173893709E+02  0.63158529386E+02  0.47000000000E+01 0.  1.
         -5    1    4    4    0  502 -0.19644325174E+02  0.13273951584E+03  0.14718752785E+03  0.19922835373E+03  0.47000000000E+01 0.  1.
          1    1    1    2  503    0 -0.12868156752E+03 -0.22191185879E+03 -0.31627293881E+04  0.31731153464E+04  0.00000000000E+00 0. -1.
         -4    1    1    2    0  501  0.26083762628E+02 -0.14817698469E+02  0.19072428836E+03  0.19306910947E+03  0.00000000000E+00 0.  1.
<mgrwt>
<rscale>  0 0.87169487E+02</rscale>
<asrwt>0</asrwt>
<pdfrwt beam="2">  1        2 0.48994219E+00 0.25329428E+03</pdfrwt>
<pdfrwt beam="1">  1       -3 0.80449268E-01 0.29998781E+02</pdfrwt>
<totfact> 0.13892515E+00</totfact>
</mgrwt>
</event>
<event>
13    1  0.1589573E-008  0.1588497E+03  0.7546771E-02  0.1340846E+00
          2   -1    0    0  502    0  0.00000000000E+00  0.00000000000E+00  0.15506365248E+04  0.15506365248E+04  0.00000000000E+00 0. -1.
          2   -1    0    0  503    0 -0.00000000000E+00 -0.00000000000E+00 -0.11292535723E+04  0.11292535723E+04  0.00000000000E+00 0. -1.
         24    2    1    2    0    0  0.34416460078E+01  0.61424510534E+02 -0.27614684904E+03  0.29453869634E+03  0.81921584335E+02 0.  0.
         25    2    1    2    0    0  0.12759586168E+03  0.77027483932E+02  0.12200460027E+04  0.12354557631E+04  0.12499902659E+03 0.  0.
         24    2    1    2    0    0  0.77901964173E+02 -0.23784288301E+02  0.14273306471E+03  0.18435587051E+03  0.83546100079E+02 0.  0.
        -11    1    5    5    0    0  0.32650696961E+01  0.26436699796E+02  0.35582461296E+02  0.44448524476E+02  0.00000000000E+00 0.  1.
         12    1    5    5    0    0  0.74636894477E+02 -0.50220988097E+02  0.10715060341E+03  0.13990734603E+03  0.00000000000E+00 0. -1.
        -11    1    3    3    0    0  0.95181703039E+01 -0.18897562132E+02 -0.44220049120E+02  0.49021690757E+02  0.00000000000E+00 0.  1.
         12    1    3    3    0    0 -0.60765242962E+01  0.80322072666E+02 -0.23192679993E+03  0.24551700558E+03  0.00000000000E+00 0. -1.
          5    1    4    4  501    0  0.12034553574E+03  0.10765000199E+03  0.10647485670E+04  0.10769322968E+04  0.47000000000E+01 0. -1.
         -5    1    4    4    0  501  0.72503259366E+01 -0.30622518058E+02  0.15529743568E+03  0.15852346630E+03  0.47000000000E+01 0. -1.
          1    1    1    2  502    0  0.31950262189E+02  0.17330038968E+02  0.12433587024E+03  0.12953979362E+03  0.00000000000E+00 0. -1.
          1    1    1    2  503    0 -0.24088973405E+03 -0.13199774513E+03 -0.78958513610E+03  0.83599997359E+03  0.00000000000E+00 0. -1.
<mgrwt>
<rscale>  0 0.75985570E+02</rscale>
<asrwt>0</asrwt>
<pdfrwt beam="1">  1        2 0.22803478E+00 0.36347620E+02</pdfrwt>
<pdfrwt beam="2">  1        2 0.16606670E+00 0.15884965E+03</pdfrwt>
<totfact> 0.62169724E+01</totfact>
</mgrwt>
</event>
<event>
13    1  0.1589573E-008  0.1300176E+03  0.7546771E-02  0.1343937E+00
          2   -1    0    0  502    0  0.00000000000E+00  0.00000000000E+00  0.20249693052E+04  0.20249693052E+04  0.00000000000E+00 0. -1.
          2   -1    0    0  503    0 -0.00000000000E+00 -0.00000000000E+00 -0.14712800027E+04  0.14712800027E+04  0.00000000000E+00 0. -1.
         24    2    1    2    0    0 -0.28736419705E+03 -0.59405900583E+01 -0.93172263399E+03  0.97824818658E+03  0.79050461772E+02 0.  0.
         25    2    1    2    0    0  0.10915516334E+03  0.38082180506E+02  0.11031322511E+04  0.11161938688E+04  0.12499154831E+03 0.  0.
         24    2    1    2    0    0  0.11935853575E+03  0.32282842564E+02  0.35414898423E+03  0.38552227302E+03  0.88979087364E+02 0.  0.
        -11    1    3    3    0    0 -0.17116524383E+03  0.67759205167E+01 -0.67100591163E+03  0.69252609138E+03  0.00000000000E+00 0.  1.
         12    1    3    3    0    0 -0.11619895322E+03 -0.12716510575E+02 -0.26071672236E+03  0.28572209520E+03  0.00000000000E+00 0. -1.
        -11    1    5    5    0    0  0.10620007827E+03  0.12581898068E+02  0.34310136833E+03  0.35938184391E+03  0.00000000000E+00 0.  1.
         12    1    5    5    0    0  0.13158457474E+02  0.19700944497E+02  0.11047615900E+02  0.26140429113E+02  0.00000000000E+00 0. -1.
          5    1    4    4  501    0  0.26285769323E+02  0.67852871931E+02  0.32491509569E+03  0.33299679174E+03  0.47000000000E+01 0.  1.
         -5    1    4    4    0  501  0.82869394021E+02 -0.29770691425E+02  0.77821715540E+03  0.78319707705E+03  0.47000000000E+01 0.  1.
          1    1    1    2  502    0 -0.32976316250E+02  0.27967325730E+02  0.51269604984E+03  0.51451613023E+03  0.00000000000E+00 0. -1.
          1    1    1    2  503    0  0.91826814214E+02 -0.92391758742E+02 -0.48456534871E+03  0.50176884924E+03  0.00000000000E+00 0. -1.
<mgrwt>
<rscale>  0 0.74978851E+02</rscale>
<asrwt>0</asrwt>
<pdfrwt beam="1">  1        2 0.29778961E+00 0.43238972E+02</pdfrwt>
<pdfrwt beam="2">  1        2 0.21636470E+00 0.13001762E+03</pdfrwt>
<totfact> 0.24712050E+01</totfact>
</mgrwt>
</event>
<event>
13    1  0.1589573E-008  0.1101115E+03  0.7546771E-02  0.1338276E+00
         -1   -1    0    0    0  501 -0.00000000000E+00  0.00000000000E+00  0.15009678969E+04  0.15009678969E+04  0.00000000000E+00 0.  1.
          2   -1    0    0  503    0  0.00000000000E+00 -0.00000000000E+00 -0.20557897400E+04  0.20557897400E+04  0.00000000000E+00 0. -1.
         24    2    1    2    0    0 -0.10777274803E+03 -0.13920417366E+03  0.16694993111E+03  0.25570305201E+03  0.80740350060E+02 0.  0.
         25    2    1    2    0    0  0.23297357355E+02 -0.18891613296E+02 -0.14742241171E+04  0.14798181646E+04  0.12500157230E+03 0.  0.
         24    2    1    2    0    0  0.26096633102E+02  0.37680811318E+02  0.95385157065E+02  0.13098216658E+03  0.77182394196E+02 0.  0.
        -11    1    5    5    0    0  0.25145171698E+02 -0.10176514574E+02  0.34666149645E+01  0.27347002174E+02  0.00000000000E+00 0.  1.
         12    1    5    5    0    0  0.95146140390E+00  0.47857325892E+02  0.91918542100E+02  0.10363516441E+03  0.00000000000E+00 0. -1.
        -13    1    3    3    0    0 -0.76687494519E+02 -0.73482115397E+02  0.14504160037E+03  0.17977112932E+03  0.00000000000E+00 0.  1.
         14    1    3    3    0    0 -0.31085253506E+02 -0.65722058259E+02  0.21908330742E+02  0.75931922689E+02  0.00000000000E+00 0. -1.
          5    1    4    4  502    0  0.14749149255E+02 -0.43624277629E+02 -0.19883875485E+03  0.20415571369E+03  0.47000000000E+01 0. -1.
         -5    1    4    4    0  502  0.85482080996E+01  0.24732664333E+02 -0.12753853622E+04  0.12756624509E+04  0.47000000000E+01 0. -1.
          1    1    1    2  503    0  0.49023121206E+02  0.21715041504E+02 -0.51310043043E+03  0.51589423446E+03  0.00000000000E+00 0. -1.
         -2    1    1    2    0  501  0.93556363619E+01  0.98699934131E+02  0.11701676162E+04  0.11743600193E+04  0.00000000000E+00 0.  1.
<mgrwt>
<rscale>  0 0.76836700E+02</rscale>
<asrwt>0</asrwt>
<pdfrwt beam="2">  1        2 0.30232202E+00 0.53617249E+02</pdfrwt>
<pdfrwt beam="1">  1       -1 0.22073057E+00 0.11011155E+03</pdfrwt>
<totfact> 0.14132135E+00</totfact>
</mgrwt>
</event>
<event>
13    1  0.1589573E-008  0.7088079E+02  0.7546771E-02  0.1414326E+00
          2   -1    0    0  502    0  0.00000000000E+00  0.00000000000E+00  0.13014069497E+04  0.13014069497E+04  0.00000000000E+00 0. -1.
          2   -1    0    0  503    0 -0.00000000000E+00 -0.00000000000E+00 -0.25412549030E+04  0.25412549030E+04  0.00000000000E+00 0. -1.
         24    2    1    2    0    0 -0.13300130759E+03 -0.25570203340E+03 -0.67684258952E+03  0.74187456811E+03  0.95859825326E+02 0.  0.
         25    2    1    2    0    0  0.53100662870E+03  0.34398304519E+03 -0.22571418701E+02  0.64531377120E+03  0.12501207644E+03 0.  0.
         24    2    1    2    0    0 -0.40565307006E+03 -0.39728180207E+02 -0.95283032559E+02  0.42631001070E+03  0.80799921906E+02 0.  0.
        -11    1    5    5    0    0 -0.69733572794E+02 -0.34028020069E+02 -0.34371780478E+02  0.84865167281E+02  0.00000000000E+00 0.  1.
         12    1    5    5    0    0 -0.33591949726E+03 -0.57001601383E+01 -0.60911252081E+02  0.34144484342E+03  0.00000000000E+00 0. -1.
        -13    1    3    3    0    0 -0.23289845007E+02 -0.11236666807E+03 -0.35222623945E+03  0.37044838875E+03  0.00000000000E+00 0.  1.
         14    1    3    3    0    0 -0.10971146258E+03 -0.14333536533E+03 -0.32461635007E+03  0.37142617935E+03  0.00000000000E+00 0. -1.
          5    1    4    4  501    0  0.95534681178E+02  0.45786618729E+02 -0.49061611526E+02  0.11684357701E+03  0.47000000000E+01 0. -1.
         -5    1    4    4    0  501  0.43547194752E+03  0.29819642647E+03  0.26490192825E+02  0.52847019420E+03  0.47000000000E+01 0. -1.
          1    1    1    2  502    0 -0.34999815778E+02 -0.61682238828E+02  0.79001495577E+03  0.79319185323E+03  0.00000000000E+00 0. -1.
          1    1    1    2  503    0  0.42647564722E+02  0.13129407243E+02 -0.12351658683E+04  0.12359716494E+04  0.00000000000E+00 0. -1.
<mgrwt>
<rscale>  0 0.56239672E+02</rscale>
<asrwt>0</asrwt>
<pdfrwt beam="1">  1        2 0.19138338E+00 0.70880790E+02</pdfrwt>
<pdfrwt beam="2">  1        2 0.37371395E+00 0.44622821E+02</pdfrwt>
<totfact> 0.17918025E+01</totfact>
</mgrwt>
</event>
<event>
13    1  0.1589573E-008  0.4753506E+02  0.7546771E-02  0.1485893E+00
          2   -1    0    0  503    0  0.00000000000E+00  0.00000000000E+00  0.22274054398E+03  0.22274054398E+03  0.00000000000E+00 0. -1.
          2   -1    0    0  502    0 -0.00000000000E+00 -0.00000000000E+00 -0.34658133582E+04  0.34658133582E+04  0.00000000000E+00 0. -1.
         24    2    1    2    0    0 -0.92779706650E+02 -0.26209897415E+02 -0.64279219896E+03  0.65312502713E+03  0.63995760309E+02 0.  0.
         25    2    1    2    0    0  0.90976863545E+02  0.41237045668E+01 -0.13492406253E+04  0.13580754537E+04  0.12499951310E+03 0.  0.
         24    2    1    2    0    0 -0.56043949381E+02  0.33143691301E+02 -0.15026555313E+03  0.18105479923E+03  0.77211885955E+02 0.  0.
        -11    1    3    3    0    0 -0.69019223315E+02 -0.47361436409E+02 -0.48242586545E+03  0.48963402098E+03  0.00000000000E+00 0.  1.
         12    1    3    3    0    0 -0.23760483335E+02  0.21151538994E+02 -0.16036633350E+03  0.16349100615E+03  0.00000000000E+00 0. -1.
        -13    1    5    5    0    0  0.16755872156E+02 -0.66229157608E+01 -0.28539608131E+02  0.33751022164E+02  0.00000000000E+00 0.  1.
         14    1    5    5    0    0 -0.72799821537E+02  0.39766607062E+02 -0.12172594500E+03  0.14730377707E+03  0.00000000000E+00 0. -1.
          5    1    4    4  501    0  0.72851426059E+02 -0.50298754622E+02 -0.10197213567E+04  0.10235677946E+04  0.47000000000E+01 0. -1.
         -5    1    4    4    0  501  0.18125437486E+02  0.54422459189E+02 -0.32951926865E+03  0.33450765904E+03  0.47000000000E+01 0. -1.
          1    1    1    2  502    0  0.28858987312E+02  0.26621744592E+02 -0.12953777917E+04  0.12959726778E+04  0.00000000000E+00 0. -1.
          1    1    1    2  503    0  0.28987805174E+02 -0.37679243045E+02  0.19460335491E+03  0.20032594427E+03  0.00000000000E+00 0. -1.
<mgrwt>
<rscale>  0 0.43201320E+02</rscale>
<asrwt>0</asrwt>
<pdfrwt beam="1">  1        2 0.32755966E-01 0.47535058E+02</pdfrwt>
<pdfrwt beam="2">  1        2 0.50967838E+00 0.39262685E+02</pdfrwt>
<totfact> 0.45311765E+01</totfact>
</mgrwt>
</event>
<event>
13    1  0.1589573E-008  0.6685378E+02  0.7546771E-02  0.1398924E+00
          2   -1    0    0  503    0  0.00000000000E+00  0.00000000000E+00  0.69870240821E+03  0.69870240821E+03  0.00000000000E+00 0. -1.
          2   -1    0    0  502    0 -0.00000000000E+00 -0.00000000000E+00 -0.21627489187E+04  0.21627489187E+04  0.00000000000E+00 0. -1.
         24    2    1    2    0    0 -0.28717945786E+02  0.52837864349E+02  0.10105454048E+03  0.14282979064E+03  0.81066445732E+02 0.  0.
         25    2    1    2    0    0 -0.11693405185E+02 -0.30368881174E+02  0.32942767251E+02  0.13330595790E+03  0.12500499122E+03 0.  0.
         24    2    1    2    0    0  0.13687917116E+02  0.46913243133E+01  0.22655474203E+03  0.24016106417E+03  0.78364009654E+02 0.  0.
        -13    1    5    5    0    0  0.21706245928E+02 -0.33834846354E+02  0.10741721567E+03  0.11469270318E+03  0.00000000000E+00 0.  1.
         14    1    5    5    0    0 -0.80183288127E+01  0.38526170667E+02  0.11913752635E+03  0.12546836099E+03  0.00000000000E+00 0. -1.
        -13    1    3    3    0    0 -0.69080511954E+01 -0.15410853360E+00 -0.13262211268E+02  0.14954302674E+02  0.00000000000E+00 0.  1.
         14    1    3    3    0    0 -0.21809894591E+02  0.52991972883E+02  0.11431675175E+03  0.12787548797E+03  0.00000000000E+00 0. -1.
          5    1    4    4  501    0 -0.20628934947E+02  0.46552303376E+02  0.18586550121E+02  0.54407901559E+02  0.47000000000E+01 0.  1.
         -5    1    4    4    0  501  0.89355297621E+01 -0.76921184550E+02  0.14356217131E+02  0.78898056345E+02  0.47000000000E+01 0.  1.
          1    1    1    2  502    0 -0.96843026540E+01 -0.66202958157E+02 -0.20815960534E+04  0.20826710607E+04  0.00000000000E+00 0. -1.
          1    1    1    2  503    0  0.36407736509E+02  0.39042650668E+02  0.25699749319E+03  0.26248345349E+03  0.00000000000E+00 0. -1.
<mgrwt>
<rscale>  0 0.59740460E+02</rscale>
<asrwt>0</asrwt>
<pdfrwt beam="1">  1        2 0.10275036E+00 0.53384004E+02</pdfrwt>
<pdfrwt beam="2">  1        2 0.31805131E+00 0.66853782E+02</pdfrwt>
<totfact> 0.57944940E+01</totfact>
</mgrwt>
</event>
<event>
13    1  0.1589573E-008  0.3011990E+03  0.7546771E-02  0.1146704E+00
          2   -1    0    0  503    0  0.00000000000E+00  0.00000000000E+00  0.27002961864E+04  0.27002961864E+04  0.00000000000E+00 0. -1.
          2   -1    0    0  502    0 -0.00000000000E+00 -0.00000000000E+00 -0.22925198986E+04  0.22925198986E+04  0.00000000000E+00 0. -1.
         24    2    1    2    0    0 -0.11056261536E+04 -0.10415407937E+04 -0.79430087087E+03  0.17167900200E+04  0.96112864509E+02 0.  0.
         25    2    1    2    0    0  0.11697207774E+04  0.53536204469E+03  0.15264993888E+03  0.13014554250E+04  0.12500001349E+03 0.  0.
         24    2    1    2    0    0 -0.23495029893E+03  0.39523340779E+03  0.31356006384E+03  0.56228788170E+03  0.80228789560E+02 0.  0.
        -11    1    5    5    0    0 -0.12823518111E+03  0.23785125689E+03  0.13769097911E+03  0.30327592685E+03  0.00000000000E+00 0.  1.
         12    1    5    5    0    0 -0.10671511782E+03  0.15738215090E+03  0.17586908473E+03  0.25901195485E+03  0.00000000000E+00 0. -1.
        -13    1    3    3    0    0 -0.15822388796E+03 -0.18603453375E+03 -0.10228778027E+03  0.26477620071E+03  0.00000000000E+00 0.  1.
         14    1    3    3    0    0 -0.94740226568E+03 -0.85550625995E+03 -0.69201309060E+03  0.14520138193E+04  0.00000000000E+00 0. -1.
          5    1    4    4  501    0  0.30340668187E+03  0.17220733074E+03  0.88231112958E+02  0.35988581336E+03  0.47000000000E+01 0. -1.
         -5    1    4    4    0  501  0.86631409554E+03  0.36315471395E+03  0.64418825919E+02  0.94156961162E+03  0.47000000000E+01 0. -1.
          1    1    1    2  502    0  0.17867644551E+03  0.24840344978E+03 -0.26329740104E+03  0.40367693449E+03  0.00000000000E+00 0. -1.
          1    1    1    2  503    0 -0.78207703531E+01 -0.13745810856E+03  0.99916455697E+03  0.10086058239E+04  0.00000000000E+00 0. -1.
<mgrwt>
<rscale>  0 0.20363988E+03</rscale>
<asrwt>0</asrwt>
<pdfrwt beam="1">  1        2 0.39710238E+00 0.13768041E+03</pdfrwt>
<pdfrwt beam="2">  1        2 0.33713528E+00 0.30119898E+03</pdfrwt>
<totfact> 0.36126415E+00</totfact>
</mgrwt>
</event>
<event>
13    1  0.1589573E-008  0.6097627E+02  0.7546771E-02  0.1496641E+00
          2   -1    0    0  503    0  0.00000000000E+00  0.00000000000E+00  0.67602458838E+03  0.67602458838E+03  0.00000000000E+00 0. -1.
          2   -1    0    0  502    0 -0.00000000000E+00 -0.00000000000E+00 -0.28620822615E+04  0.28620822615E+04  0.00000000000E+00 0. -1.
         24    2    1    2    0    0 -0.53807986691E+02  0.21160836750E+03 -0.10331648783E+04  0.10590073821E+04  0.79959795074E+02 0.  0.
         25    2    1    2    0    0  0.15741828218E+03 -0.25639329000E+03  0.55783269157E+02  0.33053146432E+03  0.12498496338E+03 0.  0.
         24    2    1    2    0    0 -0.13291333488E+03  0.36490398719E+01  0.32750491259E+03  0.36241973494E+03  0.80058268944E+02 0.  0.
        -13    1    3    3    0    0 -0.57245227643E+02  0.14029559053E+03 -0.82861993450E+03  0.84236029385E+03  0.00000000000E+00 0.  1.
         14    1    3    3    0    0  0.34372409515E+01  0.71312776969E+02 -0.20454494382E+03  0.21664708820E+03  0.00000000000E+00 0. -1.
        -13    1    5    5    0    0 -0.18427676561E+02  0.24367788070E+02  0.12682441075E+03  0.13045228829E+03  0.00000000000E+00 0.  1.
         14    1    5    5    0    0 -0.11448565832E+03 -0.20718748198E+02  0.20068050184E+03  0.23196744665E+03  0.00000000000E+00 0. -1.
          5    1    4    4  501    0  0.38357240813E+02 -0.69267168004E+01 -0.19734639984E+02  0.43940907406E+02  0.47000000000E+01 0. -1.
         -5    1    4    4    0  501  0.11906104137E+03 -0.24946657320E+03  0.75517909141E+02  0.28659055692E+03  0.47000000000E+01 0. -1.
          1    1    1    2  502    0  0.54333968667E+02  0.27711584728E+02 -0.16589832127E+04  0.16601040366E+04  0.00000000000E+00 0. -1.
          1    1    1    2  503    0 -0.25030929279E+02  0.13424297900E+02  0.12280223621E+03  0.12604423197E+03  0.00000000000E+00 0. -1.
<mgrwt>
<rscale>  0 0.41616581E+02</rscale>
<asrwt>0</asrwt>
<pdfrwt beam="1">  1        2 0.99415383E-01 0.28403507E+02</pdfrwt>
<pdfrwt beam="2">  1        2 0.42089444E+00 0.60976268E+02</pdfrwt>
<totfact> 0.28122072E+01</totfact>
</mgrwt>
</event>
<event>
13    1  0.1589573E-008  0.1345695E+03  0.7546771E-02  0.1229817E+00
          2   -1    0    0  503    0  0.00000000000E+00  0.00000000000E+00  0.17923399692E+04  0.17923399692E+04  0.00000000000E+00 0. -1.
          2   -1    0    0  502    0 -0.00000000000E+00 -0.00000000000E+00 -0.28940147558E+04  0.28940147558E+04  0.00000000000E+00 0. -1.
         24    2    1    2    0    0 -0.18098376564E+02  0.11873582811E+03 -0.15641455015E+03  0.21281557867E+03  0.79995068064E+02 0.  0.
         25    2    1    2    0    0  0.20226491129E+03 -0.12023460193E+03  0.42739134807E+03  0.50364264185E+03  0.12500036978E+03 0.  0.
         24    2    1    2    0    0 -0.23591315051E+02 -0.15029645429E+03 -0.12404581138E+02  0.18311145034E+03  0.10114521884E+03 0.  0.
        -13    1    3    3    0    0  0.14906369973E+02 -0.11668756837E+01 -0.28692882239E+01  0.15224791609E+02  0.00000000000E+00 0.  1.
         14    1    3    3    0    0 -0.33004746537E+02  0.11990270379E+03 -0.15354526193E+03  0.19759078706E+03  0.00000000000E+00 0. -1.
        -13    1    5    5    0    0  0.26121897635E+02 -0.48911399151E+02  0.29329113650E+02  0.62728585274E+02  0.00000000000E+00 0.  1.
         14    1    5    5    0    0 -0.49713212686E+02 -0.10138505514E+03 -0.41733694789E+02  0.12038286507E+03  0.00000000000E+00 0. -1.
          5    1    4    4  501    0  0.64980963134E+02 -0.10911580338E+03  0.23219505716E+03  0.26469873193E+03  0.47000000000E+01 0. -1.
         -5    1    4    4    0  501  0.13728394815E+03 -0.11118798550E+02  0.19519629091E+03  0.23894390992E+03  0.47000000000E+01 0. -1.
          1    1    1    2  502    0 -0.13026517454E+03  0.33048072386E+02 -0.25686600421E+04  0.25721733228E+04  0.00000000000E+00 0. -1.
          1    1    1    2  503    0 -0.30310045138E+02  0.11874715573E+03  0.12084130387E+04  0.12146117314E+04  0.00000000000E+00 0. -1.
<mgrwt>
<rscale>  0 0.12842152E+03</rscale>
<asrwt>0</asrwt>
<pdfrwt beam="1">  1        2 0.26357941E+00 0.12255442E+03</pdfrwt>
<pdfrwt beam="2">  1        2 0.42559041E+00 0.13456949E+03</pdfrwt>
<totfact> 0.55573345E+00</totfact>
</mgrwt>
</event>
<event>
13    1  0.1589573E-008  0.2187369E+03  0.7546771E-02  0.1168029E+00
          2   -1    0    0  502    0  0.00000000000E+00  0.00000000000E+00  0.16917819223E+04  0.16917819223E+04  0.00000000000E+00 0. -1.
          2   -1    0    0  503    0 -0.00000000000E+00 -0.00000000000E+00 -0.18196505715E+04  0.18196505715E+04  0.00000000000E+00 0. -1.
         24    2    1    2    0    0 -0.70696505406E+02  0.13575267418E+03 -0.25129276614E+03  0.30578685583E+03  0.83251200984E+02 0.  0.
         25    2    1    2    0    0  0.14897942873E+03  0.27308431591E+03 -0.13584156830E+03  0.36172905380E+03  0.12500025160E+03 0.  0.
         24    2    1    2    0    0  0.68477906602E+01 -0.20622385755E+03  0.42116507642E+02  0.22483408970E+03  0.78748942946E+02 0.  0.
        -13    1    3    3    0    0 -0.73555595900E+02  0.57455767620E+02 -0.16225731190E+03  0.18718714215E+03  0.00000000000E+00 0.  1.
         14    1    3    3    0    0  0.28590904945E+01  0.78296906558E+02 -0.89035454239E+02  0.11859971369E+03  0.00000000000E+00 0. -1.
        -13    1    5    5    0    0  0.13564742953E+02 -0.35427693887E+02  0.38235782469E+02  0.53861849268E+02  0.00000000000E+00 0.  1.
         14    1    5    5    0    0 -0.67169522929E+01 -0.17079616366E+03  0.38807251727E+01  0.17097224043E+03  0.00000000000E+00 0. -1.
          5    1    4    4  501    0  0.15036776818E+03  0.27659524011E+03 -0.10742868504E+03  0.33268364091E+03  0.47000000000E+01 0.  1.
         -5    1    4    4    0  501 -0.13883394495E+01 -0.35109241932E+01 -0.28412883255E+02  0.29045412891E+02  0.47000000000E+01 0.  1.
          1    1    1    2  502    0 -0.19240367197E+03 -0.10102941844E+03  0.14051879858E+04  0.14218928904E+04  0.00000000000E+00 0. -1.
          1    1    1    2  503    0  0.10727295799E+03 -0.10158371410E+03 -0.11880388082E+04  0.11971896041E+04  0.00000000000E+00 0. -1.
<mgrwt>
<rscale>  0 0.17976627E+03</rscale>
<asrwt>0</asrwt>
<pdfrwt beam="1">  1        2 0.24879146E+00 0.21873687E+03</pdfrwt>
<pdfrwt beam="2">  1        2 0.26759567E+00 0.14773875E+03</pdfrwt>
<totfact> 0.20305846E+01</totfact>
</mgrwt>
</event>
<event>
13    1  0.1589573E-008  0.1393783E+03  0.7546771E-02  0.1391611E+00
         -3   -1    0    0    0  501 -0.00000000000E+00  0.00000000000E+00  0.15184674491E+03  0.15184674491E+03  0.00000000000E+00 0.  1.
          2   -1    0    0  503    0  0.00000000000E+00 -0.00000000000E+00 -0.35244191145E+04  0.35244191145E+04  0.00000000000E+00 0. -1.
         24    2    1    2    0    0  0.13478483315E+02  0.77903524820E+02 -0.97858520163E+03  0.98500433098E+03  0.79711395161E+02 0.  0.
         25    2    1    2    0    0  0.11441773779E+03 -0.14699060217E+01 -0.11062865320E+02  0.16982642125E+03  0.12500018808E+03 0.  0.
         24    2    1    2    0    0 -0.19620057605E+02 -0.18762038915E+03 -0.37624640802E+03  0.42824555505E+03  0.79035047848E+02 0.  0.
        -11    1    5    5    0    0 -0.24146804765E+01 -0.18511494403E+03 -0.32374376996E+03  0.37293887137E+03  0.00000000000E+00 0.  1.
         12    1    5    5    0    0 -0.17205377128E+02 -0.25054451177E+01 -0.52502638057E+02  0.55306683685E+02  0.00000000000E+00 0. -1.
        -13    1    3    3    0    0 -0.99063566999E+01 -0.10019312285E+02 -0.49232468442E+02  0.51208968654E+02  0.00000000000E+00 0.  1.
         14    1    3    3    0    0  0.23384840015E+02  0.87922837105E+02 -0.92935273319E+03  0.93379536233E+03  0.00000000000E+00 0. -1.
          5    1    4    4  502    0  0.11047893036E+03 -0.76883277558E+01  0.40135661039E+02  0.11788836127E+03  0.47000000000E+01 0.  1.
         -5    1    4    4    0  502  0.39388074359E+01  0.62184217342E+01 -0.51198526359E+02  0.51938059978E+02  0.47000000000E+01 0.  1.
          1    1    1    2  503    0 -0.11555858533E+03  0.85038439967E+02 -0.20428965010E+04  0.20479285722E+04  0.00000000000E+00 0. -1.
         -4    1    1    2    0  501  0.72824218312E+01  0.26148330383E+02  0.36218606438E+02  0.45260979904E+02  0.00000000000E+00 0.  1.
<mgrwt>
<rscale>  0 0.61507819E+02</rscale>
<asrwt>0</asrwt>
<pdfrwt beam="2">  1        2 0.51829688E+00 0.13937826E+03</pdfrwt>
<pdfrwt beam="1">  1       -3 0.22330406E-01 0.27143486E+02</pdfrwt>
<totfact> 0.12903294E+01</totfact>
</mgrwt>
</event>
<event>
13    1  0.1589573E-008  0.1021298E+03  0.7546771E-02  0.1327420E+00
          2   -1    0    0  503    0  0.00000000000E+00  0.00000000000E+00  0.16242230969E+04  0.16242230969E+04  0.00000000000E+00 0. -1.
          2   -1    0    0  502    0 -0.00000000000E+00 -0.00000000000E+00 -0.70871300874E+03  0.70871300874E+03  0.00000000000E+00 0. -1.
         24    2    1    2    0    0  0.14864401460E+03  0.43076379814E+02 -0.47576877499E+02  0.18270388788E+03  0.84655382568E+02 0.  0.
         25    2    1    2    0    0 -0.24918611885E+03 -0.73933692913E+00 -0.33431972933E+02  0.28077070921E+03  0.12498090211E+03 0.  0.
         24    2    1    2    0    0 -0.14639797288E+02 -0.30265565204E+02  0.72542763762E+02  0.11513640925E+03  0.82846919426E+02 0.  0.
        -11    1    3    3    0    0 -0.73655087059E+01 -0.61964405995E+01 -0.11807791731E+02  0.15233861630E+02  0.00000000000E+00 0.  1.
         12    1    3    3    0    0  0.15600952331E+03  0.49272820414E+02 -0.35769085767E+02  0.16747002625E+03  0.00000000000E+00 0. -1.
        -13    1    5    5    0    0  0.25662560143E+02 -0.16095227238E+02 -0.75026733293E+00  0.30301587978E+02  0.00000000000E+00 0.  1.
         14    1    5    5    0    0 -0.40302357431E+02 -0.14170337967E+02  0.73293031095E+02  0.84834821269E+02  0.00000000000E+00 0. -1.
          5    1    4    4  501    0 -0.24161831547E+03 -0.16118355565E+02 -0.59328957891E+02  0.24936163899E+03  0.47000000000E+01 0. -1.
         -5    1    4    4    0  501 -0.75678033781E+01  0.15379018636E+02  0.25896984958E+02  0.31409070220E+02  0.47000000000E+01 0. -1.
          1    1    1    2  502    0  0.35997733945E+02  0.52399971408E+02 -0.41077923102E+03  0.41566954481E+03  0.00000000000E+00 0. -1.
          1    1    1    2  503    0  0.79184167589E+02 -0.64471449089E+02  0.13347554059E+04  0.13386555545E+04  0.00000000000E+00 0. -1.
<mgrwt>
<rscale>  0 0.80577633E+02</rscale>
<asrwt>0</asrwt>
<pdfrwt beam="1">  1        2 0.23885634E+00 0.10212985E+03</pdfrwt>
<pdfrwt beam="2">  1        2 0.10422250E+00 0.63573531E+02</pdfrwt>
<totfact> 0.98425911E+01</totfact>
</mgrwt>
</event>
<event>
13    1  0.1589573E-008  0.4137160E+02  0.7546771E-02  0.1532741E+00
          2   -1    0    0  503    0  0.00000000000E+00  0.00000000000E+00  0.38278016088E+04  0.38278016088E+04  0.00000000000E+00 0. -1.
          2   -1    0    0  502    0 -0.00000000000E+00 -0.00000000000E+00 -0.13372176919E+04  0.13372176919E+04  0.00000000000E+00 0. -1.
         24    2    1    2    0    0  0.38086049565E+03  0.33435041960E+03 -0.25251986915E+03  0.57202937590E+03  0.81279778172E+02 0.  0.
         25    2    1    2    0    0 -0.91785499166E+02  0.12689077758E+03  0.14141476464E+04  0.14282729298E+04  0.12499659589E+03 0.  0.
         24    2    1    2    0    0 -0.29353928353E+03 -0.44865757386E+03  0.43320809101E+03  0.69456916101E+03  0.85429150483E+02 0.  0.
        -11    1    3    3    0    0  0.32678888841E+03  0.31907176538E+03 -0.23142763408E+03  0.51201222531E+03  0.00000000000E+00 0.  1.
         12    1    3    3    0    0  0.54071607239E+02  0.15278654220E+02 -0.21092235067E+02  0.60017150585E+02  0.00000000000E+00 0. -1.
        -11    1    5    5    0    0 -0.88329824246E+02 -0.15465650987E+03  0.95787884117E+02  0.20222787305E+03  0.00000000000E+00 0.  1.
         12    1    5    5    0    0 -0.20520945928E+03 -0.29400106399E+03  0.33742020689E+03  0.49234128795E+03  0.00000000000E+00 0. -1.
          5    1    4    4  501    0 -0.11024796900E+03  0.51965429749E+02  0.79118899093E+03  0.80053552696E+03  0.47000000000E+01 0.  1.
         -5    1    4    4    0  501  0.18462469838E+02  0.74925347826E+02  0.62295865544E+03  0.62773740284E+03  0.47000000000E+01 0.  1.
          1    1    1    2  502    0  0.20680601776E+02  0.25493252703E+02 -0.78660306967E+03  0.78728773803E+03  0.00000000000E+00 0. -1.
          1    1    1    2  503    0 -0.16216314731E+02 -0.38076876018E+02  0.16823511183E+04  0.16828600960E+04  0.00000000000E+00 0. -1.
<mgrwt>
<rscale>  0 0.36852325E+02</rscale>
<asrwt>0</asrwt>
<pdfrwt beam="1">  1        2 0.56291200E+00 0.41371603E+02</pdfrwt>
<pdfrwt beam="2">  1        2 0.19664966E+00 0.32826715E+02</pdfrwt>
<totfact> 0.37574521E+00</totfact>
</mgrwt>
</event>
<event>
13    1  0.1589573E-008  0.4652153E+02  0.7546771E-02  0.1535634E+00
          2   -1    0    0  503    0  0.00000000000E+00  0.00000000000E+00  0.28763197668E+03  0.28763197668E+03  0.00000000000E+00 0. -1.
          2   -1    0    0  502    0 -0.00000000000E+00 -0.00000000000E+00 -0.17141576089E+04  0.17141576089E+04  0.00000000000E+00 0. -1.
         24    2    1    2    0    0 -0.43554830770E+02 -0.49136791347E+01 -0.57476483843E+03  0.58195761706E+03  0.79993006152E+02 0.  0.
         25    2    1    2    0    0 -0.29287433889E+02  0.18067853754E+03 -0.53294644206E+03  0.57719984538E+03  0.12500105475E+03 0.  0.
         24    2    1    2    0    0  0.10013813726E+03 -0.13278019938E+03 -0.41208888494E+02  0.18988142865E+03  0.81844710126E+02 0.  0.
        -11    1    3    3    0    0  0.49537631819E+01  0.28791529084E+02 -0.12720597077E+03  0.13051762684E+03  0.00000000000E+00 0.  1.
         12    1    3    3    0    0 -0.48508593952E+02 -0.33705208219E+02 -0.44755886766E+03  0.45143999022E+03  0.00000000000E+00 0. -1.
        -11    1    5    5    0    0 -0.10529495039E+02 -0.15982511342E+02 -0.19841765179E+02  0.27568216844E+02  0.00000000000E+00 0.  1.
         12    1    5    5    0    0  0.11066763229E+03 -0.11679768803E+03 -0.21367123315E+02  0.16231321181E+03  0.00000000000E+00 0. -1.
          5    1    4    4  501    0  0.17898431439E+02  0.12520218720E+03 -0.44637583174E+03  0.46397135115E+03  0.47000000000E+01 0. -1.
         -5    1    4    4    0  501 -0.47185865328E+02  0.55476350338E+02 -0.86570610321E+02  0.11322849423E+03  0.47000000000E+01 0. -1.
          1    1    1    2  502    0 -0.28425294821E+02  0.35328678090E+01 -0.46184177166E+03  0.46272918710E+03  0.00000000000E+00 0. -1.
          1    1    1    2  503    0  0.11294222233E+01 -0.46517526839E+02  0.18423630847E+03  0.19002150735E+03  0.00000000000E+00 0. -1.
<mgrwt>
<rscale>  0 0.36504280E+02</rscale>
<asrwt>0</asrwt>
<pdfrwt beam="1">  1        2 0.42298821E-01 0.46521527E+02</pdfrwt>
<pdfrwt beam="2">  1        2 0.25208200E+00 0.28643997E+02</pdfrwt>
<totfact> 0.25957091E+02</totfact>
</mgrwt>
</event>
<event>
13    1  0.1589573E-008  0.1238338E+03  0.7546771E-02  0.1408176E+00
          2   -1    0    0  502    0  0.00000000000E+00  0.00000000000E+00  0.22056449345E+04  0.22056449345E+04  0.00000000000E+00 0. -1.
          2   -1    0    0  503    0 -0.00000000000E+00 -0.00000000000E+00 -0.14052496226E+04  0.14052496226E+04  0.00000000000E+00 0. -1.
         24    2    1    2    0    0 -0.46492911174E+02  0.32496914972E+03 -0.79206572967E+03  0.86095442710E+03  0.78152839784E+02 0.  0.
         25    2    1    2    0    0 -0.42611717559E+03 -0.71726223004E+02  0.25413903357E+03  0.51665462306E+03  0.12499941099E+03 0.  0.
         24    2    1    2    0    0  0.37621978076E+03 -0.32537617859E+03  0.86449632441E+02  0.51124561813E+03  0.80545403879E+02 0.  0.
        -13    1    5    5    0    0  0.12446223055E+03 -0.65646299071E+02  0.41734683087E+02  0.14677216081E+03  0.00000000000E+00 0.  1.
         14    1    5    5    0    0  0.25175755020E+03 -0.25972987952E+03  0.44714949354E+02  0.36447345732E+03  0.00000000000E+00 0. -1.
        -13    1    3    3    0    0 -0.27862185198E+02  0.18267548610E+03 -0.34431228862E+03  0.39076538573E+03  0.00000000000E+00 0.  1.
         14    1    3    3    0    0 -0.18630725976E+02  0.14229366362E+03 -0.44775344105E+03  0.47018904137E+03  0.00000000000E+00 0. -1.
          5    1    4    4  501    0 -0.25161009616E+03  0.25062913386E+01  0.19364586944E+03  0.31754485468E+03  0.47000000000E+01 0.  1.
         -5    1    4    4    0  501 -0.17450707943E+03 -0.74232514342E+02  0.60493164133E+02  0.19910976838E+03  0.47000000000E+01 0.  1.
          1    1    1    2  502    0  0.80758222128E+02  0.93895396088E+02  0.14836040146E+04  0.14887642889E+04  0.00000000000E+00 0. -1.
          1    1    1    2  503    0  0.15632083875E+02 -0.21762144216E+02 -0.23173163899E+03  0.23327559983E+03  0.00000000000E+00 0. -1.
<mgrwt>
<rscale>  0 0.57602794E+02</rscale>
<asrwt>0</asrwt>
<pdfrwt beam="1">  1        2 0.32435955E+00 0.12383377E+03</pdfrwt>
<pdfrwt beam="2">  1        2 0.20665436E+00 0.26794644E+02</pdfrwt>
<totfact> 0.21892137E+01</totfact>
</mgrwt>
</event>
<event>
13    1  0.1589573E-008  0.1342159E+03  0.7546771E-02  0.1287481E+00
          4   -1    0    0  503    0 -0.00000000000E+00  0.00000000000E+00  0.17027299411E+04  0.17027299411E+04  0.00000000000E+00 0. -1.
          2   -1    0    0  502    0  0.00000000000E+00 -0.00000000000E+00 -0.19948102428E+04  0.19948102428E+04  0.00000000000E+00 0. -1.
         24    2    1    2    0    0 -0.23544326184E+02 -0.70602237189E+02  0.34618743770E+03  0.36621696145E+03  0.93435055741E+02 0.  0.
         25    2    1    2    0    0  0.17630892182E+03  0.39310556425E+02 -0.23000008010E+03  0.31804835268E+03  0.12499824814E+03 0.  0.
         24    2    1    2    0    0 -0.98491915678E+02  0.23440505426E+02 -0.13189424431E+03  0.18453942225E+03  0.80053681583E+02 0.  0.
        -11    1    5    5    0    0 -0.93684446670E+02 -0.10922271815E+02 -0.94071317301E+02  0.13321217778E+03  0.00000000000E+00 0.  1.
         12    1    5    5    0    0 -0.48074690078E+01  0.34362777241E+02 -0.37822927008E+02  0.51327244475E+02  0.00000000000E+00 0. -1.
        -13    1    3    3    0    0  0.13534007624E+02 -0.62622936910E+02  0.29843765743E+03  0.30523734529E+03  0.00000000000E+00 0.  1.
         14    1    3    3    0    0 -0.37078333808E+02 -0.79793002795E+01  0.47749780273E+02  0.60979616160E+02  0.00000000000E+00 0. -1.
          5    1    4    4  501    0  0.84861658040E+02  0.81723492610E+02 -0.13777939519E+03  0.18134354686E+03  0.47000000000E+01 0. -1.
         -5    1    4    4    0  501  0.91447263780E+02 -0.42412936185E+02 -0.92220684914E+02  0.13670480582E+03  0.47000000000E+01 0. -1.
          1    1    1    2  502    0  0.67005812003E+02 -0.18872174037E+02 -0.15487494973E+04  0.15503131758E+04  0.00000000000E+00 0. -1.
          3    1    1    2  503    0 -0.12127849196E+03  0.26723349375E+02  0.12723760822E+04  0.12784222717E+04  0.00000000000E+00 0. -1.
<mgrwt>
<rscale>  0 0.96659912E+02</rscale>
<asrwt>0</asrwt>
<pdfrwt beam="2">  1        2 0.29335444E+00 0.69612770E+02</pdfrwt>
<pdfrwt beam="1">  1        4 0.25040146E+00 0.13421587E+03</pdfrwt>
<totfact> 0.36959559E-01</totfact>
</mgrwt>
</event>
<event>
13    1  0.3398727E-008  0.6545001E+02  0.7546771E-02  0.1388379E+00
          2   -1    0    0  503    0  0.00000000000E+00  0.00000000000E+00  0.41477030724E+04  0.41477030724E+04  0.00000000000E+00 0. -1.
          2   -1    0    0  502    0 -0.00000000000E+00 -0.00000000000E+00 -0.42287996622E+04  0.42287996622E+04  0.00000000000E+00 0. -1.
         24    2    1    2    0    0 -0.80810045045E+02 -0.71035593123E+03 -0.62695661559E+03  0.95515051209E+03  0.90011613188E+02 0.  0.
         25    2    1    2    0    0 -0.48553749782E+03 -0.10556225660E+03 -0.34459034205E+03  0.61746031330E+03  0.12499873143E+03 0.  0.
         24    2    1    2    0    0  0.53726356629E+03  0.80178435662E+03  0.73570295596E+02  0.97193586038E+03  0.87957001459E+02 0.  0.
        -11    1    5    5    0    0  0.23960449125E+03  0.36356488058E+03 -0.10548653985E+02  0.43554679280E+03  0.00000000000E+00 0.  1.
         12    1    5    5    0    0  0.29765907504E+03  0.43821947605E+03  0.84118949581E+02  0.53638906758E+03  0.00000000000E+00 0. -1.
        -13    1    3    3    0    0 -0.34418088499E+02 -0.43677855631E+03 -0.32832098471E+03  0.54749865851E+03  0.00000000000E+00 0.  1.
         14    1    3    3    0    0 -0.46391956546E+02 -0.27357737492E+03 -0.29863563088E+03  0.40765185358E+03  0.00000000000E+00 0. -1.
          5    1    4    4  501    0 -0.48780805688E+03 -0.97864476280E+02 -0.34840668786E+03  0.60740716675E+03  0.47000000000E+01 0.  1.
         -5    1    4    4    0  501  0.22705590582E+01 -0.76977803178E+01  0.38163458077E+01  0.10053146551E+02  0.47000000000E+01 0.  1.
          1    1    1    2  502    0 -0.21966396325E+02  0.55107330937E+02 -0.25068647987E+04  0.25075666410E+04  0.00000000000E+00 0. -1.
          1    1    1    2  503    0  0.51050372906E+02 -0.40973499737E+02  0.33237448708E+04  0.33243894078E+04  0.00000000000E+00 0. -1.
<mgrwt>
<rscale>  0 0.62311781E+02</rscale>
<asrwt>0</asrwt>
<pdfrwt beam="1">  1        2 0.60995634E+00 0.65450005E+02</pdfrwt>
<pdfrwt beam="2">  1        2 0.62188230E+00 0.59324030E+02</pdfrwt>
<totfact> 0.57749517E-02</totfact>
</mgrwt>
</event>
<event>
13    1  0.1589573E-008  0.5628218E+02  0.7546771E-02  0.1522267E+00
          2   -1    0    0  502    0  0.00000000000E+00  0.00000000000E+00  0.21416233828E+04  0.21416233828E+04  0.00000000000E+00 0. -1.
          2   -1    0    0  503    0 -0.00000000000E+00 -0.00000000000E+00 -0.62144297660E+03  0.62144297660E+03  0.00000000000E+00 0. -1.
         24    2    1    2    0    0 -0.29502170796E+03 -0.54297916349E+03 -0.16191016871E+03  0.64387967653E+03  0.80634700781E+02 0.  0.
         25    2    1    2    0    0  0.18602252606E+03  0.22215303927E+03  0.64696469567E+03  0.71982276198E+03  0.12500055264E+03 0.  0.
         24    2    1    2    0    0  0.38138288329E+02  0.28195950898E+03  0.36864754190E+03  0.46851008178E+03  0.51429493878E+02 0.  0.
        -13    1    5    5    0    0  0.84768210660E+01  0.17671838013E+03  0.19493740305E+03  0.26325241400E+03  0.00000000000E+00 0.  1.
         14    1    5    5    0    0  0.29661467263E+02  0.10524112885E+03  0.17371013885E+03  0.20525766778E+03  0.00000000000E+00 0. -1.
        -13    1    3    3    0    0 -0.64584384485E+02 -0.62041733768E+02 -0.30812912156E+02  0.94708790530E+02  0.00000000000E+00 0.  1.
         14    1    3    3    0    0 -0.23043732348E+03 -0.48093742972E+03 -0.13109725655E+03  0.54917088600E+03  0.00000000000E+00 0. -1.
          5    1    4    4  501    0  0.17167008676E+03  0.16911251820E+03  0.60270162323E+03  0.64910784862E+03  0.47000000000E+01 0. -1.
         -5    1    4    4    0  501  0.14352439296E+02  0.53040521069E+02  0.44263072443E+02  0.70714913357E+02  0.47000000000E+01 0. -1.
          1    1    1    2  502    0  0.25080413207E+02  0.63117319535E+01  0.79247743633E+03  0.79289933294E+03  0.00000000000E+00 0. -1.
          1    1    1    2  503    0  0.45780480370E+02  0.32554883281E+02 -0.12599909903E+03  0.13795450614E+03  0.00000000000E+00 0. -1.
<mgrwt>
<rscale>  0 0.38152243E+02</rscale>
<asrwt>0</asrwt>
<pdfrwt beam="1">  1        2 0.31494461E+00 0.25862426E+02</pdfrwt>
<pdfrwt beam="2">  1        2 0.91388673E-01 0.56282176E+02</pdfrwt>
<totfact> 0.75862739E+01</totfact>
</mgrwt>
</event>
<event>
13    1  0.1589573E-008  0.2182467E+03  0.7546771E-02  0.1249469E+00
          2   -1    0    0  503    0  0.00000000000E+00  0.00000000000E+00  0.11280792798E+04  0.11280792798E+04  0.00000000000E+00 0. -1.
          2   -1    0    0  502    0 -0.00000000000E+00 -0.00000000000E+00 -0.26236462340E+04  0.26236462340E+04  0.00000000000E+00 0. -1.
         24    2    1    2    0    0  0.96833366437E+01  0.46789266756E+02 -0.53355952338E+03  0.54146898398E+03  0.78866299069E+02 0.  0.
         25    2    1    2    0    0 -0.17612938034E+03 -0.57432574895E+03  0.46379169310E+03  0.76915387839E+03  0.12499331794E+03 0.  0.
         24    2    1    2    0    0 -0.22149462346E+02  0.23267026164E+02 -0.34740107573E+03  0.35825272129E+03  0.81397491985E+02 0.  0.
        -11    1    5    5    0    0  0.24926960636E+02 -0.39107531620E+01 -0.19132348943E+03  0.19298011546E+03  0.00000000000E+00 0.  1.
         12    1    5    5    0    0 -0.47076422982E+02  0.27177779326E+02 -0.15607758630E+03  0.16527260583E+03  0.00000000000E+00 0. -1.
        -11    1    3    3    0    0  0.25592346904E+02  0.40666829585E+02 -0.14951124925E+03  0.15704258309E+03  0.00000000000E+00 0.  1.
         12    1    3    3    0    0 -0.15909010261E+02  0.61224371704E+01 -0.38404827413E+03  0.38442640089E+03  0.00000000000E+00 0. -1.
          5    1    4    4  501    0 -0.98468680002E+02 -0.46869545423E+03  0.39614088393E+03  0.62154742352E+03  0.47000000000E+01 0.  1.
         -5    1    4    4    0  501 -0.77660700337E+02 -0.10563029472E+03  0.67650809171E+02  0.14760645487E+03  0.47000000000E+01 0.  1.
          1    1    1    2  502    0  0.12733660947E+03  0.51306555466E+03 -0.15342752212E+04  0.16227912158E+04  0.00000000000E+00 0. -1.
          1    1    1    2  503    0  0.61258896571E+02 -0.87960986349E+01  0.45587717308E+03  0.46005871440E+03  0.00000000000E+00 0. -1.
<mgrwt>
<rscale>  0 0.11621822E+03</rscale>
<asrwt>0</asrwt>
<pdfrwt beam="1">  1        2 0.16589401E+00 0.61887186E+02</pdfrwt>
<pdfrwt beam="2">  1        2 0.38583033E+00 0.21824672E+03</pdfrwt>
<totfact> 0.16330669E+01</totfact>
</mgrwt>
</event>
<event>
13    1  0.1589573E-008  0.5054290E+02  0.7546771E-02  0.1474731E+00
          2   -1    0    0  502    0  0.00000000000E+00  0.00000000000E+00  0.22871295656E+04  0.22871295656E+04  0.00000000000E+00 0. -1.
          2   -1    0    0  503    0 -0.00000000000E+00 -0.00000000000E+00 -0.10189765524E+04  0.10189765524E+04  0.00000000000E+00 0. -1.
         24    2    1    2    0    0 -0.56186705956E+02  0.96198250630E+02 -0.52299628878E+03  0.54030414556E+03  0.77410608279E+02 0.  0.
         25    2    1    2    0    0  0.13611153161E+03  0.14953226015E+02  0.21118776659E+03  0.28100317958E+03  0.12495025479E+03 0.  0.
         24    2    1    2    0    0 -0.98795896364E+02 -0.13391667513E+03 -0.45309666047E+02  0.19082806219E+03  0.81658303086E+02 0.  0.
        -11    1    5    5    0    0  0.12218438517E+02 -0.21962958282E+02 -0.17762251254E+02  0.30775954021E+02  0.00000000000E+00 0.  1.
         12    1    5    5    0    0 -0.11101433488E+03 -0.11195371685E+03 -0.27547414793E+02  0.16005210817E+03  0.00000000000E+00 0. -1.
        -13    1    3    3    0    0 -0.37623341107E+02  0.10596000402E+03 -0.47103668904E+03  0.48427120570E+03  0.00000000000E+00 0.  1.
         14    1    3    3    0    0 -0.18563364849E+02 -0.97617533850E+01 -0.51959599746E+02  0.56032939861E+02  0.00000000000E+00 0. -1.
          5    1    4    4  501    0  0.66612210455E+02  0.33866384638E+02  0.19234464034E+03  0.20640414060E+03  0.47000000000E+01 0. -1.
         -5    1    4    4    0  501  0.69499321158E+02 -0.18913158623E+02  0.18843126256E+02  0.74599038986E+02  0.47000000000E+01 0. -1.
          1    1    1    2  502    0  0.29618060458E+02 -0.26816017135E+02  0.19574914613E+04  0.19578991673E+04  0.00000000000E+00 0. -1.
          1    1    1    2  503    0 -0.10746989750E+02  0.49581215625E+02 -0.33222025982E+03  0.33607156346E+03  0.00000000000E+00 0. -1.
<mgrwt>
<rscale>  0 0.44937677E+02</rscale>
<asrwt>0</asrwt>
<pdfrwt beam="1">  1        2 0.33634258E+00 0.39954077E+02</pdfrwt>
<pdfrwt beam="2">  1        2 0.14984949E+00 0.50542898E+02</pdfrwt>
<totfact> 0.34462178E+01</totfact>
</mgrwt>
</event>
<event>
13    1  0.1589573E-008  0.8068185E+02  0.7546771E-02  0.1410086E+00
         -1   -1    0    0    0  501 -0.00000000000E+00  0.00000000000E+00  0.22216916946E+04  0.22216916946E+04  0.00000000000E+00 0.  1.
          2   -1    0    0  503    0  0.00000000000E+00 -0.00000000000E+00 -0.35503194376E+04  0.35503194376E+04  0.00000000000E+00 0. -1.
         24    2    1    2    0    0  0.20715914315E+03 -0.39345064926E+03  0.59156350857E+03  0.74549185902E+03  0.89957785661E+02 0.  0.
         25    2    1    2    0    0  0.45839034474E+03 -0.35143626453E+02 -0.40090231038E+03  0.62266566836E+03  0.12503235364E+03 0.  0.
         24    2    1    2    0    0 -0.57675835516E+03  0.34997209134E+03 -0.72952337897E+03  0.99688874775E+03  0.80325275967E+02 0.  0.
        -11    1    5    5    0    0 -0.25713421583E+03  0.12367555303E+03 -0.34961630174E+03  0.45127065694E+03  0.00000000000E+00 0.  1.
         12    1    5    5    0    0 -0.31962413933E+03  0.22629653831E+03 -0.37990707723E+03  0.54561809081E+03  0.00000000000E+00 0. -1.
        -13    1    3    3    0    0  0.78345067095E+01 -0.24880550943E+01  0.39044406718E+02  0.39900320919E+02  0.00000000000E+00 0.  1.
         14    1    3    3    0    0  0.19932463644E+03 -0.39096259417E+03  0.55251910186E+03  0.70559153811E+03  0.00000000000E+00 0. -1.
          5    1    4    4  502    0  0.34035627114E+02  0.24928732426E+02 -0.12502765934E+02  0.44252398460E+02  0.47000000000E+01 0.  1.
         -5    1    4    4    0  502  0.42435471763E+03 -0.60072358879E+02 -0.38839954444E+03  0.57841326990E+03  0.47000000000E+01 0.  1.
          1    1    1    2  503    0 -0.36788450269E+02  0.16976279143E+02 -0.20969266844E+04  0.20973180741E+04  0.00000000000E+00 0. -1.
         -2    1    1    2    0  501 -0.52002682464E+02  0.61645905233E+02  0.13071611222E+04  0.13096467829E+04  0.00000000000E+00 0.  1.
<mgrwt>
<rscale>  0 0.57174674E+02</rscale>
<asrwt>0</asrwt>
<pdfrwt beam="2">  1        2 0.52210580E+00 0.40516467E+02</pdfrwt>
<pdfrwt beam="1">  1       -1 0.32671937E+00 0.80681845E+02</pdfrwt>
<totfact> 0.60281767E-02</totfact>
</mgrwt>
</event>
<event>
13    1  0.1589573E-008  0.1089503E+03  0.7546771E-02  0.1265367E+00
          2   -1    0    0  502    0  0.00000000000E+00  0.00000000000E+00  0.16116216579E+04  0.16116216579E+04  0.00000000000E+00 0. -1.
          2   -1    0    0  503    0 -0.00000000000E+00 -0.00000000000E+00 -0.60507257835E+03  0.60507257835E+03  0.00000000000E+00 0. -1.
         24    2    1    2    0    0 -0.77916976374E+02  0.66302206891E+02 -0.61244531993E+02  0.14163879807E+03  0.76443564637E+02 0.  0.
         25    2    1    2    0    0 -0.12535278055E+03  0.72003159062E+02  0.49338408208E+03  0.52910488936E+03  0.12500542784E+03 0.  0.
         24    2    1    2    0    0  0.10710713996E+02 -0.26299489439E+02  0.37746867093E+01  0.85029098659E+02  0.80058208948E+02 0.  0.
        -13    1    3    3    0    0 -0.38449643116E+02  0.17634378590E+02 -0.66441179464E+02  0.78764057111E+02  0.00000000000E+00 0.  1.
         14    1    3    3    0    0 -0.39467333258E+02  0.48667828301E+02  0.51966474709E+01  0.62874740961E+02  0.00000000000E+00 0. -1.
        -13    1    5    5    0    0  0.35170902803E+01 -0.30882444817E+02  0.38380385747E+02  0.49387744755E+02  0.00000000000E+00 0.  1.
         14    1    5    5    0    0  0.71936237155E+01  0.45829553773E+01 -0.34605699038E+02  0.35641353903E+02  0.00000000000E+00 0. -1.
          5    1    4    4  501    0 -0.10379108888E+03  0.10331869998E+03  0.32635609319E+03  0.35773975661E+03  0.47000000000E+01 0.  1.
         -5    1    4    4    0  501 -0.21561691674E+02 -0.31315540919E+02  0.16702798889E+03  0.17136513276E+03  0.47000000000E+01 0.  1.
          1    1    1    2  502    0  0.73445385522E+02 -0.76209295562E+02  0.10042546651E+04  0.10098165743E+04  0.00000000000E+00 0. -1.
          1    1    1    2  503    0  0.11911365741E+03 -0.35796580952E+02 -0.43361982240E+03  0.45110487579E+03  0.00000000000E+00 0. -1.
<mgrwt>
<rscale>  0 0.10744973E+03</rscale>
<asrwt>0</asrwt>
<pdfrwt beam="1">  1        2 0.23700318E+00 0.10596982E+03</pdfrwt>
<pdfrwt beam="2">  1        2 0.88981262E-01 0.10895031E+03</pdfrwt>
<totfact> 0.11737634E+02</totfact>
</mgrwt>
</event>
<event>
13    1  0.1589573E-008  0.6990206E+02  0.7546771E-02  0.1426510E+00
          2   -1    0    0  502    0  0.00000000000E+00  0.00000000000E+00  0.37070140803E+04  0.37070140803E+04  0.00000000000E+00 0. -1.
          2   -1    0    0  503    0 -0.00000000000E+00 -0.00000000000E+00 -0.52240819172E+03  0.52240819172E+03  0.00000000000E+00 0. -1.
         24    2    1    2    0    0 -0.81880912165E+02 -0.23086310403E+02 -0.16785494088E+03  0.20623134337E+03  0.84371940288E+02 0.  0.
         25    2    1    2    0    0  0.12424828564E+03  0.16639189334E+03  0.61408513854E+03  0.66018880646E+03  0.12499921660E+03 0.  0.
         24    2    1    2    0    0  0.20554582567E+02 -0.22167215503E+03  0.13528791534E+03  0.27171624023E+03  0.77238979718E+02 0.  0.
        -11    1    3    3    0    0 -0.29176029973E+02 -0.51364587982E+02 -0.96252821434E+02  0.11293434933E+03  0.00000000000E+00 0.  1.
         12    1    3    3    0    0 -0.52704882192E+02  0.28278277580E+02 -0.71602119443E+02  0.93296994048E+02  0.00000000000E+00 0. -1.
        -13    1    5    5    0    0 -0.19598705994E+02 -0.19774574903E+02  0.55426297070E+01  0.28387740899E+02  0.00000000000E+00 0.  1.
         14    1    5    5    0    0  0.40153288561E+02 -0.20189758012E+03  0.12974528563E+03  0.24332849933E+03  0.00000000000E+00 0. -1.
          5    1    4    4  501    0  0.74974194341E+02  0.15381478703E+03  0.33214943971E+03  0.37366490179E+03  0.47000000000E+01 0.  1.
         -5    1    4    4    0  501  0.49274091299E+02  0.12577106303E+02  0.28193569883E+03  0.28652390468E+03  0.47000000000E+01 0.  1.
          1    1    1    2  502    0 -0.23709218479E+02  0.65717187224E+02  0.28450162512E+04  0.28458739159E+04  0.00000000000E+00 0. -1.
          1    1    1    2  503    0 -0.39212737563E+02  0.12649384870E+02 -0.24192847566E+03  0.24541196600E+03  0.00000000000E+00 0. -1.
<mgrwt>
<rscale>  0 0.53666931E+02</rscale>
<asrwt>0</asrwt>
<pdfrwt beam="1">  1        2 0.54514912E+00 0.69902062E+02</pdfrwt>
<pdfrwt beam="2">  1        2 0.76824736E-01 0.41202497E+02</pdfrwt>
<totfact> 0.12163903E+01</totfact>
</mgrwt>
</event>
<event>
13    1  0.1710776E-008  0.6995367E+02  0.7546771E-02  0.1390137E+00
          2   -1    0    0  502    0  0.00000000000E+00  0.00000000000E+00  0.29449287551E+04  0.29449287551E+04  0.00000000000E+00 0. -1.
          2   -1    0    0  503    0 -0.00000000000E+00 -0.00000000000E+00 -0.35115067842E+04  0.35115067842E+04  0.00000000000E+00 0. -1.
         24    2    1    2    0    0 -0.12754483295E+04  0.24706191208E+03 -0.11930996476E+04  0.17658274072E+04  0.82774593132E+02 0.  0.
         25    2    1    2    0    0  0.28974749129E+03  0.34913051238E+03  0.24610878832E+03  0.53107594820E+03  0.12500561461E+03 0.  0.
         24    2    1    2    0    0  0.93598025380E+03 -0.58610452078E+03 -0.87844573156E+03  0.14147216060E+04  0.10095927045E+03 0.  0.
        -11    1    3    3    0    0 -0.82330999923E+03  0.12307908202E+03 -0.78668133852E+03  0.11453625381E+04  0.00000000000E+00 0.  1.
         12    1    3    3    0    0 -0.45213833030E+03  0.12398283006E+03 -0.40641830912E+03  0.62046486916E+03  0.00000000000E+00 0. -1.
        -11    1    5    5    0    0  0.29283932377E+03 -0.21992954241E+03 -0.33746113163E+03  0.49799988808E+03  0.00000000000E+00 0.  1.
         12    1    5    5    0    0  0.64314093003E+03 -0.36617497837E+03 -0.54098459993E+03  0.91672171788E+03  0.00000000000E+00 0. -1.
          5    1    4    4  501    0  0.29436855012E+03  0.30054260972E+03  0.22990992091E+03  0.47943650810E+03  0.47000000000E+01 0. -1.
         -5    1    4    4    0  501 -0.46210588295E+01  0.48587902652E+02  0.16198867406E+02  0.51639440102E+02  0.47000000000E+01 0. -1.
          1    1    1    2  502    0  0.32409170383E+02 -0.62002705618E+02  0.20002144412E+04  0.20014376085E+04  0.00000000000E+00 0. -1.
          1    1    1    2  503    0  0.17311414055E+02  0.51914801949E+02 -0.74135587943E+03  0.74337296943E+03  0.00000000000E+00 0. -1.
<mgrwt>
<rscale>  0 0.61872599E+02</rscale>
<asrwt>0</asrwt>
<pdfrwt beam="1">  1        2 0.43307776E+00 0.69953670E+02</pdfrwt>
<pdfrwt beam="2">  1        2 0.51639806E+00 0.54725056E+02</pdfrwt>
<totfact> 0.85411981E-01</totfact>
</mgrwt>
</event>
<event>
13    1  0.1589573E-008  0.5169566E+02  0.7546771E-02  0.1439557E+00
          2   -1    0    0  503    0  0.00000000000E+00  0.00000000000E+00  0.72950302963E+03  0.72950302963E+03  0.00000000000E+00 0. -1.
          2   -1    0    0  502    0 -0.00000000000E+00 -0.00000000000E+00 -0.66005439150E+03  0.66005439150E+03  0.00000000000E+00 0. -1.
         24    2    1    2    0    0  0.13835858494E+02 -0.44198013767E+02 -0.21645772086E+03  0.23831071882E+03  0.88278867129E+02 0.  0.
         25    2    1    2    0    0  0.15713511371E+02  0.11313658178E+03  0.12735395944E+03  0.21187376035E+03  0.12499863505E+03 0.  0.
         24    2    1    2    0    0 -0.84194047666E+02 -0.27894075859E+01 -0.30861341599E+02  0.11961161740E+03  0.79108142153E+02 0.  0.
        -11    1    3    3    0    0  0.45443227466E+02 -0.78146737968E+01 -0.67465976165E+02  0.81717892710E+02  0.00000000000E+00 0.  1.
         12    1    3    3    0    0 -0.31607368972E+02 -0.36383339970E+02 -0.14899174470E+03  0.15659282611E+03  0.00000000000E+00 0. -1.
        -11    1    5    5    0    0  0.49553391237E+01  0.22373530125E+02 -0.68513616815E+01  0.23918013984E+02  0.00000000000E+00 0.  1.
         12    1    5    5    0    0 -0.89149386790E+02 -0.25162937711E+02 -0.24009979917E+02  0.95693603417E+02  0.00000000000E+00 0. -1.
          5    1    4    4  501    0 -0.10153266443E+02  0.91818382149E+02  0.13971237321E+02  0.93546724113E+02  0.47000000000E+01 0.  1.
         -5    1    4    4    0  501  0.25866777814E+02  0.21318199633E+02  0.11338272212E+03  0.11832703624E+03  0.47000000000E+01 0.  1.
          1    1    1    2  502    0  0.55609130292E+01 -0.50181573718E+02 -0.31181795019E+03  0.31587900873E+03  0.00000000000E+00 0. -1.
          1    1    1    2  503    0  0.49083764772E+02 -0.15967586712E+02  0.50123169135E+03  0.50388231583E+03  0.00000000000E+00 0. -1.
<mgrwt>
<rscale>  0 0.51088644E+02</rscale>
<asrwt>0</asrwt>
<pdfrwt beam="1">  1        2 0.10727986E+00 0.51695664E+02</pdfrwt>
<pdfrwt beam="2">  1        2 0.97066822E-01 0.50488752E+02</pdfrwt>
<totfact> 0.34183819E+02</totfact>
</mgrwt>
</event>
<event>
13    1  0.1589573E-008  0.1511130E+03  0.7546771E-02  0.1228336E+00
          2   -1    0    0  503    0  0.00000000000E+00  0.00000000000E+00  0.45364291383E+03  0.45364291383E+03  0.00000000000E+00 0. -1.
          2   -1    0    0  502    0 -0.00000000000E+00 -0.00000000000E+00 -0.19861127338E+04  0.19861127338E+04  0.00000000000E+00 0. -1.
         24    2    1    2    0    0  0.12189032909E+03  0.30362298290E+02 -0.84209156945E+02  0.17152362169E+03  0.80932374244E+02 0.  0.
         25    2    1    2    0    0  0.13821438852E+03 -0.15500228372E+02 -0.26273937490E+03  0.32249209153E+03  0.12500278276E+03 0.  0.
         24    2    1    2    0    0 -0.10437654137E+03 -0.21945046218E+02  0.23587370713E+02  0.13270295606E+03  0.75350269064E+02 0.  0.
        -13    1    5    5    0    0 -0.73646630126E+02  0.19956489179E+02  0.17062814506E+01  0.76321680967E+02  0.00000000000E+00 0.  1.
         14    1    5    5    0    0 -0.30729911240E+02 -0.41901535397E+02  0.21881089262E+02  0.56381275090E+02  0.00000000000E+00 0. -1.
        -13    1    3    3    0    0  0.97055596360E+02  0.15541251706E+02 -0.18893468633E+02  0.10009137049E+03  0.00000000000E+00 0.  1.
         14    1    3    3    0    0  0.24834732727E+02  0.14821046584E+02 -0.65315688312E+02  0.71432251198E+02  0.00000000000E+00 0. -1.
          5    1    4    4  501    0  0.83730486187E+01  0.64172640836E+01  0.12695984972E+02  0.17162961746E+02  0.47000000000E+01 0. -1.
         -5    1    4    4    0  501  0.12984133991E+03 -0.21917492455E+02 -0.27543535988E+03  0.30532912978E+03  0.47000000000E+01 0. -1.
          1    1    1    2  502    0 -0.11210813406E+03  0.10895858154E+03 -0.14966946812E+04  0.15048372586E+04  0.00000000000E+00 0. -1.
          1    1    1    2  503    0 -0.43620042189E+02 -0.10187560524E+03  0.28758602234E+03  0.30819971977E+03  0.00000000000E+00 0. -1.
<mgrwt>
<rscale>  0 0.12940839E+03</rscale>
<asrwt>0</asrwt>
<pdfrwt beam="1">  1        2 0.66712192E-01 0.11082124E+03</pdfrwt>
<pdfrwt beam="2">  1        2 0.29207541E+00 0.15111302E+03</pdfrwt>
<totfact> 0.10208712E+02</totfact>
</mgrwt>
</event>
<event>
13    1  0.1589573E-008  0.1078419E+03  0.7546771E-02  0.1382887E+00
          2   -1    0    0  503    0  0.00000000000E+00  0.00000000000E+00  0.14178913907E+04  0.14178913907E+04  0.00000000000E+00 0. -1.
          2   -1    0    0  502    0 -0.00000000000E+00 -0.00000000000E+00 -0.16828956253E+04  0.16828956253E+04  0.00000000000E+00 0. -1.
         24    2    1    2    0    0 -0.44620667184E+02 -0.51627277576E+03 -0.54000590173E+03  0.75276728081E+03  0.80768943447E+02 0.  0.
         25    2    1    2    0    0  0.41729784547E+02  0.42956743498E+03  0.22285249457E+03  0.50155506541E+03  0.12499877276E+03 0.  0.
         24    2    1    2    0    0 -0.10223032875E+03  0.15220396133E+03 -0.21758185868E+03  0.29122956132E+03  0.62094333072E+02 0.  0.
        -11    1    3    3    0    0 -0.43439865288E+01 -0.41972410170E+03 -0.42649499042E+03  0.59840217965E+03  0.00000000000E+00 0.  1.
         12    1    3    3    0    0 -0.40276680655E+02 -0.96548674059E+02 -0.11351091132E+03  0.15436510116E+03  0.00000000000E+00 0. -1.
        -11    1    5    5    0    0 -0.45059034853E+02  0.11370524547E+03 -0.11670445392E+03  0.16905362768E+03  0.00000000000E+00 0.  1.
         12    1    5    5    0    0 -0.57171293893E+02  0.38498715866E+02 -0.10087740476E+03  0.12217593364E+03  0.00000000000E+00 0. -1.
          5    1    4    4  501    0 -0.39330627939E+01  0.21150952428E+03  0.44725785954E+02  0.21627351611E+03  0.47000000000E+01 0.  1.
         -5    1    4    4    0  501  0.45662847341E+02  0.21805791070E+03  0.17812670862E+03  0.28528154930E+03  0.47000000000E+01 0.  1.
          1    1    1    2  502    0  0.70887521742E+02 -0.81143235102E+02 -0.63784376848E+03  0.64688015763E+03  0.00000000000E+00 0. -1.
          1    1    1    2  503    0  0.34233689641E+02  0.15644614544E+02  0.90757479976E+03  0.90835495079E+03  0.00000000000E+00 0. -1.
<mgrwt>
<rscale>  0 0.63710833E+02</rscale>
<asrwt>0</asrwt>
<pdfrwt beam="1">  1        2 0.20851344E+00 0.37639068E+02</pdfrwt>
<pdfrwt beam="2">  1        2 0.24748465E+00 0.10784194E+03</pdfrwt>
<totfact> 0.38219940E+01</totfact>
</mgrwt>
</event>
<event>
13    1  0.1589573E-008  0.7418491E+02  0.7546771E-02  0.1412242E+00
          2   -1    0    0  503    0  0.00000000000E+00  0.00000000000E+00  0.19819373925E+04  0.19819373925E+04  0.00000000000E+00 0. -1.
          2   -1    0    0  502    0 -0.00000000000E+00 -0.00000000000E+00 -0.12082464592E+04  0.12082464592E+04  0.00000000000E+00 0. -1.
         24    2    1    2    0    0 -0.90397961892E+02  0.21993005179E+02 -0.15733605420E+03  0.19405238492E+03  0.65162952308E+02 0.  0.
         25    2    1    2    0    0 -0.69227601800E+02 -0.16508622202E+03  0.39861376546E+03  0.45449313286E+03  0.12500060900E+03 0.  0.
         24    2    1    2    0    0  0.12711599798E+03  0.59608039196E+02  0.94134867919E+03  0.95505445385E+03  0.79246947733E+02 0.  0.
        -11    1    3    3    0    0 -0.53648396681E+02  0.14342836441E+02 -0.14379784587E+03  0.15414826597E+03  0.00000000000E+00 0.  1.
         12    1    3    3    0    0 -0.36749565211E+02  0.76501687385E+01 -0.13538208323E+02  0.39904118954E+02  0.00000000000E+00 0. -1.
        -13    1    5    5    0    0  0.46106246067E+02  0.55340790751E+02  0.59438284043E+03  0.59873145069E+03  0.00000000000E+00 0.  1.
         14    1    5    5    0    0  0.81009751911E+02  0.42672484452E+01  0.34696583876E+03  0.35632300316E+03  0.00000000000E+00 0. -1.
          5    1    4    4  501    0 -0.94909286903E+02 -0.65823386390E+02  0.21804608199E+03  0.24679277706E+03  0.47000000000E+01 0. -1.
         -5    1    4    4    0  501  0.25681685103E+02 -0.99262835628E+02  0.18056768347E+03  0.20770035580E+03  0.47000000000E+01 0. -1.
          1    1    1    2  502    0  0.56858779166E+02  0.47642830206E+02 -0.99558074800E+03  0.99834051597E+03  0.00000000000E+00 0. -1.
          1    1    1    2  503    0 -0.24349213452E+02  0.35842347436E+02  0.58664529093E+03  0.58824336412E+03  0.00000000000E+00 0. -1.
<mgrwt>
<rscale>  0 0.56696486E+02</rscale>
<asrwt>0</asrwt>
<pdfrwt beam="1">  1        2 0.29146138E+00 0.43330798E+02</pdfrwt>
<pdfrwt beam="2">  1        2 0.17768330E+00 0.74184914E+02</pdfrwt>
<totfact> 0.36608253E+01</totfact>
</mgrwt>
</event>
<event>
13    1  0.1589573E-008  0.7827360E+02  0.7546771E-02  0.1443281E+00
          2   -1    0    0  502    0  0.00000000000E+00  0.00000000000E+00  0.18907005595E+04  0.18907005595E+04  0.00000000000E+00 0. -1.
          2   -1    0    0  503    0 -0.00000000000E+00 -0.00000000000E+00 -0.29059512348E+04  0.29059512348E+04  0.00000000000E+00 0. -1.
         24    2    1    2    0    0  0.65198524842E+02  0.11007849739E+02 -0.60832750900E+03  0.61685777290E+03  0.77968797521E+02 0.  0.
         25    2    1    2    0    0 -0.21377814410E+03 -0.23769706392E+01  0.66198487925E+03  0.70679560225E+03  0.12501719131E+03 0.  0.
         24    2    1    2    0    0  0.12562302854E+03 -0.73661017849E+02 -0.92908215864E+02  0.19072946972E+03  0.80862248280E+02 0.  0.
        -11    1    5    5    0    0  0.69005826591E+02 -0.51823203296E+02 -0.97093858147E+02  0.12990252420E+03  0.00000000000E+00 0.  1.
         12    1    5    5    0    0  0.56617201946E+02 -0.21837814554E+02  0.41856422826E+01  0.60826945526E+02  0.00000000000E+00 0. -1.
        -13    1    3    3    0    0  0.23351402393E+02 -0.28738407342E+02 -0.36059151823E+03  0.36248783023E+03  0.00000000000E+00 0.  1.
         14    1    3    3    0    0  0.41847122449E+02  0.39746257081E+02 -0.24773599077E+03  0.25436994267E+03  0.00000000000E+00 0. -1.
          5    1    4    4  501    0 -0.50696566828E+02  0.40018417982E+02  0.30785980321E+03  0.31459714572E+03  0.47000000000E+01 0. -1.
         -5    1    4    4    0  501 -0.16308157727E+03 -0.42395388622E+02  0.35412507604E+03  0.39219845652E+03  0.47000000000E+01 0. -1.
          1    1    1    2  502    0  0.29727534530E+02 -0.12965205349E+02  0.11521866321E+04  0.11526429881E+04  0.00000000000E+00 0. -1.
          1    1    1    2  503    0 -0.67709438127E+01  0.77995344099E+02 -0.21281864617E+04  0.21296259613E+04  0.00000000000E+00 0. -1.
<mgrwt>
<rscale>  0 0.50384076E+02</rscale>
<asrwt>0</asrwt>
<pdfrwt beam="1">  1        2 0.27804420E+00 0.32431819E+02</pdfrwt>
<pdfrwt beam="2">  1        2 0.42734577E+00 0.78273599E+02</pdfrwt>
<totfact> 0.61051538E+00</totfact>
</mgrwt>
</event>
<event>
13    1  0.1606103E-008  0.1325650E+03  0.7546771E-02  0.1311697E+00
         -3   -1    0    0    0  501 -0.00000000000E+00  0.00000000000E+00  0.17999153515E+04  0.17999153515E+04  0.00000000000E+00 0.  1.
          2   -1    0    0  503    0  0.00000000000E+00 -0.00000000000E+00 -0.21220436136E+04  0.21220436136E+04  0.00000000000E+00 0. -1.
         24    2    1    2    0    0 -0.17754217698E+02 -0.27563778177E+02  0.77501567163E+02  0.11283911446E+03  0.75174455282E+02 0.  0.
         25    2    1    2    0    0 -0.20411060433E+03  0.12339332363E+03  0.13871850585E+03  0.30290904702E+03  0.12499606306E+03 0.  0.
         24    2    1    2    0    0  0.25483742417E+02  0.29513512370E+02 -0.90350582296E+03  0.90782621195E+03  0.79405229311E+02 0.  0.
        -13    1    3    3    0    0  0.17216715156E+02 -0.41062061529E+02  0.41657077885E+02  0.60973931444E+02  0.00000000000E+00 0.  1.
         14    1    3    3    0    0 -0.34970932854E+02  0.13498283353E+02  0.35844489278E+02  0.51865183021E+02  0.00000000000E+00 0. -1.
        -13    1    5    5    0    0  0.44444475249E+02 -0.72050584533E+01 -0.37166549340E+03  0.37438277635E+03  0.00000000000E+00 0.  1.
         14    1    5    5    0    0 -0.18960732832E+02  0.36718570823E+02 -0.53184032957E+03  0.53344343560E+03  0.00000000000E+00 0. -1.
          5    1    4    4  502    0 -0.18237717273E+03  0.47513135525E+02  0.81921240148E+02  0.20555318234E+03  0.47000000000E+01 0. -1.
         -5    1    4    4    0  502 -0.21733431602E+02  0.75880188103E+02  0.56797265707E+02  0.97355864680E+02  0.47000000000E+01 0. -1.
          1    1    1    2  503    0  0.16797327954E+03 -0.76654315359E+02 -0.11084383190E+04  0.11237110010E+04  0.00000000000E+00 0. -1.
         -4    1    1    2    0  501  0.28407800078E+02 -0.48688742462E+02  0.14735958069E+04  0.14746735907E+04  0.00000000000E+00 0.  1.
<mgrwt>
<rscale>  0 0.86444837E+02</rscale>
<asrwt>0</asrwt>
<pdfrwt beam="2">  1        2 0.31206524E+00 0.13256496E+03</pdfrwt>
<pdfrwt beam="1">  1       -3 0.26469343E+00 0.56370176E+02</pdfrwt>
<totfact> 0.35825604E-01</totfact>
</mgrwt>
</event>
<event>
13    1  0.1589573E-008  0.1714961E+03  0.7546771E-02  0.1243300E+00
          2   -1    0    0  503    0  0.00000000000E+00  0.00000000000E+00  0.11990196612E+04  0.11990196612E+04  0.00000000000E+00 0. -1.
          2   -1    0    0  502    0 -0.00000000000E+00 -0.00000000000E+00 -0.91654489335E+03  0.91654489335E+03  0.00000000000E+00 0. -1.
         24    2    1    2    0    0 -0.14578937639E+03 -0.98533646177E+02  0.23789329872E+03  0.30671284757E+03  0.80722534580E+02 0.  0.
         25    2    1    2    0    0  0.26272948748E+03  0.91481823758E+02  0.73038143041E+02  0.31361663021E+03  0.12500045095E+03 0.  0.
         24    2    1    2    0    0 -0.84345702113E+01  0.15576472024E+02 -0.83492055583E+02  0.11755712585E+03  0.80839260502E+02 0.  0.
        -13    1    3    3    0    0  0.36263047936E+01  0.87364680974E+01  0.88205908520E+01  0.12933629972E+02  0.00000000000E+00 0.  1.
         14    1    3    3    0    0 -0.14941568119E+03 -0.10727011427E+03  0.22907270787E+03  0.29377921760E+03  0.00000000000E+00 0. -1.
        -13    1    5    5    0    0  0.94460183372E+01  0.41329374713E+02 -0.73143270729E+02  0.84541602359E+02  0.00000000000E+00 0.  1.
         14    1    5    5    0    0 -0.17880588548E+02 -0.25752902689E+02 -0.10348784854E+02  0.33015523496E+02  0.00000000000E+00 0. -1.
          5    1    4    4  501    0  0.23171147358E+03  0.27071964556E+02  0.57170600700E+02  0.24023668712E+03  0.47000000000E+01 0.  1.
         -5    1    4    4    0  501  0.31018013906E+02  0.64409859202E+02  0.15867542341E+02  0.73379943098E+02  0.47000000000E+01 0.  1.
          1    1    1    2  502    0  0.49607865047E+02 -0.85627349413E+02 -0.64670107827E+03  0.65422875806E+03  0.00000000000E+00 0. -1.
          1    1    1    2  503    0 -0.15811340593E+03  0.77102699808E+02  0.70173645991E+03  0.72344919283E+03  0.00000000000E+00 0. -1.
<mgrwt>
<rscale>  0 0.11987735E+03</rscale>
<asrwt>0</asrwt>
<pdfrwt beam="1">  1        2 0.17632642E+00 0.17149609E+03</pdfrwt>
<pdfrwt beam="2">  1        2 0.13478601E+00 0.83795373E+02</pdfrwt>
<totfact> 0.11405025E+02</totfact>
</mgrwt>
</event>
<event>
13    1  0.1589573E-008  0.1966557E+03  0.7546771E-02  0.1193192E+00
          2   -1    0    0  503    0  0.00000000000E+00  0.00000000000E+00  0.32940801299E+04  0.32940801299E+04  0.00000000000E+00 0. -1.
          2   -1    0    0  502    0 -0.00000000000E+00 -0.00000000000E+00 -0.17118926530E+04  0.17118926530E+04  0.00000000000E+00 0. -1.
         24    2    1    2    0    0  0.49481812922E+02  0.11417160277E+03 -0.21977759469E+02  0.15001662813E+03  0.80860139213E+02 0.  0.
         25    2    1    2    0    0  0.19246310947E+03 -0.15246556473E+03 -0.16317593612E+01  0.27552535618E+03  0.12499504921E+03 0.  0.
         24    2    1    2    0    0 -0.90495627249E+02 -0.43723909733E+01  0.13834381162E+03  0.18440497885E+03  0.81594176613E+02 0.  0.
        -13    1    5    5    0    0 -0.44980836452E+02 -0.42767936103E+02  0.63999945916E+02  0.89153603874E+02  0.00000000000E+00 0.  1.
         14    1    5    5    0    0 -0.45514790797E+02  0.38395545130E+02  0.74343865701E+02  0.95251374974E+02  0.00000000000E+00 0. -1.
        -13    1    3    3    0    0  0.55726414020E+02  0.30496331061E+02 -0.17947596665E+02  0.66011935692E+02  0.00000000000E+00 0.  1.
         14    1    3    3    0    0 -0.62446010982E+01  0.83675271711E+02 -0.40301628040E+01  0.84004692434E+02  0.00000000000E+00 0. -1.
          5    1    4    4  501    0  0.19517554953E+03 -0.12959999470E+03  0.29864392926E+02  0.23622791056E+03  0.47000000000E+01 0.  1.
         -5    1    4    4    0  501 -0.27124400649E+01 -0.22865570033E+02 -0.31496152287E+02  0.39297445628E+02  0.47000000000E+01 0.  1.
          1    1    1    2  502    0 -0.18503211422E+03 -0.76526249975E+02 -0.14561243093E+04  0.14698269130E+04  0.00000000000E+00 0. -1.
          1    1    1    2  503    0  0.33582819082E+02  0.11919260291E+03  0.29235774933E+04  0.29261989067E+04  0.00000000000E+00 0. -1.
<mgrwt>
<rscale>  0 0.15608279E+03</rscale>
<asrwt>0</asrwt>
<pdfrwt beam="1">  1        2 0.48442355E+00 0.12388064E+03</pdfrwt>
<pdfrwt beam="2">  1        2 0.25174892E+00 0.19665572E+03</pdfrwt>
<totfact> 0.35733609E+00</totfact>
</mgrwt>
</event>
<event>
13    1  0.1589573E-008  0.6149102E+02  0.7546771E-02  0.1545140E+00
          2   -1    0    0  503    0  0.00000000000E+00  0.00000000000E+00  0.13397469925E+04  0.13397469925E+04  0.00000000000E+00 0. -1.
          2   -1    0    0  502    0 -0.00000000000E+00 -0.00000000000E+00 -0.18999781875E+04  0.18999781875E+04  0.00000000000E+00 0. -1.
         24    2    1    2    0    0  0.94635904278E+02  0.28692342681E+02 -0.35345850716E+03  0.37528414429E+03  0.78269200633E+02 0.  0.
         25    2    1    2    0    0  0.58483194070E+02  0.33663914583E+02  0.52293135243E+03  0.54188728926E+03  0.12502436473E+03 0.  0.
         24    2    1    2    0    0 -0.95626304983E+02 -0.83153834112E+02 -0.75461614145E+02  0.16811257005E+03  0.80674845328E+02 0.  0.
        -11    1    3    3    0    0  0.49670883917E+02 -0.25387316085E+02 -0.15521957405E+03  0.16493886351E+03  0.00000000000E+00 0.  1.
         12    1    3    3    0    0  0.44965020361E+02  0.54079658766E+02 -0.19823893311E+03  0.21034528078E+03  0.00000000000E+00 0. -1.
        -13    1    5    5    0    0 -0.10201903160E+03 -0.92296751022E+02 -0.62777393243E+02  0.15122028356E+03  0.00000000000E+00 0.  1.
         14    1    5    5    0    0  0.63927266136E+01  0.91429169096E+01 -0.12684220902E+02  0.16892286496E+02  0.00000000000E+00 0. -1.
          5    1    4    4  501    0  0.79094603224E+02 -0.22247309900E+02  0.30279432352E+03  0.31377920807E+03  0.47000000000E+01 0.  1.
         -5    1    4    4    0  501 -0.20611409154E+02  0.55911224483E+02  0.22013702891E+03  0.22810808120E+03  0.47000000000E+01 0.  1.
          1    1    1    2  502    0 -0.61489770415E+02  0.82232409424E+00 -0.14035300901E+04  0.14048766430E+04  0.00000000000E+00 0. -1.
          1    1    1    2  503    0  0.39969770502E+01  0.19975252754E+02  0.74928766395E+03  0.74956453351E+03  0.00000000000E+00 0. -1.
<mgrwt>
<rscale>  0 0.35392753E+02</rscale>
<asrwt>0</asrwt>
<pdfrwt beam="1">  1        2 0.19702162E+00 0.20371219E+02</pdfrwt>
<pdfrwt beam="2">  1        2 0.27940856E+00 0.61491019E+02</pdfrwt>
<totfact> 0.36284854E+01</totfact>
</mgrwt>
</event>
<event>
13    1  0.1589573E-008  0.1030771E+03  0.7546771E-02  0.1354210E+00
          2   -1    0    0  503    0  0.00000000000E+00  0.00000000000E+00  0.17210393271E+04  0.17210393271E+04  0.00000000000E+00 0. -1.
          2   -1    0    0  502    0 -0.00000000000E+00 -0.00000000000E+00 -0.38635867500E+04  0.38635867500E+04  0.00000000000E+00 0. -1.
         24    2    1    2    0    0  0.49719444331E+03 -0.33970476551E+03  0.39622190560E+03  0.72610378593E+03  0.87368571591E+02 0.  0.
         25    2    1    2    0    0 -0.29554008494E+03  0.47091561602E+01 -0.39414407162E+02  0.32333408257E+03  0.12500126201E+03 0.  0.
         24    2    1    2    0    0 -0.13326832168E+03  0.35313094135E+03  0.18963626411E+03  0.43013139967E+03  0.81173893640E+02 0.  0.
        -11    1    3    3    0    0  0.23249813969E+03 -0.10778401077E+03  0.15616098794E+03  0.30009837069E+03  0.00000000000E+00 0.  1.
         12    1    3    3    0    0  0.26469630362E+03 -0.23192075474E+03  0.24006091766E+03  0.42600541525E+03  0.00000000000E+00 0. -1.
        -13    1    5    5    0    0 -0.77709633418E+02  0.29596939396E+03  0.14285079692E+03  0.33770256065E+03  0.00000000000E+00 0.  1.
         14    1    5    5    0    0 -0.55558688267E+02  0.57161547388E+02  0.46785467186E+02  0.92428839015E+02  0.00000000000E+00 0. -1.
          5    1    4    4  501    0 -0.77509636952E+02  0.44183475466E+01  0.44566904691E+02  0.89641310841E+02  0.47000000000E+01 0. -1.
         -5    1    4    4    0  501 -0.21803044799E+03  0.29080861359E+00 -0.83981311853E+02  0.23369277173E+03  0.47000000000E+01 0. -1.
          1    1    1    2  502    0 -0.78284811528E+02 -0.67101796254E+02 -0.33953592216E+04  0.33969244040E+04  0.00000000000E+00 0. -1.
          1    1    1    2  503    0  0.98987748437E+01  0.48966464254E+02  0.70636803621E+03  0.70813240496E+03  0.00000000000E+00 0. -1.
<mgrwt>
<rscale>  0 0.71759478E+02</rscale>
<asrwt>0</asrwt>
<pdfrwt beam="1">  1        2 0.25309402E+00 0.49956985E+02</pdfrwt>
<pdfrwt beam="2">  1        2 0.56817451E+00 0.10307713E+03</pdfrwt>
<totfact> 0.18718871E+00</totfact>
</mgrwt>
</event>
<event>
13    1  0.1589573E-008  0.7275432E+02  0.7546771E-02  0.1396087E+00
          2   -1    0    0  503    0  0.00000000000E+00  0.00000000000E+00  0.32912436524E+04  0.32912436524E+04  0.00000000000E+00 0. -1.
          2   -1    0    0  502    0 -0.00000000000E+00 -0.00000000000E+00 -0.48676887313E+04  0.48676887313E+04  0.00000000000E+00 0. -1.
         24    2    1    2    0    0  0.46793495663E+03 -0.46151090112E+03 -0.81778278323E+03  0.10521782689E+04  0.79718213175E+02 0.  0.
         25    2    1    2    0    0 -0.77138012033E+03  0.41868383302E+03 -0.27785222304E+03  0.92905871360E+03  0.12499917352E+03 0.  0.
         24    2    1    2    0    0  0.26880709087E+03  0.60955379096E+02  0.72569050889E+03  0.78002820602E+03  0.76449180206E+02 0.  0.
        -11    1    5    5    0    0  0.82979171817E+02  0.52771091032E+02  0.21197930448E+03  0.23367831849E+03  0.00000000000E+00 0.  1.
         12    1    5    5    0    0  0.18582791905E+03  0.81842880634E+01  0.51371120441E+03  0.54634988753E+03  0.00000000000E+00 0. -1.
        -13    1    3    3    0    0  0.23385246614E+03 -0.19593221780E+03 -0.32932577910E+03  0.44892302087E+03  0.00000000000E+00 0.  1.
         14    1    3    3    0    0  0.23408249049E+03 -0.26557868332E+03 -0.48845700413E+03  0.60325524803E+03  0.00000000000E+00 0. -1.
          5    1    4    4  501    0 -0.63517435260E+03  0.29176809579E+03 -0.23975184763E+03  0.73897098614E+03  0.47000000000E+01 0.  1.
         -5    1    4    4    0  501 -0.13620576773E+03  0.12691573724E+03 -0.38100375413E+02  0.19008772745E+03  0.47000000000E+01 0.  1.
          1    1    1    2  502    0  0.70850239838E+02  0.16599433715E+02 -0.33013825740E+04  0.33021844584E+04  0.00000000000E+00 0. -1.
          1    1    1    2  503    0 -0.36212167002E+02 -0.34727744714E+02  0.20948819925E+04  0.20954827367E+04  0.00000000000E+00 0. -1.
<mgrwt>
<rscale>  0 0.60417778E+02</rscale>
<asrwt>0</asrwt>
<pdfrwt beam="1">  1        2 0.48400643E+00 0.50173073E+02</pdfrwt>
<pdfrwt beam="2">  1        2 0.71583656E+00 0.72754322E+02</pdfrwt>
<totfact> 0.59625471E-02</totfact>
</mgrwt>
</event>
<event>
13    1  0.1589573E-008  0.5182618E+02  0.7546771E-02  0.1457174E+00
          2   -1    0    0  503    0  0.00000000000E+00  0.00000000000E+00  0.26804715803E+04  0.26804715803E+04  0.00000000000E+00 0. -1.
         -1   -1    0    0    0  501 -0.00000000000E+00 -0.00000000000E+00 -0.62572062072E+02  0.62572062072E+02  0.00000000000E+00 0.  1.
         24    2    1    2    0    0 -0.23796827284E+02 -0.24284751662E+02  0.15961954023E+03  0.18133893456E+03  0.79052978516E+02 0.  0.
         25    2    1    2    0    0  0.10954837258E+02 -0.65282945970E+02  0.85991105043E+03  0.87146683424E+03  0.12500222809E+03 0.  0.
         24    2    1    2    0    0  0.22208626205E+02  0.97943156503E+02  0.13879826660E+03  0.18769961095E+03  0.76681811115E+02 0.  0.
        -11    1    5    5    0    0  0.46883442838E+02  0.54249082495E+02  0.56402655314E+02  0.91226529532E+02  0.00000000000E+00 0.  1.
         12    1    5    5    0    0 -0.24674816633E+02  0.43694074008E+02  0.82395611281E+02  0.96473081415E+02  0.00000000000E+00 0. -1.
        -11    1    3    3    0    0  0.85112438234E+01  0.75489643732E+01 -0.36015723251E+01  0.11933124391E+02  0.00000000000E+00 0.  1.
         12    1    3    3    0    0 -0.32308071108E+02 -0.31833716035E+02  0.16322111256E+03  0.16940581017E+03  0.00000000000E+00 0. -1.
          5    1    4    4  502    0 -0.55737278895E+02 -0.25946539707E+02  0.45869629872E+03  0.46282205181E+03  0.47000000000E+01 0.  1.
         -5    1    4    4    0  502  0.66692116153E+02 -0.39336406263E+02  0.40121475171E+03  0.40864478243E+03  0.47000000000E+01 0.  1.
          1    1    1    2  503    0 -0.52262388290E+02  0.23573443281E+01  0.14573244492E+04  0.14582631671E+04  0.00000000000E+00 0. -1.
         -2    1    1    2    0  501  0.42895752111E+02 -0.10732803199E+02  0.22462117419E+01  0.44275095492E+02  0.00000000000E+00 0.  1.
<mgrwt>
<rscale>  0 0.47871225E+02</rscale>
<asrwt>0</asrwt>
<pdfrwt beam="1">  1        2 0.39418692E+00 0.51826179E+02</pdfrwt>
<pdfrwt beam="2">  1       -1 0.92017756E-02 0.44218080E+02</pdfrwt>
<totfact> 0.32450963E+02</totfact>
</mgrwt>
</event>
<event>
13    1  0.1589573E-008  0.8490158E+02  0.7546771E-02  0.1434368E+00
          2   -1    0    0  502    0  0.00000000000E+00  0.00000000000E+00  0.17059233610E+04  0.17059233610E+04  0.00000000000E+00 0. -1.
          2   -1    0    0  503    0 -0.00000000000E+00 -0.00000000000E+00 -0.52602247149E+03  0.52602247149E+03  0.00000000000E+00 0. -1.
         24    2    1    2    0    0 -0.31836410267E+02  0.99733057896E+01 -0.49727829496E+02  0.10175638542E+03  0.82270779136E+02 0.  0.
         25    2    1    2    0    0  0.81547574936E+01  0.15497245329E+03  0.80307090985E+01  0.19942528847E+03  0.12499196792E+03 0.  0.
         24    2    1    2    0    0  0.17223315114E+02 -0.63393742569E+02  0.18372594717E+03  0.21038267294E+03  0.78678054291E+02 0.  0.
        -11    1    3    3    0    0 -0.27331361123E+02 -0.27215370019E+02 -0.51395566608E+02  0.64258726513E+02  0.00000000000E+00 0.  1.
         12    1    3    3    0    0 -0.45050491446E+01  0.37188675808E+02  0.16677371128E+01  0.37497658903E+02  0.00000000000E+00 0. -1.
        -13    1    5    5    0    0 -0.27620144908E+02 -0.30788920544E+02  0.11417937417E+03  0.12144035375E+03  0.00000000000E+00 0.  1.
         14    1    5    5    0    0  0.44843460023E+02 -0.32604822025E+02  0.69546573009E+02  0.88942319192E+02  0.00000000000E+00 0. -1.
          5    1    4    4  501    0 -0.14896810218E+02  0.75335512664E+02  0.63336649209E+02  0.99654280169E+02  0.47000000000E+01 0. -1.
         -5    1    4    4    0  501  0.23051567711E+02  0.79636940623E+02 -0.55305940110E+02  0.99771008300E+02  0.47000000000E+01 0. -1.
          1    1    1    2  502    0 -0.28225110760E+02 -0.14999009702E+02  0.13725678354E+04  0.13729399440E+04  0.00000000000E+00 0. -1.
          1    1    1    2  503    0  0.34683448420E+02 -0.86553006805E+02 -0.33469577269E+03  0.34744154161E+03  0.00000000000E+00 0. -1.
<mgrwt>
<rscale>  0 0.52093195E+02</rscale>
<asrwt>0</asrwt>
<pdfrwt beam="1">  1        2 0.25087108E+00 0.31962903E+02</pdfrwt>
<pdfrwt beam="2">  1        2 0.77356247E-01 0.84901579E+02</pdfrwt>
<totfact> 0.13838132E+02</totfact>
</mgrwt>
</event>
<event>
13    1  0.1589573E-008  0.1344768E+03  0.7546771E-02  0.1329181E+00
          2   -1    0    0  503    0  0.00000000000E+00  0.00000000000E+00  0.34962753370E+04  0.34962753370E+04  0.00000000000E+00 0. -1.
         -1   -1    0    0    0  501 -0.00000000000E+00 -0.00000000000E+00 -0.14075844841E+04  0.14075844841E+04  0.00000000000E+00 0.  1.
         24    2    1    2    0    0 -0.10804250626E+02  0.67054447418E+01 -0.29452346638E+03  0.30423417845E+03  0.75184228851E+02 0.  0.
         25    2    1    2    0    0 -0.16234571056E+03 -0.27661030798E+03  0.75423249720E+03  0.82907217637E+03  0.12499848630E+03 0.  0.
         24    2    1    2    0    0  0.55770231623E+01  0.52008870873E+02 -0.89087708056E+02  0.13064582207E+03  0.79973028327E+02 0.  0.
        -11    1    5    5    0    0  0.12578730646E+02  0.55594394294E+02 -0.18948228210E+02  0.60066600485E+02  0.00000000000E+00 0.  1.
         12    1    5    5    0    0 -0.70017074842E+01 -0.35855234207E+01 -0.70139479846E+02  0.70579221581E+02  0.00000000000E+00 0. -1.
        -13    1    3    3    0    0 -0.40881632005E+02  0.15982540131E+02 -0.14821216557E+03  0.15457553314E+03  0.00000000000E+00 0.  1.
         14    1    3    3    0    0  0.30077381379E+02 -0.92770953894E+01 -0.14631130082E+03  0.14965864531E+03  0.00000000000E+00 0. -1.
          5    1    4    4  502    0  0.17657373929E+02 -0.59043532181E+02  0.13328382786E+03  0.14691695040E+03  0.47000000000E+01 0. -1.
         -5    1    4    4    0  502 -0.18000308449E+03 -0.21756677580E+03  0.62094866934E+03  0.68215522597E+03  0.47000000000E+01 0. -1.
          1    1    1    2  503    0  0.23685845824E+01  0.47478602024E+02  0.26641168791E+04  0.26645409686E+04  0.00000000000E+00 0. -1.
         -2    1    1    2    0  501  0.16520435345E+03  0.17041739035E+03 -0.94604734903E+03  0.97536667564E+03  0.00000000000E+00 0.  1.
<mgrwt>
<rscale>  0 0.79954436E+02</rscale>
<asrwt>0</asrwt>
<pdfrwt beam="1">  1        2 0.51415814E+00 0.47537647E+02</pdfrwt>
<pdfrwt beam="2">  1       -1 0.20699772E+00 0.13447683E+03</pdfrwt>
<totfact> 0.32398088E-01</totfact>
</mgrwt>
</event>
<event>
13    1  0.1589573E-008  0.7750077E+02  0.7546771E-02  0.1367004E+00
          4   -1    0    0  503    0 -0.00000000000E+00  0.00000000000E+00  0.83554528113E+03  0.83554528113E+03  0.00000000000E+00 0. -1.
          2   -1    0    0  502    0  0.00000000000E+00 -0.00000000000E+00 -0.96614457374E+03  0.96614457374E+03  0.00000000000E+00 0. -1.
         24    2    1    2    0    0 -0.45669763216E+02 -0.39077122112E+02  0.13492141652E+03  0.16833527092E+03  0.80747916710E+02 0.  0.
         25    2    1    2    0    0 -0.81239568018E+02 -0.26977425378E+02 -0.14483503036E+03  0.20959383438E+03  0.12499896198E+03 0.  0.
         24    2    1    2    0    0  0.80357243131E+02 -0.37537560699E+02  0.15721026119E+03  0.19598868722E+03  0.76355381666E+02 0.  0.
        -13    1    3    3    0    0 -0.63324269323E+02 -0.30133275028E+02  0.13035942091E+03  0.14802552472E+03  0.00000000000E+00 0.  1.
         14    1    3    3    0    0  0.17654506107E+02 -0.89438470838E+01  0.45619956155E+01  0.20309746196E+02  0.00000000000E+00 0. -1.
        -13    1    5    5    0    0 -0.14987097224E+02 -0.89480008225E+01  0.21700084287E+02  0.27849119555E+02  0.00000000000E+00 0.  1.
         14    1    5    5    0    0  0.95344340355E+02 -0.28589559876E+02  0.13551017690E+03  0.16813956767E+03  0.00000000000E+00 0. -1.
          5    1    4    4  501    0 -0.78033226866E+02 -0.64890334576E+02 -0.13683861857E+03  0.17043132796E+03  0.47000000000E+01 0.  1.
         -5    1    4    4    0  501 -0.32063411517E+01  0.37912909198E+02 -0.79964117926E+01  0.39162506419E+02  0.47000000000E+01 0.  1.
          1    1    1    2  502    0 -0.69080954033E+01  0.77072222548E+02 -0.74895806851E+03  0.75294491011E+03  0.00000000000E+00 0. -1.
          3    1    1    2  503    0  0.53460183506E+02  0.26519885641E+02  0.47106212855E+03  0.47482715225E+03  0.00000000000E+00 0. -1.
<mgrwt>
<rscale>  0 0.68007220E+02</rscale>
<asrwt>0</asrwt>
<pdfrwt beam="2">  1        2 0.14208008E+00 0.77500773E+02</pdfrwt>
<pdfrwt beam="1">  1        4 0.12287431E+00 0.59676591E+02</pdfrwt>
<totfact> 0.82679584E+00</totfact>
</mgrwt>
</event>
<event>
13    1  0.1589573E-008  0.6541348E+02  0.7546771E-02  0.1449344E+00
          2   -1    0    0  502    0  0.00000000000E+00  0.00000000000E+00  0.23414957138E+04  0.23414957138E+04  0.00000000000E+00 0. -1.
          4   -1    0    0  503    0 -0.00000000000E+00 -0.00000000000E+00 -0.18484502023E+03  0.18484502023E+03  0.00000000000E+00 0. -1.
         24    2    1    2    0    0  0.46984719431E+02 -0.39439736233E+02 -0.30850905123E+02  0.10562221445E+03  0.80257193977E+02 0.  0.
         25    2    1    2    0    0 -0.79552503918E+02 -0.33983440745E+02  0.97527553820E+03  0.98705159584E+03  0.12500000925E+03 0.  0.
         24    2    1    2    0    0  0.79192299396E+01  0.56566882761E+02  0.21062631101E+03  0.23218674350E+03  0.79276191500E+02 0.  0.
        -11    1    3    3    0    0  0.25702082615E+02  0.16751863005E+02  0.10784743131E+02  0.32519727079E+02  0.00000000000E+00 0.  1.
         12    1    3    3    0    0  0.21282636815E+02 -0.56191599239E+02 -0.41635648254E+02  0.73102487374E+02  0.00000000000E+00 0. -1.
        -11    1    5    5    0    0 -0.24032366010E+02  0.16200411854E+02  0.14943500685E+03  0.15221967427E+03  0.00000000000E+00 0.  1.
         12    1    5    5    0    0  0.31951595950E+02  0.40366470907E+02  0.61191304152E+02  0.79967069229E+02  0.00000000000E+00 0. -1.
          5    1    4    4  501    0 -0.73925871822E+02  0.34307139386E+02  0.60200495866E+03  0.60751467026E+03  0.47000000000E+01 0. -1.
         -5    1    4    4    0  501 -0.56266320957E+01 -0.68290580131E+02  0.37327057954E+03  0.37953692557E+03  0.47000000000E+01 0. -1.
          1    1    1    2  502    0 -0.36266411155E+02 -0.78386534554E+01  0.10903825333E+04  0.10910136415E+04  0.00000000000E+00 0. -1.
          3    1    1    2  503    0  0.60914965702E+02  0.24694947673E+02 -0.88782783777E+02  0.11046653874E+03  0.00000000000E+00 0. -1.
<mgrwt>
<rscale>  0 0.49265537E+02</rscale>
<asrwt>0</asrwt>
<pdfrwt beam="1">  1        2 0.34433759E+00 0.37103869E+02</pdfrwt>
<pdfrwt beam="2">  1        4 0.27183093E-01 0.65413478E+02</pdfrwt>
<totfact> 0.42955736E+01</totfact>
</mgrwt>
</event>
<event>
13    1  0.1589573E-008  0.8947350E+02  0.7546771E-02  0.1321094E+00
          2   -1    0    0  502    0  0.00000000000E+00  0.00000000000E+00  0.27791993126E+04  0.27791993126E+04  0.00000000000E+00 0. -1.
          2   -1    0    0  503    0 -0.00000000000E+00 -0.00000000000E+00 -0.22329809308E+04  0.22329809308E+04  0.00000000000E+00 0. -1.
         24    2    1    2    0    0  0.43176557274E+02  0.94874295865E+02 -0.97460944317E+03  0.98368383341E+03  0.83096150772E+02 0.  0.
         25    2    1    2    0    0 -0.96676656220E+02  0.77314170525E+02 -0.22213955522E+03  0.28335065786E+03  0.12497102261E+03 0.  0.
         24    2    1    2    0    0  0.73330805572E+02 -0.12796795378E+02  0.14438443890E+04  0.14482264056E+04  0.84450797288E+02 0.  0.
        -11    1    5    5    0    0 -0.58090454193E+01 -0.12849126876E+02  0.70765715206E+03  0.70779763346E+03  0.00000000000E+00 0.  1.
         12    1    5    5    0    0  0.79139850991E+02  0.52331497941E-01  0.73618723692E+03  0.74042877210E+03  0.00000000000E+00 0. -1.
        -13    1    3    3    0    0 -0.16212498830E+02  0.30548085977E+02 -0.49078750847E+03  0.49200448082E+03  0.00000000000E+00 0.  1.
         14    1    3    3    0    0  0.59389056104E+02  0.64326209888E+02 -0.48382193470E+03  0.49167935258E+03  0.00000000000E+00 0. -1.
          5    1    4    4  501    0 -0.12452220624E+03  0.64915419061E+02 -0.15347663223E+03  0.20807921116E+03  0.47000000000E+01 0. -1.
         -5    1    4    4    0  501  0.27845550018E+02  0.12398751464E+02 -0.68662922994E+02  0.75271446696E+02  0.47000000000E+01 0. -1.
          1    1    1    2  502    0  0.10298779694E+02 -0.88795124197E+02  0.12950035947E+04  0.12980851086E+04  0.00000000000E+00 0. -1.
          1    1    1    2  503    0 -0.30129486320E+02 -0.70596546815E+02 -0.99588060348E+03  0.99883423787E+03  0.00000000000E+00 0. -1.
<mgrwt>
<rscale>  0 0.82871769E+02</rscale>
<asrwt>0</asrwt>
<pdfrwt beam="1">  1        2 0.40870578E+00 0.89473502E+02</pdfrwt>
<pdfrwt beam="2">  1        2 0.32837955E+00 0.76757139E+02</pdfrwt>
<totfact> 0.43583010E+00</totfact>
</mgrwt>
</event>
<event>
13    1  0.1589573E-008  0.9239720E+02  0.7546771E-02  0.1299115E+00
          2   -1    0    0  503    0  0.00000000000E+00  0.00000000000E+00  0.10858362799E+04  0.10858362799E+04  0.00000000000E+00 0. -1.
          2   -1    0    0  502    0 -0.00000000000E+00 -0.00000000000E+00 -0.92834950027E+03  0.92834950027E+03  0.00000000000E+00 0. -1.
         24    2    1    2    0    0  0.19408963485E+02  0.38983442023E+02 -0.33617208650E+03  0.34884618837E+03  0.82374600386E+02 0.  0.
         25    2    1    2    0    0  0.13148044475E+03 -0.11909554609E+03  0.16556206597E+02  0.21764790587E+03  0.12500258599E+03 0.  0.
         24    2    1    2    0    0 -0.13849957133E+02  0.55383052774E+02  0.20421638790E+02  0.97684135467E+02  0.76590098211E+02 0.  0.
        -11    1    3    3    0    0  0.24483796506E+02 -0.15152640216E+02 -0.51270307899E+02  0.58802238639E+02  0.00000000000E+00 0.  1.
         12    1    3    3    0    0 -0.50748330214E+01  0.54136082240E+02 -0.28490177860E+03  0.29004394974E+03  0.00000000000E+00 0. -1.
        -11    1    5    5    0    0 -0.44617081933E+02  0.24778210265E+02  0.36734286338E+01  0.51167741616E+02  0.00000000000E+00 0.  1.
         12    1    5    5    0    0  0.30767124800E+02  0.30604842508E+02  0.16748210156E+02  0.46516393851E+02  0.00000000000E+00 0. -1.
          5    1    4    4  501    0  0.15615533380E+03 -0.10281308092E+03  0.16053980393E+02  0.18770945146E+03  0.47000000000E+01 0.  1.
         -5    1    4    4    0  501 -0.24674889046E+02 -0.16282465165E+02  0.50222620332E+00  0.29938454410E+02  0.47000000000E+01 0.  1.
          1    1    1    2  502    0 -0.56938726435E+02  0.70642132408E+02 -0.43965978196E+03  0.44892432917E+03  0.00000000000E+00 0. -1.
          1    1    1    2  503    0 -0.80100724668E+02 -0.45913081116E+02  0.89634080269E+03  0.90108322129E+03  0.00000000000E+00 0. -1.
<mgrwt>
<rscale>  0 0.91560906E+02</rscale>
<asrwt>0</asrwt>
<pdfrwt beam="1">  1        2 0.15968181E+00 0.92397196E+02</pdfrwt>
<pdfrwt beam="2">  1        2 0.13652198E+00 0.90732185E+02</pdfrwt>
<totfact> 0.13347039E+02</totfact>
</mgrwt>
</event>
<event>
13    1  0.1589573E-008  0.2155945E+03  0.7546771E-02  0.1280177E+00
          2   -1    0    0  503    0  0.00000000000E+00  0.00000000000E+00  0.30895381297E+04  0.30895381297E+04  0.00000000000E+00 0. -1.
          2   -1    0    0  502    0 -0.00000000000E+00 -0.00000000000E+00 -0.25678385052E+04  0.25678385052E+04  0.00000000000E+00 0. -1.
         24    2    1    2    0    0 -0.99311433209E+02  0.10955584774E+03 -0.35426113150E+03  0.39179093242E+03  0.78319479660E+02 0.  0.
         25    2    1    2    0    0  0.65799511977E+03  0.41110383740E+03  0.13047968066E+04  0.15231815838E+04  0.12499395113E+03 0.  0.
         24    2    1    2    0    0 -0.37409299137E+03 -0.26027932165E+03  0.13705721793E+04  0.14465655396E+04  0.79955425028E+02 0.  0.
        -11    1    5    5    0    0 -0.11474923510E+03 -0.46622702340E+02  0.30218375038E+03  0.32658242807E+03  0.00000000000E+00 0.  1.
         12    1    5    5    0    0 -0.25934375628E+03 -0.21365661931E+03  0.10683884290E+04  0.11199831115E+04  0.00000000000E+00 0. -1.
        -11    1    3    3    0    0 -0.67443378769E+02  0.10285818613E+03 -0.32684621969E+03  0.34922323393E+03  0.00000000000E+00 0.  1.
         12    1    3    3    0    0 -0.31868054441E+02  0.66976616076E+01 -0.27414911815E+02  0.42567698489E+02  0.00000000000E+00 0. -1.
          5    1    4    4  501    0  0.10701758270E+03  0.48089815687E+02  0.28842562301E+03  0.31141102002E+03  0.47000000000E+01 0.  1.
         -5    1    4    4    0  501  0.55097753707E+03  0.36301402171E+03  0.10163711836E+04  0.12117705638E+04  0.47000000000E+01 0.  1.
          1    1    1    2  502    0 -0.13845250231E+03 -0.25513219345E+03 -0.20350584897E+04  0.20556567291E+04  0.00000000000E+00 0. -1.
          1    1    1    2  503    0 -0.46138192873E+02 -0.52481700438E+01  0.23565025971E+03  0.24018184992E+03  0.00000000000E+00 0. -1.
<mgrwt>
<rscale>  0 0.10005642E+03</rscale>
<asrwt>0</asrwt>
<pdfrwt beam="1">  1        2 0.45434384E+00 0.46435720E+02</pdfrwt>
<pdfrwt beam="2">  1        2 0.37762331E+00 0.21559453E+03</pdfrwt>
<totfact> 0.20121029E+00</totfact>
</mgrwt>
</event>
<event>
13    1  0.1589573E-008  0.9664445E+02  0.7546771E-02  0.1341615E+00
          2   -1    0    0  502    0  0.00000000000E+00  0.00000000000E+00  0.11870928254E+04  0.11870928254E+04  0.00000000000E+00 0. -1.
          2   -1    0    0  503    0 -0.00000000000E+00 -0.00000000000E+00 -0.22391555250E+04  0.22391555250E+04  0.00000000000E+00 0. -1.
         24    2    1    2    0    0  0.55633572113E+03 -0.63459594775E+02 -0.16138864252E+03  0.58871006678E+03  0.83646243316E+02 0.  0.
         25    2    1    2    0    0  0.32798762461E+03 -0.89474152865E+02  0.16577860657E+03  0.39835806435E+03  0.12500038044E+03 0.  0.
         24    2    1    2    0    0 -0.83785636942E+03  0.27448518687E+03  0.27293308265E+03  0.92703048953E+03  0.86877196812E+02 0.  0.
        -11    1    3    3    0    0  0.33063014659E+03  0.33821176919E+01 -0.88443257712E+02  0.34227173764E+03  0.00000000000E+00 0.  1.
         12    1    3    3    0    0  0.22570557454E+03 -0.66841712467E+02 -0.72945384807E+02  0.24643832914E+03  0.00000000000E+00 0. -1.
        -13    1    5    5    0    0 -0.37897707861E+03  0.78846439619E+02  0.11751890373E+03  0.40453810684E+03  0.00000000000E+00 0.  1.
         14    1    5    5    0    0 -0.45887929081E+03  0.19563874725E+03  0.15541417891E+03  0.52249238269E+03  0.00000000000E+00 0. -1.
          5    1    4    4  501    0  0.16077252421E+03 -0.10763943465E+03  0.98277298379E+02  0.21705890861E+03  0.47000000000E+01 0.  1.
         -5    1    4    4    0  501  0.16721510040E+03  0.18165281781E+02  0.67501308190E+02  0.18129915574E+03  0.47000000000E+01 0.  1.
          1    1    1    2  502    0  0.23206397314E+02 -0.54621498790E+02  0.79915047968E+02  0.99541247220E+02  0.00000000000E+00 0. -1.
          1    1    1    2  503    0 -0.69673373637E+02 -0.66929940436E+02 -0.14093007943E+04  0.14126084824E+04  0.00000000000E+00 0. -1.
<mgrwt>
<rscale>  0 0.75733353E+02</rscale>
<asrwt>0</asrwt>
<pdfrwt beam="1">  1        2 0.17457247E+00 0.59346820E+02</pdfrwt>
<pdfrwt beam="2">  1        2 0.32928758E+00 0.96644450E+02</pdfrwt>
<totfact> 0.26227201E+01</totfact>
</mgrwt>
</event>
<event>
13    1  0.1589573E-008  0.7010404E+02  0.7546771E-02  0.1360581E+00
          2   -1    0    0  503    0  0.00000000000E+00  0.00000000000E+00  0.32659607121E+04  0.32659607121E+04  0.00000000000E+00 0. -1.
          2   -1    0    0  502    0 -0.00000000000E+00 -0.00000000000E+00 -0.32603564249E+04  0.32603564249E+04  0.00000000000E+00 0. -1.
         24    2    1    2    0    0 -0.16235774338E+03  0.77896295830E+03  0.83026143820E+03  0.11540206499E+04  0.96365333108E+02 0.  0.
         25    2    1    2    0    0 -0.11830390989E+03 -0.14025390731E+03 -0.27317718229E+03  0.35202171721E+03  0.12500617129E+03 0.  0.
         24    2    1    2    0    0  0.32067760031E+03 -0.57263590687E+03  0.17463971181E+03  0.68413220880E+03  0.82412650761E+02 0.  0.
        -13    1    3    3    0    0  0.55812177288E+00  0.12127036801E+03  0.16188053300E+03  0.20226744825E+03  0.00000000000E+00 0.  1.
         14    1    3    3    0    0 -0.16291586515E+03  0.65769259029E+03  0.66838090520E+03  0.95175320166E+03  0.00000000000E+00 0. -1.
        -13    1    5    5    0    0  0.20005148652E+03 -0.35060660948E+03  0.65739175102E+02  0.40898316715E+03  0.00000000000E+00 0.  1.
         14    1    5    5    0    0  0.12062611379E+03 -0.22202929739E+03  0.10890053671E+03  0.27514904165E+03  0.00000000000E+00 0. -1.
          5    1    4    4  501    0 -0.12108004713E+03 -0.62992583566E+02 -0.12651081607E+03  0.18615993119E+03  0.47000000000E+01 0.  1.
         -5    1    4    4    0  501  0.27761372473E+01 -0.77261323740E+02 -0.14666636621E+03  0.16586178602E+03  0.47000000000E+01 0.  1.
          1    1    1    2  502    0  0.29549823861E+02 -0.63581798345E+02 -0.25299741418E+04  0.25309454746E+04  0.00000000000E+00 0. -1.
          1    1    1    2  503    0 -0.69565770903E+02 -0.24913457838E+01  0.18038544613E+04  0.18051970864E+04  0.00000000000E+00 0. -1.
<mgrwt>
<rscale>  0 0.69856769E+02</rscale>
<asrwt>0</asrwt>
<pdfrwt beam="1">  1        2 0.48028834E+00 0.69610368E+02</pdfrwt>
<pdfrwt beam="2">  1        2 0.47946418E+00 0.70104042E+02</pdfrwt>
<totfact> 0.76122785E-01</totfact>
</mgrwt>
</event>
<event>
13    1  0.1589573E-008  0.1738627E+03  0.7546771E-02  0.1248123E+00
         -1   -1    0    0    0  501  0.00000000000E+00  0.00000000000E+00  0.20436066507E+04  0.20436066507E+04  0.00000000000E+00 0.  1.
         -1   -1    0    0    0  502 -0.00000000000E+00 -0.00000000000E+00 -0.38973441591E+03  0.38973441591E+03  0.00000000000E+00 0.  1.
         24    2    1    2    0    0 -0.29142568717E+02 -0.72219900959E+02 -0.16469723429E+03  0.19890097976E+03  0.79821158606E+02 0.  0.
         25    2    1    2    0    0  0.12809117065E+03 -0.22224954047E+03  0.93404624986E+03  0.97666291994E+03  0.12500342429E+03 0.  0.
         24    2    1    2    0    0 -0.14427279947E+03  0.60421007012E+02  0.12143438551E+03  0.21280768547E+03  0.77945251658E+02 0.  0.
        -11    1    5    5    0    0 -0.11935065305E+03  0.79433998502E+02  0.97776857850E+02  0.17353573820E+03  0.00000000000E+00 0.  1.
         12    1    5    5    0    0 -0.24922146430E+02 -0.19012991489E+02  0.23657527660E+02  0.39271947278E+02  0.00000000000E+00 0. -1.
        -11    1    3    3    0    0 -0.56423154640E+02 -0.39999317847E+02 -0.10700776486E+03  0.12741341981E+03  0.00000000000E+00 0.  1.
         12    1    3    3    0    0  0.27280585924E+02 -0.32220583112E+02 -0.57689469428E+02  0.71487559948E+02  0.00000000000E+00 0. -1.
          5    1    4    4  503    0  0.12030788182E+03 -0.22139013155E+03  0.72746435278E+03  0.76987924465E+03  0.47000000000E+01 0. -1.
         -5    1    4    4    0  503  0.77832888261E+01 -0.85940892395E+00  0.20658189707E+03  0.20678367529E+03  0.47000000000E+01 0. -1.
         -2    1    1    2    0  501  0.73218840729E+02  0.16041538845E+03  0.88359544178E+03  0.90101886785E+03  0.00000000000E+00 0.  1.
         -2    1    1    2    0  502 -0.27894643187E+02  0.73633045973E+02 -0.12050660804E+03  0.14395061361E+03  0.00000000000E+00 0.  1.
<mgrwt>
<rscale>  0 0.11700382E+03</rscale>
<asrwt>0</asrwt>
<pdfrwt beam="1">  1       -1 0.30053038E+00 0.17386272E+03</pdfrwt>
<pdfrwt beam="2">  1       -1 0.57313886E-01 0.78739676E+02</pdfrwt>
<totfact> 0.11155192E+00</totfact>
</mgrwt>
</event>
<event>
13    1  0.1589573E-008  0.7369835E+02  0.7546771E-02  0.1485871E+00
          2   -1    0    0  502    0  0.00000000000E+00  0.00000000000E+00  0.27262665640E+04  0.27262665640E+04  0.00000000000E+00 0. -1.
          2   -1    0    0  503    0 -0.00000000000E+00 -0.00000000000E+00 -0.10968238696E+04  0.10968238696E+04  0.00000000000E+00 0. -1.
         24    2    1    2    0    0  0.62400153004E+02  0.87071312056E+01  0.37390682006E+03  0.38766103349E+03  0.80654656226E+02 0.  0.
         25    2    1    2    0    0 -0.55620211611E+02 -0.11149871807E+02  0.13038656053E+03  0.18932123429E+03  0.12499578796E+03 0.  0.
         24    2    1    2    0    0  0.43415529372E+02  0.45162984104E+01  0.65043584242E+02  0.11179763218E+03  0.79766769825E+02 0.  0.
        -11    1    3    3    0    0  0.81351824582E+02 -0.31849097741E+00  0.29606848917E+03  0.30704196957E+03  0.00000000000E+00 0.  1.
         12    1    3    3    0    0 -0.18951671577E+02  0.90256221831E+01  0.77838330893E+02  0.80619063922E+02  0.00000000000E+00 0. -1.
        -13    1    5    5    0    0  0.12425487941E+02  0.23493712836E+02  0.70229764744E+02  0.75090393190E+02  0.00000000000E+00 0.  1.
         14    1    5    5    0    0  0.30990041432E+02 -0.18977414426E+02 -0.51861805019E+01  0.36707238992E+02  0.00000000000E+00 0. -1.
          5    1    4    4  501    0  0.28304885567E-01  0.42946129358E+02  0.94050414454E+02  0.10349850862E+03  0.47000000000E+01 0. -1.
         -5    1    4    4    0  501 -0.55648516497E+02 -0.54096001165E+02  0.36336146071E+02  0.85822725671E+02  0.47000000000E+01 0. -1.
          1    1    1    2  502    0 -0.72670474293E+02 -0.13752318221E+02  0.20964012718E+04  0.20977055123E+04  0.00000000000E+00 0. -1.
          1    1    1    2  503    0  0.22475003528E+02  0.11678760412E+02 -0.10362955423E+04  0.10366050213E+04  0.00000000000E+00 0. -1.
<mgrwt>
<rscale>  0 0.43204729E+02</rscale>
<asrwt>0</asrwt>
<pdfrwt beam="1">  1        2 0.40092155E+00 0.73698345E+02</pdfrwt>
<pdfrwt beam="2">  1        2 0.16129763E+00 0.25328230E+02</pdfrwt>
<totfact> 0.18311055E+01</totfact>
</mgrwt>
</event>
<event>
13    1  0.1589573E-008  0.9220001E+02  0.7546771E-02  0.1479879E+00
          2   -1    0    0  502    0  0.00000000000E+00  0.00000000000E+00  0.35339029525E+04  0.35339029525E+04  0.00000000000E+00 0. -1.
          2   -1    0    0  503    0 -0.00000000000E+00 -0.00000000000E+00 -0.13372848444E+04  0.13372848444E+04  0.00000000000E+00 0. -1.
         24    2    1    2    0    0 -0.17754207810E+03  0.92125352828E+03 -0.13043386336E+03  0.95033900461E+03  0.76824332825E+02 0.  0.
         25    2    1    2    0    0 -0.13469654952E+03  0.12929414855E+02  0.62466371656E+01  0.18432233011E+03  0.12500148272E+03 0.  0.
         24    2    1    2    0    0  0.21939207539E+03 -0.93776034315E+03  0.95089472435E+03  0.13558186348E+04  0.80722052341E+02 0.  0.
        -11    1    3    3    0    0 -0.43618143367E+02  0.10120909808E+03 -0.85547553167E+01  0.11053962097E+03  0.00000000000E+00 0.  1.
         12    1    3    3    0    0 -0.13392393473E+03  0.82004443019E+03 -0.12187910804E+03  0.83979938364E+03  0.00000000000E+00 0. -1.
        -13    1    5    5    0    0  0.12224620195E+03 -0.47540121517E+03  0.53904726321E+03  0.72905582863E+03  0.00000000000E+00 0.  1.
         14    1    5    5    0    0  0.97145873435E+02 -0.46235912798E+03  0.41184746114E+03  0.62676280617E+03  0.00000000000E+00 0. -1.
          5    1    4    4  501    0 -0.72957418544E+02 -0.50655404391E+02  0.27432209554E+02  0.93077231564E+02  0.47000000000E+01 0. -1.
         -5    1    4    4    0  501 -0.61739130971E+02  0.63584819246E+02 -0.21185572388E+02  0.91245098548E+02  0.47000000000E+01 0. -1.
          1    1    1    2  502    0  0.88934548628E+02  0.24329271461E+02  0.18739546836E+04  0.18762215817E+04  0.00000000000E+00 0. -1.
          1    1    1    2  503    0  0.39120036002E+01 -0.20751871444E+02 -0.50404407366E+03  0.50448624573E+03  0.00000000000E+00 0. -1.
<mgrwt>
<rscale>  0 0.44125084E+02</rscale>
<asrwt>0</asrwt>
<pdfrwt beam="1">  1        2 0.51969161E+00 0.92200006E+02</pdfrwt>
<pdfrwt beam="2">  1        2 0.19665954E+00 0.21117385E+02</pdfrwt>
<totfact> 0.49697339E+00</totfact>
</mgrwt>
</event>
<event>
13    1  0.1589573E-008  0.1317606E+03  0.7546771E-02  0.1336295E+00
          2   -1    0    0  503    0  0.00000000000E+00  0.00000000000E+00  0.16435935364E+04  0.16435935364E+04  0.00000000000E+00 0. -1.
          2   -1    0    0  502    0 -0.00000000000E+00 -0.00000000000E+00 -0.67957766787E+03  0.67957766787E+03  0.00000000000E+00 0. -1.
         24    2    1    2    0    0  0.37993914071E+03  0.11814015288E+03  0.46373028301E+03  0.61623143853E+03  0.79903467341E+02 0.  0.
         25    2    1    2    0    0 -0.23776735692E+03 -0.13142438851E+03 -0.72920861735E+02  0.30781351186E+03  0.12500408032E+03 0.  0.
         24    2    1    2    0    0 -0.13959047640E+03 -0.92981954314E+02  0.15617095256E+03  0.24218096321E+03  0.78301389411E+02 0.  0.
        -11    1    5    5    0    0 -0.12801276248E+03 -0.10637734384E+03  0.13320822789E+03  0.21318498685E+03  0.00000000000E+00 0.  1.
         12    1    5    5    0    0 -0.11577713921E+02  0.13395389529E+02  0.22962724671E+02  0.28995976351E+02  0.00000000000E+00 0. -1.
        -11    1    3    3    0    0  0.30979755430E+03  0.87509734984E+02  0.41607039143E+03  0.52606753273E+03  0.00000000000E+00 0.  1.
         12    1    3    3    0    0  0.70141586406E+02  0.30630417897E+02  0.47659891573E+02  0.90163905798E+02  0.00000000000E+00 0. -1.
          5    1    4    4  501    0 -0.22982864124E+03 -0.76860484111E+02 -0.70465530042E+02  0.25242071880E+03  0.47000000000E+01 0. -1.
         -5    1    4    4    0  501 -0.79387156787E+01 -0.54563904401E+02 -0.24553316936E+01  0.55392793068E+02  0.47000000000E+01 0. -1.
          1    1    1    2  502    0 -0.40757540476E+02 -0.20419439006E+02 -0.36295774628E+03  0.36580931670E+03  0.00000000000E+00 0. -1.
          1    1    1    2  503    0  0.38176233095E+02  0.12668562895E+03  0.77999324102E+03  0.79113597402E+03  0.00000000000E+00 0. -1.
<mgrwt>
<rscale>  0 0.77501669E+02</rscale>
<asrwt>0</asrwt>
<pdfrwt beam="1">  1        2 0.24170493E+00 0.13176064E+03</pdfrwt>
<pdfrwt beam="2">  1        2 0.99937893E-01 0.45586518E+02</pdfrwt>
<totfact> 0.99695010E+01</totfact>
</mgrwt>
</event>
<event>
13    1  0.1589573E-008  0.1445697E+03  0.7546771E-02  0.1299809E+00
          2   -1    0    0  502    0  0.00000000000E+00  0.00000000000E+00  0.17651525404E+04  0.17651525404E+04  0.00000000000E+00 0. -1.
          2   -1    0    0  503    0 -0.00000000000E+00 -0.00000000000E+00 -0.35296376207E+04  0.35296376207E+04  0.00000000000E+00 0. -1.
         24    2    1    2    0    0 -0.37900536304E+02 -0.98120497472E+01 -0.26605720845E+03  0.28065131448E+03  0.80286955224E+02 0.  0.
         25    2    1    2    0    0 -0.19969186252E+03 -0.40515620292E+03  0.46100564355E+03  0.65740359334E+03  0.12499956969E+03 0.  0.
         24    2    1    2    0    0  0.25341670871E+03  0.14347586602E+03 -0.91114428563E+02  0.31561629294E+03  0.80662586705E+02 0.  0.
        -11    1    3    3    0    0 -0.62877572055E+02 -0.63533973146E+01 -0.20710745821E+03  0.21653511025E+03  0.00000000000E+00 0.  1.
         12    1    3    3    0    0  0.24977035751E+02 -0.34586524326E+01 -0.58949750243E+02  0.64116204233E+02  0.00000000000E+00 0. -1.
        -11    1    5    5    0    0  0.19405096245E+03  0.76717521919E+02 -0.39277503055E+02  0.21233011196E+03  0.00000000000E+00 0.  1.
         12    1    5    5    0    0  0.59365746259E+02  0.66758344105E+02 -0.51836925508E+02  0.10328618099E+03  0.00000000000E+00 0. -1.
          5    1    4    4  501    0 -0.19188756452E+03 -0.41050070413E+03  0.43021198561E+03  0.62484886818E+03  0.47000000000E+01 0.  1.
         -5    1    4    4    0  501 -0.78042980056E+01  0.53445012089E+01  0.30793657936E+02  0.32554725150E+02  0.47000000000E+01 0.  1.
          1    1    1    2  502    0 -0.49433255985E+02  0.29601865669E+02  0.10805848727E+04  0.10821199491E+04  0.00000000000E+00 0. -1.
          1    1    1    2  503    0  0.33608946103E+02  0.24189052098E+03 -0.29489039596E+04  0.29589990112E+04  0.00000000000E+00 0. -1.
<mgrwt>
<rscale>  0 0.91268409E+02</rscale>
<asrwt>0</asrwt>
<pdfrwt beam="1">  1        2 0.25958126E+00 0.57618723E+02</pdfrwt>
<pdfrwt beam="2">  1        2 0.51906435E+00 0.14456972E+03</pdfrwt>
<totfact> 0.26683056E+00</totfact>
</mgrwt>
</event>
<event>
13    1  0.1589573E-008  0.6165040E+02  0.7546771E-02  0.1447015E+00
          2   -1    0    0  503    0  0.00000000000E+00  0.00000000000E+00  0.24858504684E+04  0.24858504684E+04  0.00000000000E+00 0. -1.
          2   -1    0    0  502    0 -0.00000000000E+00 -0.00000000000E+00 -0.51393198269E+03  0.51393198269E+03  0.00000000000E+00 0. -1.
         24    2    1    2    0    0 -0.18435972259E+03 -0.51795017123E+02 -0.65475528514E+02  0.21778139466E+03  0.80439169040E+02 0.  0.
         25    2    1    2    0    0  0.19709147720E+02  0.27018075139E+02 -0.45791073903E+02  0.13725875353E+03  0.12499886433E+03 0.  0.
         24    2    1    2    0    0  0.84460530250E+02 -0.31494162615E+02  0.16718630960E+03  0.19968552251E+03  0.61624527035E+02 0.  0.
        -13    1    3    3    0    0 -0.13698529543E+03 -0.56056781191E+02 -0.15552241557E+02  0.14882609347E+03  0.00000000000E+00 0.  1.
         14    1    3    3    0    0 -0.47374427162E+02  0.42617640676E+01 -0.49923286957E+02  0.68955301192E+02  0.00000000000E+00 0. -1.
        -13    1    5    5    0    0  0.59174756008E+02 -0.43072656251E+02  0.81219156488E+02  0.10933186565E+03  0.00000000000E+00 0.  1.
         14    1    5    5    0    0  0.25285774243E+02  0.11578493636E+02  0.85967153112E+02  0.90353656860E+02  0.00000000000E+00 0. -1.
          5    1    4    4  501    0 -0.31875705263E+02  0.38738102672E+02 -0.63694415840E+02  0.81214344754E+02  0.47000000000E+01 0.  1.
         -5    1    4    4    0  501  0.51584852983E+02 -0.11720027534E+02  0.17903341937E+02  0.56044408777E+02  0.47000000000E+01 0.  1.
          1    1    1    2  502    0  0.41833947404E+02  0.44741062519E+02 -0.26079653910E+03  0.26789303208E+03  0.00000000000E+00 0. -1.
          1    1    1    2  503    0  0.38356097215E+02  0.11530042081E+02  0.21767953176E+04  0.21771637483E+04  0.00000000000E+00 0. -1.
<mgrwt>
<rscale>  0 0.49691029E+02</rscale>
<asrwt>0</asrwt>
<pdfrwt beam="1">  1        2 0.36556624E+00 0.40051617E+02</pdfrwt>
<pdfrwt beam="2">  1        2 0.75578234E-01 0.61650403E+02</pdfrwt>
<totfact> 0.60635782E+01</totfact>
</mgrwt>
</event>
<event>
13    1  0.1589573E-008  0.1704779E+03  0.7546771E-02  0.1217908E+00
          2   -1    0    0  503    0  0.00000000000E+00  0.00000000000E+00  0.12292172925E+04  0.12292172925E+04  0.00000000000E+00 0. -1.
          2   -1    0    0  502    0 -0.00000000000E+00 -0.00000000000E+00 -0.14685309946E+04  0.14685309946E+04  0.00000000000E+00 0. -1.
         24    2    1    2    0    0  0.81955702127E+02 -0.43693286323E+02  0.70997099763E+01  0.12323188034E+03  0.80683641895E+02 0.  0.
         25    2    1    2    0    0 -0.16553168479E+03 -0.11003907545E+03 -0.32387675097E+03  0.40003969826E+03  0.12500509417E+03 0.  0.
         24    2    1    2    0    0 -0.18068124373E+03  0.10753157043E+03  0.84227741662E+03  0.87176120789E+03  0.79546254199E+02 0.  0.
        -11    1    5    5    0    0 -0.13735642185E+03  0.38153934271E+02  0.56132963397E+03  0.57914891634E+03  0.00000000000E+00 0.  1.
         12    1    5    5    0    0 -0.43324821878E+02  0.69377636161E+02  0.28094778265E+03  0.29261229155E+03  0.00000000000E+00 0. -1.
        -13    1    3    3    0    0  0.23923788965E+02  0.17018903377E+02  0.23564895700E+02  0.37646979427E+02  0.00000000000E+00 0.  1.
         14    1    3    3    0    0  0.58031913162E+02 -0.60712189700E+02 -0.16465185724E+02  0.85584900913E+02  0.00000000000E+00 0. -1.
          5    1    4    4  501    0 -0.36601429927E+02  0.20440406196E+02 -0.11238751396E+03  0.12004381772E+03  0.47000000000E+01 0. -1.
         -5    1    4    4    0  501 -0.12893025486E+03 -0.13047948164E+03 -0.21148923701E+03  0.27999588054E+03  0.47000000000E+01 0. -1.
          1    1    1    2  502    0  0.10931425889E+03  0.69564180225E+01 -0.10067817140E+04  0.10127227748E+04  0.00000000000E+00 0. -1.
          1    1    1    2  503    0  0.15494296750E+03  0.39244373316E+02  0.24196763634E+03  0.28999272585E+03  0.00000000000E+00 0. -1.
<mgrwt>
<rscale>  0 0.13665051E+03</rscale>
<asrwt>0</asrwt>
<pdfrwt beam="1">  1        2 0.18076725E+00 0.17047791E+03</pdfrwt>
<pdfrwt beam="2">  1        2 0.21596044E+00 0.10953538E+03</pdfrwt>
<totfact> 0.54677649E+01</totfact>
</mgrwt>
</event>
<event>
13    1  0.1589573E-008  0.8484778E+02  0.7546771E-02  0.1432096E+00
          2   -1    0    0  502    0  0.00000000000E+00  0.00000000000E+00  0.13289146671E+04  0.13289146671E+04  0.00000000000E+00 0. -1.
          2   -1    0    0  503    0 -0.00000000000E+00 -0.00000000000E+00 -0.19715229431E+04  0.19715229431E+04  0.00000000000E+00 0. -1.
         24    2    1    2    0    0  0.34217971969E+03  0.28619875063E+02 -0.14196657226E+04  0.14646196647E+04  0.10841559205E+03 0.  0.
         25    2    1    2    0    0 -0.86848641674E+02 -0.17018663653E+02  0.38694256659E+02  0.15796838135E+03  0.12499777012E+03 0.  0.
         24    2    1    2    0    0 -0.30730850370E+03 -0.11351427585E+03 -0.33182332247E+02  0.33928450985E+03  0.81785721144E+02 0.  0.
        -11    1    3    3    0    0  0.32626592591E+03  0.53344832125E+02 -0.13119859139E+04  0.13529974736E+04  0.00000000000E+00 0.  1.
         12    1    3    3    0    0  0.15913793781E+02 -0.24724957062E+02 -0.10767980872E+03  0.11162219108E+03  0.00000000000E+00 0. -1.
        -11    1    5    5    0    0 -0.19401294877E+03 -0.89968849051E+02 -0.56601896024E+02  0.22122204394E+03  0.00000000000E+00 0.  1.
         12    1    5    5    0    0 -0.11329555494E+03 -0.23545426798E+02  0.23419563777E+02  0.11806246592E+03  0.00000000000E+00 0. -1.
          5    1    4    4  501    0 -0.76527092231E+02  0.24846069970E+01 -0.32479728222E+02  0.83304212754E+02  0.47000000000E+01 0.  1.
         -5    1    4    4    0  501 -0.10321549444E+02 -0.19503270650E+02  0.71173984881E+02  0.74664168600E+02  0.47000000000E+01 0.  1.
          1    1    1    2  502    0  0.48020046998E+01  0.32179676339E+02  0.10485469262E+04  0.10490515942E+04  0.00000000000E+00 0. -1.
          1    1    1    2  503    0  0.47175420987E+02  0.69733388100E+02 -0.27700140396E+03  0.28951346007E+03  0.00000000000E+00 0. -1.
<mgrwt>
<rscale>  0 0.52541478E+02</rscale>
<asrwt>0</asrwt>
<pdfrwt beam="1">  1        2 0.19542863E+00 0.32535993E+02</pdfrwt>
<pdfrwt beam="2">  1        2 0.28992984E+00 0.84847784E+02</pdfrwt>
<totfact> 0.31677052E+01</totfact>
</mgrwt>
</event>
<event>
13    1  0.1589573E-008  0.2373832E+03  0.7546771E-02  0.1288992E+00
         -3   -1    0    0    0  501 -0.00000000000E+00  0.00000000000E+00  0.53085267277E+03  0.53085267277E+03  0.00000000000E+00 0.  1.
          2   -1    0    0  503    0  0.00000000000E+00 -0.00000000000E+00 -0.24438964893E+04  0.24438964893E+04  0.00000000000E+00 0. -1.
         24    2    1    2    0    0 -0.87122919374E+02 -0.18043487623E+03  0.10186393478E+03  0.23931117111E+03  0.82136640851E+02 0.  0.
         25    2    1    2    0    0  0.33988605961E+03 -0.11642539879E+03 -0.10806949230E+01  0.38039700929E+03  0.12499323892E+03 0.  0.
         24    2    1    2    0    0 -0.62195330229E+02  0.11617814041E+03 -0.30117609883E+02  0.15765457865E+03  0.81131229089E+02 0.  0.
        -11    1    3    3    0    0 -0.56608196224E+02 -0.17516264696E+03  0.96636043785E+02  0.20790614644E+03  0.00000000000E+00 0.  1.
         12    1    3    3    0    0 -0.30514723151E+02 -0.52722292731E+01  0.52278909918E+01  0.31405024673E+02  0.00000000000E+00 0. -1.
        -11    1    5    5    0    0 -0.68230611511E+01  0.48472192747E+00  0.19089286344E+02  0.20277819703E+02  0.00000000000E+00 0.  1.
         12    1    5    5    0    0 -0.55372269078E+02  0.11569341848E+03 -0.49206896226E+02  0.13737675895E+03  0.00000000000E+00 0. -1.
          5    1    4    4  502    0  0.15563932379E+03 -0.10916397216E+03 -0.33579176332E+02  0.19310624798E+03  0.47000000000E+01 0.  1.
         -5    1    4    4    0  502  0.18424673582E+03 -0.72614266284E+01  0.32498481409E+02  0.18729076131E+03  0.47000000000E+01 0.  1.
          1    1    1    2  503    0 -0.15179317812E+03  0.17916405155E+03 -0.20801862729E+04  0.20933981600E+04  0.00000000000E+00 0. -1.
         -4    1    1    2    0  501 -0.38774631889E+02  0.15180830584E+01  0.96476826398E+02  0.10398824302E+03  0.00000000000E+00 0.  1.
<mgrwt>
<rscale>  0 0.95976543E+02</rscale>
<asrwt>0</asrwt>
<pdfrwt beam="2">  1        2 0.35939654E+00 0.23738317E+03</pdfrwt>
<pdfrwt beam="1">  1       -3 0.78066571E-01 0.38804338E+02</pdfrwt>
<totfact> 0.46116642E+00</totfact>
</mgrwt>
</event>
<event>
13    1  0.1589573E-008  0.1114582E+03  0.7546771E-02  0.1435720E+00
          2   -1    0    0  502    0  0.00000000000E+00  0.00000000000E+00  0.15503085052E+04  0.15503085052E+04  0.00000000000E+00 0. -1.
          2   -1    0    0  503    0 -0.00000000000E+00 -0.00000000000E+00 -0.40616331208E+03  0.40616331208E+03  0.00000000000E+00 0. -1.
         24    2    1    2    0    0 -0.18300479873E+03 -0.18157459794E+03 -0.23325487058E+03  0.35682593641E+03  0.80354360584E+02 0.  0.
         25    2    1    2    0    0  0.19255304716E+03  0.20068787513E+03  0.20675862819E+03  0.36841448463E+03  0.12501121134E+03 0.  0.
         24    2    1    2    0    0  0.10518773434E+03  0.65582832583E+02  0.65541668280E+03  0.67185032532E+03  0.80288630316E+02 0.  0.
        -11    1    3    3    0    0 -0.19937418902E+02 -0.57670810414E+02 -0.28929502866E+02  0.67530283446E+02  0.00000000000E+00 0.  1.
         12    1    3    3    0    0 -0.16306737983E+03 -0.12390378752E+03 -0.20432536772E+03  0.28929565296E+03  0.00000000000E+00 0. -1.
        -13    1    5    5    0    0  0.18437857931E+02  0.35103079140E+02  0.36689606229E+03  0.36903238516E+03  0.00000000000E+00 0.  1.
         14    1    5    5    0    0  0.86749876410E+02  0.30479753443E+02  0.28852062051E+03  0.30281794017E+03  0.00000000000E+00 0. -1.
          5    1    4    4  501    0  0.12657519851E+03  0.11664787656E+03  0.19604887848E+03  0.26093152500E+03  0.47000000000E+01 0.  1.
         -5    1    4    4    0  501  0.65977848650E+02  0.84039998573E+02  0.10709749705E+02  0.10748295963E+03  0.47000000000E+01 0.  1.
          1    1    1    2  502    0 -0.13748310963E+03 -0.76732969015E+02  0.51126241469E+03  0.53495683063E+03  0.00000000000E+00 0. -1.
          1    1    1    2  503    0  0.22747126856E+02 -0.79631407602E+01  0.39623380343E+01  0.24424240288E+02  0.00000000000E+00 0. -1.
<mgrwt>
<rscale>  0 0.51828749E+02</rscale>
<asrwt>0</asrwt>
<pdfrwt beam="1">  1        2 0.22798654E+00 0.11145817E+03</pdfrwt>
<pdfrwt beam="2">  1        2 0.59729899E-01 0.24100693E+02</pdfrwt>
<totfact> 0.19277851E+02</totfact>
</mgrwt>
</event>
<event>
13    1  0.1589573E-008  0.1188796E+03  0.7546771E-02  0.1265689E+00
          2   -1    0    0  503    0  0.00000000000E+00  0.00000000000E+00  0.18387048514E+04  0.18387048514E+04  0.00000000000E+00 0. -1.
          2   -1    0    0  502    0 -0.00000000000E+00 -0.00000000000E+00 -0.33180340792E+03  0.33180340792E+03  0.00000000000E+00 0. -1.
         24    2    1    2    0    0 -0.66267682138E+02 -0.99028896406E+02  0.15257420932E+03  0.20147829657E+03  0.55825501521E+02 0.  0.
         25    2    1    2    0    0  0.60070135778E+02  0.93945213573E+02  0.34487639247E+03  0.38340452642E+03  0.12500072174E+03 0.  0.
         24    2    1    2    0    0 -0.52514529830E+02  0.27778060585E+02  0.37942536570E+02  0.10678353260E+03  0.80210287748E+02 0.  0.
        -11    1    5    5    0    0  0.22607638800E+01  0.15056528791E+02 -0.20595150741E+02  0.25611918057E+02  0.00000000000E+00 0.  1.
         12    1    5    5    0    0 -0.54775293710E+02  0.12721531794E+02  0.58537687311E+02  0.81171614546E+02  0.00000000000E+00 0. -1.
        -11    1    3    3    0    0 -0.24393713656E+02 -0.49914018648E+02  0.11260008820E+03  0.12555971642E+03  0.00000000000E+00 0.  1.
         12    1    3    3    0    0 -0.41873968482E+02 -0.49114877758E+02  0.39974121122E+02  0.75918580157E+02  0.00000000000E+00 0. -1.
          5    1    4    4  501    0  0.69247123629E+02  0.11616176872E+03  0.23820088492E+03  0.27395341250E+03  0.47000000000E+01 0.  1.
         -5    1    4    4    0  501 -0.91769878508E+01 -0.22216555151E+02  0.10667550755E+03  0.10945111392E+03  0.47000000000E+01 0.  1.
          1    1    1    2  502    0 -0.12911394501E+02 -0.16060528910E+03 -0.22252816679E+03  0.27473541455E+03  0.00000000000E+00 0. -1.
          1    1    1    2  503    0  0.71623470692E+02  0.13791091135E+03  0.11940364719E+04  0.12041064892E+04  0.00000000000E+00 0. -1.
<mgrwt>
<rscale>  0 0.10728150E+03</rscale>
<asrwt>0</asrwt>
<pdfrwt beam="1">  1        2 0.27039777E+00 0.96814907E+02</pdfrwt>
<pdfrwt beam="2">  1        2 0.48794620E-01 0.11887964E+03</pdfrwt>
<totfact> 0.17504535E+02</totfact>
</mgrwt>
</event>
<event>
13    1  0.1589573E-008  0.1393983E+03  0.7546771E-02  0.1340176E+00
          2   -1    0    0  503    0  0.00000000000E+00  0.00000000000E+00  0.43210441456E+04  0.43210441456E+04  0.00000000000E+00 0. -1.
         -1   -1    0    0    0  501 -0.00000000000E+00 -0.00000000000E+00 -0.10163476292E+04  0.10163476292E+04  0.00000000000E+00 0.  1.
         24    2    1    2    0    0  0.10794748166E+03  0.59997765720E+03 -0.43225243338E+02  0.61622233781E+03  0.78966448729E+02 0.  0.
         25    2    1    2    0    0  0.15759701527E+03 -0.34388835612E+03 -0.22283207109E+03  0.45648214316E+03  0.12500317766E+03 0.  0.
         24    2    1    2    0    0 -0.38236710565E+03 -0.33487116068E+03  0.14630088285E+04  0.15499815648E+04  0.60866421170E+02 0.  0.
        -13    1    5    5    0    0 -0.23312964925E+03 -0.22314149795E+03  0.84760564274E+03  0.90696024559E+03  0.00000000000E+00 0.  1.
         14    1    5    5    0    0 -0.14923745640E+03 -0.11172966272E+03  0.61540318576E+03  0.64302131922E+03  0.00000000000E+00 0. -1.
        -13    1    3    3    0    0  0.59677905853E+02  0.41826641074E+03  0.33926111873E+01  0.42251597912E+03  0.00000000000E+00 0.  1.
         14    1    3    3    0    0  0.48269575810E+02  0.18171124646E+03 -0.46617854526E+02  0.19370635870E+03  0.00000000000E+00 0. -1.
          5    1    4    4  502    0 -0.11678806024E+02 -0.27654300520E+01 -0.23075048369E+02  0.26430852631E+02  0.47000000000E+01 0. -1.
         -5    1    4    4    0  502  0.16927582130E+03 -0.34112292606E+03 -0.19975702272E+03  0.43005129053E+03  0.47000000000E+01 0. -1.
          1    1    1    2  503    0  0.87587808688E+02  0.10846183674E+03  0.24077697580E+04  0.24118023969E+04  0.00000000000E+00 0. -1.
         -2    1    1    2    0  501  0.29234800022E+02 -0.29679977142E+02 -0.30002475570E+03  0.30290333212E+03  0.00000000000E+00 0.  1.
<mgrwt>
<rscale>  0 0.76206076E+02</rscale>
<asrwt>0</asrwt>
<pdfrwt beam="1">  1        2 0.63544766E+00 0.13939833E+03</pdfrwt>
<pdfrwt beam="2">  1       -1 0.14946289E+00 0.41660228E+02</pdfrwt>
<totfact> 0.20337829E-01</totfact>
</mgrwt>
</event>
<event>
13    1  0.1589573E-008  0.9444494E+02  0.7546771E-02  0.1468590E+00
          2   -1    0    0  503    0  0.00000000000E+00  0.00000000000E+00  0.39345368301E+03  0.39345368301E+03  0.00000000000E+00 0. -1.
          2   -1    0    0  502    0 -0.00000000000E+00 -0.00000000000E+00 -0.49508765072E+04  0.49508765072E+04  0.00000000000E+00 0. -1.
         24    2    1    2    0    0  0.10173045764E+02 -0.39459662945E+01 -0.19337561096E+04  0.19356927910E+04  0.85876821618E+02 0.  0.
         25    2    1    2    0    0  0.10866568503E+03 -0.70518566388E+02 -0.64632719176E+02  0.19126991265E+03  0.12500276712E+03 0.  0.
         24    2    1    2    0    0  0.12108162716E+02  0.59896055943E+02 -0.95649856558E+03  0.96192174475E+03  0.81668794150E+02 0.  0.
        -13    1    3    3    0    0  0.13933909857E+02  0.22943242947E+02 -0.20822431024E+03  0.20994739726E+03  0.00000000000E+00 0.  1.
         14    1    3    3    0    0 -0.37608640935E+01 -0.26889209241E+02 -0.17255317993E+04  0.17257453938E+04  0.00000000000E+00 0. -1.
        -13    1    5    5    0    0 -0.62303415866E+01 -0.17886494819E+02 -0.10617722387E+03  0.10785335749E+03  0.00000000000E+00 0.  1.
         14    1    5    5    0    0  0.18338504303E+02  0.77782550762E+02 -0.85032134171E+03  0.85406838725E+03  0.00000000000E+00 0. -1.
          5    1    4    4  501    0  0.46742984504E+02 -0.33260073008E+02 -0.96329543073E+02  0.11221679877E+03  0.47000000000E+01 0. -1.
         -5    1    4    4    0  501  0.61922700521E+02 -0.37258493380E+02  0.31696823897E+02  0.79053113879E+02  0.47000000000E+01 0. -1.
          1    1    1    2  502    0 -0.10871784654E+03  0.12334904098E+02 -0.19270546721E+04  0.19301583949E+04  0.00000000000E+00 0. -1.
          1    1    1    2  503    0 -0.22229046965E+02  0.22335726414E+01  0.32451924232E+03  0.32528734683E+03  0.00000000000E+00 0. -1.
<mgrwt>
<rscale>  0 0.45934654E+02</rscale>
<asrwt>0</asrwt>
<pdfrwt beam="1">  1        2 0.57860838E-01 0.22340980E+02</pdfrwt>
<pdfrwt beam="2">  1        2 0.72807004E+00 0.94444940E+02</pdfrwt>
<totfact> 0.17453417E+00</totfact>
</mgrwt>
</event>
<event>
13    1  0.1589573E-008  0.1495642E+03  0.7546771E-02  0.1310910E+00
          2   -1    0    0  502    0  0.00000000000E+00  0.00000000000E+00  0.26883755824E+03  0.26883755824E+03  0.00000000000E+00 0. -1.
          2   -1    0    0  503    0 -0.00000000000E+00 -0.00000000000E+00 -0.18115020873E+04  0.18115020873E+04  0.00000000000E+00 0. -1.
         24    2    1    2    0    0  0.69925808629E+02  0.64794385277E+01 -0.15791363742E+03  0.18966401107E+03  0.78128857511E+02 0.  0.
         25    2    1    2    0    0 -0.23981708581E+03 -0.16664483368E+03  0.67379411791E+02  0.32472614495E+03  0.12499739535E+03 0.  0.
         24    2    1    2    0    0 -0.23989365231E+02  0.11419012306E+03 -0.67920956571E+03  0.69342088679E+03  0.76759482959E+02 0.  0.
        -13    1    5    5    0    0  0.18758009870E+02  0.88146101300E+01 -0.19205269389E+03  0.19316779627E+03  0.00000000000E+00 0.  1.
         14    1    5    5    0    0 -0.42747375100E+02  0.10537551293E+03 -0.48715687182E+03  0.50025309051E+03  0.00000000000E+00 0. -1.
        -13    1    3    3    0    0  0.61721869853E+02  0.34210414100E+02 -0.80647206008E+02  0.10716302295E+03  0.00000000000E+00 0.  1.
         14    1    3    3    0    0  0.82039387759E+01 -0.27730975572E+02 -0.77266431409E+02  0.82500988117E+02  0.00000000000E+00 0. -1.
          5    1    4    4  501    0 -0.10745663825E+03 -0.86777581007E+02 -0.30724358490E+02  0.14157455235E+03  0.47000000000E+01 0. -1.
         -5    1    4    4    0  501 -0.13236044756E+03 -0.79867252670E+02  0.98103770282E+02  0.18315159260E+03  0.47000000000E+01 0. -1.
          1    1    1    2  502    0  0.42205581170E+02 -0.27401346975E+02  0.25577071567E+02  0.56447599487E+02  0.00000000000E+00 0. -1.
          1    1    1    2  503    0  0.15167506124E+03  0.73376619065E+02 -0.79849780925E+03  0.81608100321E+03  0.00000000000E+00 0. -1.
<mgrwt>
<rscale>  0 0.86753290E+02</rscale>
<asrwt>0</asrwt>
<pdfrwt beam="1">  1        2 0.39534935E-01 0.50320422E+02</pdfrwt>
<pdfrwt beam="2">  1        2 0.26639737E+00 0.14956419E+03</pdfrwt>
<totfact> 0.21379235E+02</totfact>
</mgrwt>
</event>
<event>
13    1  0.1589573E-008  0.8458991E+02  0.7546771E-02  0.1368433E+00
          2   -1    0    0  503    0  0.00000000000E+00  0.00000000000E+00  0.13231466676E+04  0.13231466676E+04  0.00000000000E+00 0. -1.
          2   -1    0    0  502    0 -0.00000000000E+00 -0.00000000000E+00 -0.26491261178E+04  0.26491261178E+04  0.00000000000E+00 0. -1.
         24    2    1    2    0    0  0.10921319703E+04  0.32797740566E+03 -0.52609274343E+03  0.12574088319E+04  0.63102906978E+02 0.  0.
         25    2    1    2    0    0 -0.85065526621E+03 -0.85367032351E+02 -0.26921658422E+03  0.90498764287E+03  0.12499260928E+03 0.  0.
         24    2    1    2    0    0 -0.14112058250E+03 -0.23045721296E+03  0.13457958001E+03  0.31088333779E+03  0.74237729969E+02 0.  0.
        -11    1    3    3    0    0  0.50974127651E+03  0.15147015800E+03 -0.28000672884E+03  0.60098514619E+03  0.00000000000E+00 0.  1.
         12    1    3    3    0    0  0.58239069374E+03  0.17650724766E+03 -0.24608601459E+03  0.65642368575E+03  0.00000000000E+00 0. -1.
        -11    1    5    5    0    0 -0.13530576668E+03 -0.17067413568E+03  0.12154421244E+03  0.24941994039E+03  0.00000000000E+00 0.  1.
         12    1    5    5    0    0 -0.58148158155E+01 -0.59783077277E+02  0.13035367563E+02  0.61463397394E+02  0.00000000000E+00 0. -1.
          5    1    4    4  501    0 -0.48283732042E+03 -0.38532883021E+02 -0.88249897946E+02  0.49236855663E+03  0.47000000000E+01 0. -1.
         -5    1    4    4    0  501 -0.36781794579E+03 -0.46834149329E+02 -0.18096668628E+03  0.41261908624E+03  0.47000000000E+01 0. -1.
          1    1    1    2  502    0 -0.76412222353E+02  0.36281572246E+02 -0.10787079435E+04  0.10820194118E+04  0.00000000000E+00 0. -1.
          1    1    1    2  503    0 -0.23943899196E+02 -0.48434732598E+02  0.41345824085E+03  0.41697356098E+03  0.00000000000E+00 0. -1.
<mgrwt>
<rscale>  0 0.67604640E+02</rscale>
<asrwt>0</asrwt>
<pdfrwt beam="1">  1        2 0.19458039E+00 0.54029933E+02</pdfrwt>
<pdfrwt beam="2">  1        2 0.38957737E+00 0.84589915E+02</pdfrwt>
<totfact> 0.14384803E+01</totfact>
</mgrwt>
</event>
<event>
13    1  0.1589573E-008  0.1564643E+03  0.7546771E-02  0.1329493E+00
          2   -1    0    0  502    0  0.00000000000E+00  0.00000000000E+00  0.18029811927E+04  0.18029811927E+04  0.00000000000E+00 0. -1.
          2   -1    0    0  503    0 -0.00000000000E+00 -0.00000000000E+00 -0.10119344893E+04  0.10119344893E+04  0.00000000000E+00 0. -1.
         24    2    1    2    0    0 -0.64234751371E+02  0.71563172071E+02  0.88907298130E+02  0.15389503192E+03  0.80819442632E+02 0.  0.
         25    2    1    2    0    0  0.12868066800E+02  0.63595671995E+02  0.97183644191E+03  0.98198863680E+03  0.12500246539E+03 0.  0.
         24    2    1    2    0    0 -0.11552400217E+03 -0.42471057723E+02 -0.80146205012E+01  0.14801227400E+03  0.81815727660E+02 0.  0.
        -13    1    5    5    0    0 -0.24017156235E+02 -0.34963002824E+02 -0.31979599762E+02  0.53121842598E+02  0.00000000000E+00 0.  1.
         14    1    5    5    0    0 -0.91506845935E+02 -0.75080548990E+01  0.23964979261E+02  0.94890431405E+02  0.00000000000E+00 0. -1.
        -13    1    3    3    0    0 -0.63514506162E+02  0.16099055488E+02  0.68498303314E+02  0.94790767681E+02  0.00000000000E+00 0.  1.
         14    1    3    3    0    0 -0.72024520906E+00  0.55464116583E+02  0.20408994816E+02  0.59104264237E+02  0.00000000000E+00 0. -1.
          5    1    4    4  501    0 -0.43813188637E+02  0.74861793875E+01  0.15680618598E+03  0.16305185783E+03  0.47000000000E+01 0. -1.
         -5    1    4    4    0  501  0.56681255437E+02  0.56109492608E+02  0.81503025593E+03  0.81893677897E+03  0.47000000000E+01 0. -1.
          1    1    1    2  502    0 -0.40084547529E+02  0.73083001780E+01  0.61925117044E+03  0.62059019835E+03  0.00000000000E+00 0. -1.
          1    1    1    2  503    0  0.20697523427E+03 -0.99996086522E+02 -0.88093358659E+03  0.91042954088E+03  0.00000000000E+00 0. -1.
<mgrwt>
<rscale>  0 0.79844776E+02</rscale>
<asrwt>0</asrwt>
<pdfrwt beam="1">  1        2 0.26514429E+00 0.40745334E+02</pdfrwt>
<pdfrwt beam="2">  1        2 0.14881390E+00 0.15646425E+03</pdfrwt>
<totfact> 0.54869844E+01</totfact>
</mgrwt>
</event>
<event>
13    1  0.1589573E-008  0.3142284E+03  0.7546771E-02  0.1276855E+00
          2   -1    0    0  503    0  0.00000000000E+00  0.00000000000E+00  0.15696157180E+04  0.15696157180E+04  0.00000000000E+00 0. -1.
          2   -1    0    0  502    0 -0.00000000000E+00 -0.00000000000E+00 -0.21170514721E+04  0.21170514721E+04  0.00000000000E+00 0. -1.
         24    2    1    2    0    0  0.21848365946E+03 -0.49186694237E+02 -0.40024498336E+03  0.46617522187E+03  0.83479640875E+02 0.  0.
         25    2    1    2    0    0  0.61601448810E+02  0.41594992041E+03  0.47904882754E+03  0.64955462162E+03  0.12499741003E+03 0.  0.
         24    2    1    2    0    0 -0.39972832300E+02  0.22894706487E+02 -0.43010779740E+02  0.10184258757E+03  0.79999941016E+02 0.  0.
        -11    1    5    5    0    0 -0.33603460227E+01  0.40279413144E+02 -0.45960274082E+02  0.61205145554E+02  0.00000000000E+00 0.  1.
         12    1    5    5    0    0 -0.36612486278E+02 -0.17384706657E+02  0.29494943417E+01  0.40637442019E+02  0.00000000000E+00 0. -1.
        -13    1    3    3    0    0  0.11518195147E+03 -0.64155999607E+02 -0.25806340214E+03  0.28979232867E+03  0.00000000000E+00 0.  1.
         14    1    3    3    0    0  0.10330170799E+03  0.14969305370E+02 -0.14218158122E+03  0.17638289320E+03  0.00000000000E+00 0. -1.
          5    1    4    4  501    0 -0.18294720876E+02  0.96429996567E+02  0.55012540865E+02  0.11261398982E+03  0.47000000000E+01 0. -1.
         -5    1    4    4    0  501  0.79896169686E+02  0.31951992384E+03  0.42403628667E+03  0.53694063180E+03  0.47000000000E+01 0. -1.
          1    1    1    2  502    0 -0.21082427591E+03 -0.37470205804E+03 -0.14955797000E+04  0.15561513894E+04  0.00000000000E+00 0. -1.
          1    1    1    2  503    0 -0.29288000057E+02 -0.14955874618E+02  0.91235088151E+03  0.91294336962E+03  0.00000000000E+00 0. -1.
<mgrwt>
<rscale>  0 0.10165432E+03</rscale>
<asrwt>0</asrwt>
<pdfrwt beam="1">  1        2 0.23082584E+00 0.32885637E+02</pdfrwt>
<pdfrwt beam="2">  1        2 0.31133110E+00 0.31422840E+03</pdfrwt>
<totfact> 0.18128022E+01</totfact>
</mgrwt>
</event>
<event>
13    1  0.1589573E-008  0.4101894E+02  0.7546771E-02  0.1608511E+00
          2   -1    0    0  503    0  0.00000000000E+00  0.00000000000E+00  0.12891271878E+04  0.12891271878E+04  0.00000000000E+00 0. -1.
         -3   -1    0    0    0  501 -0.00000000000E+00 -0.00000000000E+00 -0.14506452405E+04  0.14506452405E+04  0.00000000000E+00 0.  1.
         24    2    1    2    0    0  0.56080622901E+03 -0.72669152414E+02  0.32452394440E+03  0.65444229653E+03  0.56519879637E+02 0.  0.
         25    2    1    2    0    0  0.34949577577E+02 -0.42133618175E+02  0.13459572950E+03  0.19166217503E+03  0.12498665603E+03 0.  0.
         24    2    1    2    0    0 -0.57523244008E+03  0.85079910156E+02  0.32849049159E+02  0.58809607572E+03  0.81529031725E+02 0.  0.
        -11    1    5    5    0    0 -0.20792220581E+03  0.61245038025E+02 -0.13133785358E+02  0.21715223847E+03  0.00000000000E+00 0.  1.
         12    1    5    5    0    0 -0.36731023427E+03  0.23834872131E+02  0.45982834517E+02  0.37094383726E+03  0.00000000000E+00 0. -1.
        -13    1    3    3    0    0  0.34560017136E+03 -0.32619638165E+02  0.22722537591E+03  0.41489142037E+03  0.00000000000E+00 0.  1.
         14    1    3    3    0    0  0.21520605765E+03 -0.40049514249E+02  0.97298568485E+02  0.23955087616E+03  0.00000000000E+00 0. -1.
          5    1    4    4  502    0 -0.94009405817E+01  0.38274507479E+02  0.65728264660E+02  0.76782878181E+02  0.47000000000E+01 0. -1.
         -5    1    4    4    0  502  0.44350518159E+02 -0.80408125654E+02  0.68867464840E+02  0.11487929685E+03  0.47000000000E+01 0. -1.
          1    1    1    2  503    0  0.16587057498E+02  0.12237794580E+02  0.32528666273E+03  0.32593911555E+03  0.00000000000E+00 0. -1.
         -4    1    1    2    0  501 -0.37110424003E+02  0.17485065854E+02 -0.97877343852E+03  0.97963276541E+03  0.00000000000E+00 0.  1.
<mgrwt>
<rscale>  0 0.29077855E+02</rscale>
<asrwt>0</asrwt>
<pdfrwt beam="1">  1        2 0.18957753E+00 0.20612959E+02</pdfrwt>
<pdfrwt beam="2">  1       -3 0.21333018E+00 0.41018935E+02</pdfrwt>
<totfact> 0.19998846E+00</totfact>
</mgrwt>
</event>
<event>
13    1  0.1589573E-008  0.8352531E+02  0.7546771E-02  0.1354366E+00
         -1   -1    0    0    0  501 -0.00000000000E+00  0.00000000000E+00  0.13994606861E+03  0.13994606861E+03  0.00000000000E+00 0.  1.
          2   -1    0    0  503    0  0.00000000000E+00 -0.00000000000E+00 -0.27929981609E+04  0.27929981609E+04  0.00000000000E+00 0. -1.
         24    2    1    2    0    0 -0.23140246017E+02  0.51605940308E+02 -0.83096185961E+02  0.12973549750E+03  0.82022430650E+02 0.  0.
         25    2    1    2    0    0  0.10552964071E+03 -0.12153863881E+03 -0.11589058876E+04  0.11766893120E+04  0.12500693936E+03 0.  0.
         24    2    1    2    0    0 -0.32297438369E+02  0.19277562911E+02 -0.31976287160E+02  0.94705742821E+02  0.80820454253E+02 0.  0.
        -11    1    3    3    0    0  0.29554202864E+02  0.10615221618E+02 -0.37392140446E+02  0.48829355967E+02  0.00000000000E+00 0.  1.
         12    1    3    3    0    0 -0.52694448881E+02  0.40990718690E+02 -0.45704045515E+02  0.80906141534E+02  0.00000000000E+00 0. -1.
        -13    1    5    5    0    0  0.20375945298E+01  0.43062809220E+02 -0.17483044540E+01  0.43146423929E+02  0.00000000000E+00 0.  1.
         14    1    5    5    0    0 -0.34335032899E+02 -0.23785246309E+02 -0.30227982706E+02  0.51559318892E+02  0.00000000000E+00 0. -1.
          5    1    4    4  502    0  0.13262273751E+03 -0.83580832628E+02 -0.87670052745E+03  0.89061801628E+03  0.47000000000E+01 0. -1.
         -5    1    4    4    0  502 -0.27093096793E+02 -0.37957806179E+02 -0.28220536012E+03  0.28607129571E+03  0.47000000000E+01 0. -1.
          1    1    1    2  503    0  0.15645589838E+01  0.84157920848E+02 -0.14416039138E+04  0.14440591566E+04  0.00000000000E+00 0. -1.
         -2    1    1    2    0  501 -0.51656515310E+02 -0.33502785259E+02  0.62530182229E+02  0.87754520588E+02  0.00000000000E+00 0.  1.
<mgrwt>
<rscale>  0 0.71712141E+02</rscale>
<asrwt>0</asrwt>
<pdfrwt beam="2">  1        2 0.41073502E+00 0.83525310E+02</pdfrwt>
<pdfrwt beam="1">  1       -1 0.20580305E-01 0.61569734E+02</pdfrwt>
<totfact> 0.79903341E+01</totfact>
</mgrwt>
</event>
<event>
13    1  0.1589573E-008  0.1521913E+03  0.7546771E-02  0.1262653E+00
          2   -1    0    0  503    0  0.00000000000E+00  0.00000000000E+00  0.99304106039E+03  0.99304106039E+03  0.00000000000E+00 0. -1.
          2   -1    0    0  502    0 -0.00000000000E+00 -0.00000000000E+00 -0.11667664566E+04  0.11667664566E+04  0.00000000000E+00 0. -1.
         24    2    1    2    0    0 -0.20394176686E+03 -0.36791437264E+02  0.13984444880E+03  0.26265080832E+03  0.80517843524E+02 0.  0.
         25    2    1    2    0    0  0.28715655601E+03  0.19953692125E+03  0.33237543003E+02  0.37284409997E+03  0.12503646673E+03 0.  0.
         24    2    1    2    0    0  0.97493568839E+02 -0.33434057145E+02 -0.48648592391E+03  0.50361309397E+03  0.79591218790E+02 0.  0.
        -11    1    5    5    0    0  0.64908340535E+02 -0.37943332291E+02 -0.17596123727E+03  0.19135084572E+03  0.00000000000E+00 0.  1.
         12    1    5    5    0    0  0.32585228304E+02  0.45092751461E+01 -0.31052468664E+03  0.31226224825E+03  0.00000000000E+00 0. -1.
        -13    1    3    3    0    0 -0.37319871571E+02  0.55323465559E+01 -0.47349221222E+01  0.38023665789E+02  0.00000000000E+00 0.  1.
         14    1    3    3    0    0 -0.16662189529E+03 -0.42323783820E+02  0.14457937092E+03  0.22462714253E+03  0.00000000000E+00 0. -1.
          5    1    4    4  501    0  0.11135156781E+03  0.80539795556E+02  0.74705857694E+02  0.15648925042E+03  0.47000000000E+01 0.  1.
         -5    1    4    4    0  501  0.17580498820E+03  0.11899712569E+03 -0.41468314691E+02  0.21635484955E+03  0.47000000000E+01 0.  1.
          1    1    1    2  502    0 -0.42241040094E+02 -0.65450651020E+02 -0.42690593408E+03  0.43395480149E+03  0.00000000000E+00 0. -1.
          1    1    1    2  503    0 -0.13846731790E+03 -0.63860775819E+02  0.56658447002E+03  0.58674471321E+03  0.00000000000E+00 0. -1.
<mgrwt>
<rscale>  0 0.10888246E+03</rscale>
<asrwt>0</asrwt>
<pdfrwt beam="1">  1        2 0.14603545E+00 0.15219126E+03</pdfrwt>
<pdfrwt beam="2">  1        2 0.17158330E+00 0.77897967E+02</pdfrwt>
<totfact> 0.10900124E+02</totfact>
</mgrwt>
</event>
<event>
13    1  0.1589573E-008  0.9685517E+02  0.7546771E-02  0.1328639E+00
          2   -1    0    0  503    0  0.00000000000E+00  0.00000000000E+00  0.11201904905E+04  0.11201904905E+04  0.00000000000E+00 0. -1.
          2   -1    0    0  502    0 -0.00000000000E+00 -0.00000000000E+00 -0.13961317387E+04  0.13961317387E+04  0.00000000000E+00 0. -1.
         24    2    1    2    0    0  0.17131896361E+03  0.69447401641E+02 -0.24778640776E+03  0.31939167150E+03  0.80248408496E+02 0.  0.
         25    2    1    2    0    0 -0.67118086517E+02  0.15709793832E+03  0.44983947558E+03  0.49715643000E+03  0.12499744932E+03 0.  0.
         24    2    1    2    0    0 -0.13388201319E+03 -0.23822990672E+03 -0.35110411036E+03  0.45234078320E+03  0.81610084685E+02 0.  0.
        -11    1    3    3    0    0  0.81114024680E+02 -0.90976060145E+01 -0.10905969842E+03  0.13622139793E+03  0.00000000000E+00 0.  1.
         12    1    3    3    0    0  0.90204938927E+02  0.78545007656E+02 -0.13872670934E+03  0.18317027357E+03  0.00000000000E+00 0. -1.
        -11    1    5    5    0    0 -0.17341628269E+02  0.23923567682E+01 -0.27210213490E+02  0.32355079356E+02  0.00000000000E+00 0.  1.
         12    1    5    5    0    0 -0.11654038492E+03 -0.24062226349E+03 -0.32389389687E+03  0.41998570385E+03  0.00000000000E+00 0. -1.
          5    1    4    4  501    0  0.16147239645E+02  0.40459001403E+02  0.23375476822E+03  0.23782566264E+03  0.47000000000E+01 0.  1.
         -5    1    4    4    0  501 -0.83265326162E+02  0.11663893691E+03  0.21608470736E+03  0.25933076736E+03  0.47000000000E+01 0.  1.
          1    1    1    2  502    0  0.95805458940E+02  0.16755158340E+02 -0.68173570755E+03  0.68863850912E+03  0.00000000000E+00 0. -1.
          1    1    1    2  503    0 -0.66124322837E+02 -0.50705915731E+01  0.55484550189E+03  0.55879483528E+03  0.00000000000E+00 0. -1.
<mgrwt>
<rscale>  0 0.80145398E+02</rscale>
<asrwt>0</asrwt>
<pdfrwt beam="1">  1        2 0.16473390E+00 0.66318451E+02</pdfrwt>
<pdfrwt beam="2">  1        2 0.20531349E+00 0.96855169E+02</pdfrwt>
<totfact> 0.72508162E+01</totfact>
</mgrwt>
</event>
<event>
13    1  0.1589573E-008  0.1221491E+03  0.7546771E-02  0.1411697E+00
          2   -1    0    0  503    0  0.00000000000E+00  0.00000000000E+00  0.34317929415E+03  0.34317929415E+03  0.00000000000E+00 0. -1.
          2   -1    0    0  502    0 -0.00000000000E+00 -0.00000000000E+00 -0.14187312224E+04  0.14187312224E+04  0.00000000000E+00 0. -1.
         24    2    1    2    0    0  0.10135069906E+02  0.20070503533E+02 -0.52053302028E+03  0.52702071364E+03  0.79313697714E+02 0.  0.
         25    2    1    2    0    0 -0.22928956627E+02  0.15404054378E+03  0.14140685196E+03  0.24469560492E+03  0.12500326037E+03 0.  0.
         24    2    1    2    0    0 -0.12889886877E+03 -0.13763535630E+03 -0.59403975394E+03  0.62719550135E+03  0.70232171922E+02 0.  0.
        -11    1    5    5    0    0 -0.41142198132E+02 -0.72704005172E+02 -0.35034017272E+03  0.36016217105E+03  0.00000000000E+00 0.  1.
         12    1    5    5    0    0 -0.87756670642E+02 -0.64931351130E+02 -0.24369958122E+03  0.26703333030E+03  0.00000000000E+00 0. -1.
        -13    1    3    3    0    0 -0.12569398126E+02  0.45313329695E+02 -0.34961173278E+03  0.35276004779E+03  0.00000000000E+00 0.  1.
         14    1    3    3    0    0  0.22704468032E+02 -0.25242826162E+02 -0.17092128750E+03  0.17426066585E+03  0.00000000000E+00 0. -1.
          5    1    4    4  501    0 -0.47043798856E+02  0.15065779482E+03  0.15063982642E+03  0.21823230158E+03  0.47000000000E+01 0. -1.
         -5    1    4    4    0  501  0.24114842229E+02  0.33827489644E+01 -0.92329744529E+01  0.26463303337E+02  0.47000000000E+01 0. -1.
          1    1    1    2  502    0  0.23185040772E+02 -0.12684386966E+02 -0.20362321389E+03  0.20533108148E+03  0.00000000000E+00 0. -1.
          1    1    1    2  503    0  0.11850771472E+03 -0.23791304049E+02  0.10123720792E+03  0.15766761515E+03  0.00000000000E+00 0. -1.
<mgrwt>
<rscale>  0 0.56816879E+02</rscale>
<asrwt>0</asrwt>
<pdfrwt beam="1">  1        2 0.50467544E-01 0.12214910E+03</pdfrwt>
<pdfrwt beam="2">  1        2 0.20863694E+00 0.26428011E+02</pdfrwt>
<totfact> 0.29964872E+02</totfact>
</mgrwt>
</event>
<event>
13    1  0.1589573E-008  0.1368624E+03  0.7546771E-02  0.1368685E+00
          2   -1    0    0  502    0  0.00000000000E+00  0.00000000000E+00  0.10136418780E+04  0.10136418780E+04  0.00000000000E+00 0. -1.
          2   -1    0    0  503    0 -0.00000000000E+00 -0.00000000000E+00 -0.19161456606E+04  0.19161456606E+04  0.00000000000E+00 0. -1.
         24    2    1    2    0    0  0.29220159631E+02 -0.11236998944E+03  0.77388462272E+02  0.16036952785E+03  0.79047954534E+02 0.  0.
         25    2    1    2    0    0 -0.15617581562E+03  0.73623328616E+02 -0.56102218639E+03  0.60015285650E+03  0.12500511049E+03 0.  0.
         24    2    1    2    0    0  0.23375401527E+02  0.47134579483E+02  0.61178468603E+01  0.97423417064E+02  0.81766840239E+02 0.  0.
        -11    1    5    5    0    0  0.83340542901E+01 -0.64762283371E+01 -0.29495815225E+02  0.31327322104E+02  0.00000000000E+00 0.  1.
         12    1    5    5    0    0  0.15041347237E+02  0.53610807820E+02  0.35613662086E+02  0.66096094960E+02  0.00000000000E+00 0. -1.
        -13    1    3    3    0    0  0.29264936010E+02 -0.11350795278E+02  0.43853269884E+02  0.53929456817E+02  0.00000000000E+00 0.  1.
         14    1    3    3    0    0 -0.44776379821E-01 -0.10101919416E+03  0.33535192388E+02  0.10644007104E+03  0.00000000000E+00 0. -1.
          5    1    4    4  501    0 -0.89413505663E+02 -0.25671855102E+02 -0.23052973152E+03  0.24863601158E+03  0.47000000000E+01 0.  1.
         -5    1    4    4    0  501 -0.66762309961E+02  0.99295183718E+02 -0.33049245487E+03  0.35151684493E+03  0.47000000000E+01 0.  1.
          1    1    1    2  502    0  0.13610381424E+03 -0.15649159695E+02  0.81750348066E+03  0.82890354405E+03  0.00000000000E+00 0. -1.
          1    1    1    2  503    0 -0.32523559778E+02  0.72612410338E+01 -0.12424913860E+04  0.12429381931E+04  0.00000000000E+00 0. -1.
<mgrwt>
<rscale>  0 0.67534007E+02</rscale>
<asrwt>0</asrwt>
<pdfrwt beam="1">  1        2 0.14906498E+00 0.13686244E+03</pdfrwt>
<pdfrwt beam="2">  1        2 0.28178612E+00 0.33324279E+02</pdfrwt>
<totfact> 0.49992868E+01</totfact>
</mgrwt>
</event>
<event>
13    1  0.1589573E-008  0.1312166E+03  0.7546771E-02  0.1374586E+00
          2   -1    0    0  502    0  0.00000000000E+00  0.00000000000E+00  0.26466422068E+03  0.26466422068E+03  0.00000000000E+00 0. -1.
          4   -1    0    0  503    0 -0.00000000000E+00 -0.00000000000E+00 -0.59160797896E+03  0.59160797896E+03  0.00000000000E+00 0. -1.
         24    2    1    2    0    0  0.80593468217E+02  0.12285421525E+02 -0.26203983378E+01  0.11094856152E+03  0.75209561321E+02 0.  0.
         25    2    1    2    0    0 -0.13203603482E+03  0.11865918268E+03 -0.19183819436E+03  0.28972360616E+03  0.12499743607E+03 0.  0.
         24    2    1    2    0    0 -0.31701481456E+02 -0.57087168821E+02 -0.58072836572E+02  0.12029005559E+03  0.82663863669E+02 0.  0.
        -13    1    3    3    0    0  0.23995303646E+02 -0.31110069138E+02  0.30284119099E+01  0.39405358487E+02  0.00000000000E+00 0.  1.
         14    1    3    3    0    0  0.56598164571E+02  0.43395490663E+02 -0.56488102477E+01  0.71543203031E+02  0.00000000000E+00 0. -1.
        -13    1    5    5    0    0  0.21717135972E+01  0.19328699583E+02 -0.21674055199E+02  0.29121806886E+02  0.00000000000E+00 0.  1.
         14    1    5    5    0    0 -0.33873195054E+02 -0.76415868404E+02 -0.36398781373E+02  0.91168248708E+02  0.00000000000E+00 0. -1.
          5    1    4    4  501    0 -0.85981847290E+02  0.14036055195E+03 -0.13220568054E+03  0.21117384918E+03  0.47000000000E+01 0. -1.
         -5    1    4    4    0  501 -0.46054187530E+02 -0.21701369276E+02 -0.59632513817E+02  0.78549756980E+02  0.47000000000E+01 0. -1.
          1    1    1    2  502    0  0.10777409265E+03 -0.51737204876E+02  0.10118343318E+03  0.15662081779E+03  0.00000000000E+00 0. -1.
          3    1    1    2  503    0 -0.24630044592E+02 -0.22120230507E+02 -0.17559576220E+03  0.17868915858E+03  0.00000000000E+00 0. -1.
<mgrwt>
<rscale>  0 0.65908514E+02</rscale>
<asrwt>0</asrwt>
<pdfrwt beam="1">  1        2 0.38921209E-01 0.13121664E+03</pdfrwt>
<pdfrwt beam="2">  1        4 0.87001172E-01 0.33105040E+02</pdfrwt>
<totfact> 0.72129640E+01</totfact>
</mgrwt>
</event>
<event>
13    1  0.1589573E-008  0.4081374E+02  0.7546771E-02  0.1512507E+00
          2   -1    0    0  502    0  0.00000000000E+00  0.00000000000E+00  0.64982647493E+03  0.64982647493E+03  0.00000000000E+00 0. -1.
          2   -1    0    0  503    0 -0.00000000000E+00 -0.00000000000E+00 -0.13724812276E+04  0.13724812276E+04  0.00000000000E+00 0. -1.
         24    2    1    2    0    0  0.41071181194E+02 -0.72010882118E+02 -0.24180475394E+03  0.26771392578E+03  0.79553742569E+02 0.  0.
         25    2    1    2    0    0 -0.14272252947E+03  0.57058606350E+02  0.14560864503E+03  0.24586826862E+03  0.12499569206E+03 0.  0.
         24    2    1    2    0    0  0.38348053675E+02 -0.59799455380E+01 -0.12513145283E+03  0.15346242921E+03  0.79915603737E+02 0.  0.
        -11    1    5    5    0    0 -0.87474478648E+01  0.27572957710E+02 -0.58334875289E+02  0.65113312894E+02  0.00000000000E+00 0.  1.
         12    1    5    5    0    0  0.47095501540E+02 -0.33552903248E+02 -0.66796577543E+02  0.88349116312E+02  0.00000000000E+00 0. -1.
        -11    1    3    3    0    0 -0.14859221766E+02 -0.34833053176E+02 -0.40251047928E+02  0.55265585352E+02  0.00000000000E+00 0.  1.
         12    1    3    3    0    0  0.55930402959E+02 -0.37177828942E+02 -0.20155370602E+03  0.21244834042E+03  0.00000000000E+00 0. -1.
          5    1    4    4  501    0 -0.36253061351E+02  0.36513171455E+02  0.12518421262E+03  0.13542774176E+03  0.47000000000E+01 0.  1.
         -5    1    4    4    0  501 -0.10646946811E+03  0.20545434895E+02  0.20424432401E+02  0.11044052687E+03  0.47000000000E+01 0.  1.
          1    1    1    2  502    0  0.36738879335E+02 -0.10009856761E+02  0.42566977939E+03  0.42736951643E+03  0.00000000000E+00 0. -1.
          1    1    1    2  503    0  0.26564415262E+02  0.30942078067E+02 -0.92699697028E+03  0.92789356247E+03  0.00000000000E+00 0. -1.
<mgrwt>
<rscale>  0 0.39422202E+02</rscale>
<asrwt>0</asrwt>
<pdfrwt beam="1">  1        2 0.95562716E-01 0.38078110E+02</pdfrwt>
<pdfrwt beam="2">  1        2 0.20183548E+00 0.40813737E+02</pdfrwt>
<totfact> 0.15652247E+02</totfact>
</mgrwt>
</event>
<event>
13    1  0.1589573E-008  0.1145232E+03  0.7546771E-02  0.1267655E+00
          2   -1    0    0  502    0  0.00000000000E+00  0.00000000000E+00  0.16163005034E+03  0.16163005034E+03  0.00000000000E+00 0. -1.
          2   -1    0    0  503    0 -0.00000000000E+00 -0.00000000000E+00 -0.27038270752E+04  0.27038270752E+04  0.00000000000E+00 0. -1.
         24    2    1    2    0    0 -0.36594028763E+02 -0.28707163696E+02 -0.39818665933E+03  0.40891974849E+03  0.80619605876E+02 0.  0.
         25    2    1    2    0    0  0.28089473884E+03 -0.32155210017E+02 -0.19648871853E+03  0.36629089143E+03  0.12500155517E+03 0.  0.
         24    2    1    2    0    0 -0.60033198357E+02  0.17205526199E+02 -0.18916283453E+03  0.21475364266E+03  0.80228012762E+02 0.  0.
        -11    1    5    5    0    0 -0.44531353655E+02 -0.91079528826E+01 -0.17551073938E+03  0.18130089879E+03  0.00000000000E+00 0.  1.
         12    1    5    5    0    0 -0.15501844702E+02  0.26313479082E+02 -0.13652095151E+02  0.33452743872E+02  0.00000000000E+00 0. -1.
        -11    1    3    3    0    0 -0.53292741360E+01  0.27898973667E+02 -0.11976318338E+03  0.12308523058E+03  0.00000000000E+00 0.  1.
         12    1    3    3    0    0 -0.31264754627E+02 -0.56606137363E+02 -0.27842347595E+03  0.28583451791E+03  0.00000000000E+00 0. -1.
          5    1    4    4  501    0  0.28839447589E+03 -0.15365578852E+02 -0.19185623681E+03  0.34675406320E+03  0.47000000000E+01 0.  1.
         -5    1    4    4    0  501 -0.74997370516E+01 -0.16789631165E+02 -0.46324817137E+01  0.19536828231E+02  0.47000000000E+01 0.  1.
          1    1    1    2  502    0 -0.93035328627E+02 -0.30131437654E+02  0.14406572940E+02  0.98848496457E+02  0.00000000000E+00 0. -1.
          1    1    1    2  503    0 -0.91232183095E+02  0.73788285167E+02 -0.17727653854E+04  0.17766443465E+04  0.00000000000E+00 0. -1.
<mgrwt>
<rscale>  0 0.10626096E+03</rscale>
<asrwt>0</asrwt>
<pdfrwt beam="1">  1        2 0.23769126E-01 0.98594812E+02</pdfrwt>
<pdfrwt beam="2">  1        2 0.39762162E+00 0.11452317E+03</pdfrwt>
<totfact> 0.13871527E+02</totfact>
</mgrwt>
</event>
<event>
13    1  0.1589573E-008  0.1098759E+03  0.7546771E-02  0.1358046E+00
          2   -1    0    0  502    0  0.00000000000E+00  0.00000000000E+00  0.41327747505E+04  0.41327747505E+04  0.00000000000E+00 0. -1.
          2   -1    0    0  503    0 -0.00000000000E+00 -0.00000000000E+00 -0.74525725106E+03  0.74525725106E+03  0.00000000000E+00 0. -1.
         24    2    1    2    0    0 -0.89245304885E+02 -0.96342368584E+02  0.44889735658E+02  0.15451161088E+03  0.67912981833E+02 0.  0.
         25    2    1    2    0    0  0.17567227785E+03 -0.24848600412E+01  0.57542054211E+02  0.22316707156E+03  0.12500212035E+03 0.  0.
         24    2    1    2    0    0  0.26475595084E+02 -0.50197381140E+02  0.32637177432E+03  0.34066271013E+03  0.79446918069E+02 0.  0.
        -13    1    5    5    0    0  0.51520175347E+02 -0.20601255842E+02  0.23391730238E+03  0.24040807924E+03  0.00000000000E+00 0.  1.
         14    1    5    5    0    0 -0.25044580263E+02 -0.29596125297E+02  0.92454471937E+02  0.10025463089E+03  0.00000000000E+00 0. -1.
        -13    1    3    3    0    0 -0.89298370528E+02 -0.10537991842E+03  0.38338127218E+02  0.14334900831E+03  0.00000000000E+00 0.  1.
         14    1    3    3    0    0  0.53065643109E-01  0.90375498360E+01  0.65516084405E+01  0.11162602571E+02  0.00000000000E+00 0. -1.
          5    1    4    4  501    0  0.18815298143E+03  0.16968611621E+02  0.62545004751E+02  0.19905638854E+03  0.47000000000E+01 0.  1.
         -5    1    4    4    0  501 -0.12480703578E+02 -0.19453471663E+02 -0.50029505404E+01  0.24110683019E+02  0.47000000000E+01 0.  1.
          1    1    1    2  502    0 -0.13303926886E+03  0.10836733415E+03  0.35562737141E+04  0.35604108830E+04  0.00000000000E+00 0. -1.
          1    1    1    2  503    0  0.20136700813E+02  0.40657275610E+02 -0.59755977881E+03  0.59927972603E+03  0.00000000000E+00 0. -1.
<mgrwt>
<rscale>  0 0.70605560E+02</rscale>
<asrwt>0</asrwt>
<pdfrwt beam="1">  1        2 0.60776099E+00 0.10987586E+03</pdfrwt>
<pdfrwt beam="2">  1        2 0.10959666E+00 0.45370704E+02</pdfrwt>
<totfact> 0.39691304E+00</totfact>
</mgrwt>
</event>
<event>
13    1  0.1589573E-008  0.1157179E+03  0.7546771E-02  0.1419426E+00
          2   -1    0    0  503    0  0.00000000000E+00  0.00000000000E+00  0.22745982242E+03  0.22745982242E+03  0.00000000000E+00 0. -1.
         -3   -1    0    0    0  501 -0.00000000000E+00 -0.00000000000E+00 -0.13938358730E+04  0.13938358730E+04  0.00000000000E+00 0.  1.
         24    2    1    2    0    0 -0.16865610959E+02  0.16792786101E+02 -0.28316126340E+03  0.29482864011E+03  0.78595034457E+02 0.  0.
         25    2    1    2    0    0 -0.75711423082E+02 -0.10378763454E+03 -0.46436828513E+03  0.49776115038E+03  0.12499666368E+03 0.  0.
         24    2    1    2    0    0 -0.38490110587E+02 -0.45711353512E+02  0.92970118705E+02  0.13827141075E+03  0.83093463068E+02 0.  0.
        -13    1    3    3    0    0  0.17567749049E+02  0.25561479783E+02 -0.22150954105E+03  0.22367049835E+03  0.00000000000E+00 0.  1.
         14    1    3    3    0    0 -0.34433360009E+02 -0.87686936816E+01 -0.61651722351E+02  0.71158141763E+02  0.00000000000E+00 0. -1.
        -13    1    5    5    0    0 -0.37858918772E+02  0.94401343449E+01  0.13002334068E+02  0.41127540143E+02  0.00000000000E+00 0.  1.
         14    1    5    5    0    0 -0.63119181539E+00 -0.55151487857E+02  0.79967784636E+02  0.97143870602E+02  0.00000000000E+00 0. -1.
          5    1    4    4  502    0  0.14375088146E+02 -0.57024116256E+02 -0.75384098634E+02  0.95724841712E+02  0.47000000000E+01 0. -1.
         -5    1    4    4    0  502 -0.90086511228E+02 -0.46763518285E+02 -0.38898418649E+03  0.40203630867E+03  0.47000000000E+01 0. -1.
          1    1    1    2  503    0  0.10656638438E+03  0.14220297038E+03  0.24171609665E+00  0.17770238460E+03  0.00000000000E+00 0. -1.
         -4    1    1    2    0  501  0.24500760244E+02 -0.94967684289E+01 -0.51205833685E+03  0.51273210959E+03  0.00000000000E+00 0.  1.
<mgrwt>
<rscale>  0 0.55142614E+02</rscale>
<asrwt>0</asrwt>
<pdfrwt beam="1">  1        2 0.33449973E-01 0.11571787E+03</pdfrwt>
<pdfrwt beam="2">  1       -3 0.20497587E+00 0.26276907E+02</pdfrwt>
<totfact> 0.14941697E+01</totfact>
</mgrwt>
</event>
<event>
13    1  0.1589573E-008  0.1349138E+03  0.7546771E-02  0.1418646E+00
         -1   -1    0    0    0  501 -0.00000000000E+00  0.00000000000E+00  0.14073925657E+04  0.14073925657E+04  0.00000000000E+00 0.  1.
          4   -1    0    0  503    0  0.00000000000E+00 -0.00000000000E+00 -0.49751238647E+03  0.49751238647E+03  0.00000000000E+00 0. -1.
         24    2    1    2    0    0 -0.13899145801E+03  0.14092636023E+03  0.13138107142E+03  0.25092832044E+03  0.80778534694E+02 0.  0.
         25    2    1    2    0    0  0.22718334644E+03 -0.19821650046E+03  0.83610168864E+02  0.33692281361E+03  0.12499707211E+03 0.  0.
         24    2    1    2    0    0  0.33170713750E+02  0.97677822063E+02  0.15709745529E+02  0.13184105541E+03  0.80585449144E+02 0.  0.
        -11    1    3    3    0    0 -0.47094754551E+02  0.18928498169E+02  0.69665141871E+02  0.86194175795E+02  0.00000000000E+00 0.  1.
         12    1    3    3    0    0 -0.91896703456E+02  0.12199786206E+03  0.61715929549E+02  0.16473414465E+03  0.00000000000E+00 0. -1.
        -13    1    5    5    0    0 -0.11003583930E+01  0.88407446199E+02 -0.85719905464E+01  0.88828859916E+02  0.00000000000E+00 0.  1.
         14    1    5    5    0    0  0.34271072143E+02  0.92703758632E+01  0.24281736076E+02  0.43012195495E+02  0.00000000000E+00 0. -1.
          5    1    4    4  502    0  0.34330092982E+02  0.15297632978E+02  0.17226054097E+02  0.41610092509E+02  0.47000000000E+01 0. -1.
         -5    1    4    4    0  502  0.19285325346E+03 -0.21351413344E+03  0.66384114768E+02  0.29531272110E+03  0.47000000000E+01 0. -1.
          3    1    1    2  503    0  0.13281245723E+02 -0.18376938511E+02 -0.24750397967E+03  0.24854038568E+03  0.00000000000E+00 0. -1.
         -2    1    1    2    0  501 -0.13464384791E+03 -0.22010743316E+02  0.92668317309E+03  0.93667237703E+03  0.00000000000E+00 0.  1.
<mgrwt>
<rscale>  0 0.55308355E+02</rscale>
<asrwt>0</asrwt>
<pdfrwt beam="2">  1        4 0.73163587E-01 0.22673847E+02</pdfrwt>
<pdfrwt beam="1">  1       -1 0.20696949E+00 0.13491376E+03</pdfrwt>
<totfact> 0.90338254E-01</totfact>
</mgrwt>
</event>
<event>
13    1  0.1589573E-008  0.8785340E+02  0.7546771E-02  0.1399059E+00
          2   -1    0    0  503    0  0.00000000000E+00  0.00000000000E+00  0.48766137039E+03  0.48766137039E+03  0.00000000000E+00 0. -1.
         -3   -1    0    0    0  501 -0.00000000000E+00 -0.00000000000E+00 -0.10651622931E+04  0.10651622931E+04  0.00000000000E+00 0.  1.
         24    2    1    2    0    0 -0.70682993684E+02 -0.31276934917E+02 -0.15223063440E+03  0.18895770986E+03  0.80972327458E+02 0.  0.
         25    2    1    2    0    0 -0.40765064550E+02  0.13401404866E+03 -0.75206052250E+02  0.20224548708E+03  0.12500292406E+03 0.  0.
         24    2    1    2    0    0  0.26668708655E+02 -0.31639602939E+02  0.13290266265E+03  0.16235344785E+03  0.83565781243E+02 0.  0.
        -13    1    5    5    0    0  0.13780136475E+02 -0.41741408749E+02  0.13829496623E+03  0.14511283558E+03  0.00000000000E+00 0.  1.
         14    1    5    5    0    0  0.12888572181E+02  0.10101805810E+02 -0.53923035833E+01  0.17240612269E+02  0.00000000000E+00 0. -1.
        -13    1    3    3    0    0 -0.77413053177E+02 -0.91927873958E+01 -0.74351071770E+02  0.10772822293E+03  0.00000000000E+00 0.  1.
         14    1    3    3    0    0  0.67300594926E+01 -0.22084147521E+02 -0.77879562627E+02  0.81229486934E+02  0.00000000000E+00 0. -1.
          5    1    4    4  502    0  0.19124421975E+02 -0.82398631021E+01  0.12419468256E+02  0.24697612265E+02  0.47000000000E+01 0. -1.
         -5    1    4    4    0  502 -0.59889486525E+02  0.14225391176E+03 -0.87625520506E+02  0.17754787482E+03  0.47000000000E+01 0. -1.
          1    1    1    2  503    0  0.40333565080E+02  0.44670946796E+01  0.25394091840E+03  0.25716286949E+03  0.00000000000E+00 0. -1.
         -4    1    1    2    0  501  0.44445784499E+02 -0.75564605484E+02 -0.73690781710E+03  0.74210414920E+03  0.00000000000E+00 0.  1.
<mgrwt>
<rscale>  0 0.59708518E+02</rscale>
<asrwt>0</asrwt>
<pdfrwt beam="1">  1        2 0.71714909E-01 0.40580185E+02</pdfrwt>
<pdfrwt beam="2">  1       -3 0.15664151E+00 0.87853399E+02</pdfrwt>
<totfact> 0.13171657E+01</totfact>
</mgrwt>
</event>
<event>
13    1  0.1589573E-008  0.2712826E+03  0.7546771E-02  0.1233802E+00
          2   -1    0    0  503    0  0.00000000000E+00  0.00000000000E+00  0.22937024052E+04  0.22937024052E+04  0.00000000000E+00 0. -1.
          2   -1    0    0  502    0 -0.00000000000E+00 -0.00000000000E+00 -0.14516234763E+04  0.14516234763E+04  0.00000000000E+00 0. -1.
         24    2    1    2    0    0  0.14851549361E+02  0.65515068034E+02 -0.71309181020E+03  0.72058488828E+03  0.78929454563E+02 0.  0.
         25    2    1    2    0    0 -0.28475827941E+03  0.23087189452E+03  0.30110411924E+03  0.49058895761E+03  0.12499890132E+03 0.  0.
         24    2    1    2    0    0  0.67246232093E+02 -0.10312983123E+03 -0.91136197133E+02  0.17322635486E+03  0.80893422295E+02 0.  0.
        -13    1    3    3    0    0 -0.41540631535E+01 -0.12455239307E+02 -0.29394364403E+02  0.32193444760E+02  0.00000000000E+00 0.  1.
         14    1    3    3    0    0  0.19005612515E+02  0.77970307341E+02 -0.68369744579E+03  0.68839144352E+03  0.00000000000E+00 0. -1.
        -13    1    5    5    0    0  0.18945891098E+01 -0.72555497125E+02 -0.29546767165E+02  0.78363901644E+02  0.00000000000E+00 0.  1.
         14    1    5    5    0    0  0.65351642983E+02 -0.30574334103E+02 -0.61589429969E+02  0.94862453217E+02  0.00000000000E+00 0. -1.
          5    1    4    4  501    0 -0.11913626636E+03  0.15875528431E+03  0.20710554616E+03  0.28689978653E+03  0.47000000000E+01 0.  1.
         -5    1    4    4    0  501 -0.16562201305E+03  0.72116610208E+02  0.93998573075E+02  0.20368917108E+03  0.47000000000E+01 0.  1.
          1    1    1    2  502    0  0.53407805306E+02  0.23500912124E+02 -0.49680133995E+03  0.50021621117E+03  0.00000000000E+00 0. -1.
          1    1    1    2  503    0  0.14925269265E+03 -0.21675804345E+03  0.18420041570E+04  0.18607094695E+04  0.00000000000E+00 0. -1.
<mgrwt>
<rscale>  0 0.12581436E+03</rscale>
<asrwt>0</asrwt>
<pdfrwt beam="1">  1        2 0.33730918E+00 0.27128257E+03</pdfrwt>
<pdfrwt beam="2">  1        2 0.21347404E+00 0.58349692E+02</pdfrwt>
<totfact> 0.16218038E+01</totfact>
</mgrwt>
</event>
<event>
13    1  0.1589573E-008  0.7417026E+02  0.7546771E-02  0.1463266E+00
          2   -1    0    0  502    0  0.00000000000E+00  0.00000000000E+00  0.28254179803E+04  0.28254179803E+04  0.00000000000E+00 0. -1.
          2   -1    0    0  503    0 -0.00000000000E+00 -0.00000000000E+00 -0.78322312896E+03  0.78322312896E+03  0.00000000000E+00 0. -1.
         24    2    1    2    0    0 -0.10799441551E+02  0.25505149735E+02  0.79595581504E+02  0.11617358411E+03  0.79960643131E+02 0.  0.
         25    2    1    2    0    0 -0.24294721392E+02 -0.11815678366E+03  0.17546842183E+04  0.17632622126E+04  0.12500266230E+03 0.  0.
         24    2    1    2    0    0  0.30954439291E+02  0.35753800668E+01  0.35770496587E+03  0.36785049084E+03  0.79938603593E+02 0.  0.
        -11    1    3    3    0    0 -0.43695949473E+02  0.61384425828E+01  0.29036896033E+02  0.52821944388E+02  0.00000000000E+00 0.  1.
         12    1    3    3    0    0  0.32896507922E+02  0.19366707152E+02  0.50558685471E+02  0.63351639725E+02  0.00000000000E+00 0. -1.
        -13    1    5    5    0    0  0.21399283259E+02  0.40506138404E+02  0.15676289840E+03  0.16331957289E+03  0.00000000000E+00 0.  1.
         14    1    5    5    0    0  0.95551560318E+01 -0.36930758337E+02  0.20094206747E+03  0.20453091795E+03  0.00000000000E+00 0. -1.
          5    1    4    4  501    0 -0.51966533523E+01 -0.40705105259E+02  0.12555489510E+03  0.13217425046E+03  0.47000000000E+01 0. -1.
         -5    1    4    4    0  501 -0.19098068040E+02 -0.77451678396E+02  0.16291293232E+04  0.16310879622E+04  0.47000000000E+01 0. -1.
          1    1    1    2  502    0 -0.22046382779E+02  0.19691660024E+02  0.60360009455E+03  0.60432348838E+03  0.00000000000E+00 0. -1.
          1    1    1    2  503    0  0.26186106432E+02  0.69384593830E+02 -0.75339000890E+03  0.75703133326E+03  0.00000000000E+00 0. -1.
<mgrwt>
<rscale>  0 0.46823996E+02</rscale>
<asrwt>0</asrwt>
<pdfrwt beam="1">  1        2 0.41550264E+00 0.29560184E+02</pdfrwt>
<pdfrwt beam="2">  1        2 0.11517987E+00 0.74170263E+02</pdfrwt>
<totfact> 0.27224636E+01</totfact>
</mgrwt>
</event>
<event>
13    1  0.1589573E-008  0.1333723E+03  0.7546771E-02  0.1310806E+00
          2   -1    0    0  503    0  0.00000000000E+00  0.00000000000E+00  0.23412914575E+04  0.23412914575E+04  0.00000000000E+00 0. -1.
          2   -1    0    0  502    0 -0.00000000000E+00 -0.00000000000E+00 -0.20616987523E+03  0.20616987523E+03  0.00000000000E+00 0. -1.
         24    2    1    2    0    0 -0.80506228179E+02  0.91544866936E+01  0.31523380998E+00  0.11473780632E+03  0.81237967873E+02 0.  0.
         25    2    1    2    0    0  0.49883748376E+02 -0.12310447094E+03  0.45721462141E+03  0.49225239668E+03  0.12499645149E+03 0.  0.
         24    2    1    2    0    0 -0.36705221226E+02  0.31692399771E+02  0.11663860609E+03  0.15059254629E+03  0.81987005683E+02 0.  0.
        -11    1    3    3    0    0  0.48977457533E+01 -0.11901624150E+02  0.20765616459E+02  0.24430460450E+02  0.00000000000E+00 0.  1.
         12    1    3    3    0    0 -0.85403973933E+02  0.21056110844E+02 -0.20450382649E+02  0.90307345869E+02  0.00000000000E+00 0. -1.
        -11    1    5    5    0    0 -0.24707470632E+01  0.46172468073E+02  0.99380638670E+02  0.10961073278E+03  0.00000000000E+00 0.  1.
         12    1    5    5    0    0 -0.34234474162E+02 -0.14480068302E+02  0.17257967418E+02  0.40981813510E+02  0.00000000000E+00 0. -1.
          5    1    4    4  501    0 -0.16470084830E+02 -0.99121522106E+02  0.18040267033E+03  0.20655157540E+03  0.47000000000E+01 0. -1.
         -5    1    4    4    0  501  0.66353833206E+02 -0.23982948835E+02  0.27681195109E+03  0.28570082128E+03  0.47000000000E+01 0. -1.
          1    1    1    2  502    0 -0.52816882175E+02  0.20017141893E+02 -0.10457996151E+03  0.11885822379E+03  0.00000000000E+00 0. -1.
          1    1    1    2  503    0  0.12014458320E+03  0.62240442582E+02  0.16655330824E+04  0.16710203596E+04  0.00000000000E+00 0. -1.
<mgrwt>
<rscale>  0 0.86794246E+02</rscale>
<asrwt>0</asrwt>
<pdfrwt beam="1">  1        2 0.34430755E+00 0.13337226E+03</pdfrwt>
<pdfrwt beam="2">  1        2 0.30319101E-01 0.56482821E+02</pdfrwt>
<totfact> 0.15692249E+02</totfact>
</mgrwt>
</event>
<event>
13    1  0.1589573E-008  0.7957719E+02  0.7546771E-02  0.1343961E+00
          2   -1    0    0  502    0  0.00000000000E+00  0.00000000000E+00  0.34385713079E+03  0.34385713079E+03  0.00000000000E+00 0. -1.
          2   -1    0    0  503    0 -0.00000000000E+00 -0.00000000000E+00 -0.17854428013E+04  0.17854428013E+04  0.00000000000E+00 0. -1.
         24    2    1    2    0    0  0.19662015199E+03  0.10210727830E+03 -0.54779529315E+03  0.60096356224E+03  0.10950862749E+03 0.  0.
         25    2    1    2    0    0  0.26017777895E+02 -0.55983865439E+02 -0.19106767150E+03  0.23652324837E+03  0.12500109588E+03 0.  0.
         24    2    1    2    0    0 -0.25605502004E+03  0.69843600752E+02 -0.10449942409E+03  0.29616089890E+03  0.79679649534E+02 0.  0.
        -11    1    5    5    0    0 -0.79977749941E+02  0.57888601513E+02 -0.54304857802E+02  0.11267896100E+03  0.00000000000E+00 0.  1.
         12    1    5    5    0    0 -0.17607727010E+03  0.11954999239E+02 -0.50194566288E+02  0.18348193790E+03  0.00000000000E+00 0. -1.
        -11    1    3    3    0    0  0.13418578334E+03  0.10876872707E+03 -0.30847791216E+03  0.35354643645E+03  0.00000000000E+00 0.  1.
         12    1    3    3    0    0  0.62434368649E+02 -0.66614487692E+01 -0.23931738100E+03  0.24741712579E+03  0.00000000000E+00 0. -1.
          5    1    4    4  501    0  0.63848369497E+02 -0.73298580798E+02 -0.12732194230E+03  0.16025686639E+03  0.47000000000E+01 0. -1.
         -5    1    4    4    0  501 -0.37830591602E+02  0.17314715359E+02 -0.63745729193E+02  0.76266381973E+02  0.47000000000E+01 0. -1.
          1    1    1    2  502    0 -0.27406336377E+02 -0.65097711525E+02  0.19038656775E+03  0.20306615794E+03  0.00000000000E+00 0. -1.
          1    1    1    2  503    0  0.60823426533E+02 -0.50869302091E+02 -0.78860984955E+03  0.79258606468E+03  0.00000000000E+00 0. -1.
<mgrwt>
<rscale>  0 0.74971077E+02</rscale>
<asrwt>0</asrwt>
<pdfrwt beam="1">  1        2 0.50567224E-01 0.70631575E+02</pdfrwt>
<pdfrwt beam="2">  1        2 0.26256512E+00 0.79577192E+02</pdfrwt>
<totfact> 0.18181670E+02</totfact>
</mgrwt>
</event>
<event>
13    1  0.1589573E-008  0.1322049E+03  0.7546771E-02  0.1406585E+00
          2   -1    0    0  503    0  0.00000000000E+00  0.00000000000E+00  0.81586340067E+03  0.81586340067E+03  0.00000000000E+00 0. -1.
          2   -1    0    0  502    0 -0.00000000000E+00 -0.00000000000E+00 -0.19157219263E+04  0.19157219263E+04  0.00000000000E+00 0. -1.
         24    2    1    2    0    0 -0.50486992188E+02  0.83640017414E+02 -0.51816258445E+03  0.53383908123E+03  0.83349336090E+02 0.  0.
         25    2    1    2    0    0  0.12748211349E+03 -0.24761425666E+03  0.54588298512E+03  0.62544143500E+03  0.12499698320E+03 0.  0.
         24    2    1    2    0    0  0.60999771551E+02  0.36081755785E+01 -0.62349323243E+02  0.11975173255E+03  0.81969801028E+02 0.  0.
        -11    1    5    5    0    0  0.43411210007E+02  0.26132872309E+02  0.54067923311E+00  0.50672995801E+02  0.00000000000E+00 0.  1.
         12    1    5    5    0    0  0.17588561544E+02 -0.22524696731E+02 -0.62890002476E+02  0.69078736753E+02  0.00000000000E+00 0. -1.
        -11    1    3    3    0    0 -0.71204149133E+02  0.65533569676E+02 -0.33773011896E+03  0.35132081188E+03  0.00000000000E+00 0.  1.
         12    1    3    3    0    0  0.20717156945E+02  0.18106447738E+02 -0.18043246549E+03  0.18251826935E+03  0.00000000000E+00 0. -1.
          5    1    4    4  501    0  0.10027989116E+03 -0.12346116006E+03  0.40761753723E+03  0.43757612055E+03  0.47000000000E+01 0. -1.
         -5    1    4    4    0  501  0.27202222331E+02 -0.12415309659E+03  0.13826544789E+03  0.18786531445E+03  0.47000000000E+01 0. -1.
          1    1    1    2  502    0 -0.11615162243E+03  0.14737844515E+03 -0.12510290202E+04  0.12650238002E+04  0.00000000000E+00 0. -1.
          1    1    1    2  503    0 -0.21843270429E+02  0.12987618516E+02  0.18579941718E+03  0.18752927804E+03  0.00000000000E+00 0. -1.
<mgrwt>
<rscale>  0 0.57962806E+02</rscale>
<asrwt>0</asrwt>
<pdfrwt beam="1">  1        2 0.11997991E+00 0.25412727E+02</pdfrwt>
<pdfrwt beam="2">  1        2 0.28172381E+00 0.13220489E+03</pdfrwt>
<totfact> 0.60882800E+01</totfact>
</mgrwt>
</event>
<event>
13    1  0.1589573E-008  0.9993550E+02  0.7546771E-02  0.1446350E+00
          2   -1    0    0  503    0  0.00000000000E+00  0.00000000000E+00  0.10839000886E+04  0.10839000886E+04  0.00000000000E+00 0. -1.
          2   -1    0    0  502    0 -0.00000000000E+00 -0.00000000000E+00 -0.16682578537E+04  0.16682578537E+04  0.00000000000E+00 0. -1.
         24    2    1    2    0    0  0.10457540546E+02  0.96428480585E+01  0.18017526848E+02  0.84275993250E+02  0.81089253860E+02 0.  0.
         25    2    1    2    0    0  0.20876417443E+02 -0.24504742051E+02  0.71058099611E+03  0.72220904139E+03  0.12499696095E+03 0.  0.
         24    2    1    2    0    0  0.15371289040E+02 -0.60663879075E+02  0.92909696882E+02  0.13329606398E+03  0.72244350282E+02 0.  0.
        -13    1    3    3    0    0  0.11256385666E+02  0.43542161858E+02 -0.17839025955E+01  0.45008981171E+02  0.00000000000E+00 0.  1.
         14    1    3    3    0    0 -0.79884512001E+00 -0.33899313800E+02  0.19801429444E+02  0.39267012079E+02  0.00000000000E+00 0. -1.
        -13    1    5    5    0    0  0.11196335795E+02 -0.34731925045E+02  0.99698434428E+02  0.10616704941E+03  0.00000000000E+00 0.  1.
         14    1    5    5    0    0  0.41749532454E+01 -0.25931954031E+02 -0.67887375452E+01  0.27129014577E+02  0.00000000000E+00 0. -1.
          5    1    4    4  501    0  0.27170418057E+02 -0.20816357798E+01  0.69063225645E+03  0.69118562519E+03  0.47000000000E+01 0. -1.
         -5    1    4    4    0  501 -0.62940006147E+01 -0.22423106271E+02  0.19948739661E+02  0.31023416199E+02  0.47000000000E+01 0. -1.
          1    1    1    2  502    0 -0.71024017023E+02  0.70513766752E+02 -0.16068002887E+04  0.16099142121E+04  0.00000000000E+00 0. -1.
          1    1    1    2  503    0  0.24318769994E+02  0.50120063154E+01  0.20093430373E+03  0.20246263161E+03  0.00000000000E+00 0. -1.
<mgrwt>
<rscale>  0 0.49813515E+02</rscale>
<asrwt>0</asrwt>
<pdfrwt beam="1">  1        2 0.15939707E+00 0.24829877E+02</pdfrwt>
<pdfrwt beam="2">  1        2 0.24533204E+00 0.99935505E+02</pdfrwt>
<totfact> 0.58709664E+01</totfact>
</mgrwt>
</event>
<event>
13    1  0.1589573E-008  0.2783447E+03  0.7546771E-02  0.1180745E+00
          2   -1    0    0  502    0  0.00000000000E+00  0.00000000000E+00  0.20321381373E+04  0.20321381373E+04  0.00000000000E+00 0. -1.
          2   -1    0    0  503    0 -0.00000000000E+00 -0.00000000000E+00 -0.27881507179E+04  0.27881507179E+04  0.00000000000E+00 0. -1.
         24    2    1    2    0    0  0.32947059581E+03 -0.23436859502E+02 -0.15073910846E+04  0.15450744019E+04  0.76986138901E+02 0.  0.
         25    2    1    2    0    0 -0.21801983858E+03  0.30622841854E+03  0.32508787046E+03  0.51245954066E+03  0.12499665178E+03 0.  0.
         24    2    1    2    0    0 -0.36993396056E+03 -0.19661404413E+03  0.59941754324E+01  0.42658875499E+03  0.80211085420E+02 0.  0.
        -11    1    3    3    0    0  0.12990307432E+03  0.27857912039E+02 -0.61984603762E+03  0.63392427176E+03  0.00000000000E+00 0.  1.
         12    1    3    3    0    0  0.19956752149E+03 -0.51294771540E+02 -0.88754504696E+03  0.91115013012E+03  0.00000000000E+00 0. -1.
        -13    1    5    5    0    0 -0.13729197816E+03 -0.34296536256E+02 -0.14072061902E+02  0.14220886960E+03  0.00000000000E+00 0.  1.
         14    1    5    5    0    0 -0.23264198240E+03 -0.16231750787E+03  0.20066237334E+02  0.28437988539E+03  0.00000000000E+00 0. -1.
          5    1    4    4  501    0 -0.10721768545E+03  0.24382794033E+03  0.19240260848E+03  0.32861611389E+03  0.47000000000E+01 0.  1.
         -5    1    4    4    0  501 -0.11080215312E+03  0.62400478204E+02  0.13268526198E+03  0.18384342676E+03  0.47000000000E+01 0.  1.
          1    1    1    2  502    0  0.42807260090E+02  0.90925438159E+02  0.13560068778E+04  0.13597259096E+04  0.00000000000E+00 0. -1.
          1    1    1    2  503    0  0.21567594323E+03 -0.17710295307E+03 -0.93571041970E+03  0.97644024805E+03  0.00000000000E+00 0. -1.
<mgrwt>
<rscale>  0 0.16725176E+03</rscale>
<asrwt>0</asrwt>
<pdfrwt beam="1">  1        2 0.29884385E+00 0.10049824E+03</pdfrwt>
<pdfrwt beam="2">  1        2 0.41002216E+00 0.27834467E+03</pdfrwt>
<totfact> 0.44774948E+00</totfact>
</mgrwt>
</event>
<event>
13    1  0.1589573E-008  0.3159133E+03  0.7546771E-02  0.1249242E+00
          2   -1    0    0  503    0  0.00000000000E+00  0.00000000000E+00  0.19750517749E+04  0.19750517749E+04  0.00000000000E+00 0. -1.
          2   -1    0    0  502    0 -0.00000000000E+00 -0.00000000000E+00 -0.22190081757E+04  0.22190081757E+04  0.00000000000E+00 0. -1.
         24    2    1    2    0    0 -0.17528799060E+02  0.37108699289E+03 -0.11873255597E+04  0.12458462248E+04  0.66166578040E+02 0.  0.
         25    2    1    2    0    0  0.36998789091E+02  0.89765617724E+02 -0.67082521226E+03  0.68924794964E+03  0.12501797536E+03 0.  0.
         24    2    1    2    0    0  0.13657714182E+03 -0.14478922998E+03  0.63773545112E+03  0.67315111923E+03  0.82514767908E+02 0.  0.
        -11    1    3    3    0    0 -0.30950048733E+02  0.15193591172E+03 -0.56659704445E+03  0.58743053850E+03  0.00000000000E+00 0.  1.
         12    1    3    3    0    0  0.13421249672E+02  0.21915108117E+03 -0.62072851524E+03  0.65841568629E+03  0.00000000000E+00 0. -1.
        -13    1    5    5    0    0  0.36280084174E+02 -0.84274376186E+02  0.20050190131E+03  0.22049813472E+03  0.00000000000E+00 0.  1.
         14    1    5    5    0    0  0.10029705765E+03 -0.60514853796E+02  0.43723354981E+03  0.45265298451E+03  0.00000000000E+00 0. -1.
          5    1    4    4  501    0 -0.12198730078E+02 -0.19722955572E+02 -0.35481766752E+02  0.42647974909E+02  0.47000000000E+01 0. -1.
         -5    1    4    4    0  501  0.49197519169E+02  0.10948857330E+03 -0.63534344551E+03  0.64659997474E+03  0.47000000000E+01 0. -1.
          1    1    1    2  502    0 -0.42228648584E+02  0.72819236261E+01 -0.28008893750E+03  0.28334801584E+03  0.00000000000E+00 0. -1.
          1    1    1    2  503    0 -0.11381848327E+03 -0.32334530426E+03  0.12565478575E+04  0.13024666411E+04  0.00000000000E+00 0. -1.
<mgrwt>
<rscale>  0 0.11635070E+03</rscale>
<asrwt>0</asrwt>
<pdfrwt beam="1">  1        2 0.29044879E+00 0.31591333E+03</pdfrwt>
<pdfrwt beam="2">  1        2 0.32632473E+00 0.42851898E+02</pdfrwt>
<totfact> 0.10447394E+01</totfact>
</mgrwt>
</event>
<event>
13    1  0.1589573E-008  0.8322230E+02  0.7546771E-02  0.1402381E+00
          2   -1    0    0  503    0  0.00000000000E+00  0.00000000000E+00  0.89438589042E+03  0.89438589042E+03  0.00000000000E+00 0. -1.
          2   -1    0    0  502    0 -0.00000000000E+00 -0.00000000000E+00 -0.95921691077E+03  0.95921691077E+03  0.00000000000E+00 0. -1.
         24    2    1    2    0    0 -0.14770354656E+03  0.16184992600E+03 -0.24706793680E+03  0.34030292129E+03  0.82169195139E+02 0.  0.
         25    2    1    2    0    0  0.26193374754E+03 -0.16354893661E+03  0.18047938662E+03  0.37886998798E+03  0.12494845349E+03 0.  0.
         24    2    1    2    0    0  0.11681834206E+01 -0.30024866245E+02  0.50508105297E+02  0.10053833000E+03  0.81572237021E+02 0.  0.
        -11    1    3    3    0    0 -0.71382819466E+02  0.41156337382E+02 -0.13755208773E+03  0.16034315658E+03  0.00000000000E+00 0.  1.
         12    1    3    3    0    0 -0.76320727099E+02  0.12069358862E+03 -0.10951584907E+03  0.17995976471E+03  0.00000000000E+00 0. -1.
        -13    1    5    5    0    0  0.40391054870E+02 -0.90790464097E+01  0.16530005636E+02  0.44576983787E+02  0.00000000000E+00 0.  1.
         14    1    5    5    0    0 -0.39222871449E+02 -0.20945819835E+02  0.33978099661E+02  0.55961346212E+02  0.00000000000E+00 0. -1.
          5    1    4    4  501    0  0.44120625660E+02 -0.23755903751E+02  0.92796025144E+02  0.10556592658E+03  0.47000000000E+01 0. -1.
         -5    1    4    4    0  501  0.21781312188E+03 -0.13979303285E+03  0.87683361474E+02  0.27330406140E+03  0.47000000000E+01 0. -1.
          1    1    1    2  502    0 -0.82753641204E+02  0.57332831121E+01 -0.53724847371E+03  0.54361471482E+03  0.00000000000E+00 0. -1.
          1    1    1    2  503    0 -0.32644743195E+02  0.25990593740E+02  0.48849789824E+03  0.49027684710E+03  0.00000000000E+00 0. -1.
<mgrwt>
<rscale>  0 0.58929316E+02</rscale>
<asrwt>0</asrwt>
<pdfrwt beam="1">  1        2 0.13152734E+00 0.41727571E+02</pdfrwt>
<pdfrwt beam="2">  1        2 0.14106131E+00 0.83222295E+02</pdfrwt>
<totfact> 0.17137997E+02</totfact>
</mgrwt>
</event>
<event>
13    1  0.1589573E-008  0.1239627E+03  0.7546771E-02  0.1338413E+00
          2   -1    0    0  503    0  0.00000000000E+00  0.00000000000E+00  0.20130817174E+03  0.20130817174E+03  0.00000000000E+00 0. -1.
          2   -1    0    0  502    0 -0.00000000000E+00 -0.00000000000E+00 -0.27710943513E+04  0.27710943513E+04  0.00000000000E+00 0. -1.
         24    2    1    2    0    0  0.81940013528E+02  0.11311155643E+03 -0.90290209995E+03  0.91708502289E+03  0.79399918855E+02 0.  0.
         25    2    1    2    0    0 -0.10176386140E+03 -0.11343929555E+03  0.66165680528E+01  0.19721185195E+03  0.12499751323E+03 0.  0.
         24    2    1    2    0    0  0.12135442897E+03  0.24370437176E+02 -0.63939616102E+03  0.65536228284E+03  0.73153642456E+02 0.  0.
        -13    1    5    5    0    0 -0.73283593554E+01  0.58968101944E+01 -0.16042330893E+02  0.18596601888E+02  0.00000000000E+00 0.  1.
         14    1    5    5    0    0  0.12868278833E+03  0.18473626982E+02 -0.62335383012E+03  0.63676568095E+03  0.00000000000E+00 0. -1.
        -13    1    3    3    0    0  0.25466681678E+02  0.51026244807E+01 -0.59500730149E+02  0.64922457906E+02  0.00000000000E+00 0.  1.
         14    1    3    3    0    0  0.56473331849E+02  0.10800893194E+03 -0.84340136980E+03  0.85216256499E+03  0.00000000000E+00 0. -1.
          5    1    4    4  501    0 -0.28891632745E+02  0.24862231351E+02  0.13381215856E+02  0.40669447109E+02  0.47000000000E+01 0. -1.
         -5    1    4    4    0  501 -0.72872228658E+02 -0.13830152690E+03 -0.67646478033E+01  0.15654240484E+03  0.47000000000E+01 0. -1.
          1    1    1    2  502    0 -0.12343392102E+03  0.18184393489E+02 -0.11079224838E+04  0.11149254841E+04  0.00000000000E+00 0. -1.
          1    1    1    2  503    0  0.21903339921E+02 -0.42227091543E+02  0.73817997157E+02  0.87817881233E+02  0.00000000000E+00 0. -1.
<mgrwt>
<rscale>  0 0.76791130E+02</rscale>
<asrwt>0</asrwt>
<pdfrwt beam="1">  1        2 0.29604144E-01 0.47569776E+02</pdfrwt>
<pdfrwt beam="2">  1        2 0.40751386E+00 0.12396270E+03</pdfrwt>
<totfact> 0.97921409E+01</totfact>
</mgrwt>
</event>
<event>
13    1  0.1589573E-008  0.1227557E+03  0.7546771E-02  0.1270772E+00
          2   -1    0    0  502    0  0.00000000000E+00  0.00000000000E+00  0.22568265875E+04  0.22568265875E+04  0.00000000000E+00 0. -1.
          2   -1    0    0  503    0 -0.00000000000E+00 -0.00000000000E+00 -0.75891898212E+03  0.75891898212E+03  0.00000000000E+00 0. -1.
         24    2    1    2    0    0 -0.11410599889E+03  0.94781205379E+02 -0.33220259612E+03  0.37328711156E+03  0.83552659496E+02 0.  0.
         25    2    1    2    0    0 -0.12875615111E+01 -0.69040638032E+02  0.35925481692E+03  0.38659657103E+03  0.12499847093E+03 0.  0.
         24    2    1    2    0    0  0.82429251277E+02 -0.37164994813E+02  0.17781106505E+02  0.12545743012E+03  0.85132724133E+02 0.  0.
        -11    1    3    3    0    0 -0.21095009645E+02  0.32153063160E+02 -0.18102131473E+03  0.18506089616E+03  0.00000000000E+00 0.  1.
         12    1    3    3    0    0 -0.93010989246E+02  0.62628142219E+02 -0.15118128140E+03  0.18822621540E+03  0.00000000000E+00 0. -1.
        -11    1    5    5    0    0  0.74119803112E+02 -0.10248061887E+02 -0.20822566383E+02  0.77668186902E+02  0.00000000000E+00 0.  1.
         12    1    5    5    0    0  0.83094481655E+01 -0.26916932926E+02  0.38603672889E+02  0.47789243219E+02  0.00000000000E+00 0. -1.
          5    1    4    4  501    0 -0.41615952366E+02 -0.86887633210E+02  0.21424440994E+03  0.23495553938E+03  0.47000000000E+01 0. -1.
         -5    1    4    4    0  501  0.40328390855E+02  0.17846995178E+02  0.14501040698E+03  0.15164103165E+03  0.47000000000E+01 0. -1.
          1    1    1    2  502    0  0.10463789260E+03  0.64604338955E+02  0.17837054608E+04  0.17879395908E+04  0.00000000000E+00 0. -1.
          1    1    1    2  503    0 -0.71673583474E+02 -0.53179911489E+02 -0.33063118274E+03  0.34246486616E+03  0.00000000000E+00 0. -1.
<mgrwt>
<rscale>  0 0.10466947E+03</rscale>
<asrwt>0</asrwt>
<pdfrwt beam="1">  1        2 0.33188626E+00 0.12275567E+03</pdfrwt>
<pdfrwt beam="2">  1        2 0.11160573E+00 0.89248000E+02</pdfrwt>
<totfact> 0.43554772E+01</totfact>
</mgrwt>
</event>
<event>
13    1  0.1589573E-008  0.2478398E+03  0.7546771E-02  0.1329090E+00
          2   -1    0    0  502    0  0.00000000000E+00  0.00000000000E+00  0.20291537004E+04  0.20291537004E+04  0.00000000000E+00 0. -1.
          2   -1    0    0  503    0 -0.00000000000E+00 -0.00000000000E+00 -0.77185848612E+03  0.77185848612E+03  0.00000000000E+00 0. -1.
         24    2    1    2    0    0  0.39043630931E+02 -0.28684218131E+02  0.46335515074E+02  0.10459502721E+03  0.80286675572E+02 0.  0.
         25    2    1    2    0    0 -0.92590197181E+02  0.14728414965E+03  0.12008033600E+04  0.12197620142E+04  0.12500038639E+03 0.  0.
         24    2    1    2    0    0  0.64483574381E+02  0.11295034959E+03  0.35151587861E+03  0.38290314584E+03  0.78329390051E+02 0.  0.
        -11    1    3    3    0    0  0.63210747969E+02 -0.26472509775E+02  0.27364026397E+02  0.73791479002E+02  0.00000000000E+00 0.  1.
         12    1    3    3    0    0 -0.24167117038E+02 -0.22117083565E+01  0.18971488677E+02  0.30803548211E+02  0.00000000000E+00 0. -1.
        -13    1    5    5    0    0  0.49436769711E+02  0.20713027505E+02  0.17701070435E+03  0.18494813641E+03  0.00000000000E+00 0.  1.
         14    1    5    5    0    0  0.15046804670E+02  0.92237322085E+02  0.17450517426E+03  0.19795500943E+03  0.00000000000E+00 0. -1.
          5    1    4    4  501    0 -0.38673344021E+02 -0.13432716490E+02  0.33334427496E+03  0.33588176648E+03  0.47000000000E+01 0. -1.
         -5    1    4    4    0  501 -0.53916853161E+02  0.16071686614E+03  0.86745908506E+03  0.88388024775E+03  0.47000000000E+01 0. -1.
          1    1    1    2  502    0 -0.18578775347E+02  0.17922390027E+02  0.35400813908E+03  0.35494808844E+03  0.00000000000E+00 0. -1.
          1    1    1    2  503    0  0.76417672154E+01 -0.24947267113E+03 -0.69536767851E+03  0.73880391077E+03  0.00000000000E+00 0. -1.
<mgrwt>
<rscale>  0 0.79986467E+02</rscale>
<asrwt>0</asrwt>
<pdfrwt beam="1">  1        2 0.29840496E+00 0.25814394E+02</pdfrwt>
<pdfrwt beam="2">  1        2 0.11350860E+00 0.24783982E+03</pdfrwt>
<totfact> 0.63639653E+01</totfact>
</mgrwt>
</event>
<event>
13    1  0.1589573E-008  0.1555483E+03  0.7546771E-02  0.1330169E+00
          2   -1    0    0  503    0  0.00000000000E+00  0.00000000000E+00  0.18210013960E+04  0.18210013960E+04  0.00000000000E+00 0. -1.
          2   -1    0    0  502    0 -0.00000000000E+00 -0.00000000000E+00 -0.30700230172E+04  0.30700230172E+04  0.00000000000E+00 0. -1.
         24    2    1    2    0    0  0.44099561150E+02 -0.34131716846E+02 -0.40319039693E+03  0.41498416076E+03  0.80867868243E+02 0.  0.
         25    2    1    2    0    0 -0.23417328507E+03 -0.17437743357E+03  0.80658557860E+03  0.86687534931E+03  0.12509180172E+03 0.  0.
         24    2    1    2    0    0 -0.29861195754E+02  0.20170258951E+03 -0.94915537624E+02  0.23880471459E+03  0.80268965372E+02 0.  0.
        -11    1    3    3    0    0  0.66925704085E+02 -0.27075133382E+02 -0.33610453561E+03  0.34377081256E+03  0.00000000000E+00 0.  1.
         12    1    3    3    0    0 -0.22826142935E+02 -0.70565834639E+01 -0.67085861323E+02  0.71213348193E+02  0.00000000000E+00 0. -1.
        -11    1    5    5    0    0  0.20976745359E+02  0.16514589076E+02 -0.70111883414E+01  0.27602758199E+02  0.00000000000E+00 0.  1.
         12    1    5    5    0    0 -0.50837941114E+02  0.18518800044E+03 -0.87904349283E+02  0.21120195640E+03  0.00000000000E+00 0. -1.
          5    1    4    4  501    0 -0.13495813168E+03 -0.73016544656E+02  0.25788665880E+03  0.30012119533E+03  0.47000000000E+01 0.  1.
         -5    1    4    4    0  501 -0.99215153390E+02 -0.10136088892E+03  0.54869891980E+03  0.56675415398E+03  0.47000000000E+01 0.  1.
          1    1    1    2  502    0  0.20485233549E+03  0.44654137373E+02 -0.24590096128E+04  0.24679316739E+04  0.00000000000E+00 0. -1.
          1    1    1    2  503    0  0.15082584178E+02 -0.37847576465E+02  0.90150834748E+03  0.90242851460E+03  0.00000000000E+00 0. -1.
<mgrwt>
<rscale>  0 0.79607610E+02</rscale>
<asrwt>0</asrwt>
<pdfrwt beam="1">  1        2 0.26779433E+00 0.40742157E+02</pdfrwt>
<pdfrwt beam="2">  1        2 0.45147397E+00 0.15554826E+03</pdfrwt>
<totfact> 0.47187601E+00</totfact>
</mgrwt>
</event>
<event>
13    1  0.1589573E-008  0.1367679E+03  0.7546771E-02  0.1349646E+00
          2   -1    0    0  503    0  0.00000000000E+00  0.00000000000E+00  0.30014644694E+04  0.30014644694E+04  0.00000000000E+00 0. -1.
          2   -1    0    0  502    0 -0.00000000000E+00 -0.00000000000E+00 -0.31769071694E+04  0.31769071694E+04  0.00000000000E+00 0. -1.
         24    2    1    2    0    0  0.40004233875E+02 -0.20994395399E+03 -0.14644750899E+03  0.27007545913E+03  0.76269772449E+02 0.  0.
         25    2    1    2    0    0 -0.20539166002E+03 -0.21922025477E+02  0.10308716603E+04  0.10587680121E+04  0.12500805632E+03 0.  0.
         24    2    1    2    0    0  0.19362076185E+03  0.97456207974E+02 -0.15617623797E+03  0.27839546909E+03  0.78270735324E+02 0.  0.
        -11    1    5    5    0    0  0.52059683160E+02  0.51814961422E+02 -0.18557056540E+02  0.75758598095E+02  0.00000000000E+00 0.  1.
         12    1    5    5    0    0  0.14156107869E+03  0.45641246551E+02 -0.13761918143E+03  0.20263687099E+03  0.00000000000E+00 0. -1.
        -11    1    3    3    0    0  0.16289953415E+02 -0.10925784369E+02  0.32939386674E+01  0.19889328251E+02  0.00000000000E+00 0.  1.
         12    1    3    3    0    0  0.23714280461E+02 -0.19901816962E+03 -0.14974144766E+03  0.25018613088E+03  0.00000000000E+00 0. -1.
          5    1    4    4  501    0 -0.13997513166E+03  0.39396854286E+02  0.51565936999E+03  0.53579084116E+03  0.47000000000E+01 0. -1.
         -5    1    4    4    0  501 -0.65416528364E+02 -0.61318879763E+02  0.51521229035E+03  0.52297717094E+03  0.47000000000E+01 0. -1.
          1    1    1    2  502    0  0.10860334146E+02  0.13634342789E+03 -0.27354939577E+04  0.27389112198E+04  0.00000000000E+00 0. -1.
          1    1    1    2  503    0 -0.39093669853E+02 -0.19336563945E+01  0.18318033445E+04  0.18322214786E+04  0.00000000000E+00 0. -1.
<mgrwt>
<rscale>  0 0.73166229E+02</rscale>
<asrwt>0</asrwt>
<pdfrwt beam="1">  1        2 0.44139183E+00 0.39141462E+02</pdfrwt>
<pdfrwt beam="2">  1        2 0.46719223E+00 0.13676794E+03</pdfrwt>
<totfact> 0.11589817E+00</totfact>
</mgrwt>
</event>
<event>
13    1  0.1589573E-008  0.8292308E+02  0.7546771E-02  0.1410517E+00
         -1   -1    0    0    0  501 -0.00000000000E+00  0.00000000000E+00  0.10068653383E+04  0.10068653383E+04  0.00000000000E+00 0.  1.
          2   -1    0    0  503    0  0.00000000000E+00 -0.00000000000E+00 -0.11819623334E+04  0.11819623334E+04  0.00000000000E+00 0. -1.
         24    2    1    2    0    0  0.12827038855E+03 -0.11417719219E+03  0.55526984862E+02  0.19772446127E+03  0.80758855492E+02 0.  0.
         25    2    1    2    0    0 -0.84463864420E+02 -0.10901299231E+03  0.75881781179E+02  0.20099938582E+03  0.12499892599E+03 0.  0.
         24    2    1    2    0    0 -0.10085309953E+03  0.25702314673E+03 -0.71941929292E+02  0.30157082853E+03  0.97657963266E+02 0.  0.
        -11    1    3    3    0    0  0.21181881536E+02 -0.68990954206E+02  0.98435208418E+01  0.72837619196E+02  0.00000000000E+00 0.  1.
         12    1    3    3    0    0  0.10708850701E+03 -0.45186237985E+02  0.45683464020E+02  0.12488684207E+03  0.00000000000E+00 0. -1.
        -11    1    5    5    0    0 -0.32579746319E+02  0.18765084346E+03 -0.73703378232E+02  0.20422161219E+03  0.00000000000E+00 0.  1.
         12    1    5    5    0    0 -0.68273353214E+02  0.69372303270E+02  0.17614489399E+01  0.97349216342E+02  0.00000000000E+00 0. -1.
          5    1    4    4  502    0 -0.10388471135E+03 -0.50140241250E+02  0.77083521227E+02  0.13881655625E+03  0.47000000000E+01 0. -1.
         -5    1    4    4    0  502  0.19420846932E+02 -0.58872751063E+02 -0.12017400486E+01  0.62182829563E+02  0.47000000000E+01 0. -1.
          1    1    1    2  503    0  0.82940010285E+02 -0.42834861158E+01 -0.85892805109E+03  0.86293382743E+03  0.00000000000E+00 0. -1.
         -2    1    1    2    0  501 -0.25893434880E+02 -0.29549476110E+02  0.62436421927E+03  0.62559916865E+03  0.00000000000E+00 0.  1.
<mgrwt>
<rscale>  0 0.57078731E+02</rscale>
<asrwt>0</asrwt>
<pdfrwt beam="2">  1        2 0.17381799E+00 0.82923075E+02</pdfrwt>
<pdfrwt beam="1">  1       -1 0.14806843E+00 0.39289203E+02</pdfrwt>
<totfact> 0.12074183E+01</totfact>
</mgrwt>
</event>
<event>
13    1  0.1589573E-008  0.3615825E+03  0.7546771E-02  0.1214728E+00
          2   -1    0    0  502    0  0.00000000000E+00  0.00000000000E+00  0.19011543525E+04  0.19011543525E+04  0.00000000000E+00 0. -1.
          2   -1    0    0  503    0 -0.00000000000E+00 -0.00000000000E+00 -0.68918551839E+03  0.68918551839E+03  0.00000000000E+00 0. -1.
         24    2    1    2    0    0  0.11517410705E+03 -0.17776592461E+03  0.32996918539E+03  0.40095602046E+03  0.83787040454E+02 0.  0.
         25    2    1    2    0    0 -0.34005961269E+03  0.33409660949E+03 -0.89340422569E+02  0.50087046603E+03  0.12501371119E+03 0.  0.
         24    2    1    2    0    0 -0.13109141403E+03  0.10134298611E+03  0.10606684876E+02  0.18454934754E+03  0.80564261611E+02 0.  0.
        -11    1    3    3    0    0 -0.93667212099E+00 -0.20472996312E+01 -0.48815602318E+01  0.53757251360E+01  0.00000000000E+00 0.  1.
         12    1    3    3    0    0  0.11611077917E+03 -0.17571862498E+03  0.33485074562E+03  0.39558029532E+03  0.00000000000E+00 0. -1.
        -11    1    5    5    0    0 -0.14750293171E+02 -0.12981894261E+02 -0.61244353424E+01  0.20581774353E+02  0.00000000000E+00 0.  1.
         12    1    5    5    0    0 -0.11634112086E+03  0.11432488037E+03  0.16731120218E+02  0.16396757319E+03  0.00000000000E+00 0. -1.
          5    1    4    4  501    0 -0.21311029906E+03  0.27202460832E+03 -0.27933905433E+02  0.34672147348E+03  0.47000000000E+01 0.  1.
         -5    1    4    4    0  501 -0.12694931362E+03  0.62072001173E+02 -0.61406517136E+02  0.15414899255E+03  0.47000000000E+01 0.  1.
          1    1    1    2  502    0  0.30279459404E+03 -0.25277025923E+03  0.11977397481E+04  0.12610146210E+04  0.00000000000E+00 0. -1.
          1    1    1    2  503    0  0.53182325623E+02 -0.49034117686E+01 -0.23700636168E+03  0.24294941589E+03  0.00000000000E+00 0. -1.
<mgrwt>
<rscale>  0 0.13896533E+03</rscale>
<asrwt>0</asrwt>
<pdfrwt beam="1">  1        2 0.27958152E+00 0.36158253E+03</pdfrwt>
<pdfrwt beam="2">  1        2 0.10135081E+00 0.53407895E+02</pdfrwt>
<totfact> 0.66693892E+01</totfact>
</mgrwt>
</event>
<event>
13    1  0.1589573E-008  0.1115166E+03  0.7546771E-02  0.1335267E+00
          2   -1    0    0  503    0  0.00000000000E+00  0.00000000000E+00  0.10946138903E+04  0.10946138903E+04  0.00000000000E+00 0. -1.
          2   -1    0    0  502    0 -0.00000000000E+00 -0.00000000000E+00 -0.30039687103E+04  0.30039687103E+04  0.00000000000E+00 0. -1.
         24    2    1    2    0    0 -0.92000626896E+02 -0.12909954391E+02 -0.10775896982E+04  0.10843984756E+04  0.78036618972E+02 0.  0.
         25    2    1    2    0    0  0.22636177885E+03 -0.13767523192E+03 -0.61636233781E+02  0.29936359323E+03  0.12500164489E+03 0.  0.
         24    2    1    2    0    0 -0.65576496514E+02  0.21080940133E+02 -0.36391930134E+02  0.11194603037E+03  0.80391903851E+02 0.  0.
        -11    1    5    5    0    0 -0.66358121843E+02  0.36667281502E+02 -0.50348051024E+02  0.91009978074E+02  0.00000000000E+00 0.  1.
         12    1    5    5    0    0  0.78162532878E+00 -0.15586341369E+02  0.13956120889E+02  0.20936052295E+02  0.00000000000E+00 0. -1.
        -11    1    3    3    0    0 -0.18333094364E+02 -0.33604374271E+02 -0.21159636949E+03  0.21503111380E+03  0.00000000000E+00 0.  1.
         12    1    3    3    0    0 -0.73667532533E+02  0.20694419880E+02 -0.86599332874E+03  0.86936736181E+03  0.00000000000E+00 0. -1.
          5    1    4    4  501    0  0.23938061093E+03 -0.12371383186E+03 -0.69292783711E+02  0.27826564458E+03  0.47000000000E+01 0. -1.
         -5    1    4    4    0  501 -0.13018832072E+02 -0.13961400062E+02  0.76565499292E+01  0.21097948645E+02  0.47000000000E+01 0. -1.
          1    1    1    2  502    0 -0.79550234648E+02  0.76234427013E+02 -0.16656940349E+04  0.16693341623E+04  0.00000000000E+00 0. -1.
          1    1    1    2  503    0  0.10765579205E+02  0.53269819168E+02  0.93195707701E+03  0.93354033909E+03  0.00000000000E+00 0. -1.
<mgrwt>
<rscale>  0 0.77849630E+02</rscale>
<asrwt>0</asrwt>
<pdfrwt beam="1">  1        2 0.16097263E+00 0.54346769E+02</pdfrwt>
<pdfrwt beam="2">  1        2 0.44176010E+00 0.11151656E+03</pdfrwt>
<totfact> 0.11845472E+01</totfact>
</mgrwt>
</event>
<event>
13    1  0.1589573E-008  0.9838151E+02  0.7546771E-02  0.1440840E+00
          2   -1    0    0  502    0  0.00000000000E+00  0.00000000000E+00  0.18132772084E+04  0.18132772084E+04  0.00000000000E+00 0. -1.
          4   -1    0    0  503    0 -0.00000000000E+00 -0.00000000000E+00 -0.24193508490E+03  0.24193508490E+03  0.00000000000E+00 0. -1.
         24    2    1    2    0    0  0.21384719099E+02 -0.93172687055E+02  0.39870532120E+02  0.12963479345E+03  0.77955529101E+02 0.  0.
         25    2    1    2    0    0  0.73322274085E+02  0.14619935541E+03  0.62787465431E+03  0.66075861399E+03  0.12499982815E+03 0.  0.
         24    2    1    2    0    0  0.52679264168E+01 -0.41111935640E+02  0.23661774564E+03  0.25286727519E+03  0.78968088537E+02 0.  0.
        -13    1    5    5    0    0 -0.34466461457E+02 -0.33852547139E+02  0.11568449335E+03  0.12536679749E+03  0.00000000000E+00 0.  1.
         14    1    5    5    0    0  0.39734387874E+02 -0.72593885007E+01  0.12093325230E+03  0.12750047769E+03  0.00000000000E+00 0. -1.
        -13    1    3    3    0    0 -0.12650008787E+02 -0.32570806223E+02 -0.17896718874E+02  0.39257772310E+02  0.00000000000E+00 0.  1.
         14    1    3    3    0    0  0.34034727886E+02 -0.60601880832E+02  0.57767250994E+02  0.90377021140E+02  0.00000000000E+00 0. -1.
          5    1    4    4  501    0  0.31266158092E+02  0.37724434403E+02  0.41681561661E+03  0.41971187003E+03  0.47000000000E+01 0.  1.
         -5    1    4    4    0  501  0.42056115993E+02  0.10847492100E+03  0.21105903770E+03  0.24104674396E+03  0.47000000000E+01 0.  1.
          1    1    1    2  502    0 -0.23982418870E+01 -0.26167010430E+02  0.82514478234E+03  0.82556306593E+03  0.00000000000E+00 0. -1.
          3    1    1    2  503    0 -0.97576677714E+02  0.14252277719E+02 -0.15816559093E+03  0.18638854473E+03  0.00000000000E+00 0. -1.
<mgrwt>
<rscale>  0 0.50844269E+02</rscale>
<asrwt>0</asrwt>
<pdfrwt beam="1">  1        2 0.26665841E+00 0.26276682E+02</pdfrwt>
<pdfrwt beam="2">  1        4 0.35578690E-01 0.98381514E+02</pdfrwt>
<totfact> 0.49150047E+01</totfact>
</mgrwt>
</event>
<event>
13    1  0.1589573E-008  0.1103215E+03  0.7546771E-02  0.1371999E+00
          2   -1    0    0  503    0  0.00000000000E+00  0.00000000000E+00  0.32634321990E+04  0.32634321990E+04  0.00000000000E+00 0. -1.
          2   -1    0    0  502    0 -0.00000000000E+00 -0.00000000000E+00 -0.14442009930E+04  0.14442009930E+04  0.00000000000E+00 0. -1.
         24    2    1    2    0    0 -0.77331158238E+01  0.70389508450E+02 -0.11242860051E+04  0.11293146695E+04  0.79486585968E+02 0.  0.
         25    2    1    2    0    0 -0.16763109320E+03  0.41750421361E+02  0.61394530262E+03  0.64992150856E+03  0.12500340633E+03 0.  0.
         24    2    1    2    0    0  0.19160841093E+02  0.22959795909E+01  0.11143649805E+04  0.11166711133E+04  0.69084412969E+02 0.  0.
        -11    1    3    3    0    0  0.19440490983E+01  0.58262377152E+02 -0.34617641915E+03  0.35105041959E+03  0.00000000000E+00 0.  1.
         12    1    3    3    0    0 -0.96771649221E+01  0.12127131298E+02 -0.77810958600E+03  0.77826424989E+03  0.00000000000E+00 0. -1.
        -11    1    5    5    0    0 -0.23870654592E+02  0.10771277447E+02  0.53966407287E+03  0.54029912097E+03  0.00000000000E+00 0.  1.
         12    1    5    5    0    0  0.43031495686E+02 -0.84752978562E+01  0.57470090764E+03  0.57637199233E+03  0.00000000000E+00 0. -1.
          5    1    4    4  501    0 -0.14767984738E+03  0.22221774561E+02  0.60007138685E+03  0.61839380972E+03  0.47000000000E+01 0.  1.
         -5    1    4    4    0  501 -0.19951245818E+02  0.19528646801E+02  0.13873915772E+02  0.31527698844E+02  0.47000000000E+01 0.  1.
          1    1    1    2  502    0  0.39920528769E+02  0.49278194919E+01 -0.29229090900E+03  0.29504560241E+03  0.00000000000E+00 0. -1.
          1    1    1    2  503    0  0.11628283916E+03 -0.11936372889E+03  0.15074978371E+04  0.15166802983E+04  0.00000000000E+00 0. -1.
<mgrwt>
<rscale>  0 0.66614702E+02</rscale>
<asrwt>0</asrwt>
<pdfrwt beam="1">  1        2 0.47991650E+00 0.11032147E+03</pdfrwt>
<pdfrwt beam="2">  1        2 0.21238250E+00 0.40223526E+02</pdfrwt>
<totfact> 0.58319199E+00</totfact>
</mgrwt>
</event>
<event>
13    1  0.1589573E-008  0.2674922E+03  0.7546771E-02  0.1188235E+00
          2   -1    0    0  503    0  0.00000000000E+00  0.00000000000E+00  0.34342182152E+04  0.34342182152E+04  0.00000000000E+00 0. -1.
          2   -1    0    0  502    0 -0.00000000000E+00 -0.00000000000E+00 -0.42084610168E+04  0.42084610168E+04  0.00000000000E+00 0. -1.
         24    2    1    2    0    0 -0.16078303007E+03  0.46677801673E+02 -0.85730541986E+03  0.87698632902E+03  0.78118105755E+02 0.  0.
         25    2    1    2    0    0  0.34991701509E+03 -0.46832245852E+02  0.95620121488E+03  0.10269283253E+04  0.12500338126E+03 0.  0.
         24    2    1    2    0    0 -0.32064483139E+02 -0.17691724860E+02  0.29077206855E+03  0.30348172457E+03  0.78813914347E+02 0.  0.
        -13    1    5    5    0    0 -0.23615669497E+02 -0.49026677465E+02  0.17796858890E+03  0.18610248141E+03  0.00000000000E+00 0.  1.
         14    1    5    5    0    0 -0.84488136426E+01  0.31334952604E+02  0.11280347964E+03  0.11737924316E+03  0.00000000000E+00 0. -1.
        -13    1    3    3    0    0 -0.11846054419E+02  0.28693916651E+02 -0.91425099422E+02  0.96551637284E+02  0.00000000000E+00 0.  1.
         14    1    3    3    0    0 -0.14893697565E+03  0.17983885023E+02 -0.76588032044E+03  0.78043469174E+03  0.00000000000E+00 0. -1.
          5    1    4    4  501    0  0.15235817621E+03 -0.59169245500E+02  0.56915850803E+03  0.59218030256E+03  0.47000000000E+01 0.  1.
         -5    1    4    4    0  501  0.19755883888E+03  0.12336999648E+02  0.38704270684E+03  0.43474802277E+03  0.47000000000E+01 0.  1.
          1    1    1    2  502    0 -0.19753044584E+03  0.11064924236E+03 -0.32945094433E+04  0.33022801219E+04  0.00000000000E+00 0. -1.
          1    1    1    2  503    0  0.40460943963E+02 -0.92803073325E+02  0.21305987780E+04  0.21330027312E+04  0.00000000000E+00 0. -1.
<mgrwt>
<rscale>  0 0.16040985E+03</rscale>
<asrwt>0</asrwt>
<pdfrwt beam="1">  1        2 0.50503210E+00 0.96194664E+02</pdfrwt>
<pdfrwt beam="2">  1        2 0.61889132E+00 0.26749216E+03</pdfrwt>
<totfact> 0.11280061E-01</totfact>
</mgrwt>
</event>
<event>
13    1  0.1589573E-008  0.1140355E+03  0.7546771E-02  0.1264167E+00
          2   -1    0    0  502    0  0.00000000000E+00  0.00000000000E+00  0.90260799027E+03  0.90260799027E+03  0.00000000000E+00 0. -1.
          2   -1    0    0  503    0 -0.00000000000E+00 -0.00000000000E+00 -0.28545977077E+04  0.28545977077E+04  0.00000000000E+00 0. -1.
         24    2    1    2    0    0 -0.11030379112E+03 -0.25495983258E+02 -0.27380399071E+03  0.30702328627E+03  0.80484169162E+02 0.  0.
         25    2    1    2    0    0  0.11084800037E+03  0.48312831466E+02 -0.42616572222E+03  0.46028726645E+03  0.12500294393E+03 0.  0.
         24    2    1    2    0    0 -0.34562374454E+02 -0.72885790351E+02  0.18631086024E+03  0.21941046930E+03  0.83200488185E+02 0.  0.
        -11    1    3    3    0    0 -0.68333865135E+02  0.99172707700E+01 -0.21823615216E+03  0.22889929553E+03  0.00000000000E+00 0.  1.
         12    1    3    3    0    0 -0.41969925984E+02 -0.35413254029E+02 -0.55567838542E+02  0.78123990734E+02  0.00000000000E+00 0. -1.
        -13    1    5    5    0    0 -0.54336437433E+02 -0.23673256638E+02  0.12502350787E+03  0.13836093753E+03  0.00000000000E+00 0.  1.
         14    1    5    5    0    0  0.19774062979E+02 -0.49212533713E+02  0.61287352366E+02  0.81049531776E+02  0.00000000000E+00 0. -1.
          5    1    4    4  501    0  0.23101183367E+02  0.42361579433E+02 -0.36211205283E+02  0.60510407973E+02  0.47000000000E+01 0.  1.
         -5    1    4    4    0  501  0.87746817007E+02  0.59512520328E+01 -0.38995451693E+03  0.39977685848E+03  0.47000000000E+01 0.  1.
          1    1    1    2  502    0 -0.79694488661E+02  0.64356885826E+02  0.66056595992E+03  0.66846122377E+03  0.00000000000E+00 0. -1.
          1    1    1    2  503    0  0.11371265386E+03 -0.14287943683E+02 -0.20988968247E+04  0.21020234522E+04  0.00000000000E+00 0. -1.
<mgrwt>
<rscale>  0 0.10807994E+03</rscale>
<asrwt>0</asrwt>
<pdfrwt beam="1">  1        2 0.13273647E+00 0.10243544E+03</pdfrwt>
<pdfrwt beam="2">  1        2 0.41979378E+00 0.11403546E+03</pdfrwt>
<totfact> 0.17665486E+01</totfact>
</mgrwt>
</event>
<event>
13    1  0.1589573E-008  0.8136353E+02  0.7546771E-02  0.1325975E+00
          2   -1    0    0  503    0  0.00000000000E+00  0.00000000000E+00  0.26471540466E+04  0.26471540466E+04  0.00000000000E+00 0. -1.
          2   -1    0    0  502    0 -0.00000000000E+00 -0.00000000000E+00 -0.11956812705E+04  0.11956812705E+04  0.00000000000E+00 0. -1.
         24    2    1    2    0    0 -0.25133842815E+03 -0.91980383081E+02 -0.56504663406E+03  0.63038617856E+03  0.80483781744E+02 0.  0.
         25    2    1    2    0    0  0.21055906631E+03  0.21852214276E+03  0.15240013977E+04  0.15589434454E+04  0.12504942467E+03 0.  0.
         24    2    1    2    0    0  0.17452791594E+03 -0.11169434264E+03  0.93666030492E+02  0.24086165470E+03  0.79406497324E+02 0.  0.
        -13    1    3    3    0    0 -0.79109240199E+02 -0.10749521889E+02 -0.24815586420E+03  0.26068209958E+03  0.00000000000E+00 0.  1.
         14    1    3    3    0    0 -0.17222918795E+03 -0.81230861192E+02 -0.31689076986E+03  0.36970407898E+03  0.00000000000E+00 0. -1.
        -13    1    5    5    0    0  0.17211575087E+03 -0.11417652352E+03  0.10307627406E+03  0.23083506773E+03  0.00000000000E+00 0.  1.
         14    1    5    5    0    0  0.24121650730E+01  0.24821808767E+01 -0.94102435711E+01  0.10026586972E+02  0.00000000000E+00 0. -1.
          5    1    4    4  501    0  0.27501011032E+02  0.40831251159E+02  0.92601246580E+02  0.10497893859E+03  0.47000000000E+01 0. -1.
         -5    1    4    4    0  501  0.18305805527E+03  0.17769089160E+03  0.14314001511E+04  0.14539645069E+04  0.47000000000E+01 0. -1.
          1    1    1    2  502    0 -0.71587327212E+02  0.37524242715E+02 -0.50183227206E+03  0.50829956078E+03  0.00000000000E+00 0. -1.
          1    1    1    2  503    0 -0.62161226884E+02 -0.52371659755E+02  0.90068425396E+03  0.90434447762E+03  0.00000000000E+00 0. -1.
<mgrwt>
<rscale>  0 0.81094232E+02</rscale>
<asrwt>0</asrwt>
<pdfrwt beam="1">  1        2 0.38928736E+00 0.81363529E+02</pdfrwt>
<pdfrwt beam="2">  1        2 0.17583548E+00 0.80825826E+02</pdfrwt>
<totfact> 0.16397998E+01</totfact>
</mgrwt>
</event>
<event>
13    1  0.1589573E-008  0.1462923E+03  0.7546771E-02  0.1319668E+00
          2   -1    0    0  503    0  0.00000000000E+00  0.00000000000E+00  0.14491327007E+04  0.14491327007E+04  0.00000000000E+00 0. -1.
          2   -1    0    0  502    0 -0.00000000000E+00 -0.00000000000E+00 -0.78449566927E+03  0.78449566927E+03  0.00000000000E+00 0. -1.
         24    2    1    2    0    0 -0.11462652920E+03  0.27996647226E+03  0.14114256856E+03  0.34409899039E+03  0.83441139393E+02 0.  0.
         25    2    1    2    0    0  0.84070734490E+02 -0.20153042170E+03  0.88369503822E+02  0.26667861912E+03  0.12500366964E+03 0.  0.
         24    2    1    2    0    0 -0.11569650754E+03 -0.10198654695E+03 -0.56752690827E+02  0.18289761728E+03  0.80272865117E+02 0.  0.
        -11    1    5    5    0    0 -0.45502804978E+01 -0.19118980150E+02  0.16890656784E+02  0.25913987366E+02  0.00000000000E+00 0.  1.
         12    1    5    5    0    0 -0.11114622704E+03 -0.82867566804E+02 -0.73643347612E+02  0.15698362991E+03  0.00000000000E+00 0. -1.
        -13    1    3    3    0    0 -0.75116736145E+02  0.85266700450E+02  0.67803923858E+02  0.13232651414E+03  0.00000000000E+00 0.  1.
         14    1    3    3    0    0 -0.39509793054E+02  0.19469977181E+03  0.73338644701E+02  0.21177247625E+03  0.00000000000E+00 0. -1.
          5    1    4    4  501    0 -0.29431819711E+02 -0.19278447631E+02  0.22582985899E+02  0.42071032869E+02  0.47000000000E+01 0. -1.
         -5    1    4    4    0  501  0.11350255420E+03 -0.18225197407E+03  0.65786517923E+02  0.22460758625E+03  0.47000000000E+01 0. -1.
          1    1    1    2  502    0  0.18297146293E+03 -0.66552980606E+01 -0.45574003111E+03  0.49114338558E+03  0.00000000000E+00 0. -1.
          1    1    1    2  503    0 -0.36719160688E+02  0.30205794456E+02  0.94761768101E+03  0.94880975761E+03  0.00000000000E+00 0. -1.
<mgrwt>
<rscale>  0 0.83400922E+02</rscale>
<asrwt>0</asrwt>
<pdfrwt beam="1">  1        2 0.21310775E+00 0.47546680E+02</pdfrwt>
<pdfrwt beam="2">  1        2 0.11536701E+00 0.14629231E+03</pdfrwt>
<totfact> 0.11014189E+02</totfact>
</mgrwt>
</event>
<event>
13    1  0.1589573E-008  0.1956917E+03  0.7546771E-02  0.1324649E+00
          2   -1    0    0  503    0  0.00000000000E+00  0.00000000000E+00  0.42678181209E+04  0.42678181209E+04  0.00000000000E+00 0. -1.
          2   -1    0    0  502    0 -0.00000000000E+00 -0.00000000000E+00 -0.15368258125E+04  0.15368258125E+04  0.00000000000E+00 0. -1.
         24    2    1    2    0    0 -0.77762147237E+02  0.21188984201E+02 -0.15434450600E+03  0.19139893184E+03  0.79469490907E+02 0.  0.
         25    2    1    2    0    0 -0.15982344141E+03 -0.58497111053E+02 -0.20457170330E+03  0.29400464823E+03  0.12499482776E+03 0.  0.
         24    2    1    2    0    0  0.23549875939E+02 -0.13874181812E+03  0.15044270363E+04  0.15131008350E+04  0.79809399941E+02 0.  0.
        -13    1    5    5    0    0  0.29066460730E+02 -0.20242162242E+02  0.58203299599E+03  0.58310977756E+03  0.00000000000E+00 0.  1.
         14    1    5    5    0    0 -0.55165847904E+01 -0.11849965588E+03  0.92239404036E+03  0.92999105740E+03  0.00000000000E+00 0. -1.
        -13    1    3    3    0    0 -0.64644305075E+02  0.49814090867E+02 -0.10792586798E+03  0.13530825107E+03  0.00000000000E+00 0.  1.
         14    1    3    3    0    0 -0.13117842162E+02 -0.28625106666E+02 -0.46418638017E+02  0.56090680777E+02  0.00000000000E+00 0. -1.
          5    1    4    4  501    0 -0.10968328453E+03  0.21058841829E+01 -0.50304399530E+02  0.12077864160E+03  0.47000000000E+01 0. -1.
         -5    1    4    4    0  501 -0.50140156874E+02 -0.60602995236E+02 -0.15426730377E+03  0.17322600663E+03  0.47000000000E+01 0. -1.
          1    1    1    2  502    0  0.88523111074E+01 -0.32829702829E+02 -0.11021156640E+04  0.11026400545E+04  0.00000000000E+00 0. -1.
          1    1    1    2  503    0  0.20518340160E+03  0.20887964780E+03  0.26875971454E+04  0.27034994640E+04  0.00000000000E+00 0. -1.
<mgrwt>
<rscale>  0 0.81571803E+02</rscale>
<asrwt>0</asrwt>
<pdfrwt beam="1">  1        2 0.62762031E+00 0.19569175E+03</pdfrwt>
<pdfrwt beam="2">  1        2 0.22600380E+00 0.34002247E+02</pdfrwt>
<totfact> 0.10899194E+00</totfact>
</mgrwt>
</event>
<event>
13    1  0.1589573E-008  0.1550382E+03  0.7546771E-02  0.1264815E+00
          2   -1    0    0  503    0  0.00000000000E+00  0.00000000000E+00  0.19361504642E+04  0.19361504642E+04  0.00000000000E+00 0. -1.
         -1   -1    0    0    0  501 -0.00000000000E+00 -0.00000000000E+00 -0.24494868996E+04  0.24494868996E+04  0.00000000000E+00 0.  1.
         24    2    1    2    0    0 -0.16657148208E+03  0.49738762011E+03  0.71320634255E+03  0.88977791458E+03  0.88887270988E+02 0.  0.
         25    2    1    2    0    0 -0.24428239304E+03 -0.35313234154E+03  0.22230785252E+03  0.49942189644E+03  0.12500044465E+03 0.  0.
         24    2    1    2    0    0  0.44688084775E+03 -0.57073288372E+02 -0.59157202939E+03  0.74791059005E+03  0.80330146407E+02 0.  0.
        -13    1    5    5    0    0  0.29688377512E+03 -0.42676558983E+02 -0.32920919938E+03  0.44535374880E+03  0.00000000000E+00 0.  1.
         14    1    5    5    0    0  0.14999707263E+03 -0.14396729389E+02 -0.26236283001E+03  0.30255684124E+03  0.00000000000E+00 0. -1.
        -13    1    3    3    0    0  0.82222944861E+01  0.53871078030E+02  0.88893307206E+02  0.10426753685E+03  0.00000000000E+00 0.  1.
         14    1    3    3    0    0 -0.17479377656E+03  0.44351654208E+03  0.62431303534E+03  0.78551037773E+03  0.00000000000E+00 0. -1.
          5    1    4    4  502    0 -0.26220133872E+02 -0.79717557812E+02 -0.17231756521E+01  0.84068090130E+02  0.47000000000E+01 0.  1.
         -5    1    4    4    0  502 -0.21806225917E+03 -0.27341478373E+03  0.22403102817E+03  0.41535380631E+03  0.47000000000E+01 0.  1.
          1    1    1    2  503    0 -0.31339829469E+02  0.67994661320E+02  0.68971314022E+03  0.69376485546E+03  0.00000000000E+00 0. -1.
         -2    1    1    2    0  501 -0.46871431620E+01 -0.15517665152E+03 -0.15469917413E+04  0.15547621073E+04  0.00000000000E+00 0.  1.
<mgrwt>
<rscale>  0 0.10773881E+03</rscale>
<asrwt>0</asrwt>
<pdfrwt beam="1">  1        2 0.28472801E+00 0.74869613E+02</pdfrwt>
<pdfrwt beam="2">  1       -1 0.36021866E+00 0.15503822E+03</pdfrwt>
<totfact> 0.20303342E-01</totfact>
</mgrwt>
</event>
<event>
13    1  0.1589573E-008  0.9725522E+02  0.7546771E-02  0.1286804E+00
          2   -1    0    0  502    0  0.00000000000E+00  0.00000000000E+00  0.10605767487E+04  0.10605767487E+04  0.00000000000E+00 0. -1.
          2   -1    0    0  503    0 -0.00000000000E+00 -0.00000000000E+00 -0.11694721627E+04  0.11694721627E+04  0.00000000000E+00 0. -1.
         24    2    1    2    0    0 -0.98145959335E+02 -0.62883896216E+02 -0.59563387591E+03  0.61239486980E+03  0.81613409995E+02 0.  0.
         25    2    1    2    0    0 -0.34751191405E+02  0.82806789719E+01  0.56263531271E+02  0.14164433922E+03  0.12498527487E+03 0.  0.
         24    2    1    2    0    0  0.31132423972E+02  0.76543187106E+02 -0.21775762783E+03  0.24479110284E+03  0.75340641341E+02 0.  0.
        -11    1    3    3    0    0 -0.48422955921E+02  0.10222855045E+02 -0.29146353016E+03  0.29563538157E+03  0.00000000000E+00 0.  1.
         12    1    3    3    0    0 -0.49723003414E+02 -0.73106751260E+02 -0.30417034575E+03  0.31675948823E+03  0.00000000000E+00 0. -1.
        -11    1    5    5    0    0 -0.23792552657E+02  0.26513235675E+02 -0.50763731994E+02  0.62016076253E+02  0.00000000000E+00 0.  1.
         12    1    5    5    0    0  0.54924976630E+02  0.50029951431E+02 -0.16699389584E+03  0.18277502659E+03  0.00000000000E+00 0. -1.
          5    1    4    4  501    0 -0.79311161859E+02 -0.50584287166E+01  0.18967248288E+02  0.81839444060E+02  0.47000000000E+01 0. -1.
         -5    1    4    4    0  501  0.44559970453E+02  0.13339107688E+02  0.37296282983E+02  0.59804895160E+02  0.47000000000E+01 0. -1.
          1    1    1    2  502    0  0.31399901200E+02 -0.92046859397E+02  0.92865006716E+03  0.93372882860E+03  0.00000000000E+00 0. -1.
          1    1    1    2  503    0  0.70364825568E+02  0.70106889535E+02 -0.28041750872E+03  0.29748977097E+03  0.00000000000E+00 0. -1.
<mgrwt>
<rscale>  0 0.96968199E+02</rscale>
<asrwt>0</asrwt>
<pdfrwt beam="1">  1        2 0.15596717E+00 0.97255222E+02</pdfrwt>
<pdfrwt beam="2">  1        2 0.17198120E+00 0.96682023E+02</pdfrwt>
<totfact> 0.10029403E+02</totfact>
</mgrwt>
</event>
<event>
13    1  0.1589573E-008  0.4534310E+02  0.7546771E-02  0.1485062E+00
          2   -1    0    0  503    0  0.00000000000E+00  0.00000000000E+00  0.18405192963E+04  0.18405192963E+04  0.00000000000E+00 0. -1.
          2   -1    0    0  502    0 -0.00000000000E+00 -0.00000000000E+00 -0.28114101112E+04  0.28114101112E+04  0.00000000000E+00 0. -1.
         24    2    1    2    0    0  0.15972613926E+03 -0.30193681275E+02 -0.24523182481E+02  0.18130496005E+03  0.76459166289E+02 0.  0.
         25    2    1    2    0    0 -0.35077763520E+03  0.16474938460E+03  0.16090635639E+03  0.43783859499E+03  0.12499788260E+03 0.  0.
         24    2    1    2    0    0  0.13000184985E+03 -0.81037354099E+02  0.39474832301E+03  0.43102698864E+03  0.80563594125E+02 0.  0.
        -11    1    3    3    0    0  0.28342410313E+02 -0.97770785446E+01 -0.37158254182E+02  0.47745359367E+02  0.00000000000E+00 0.  1.
         12    1    3    3    0    0  0.13138372894E+03 -0.20416602731E+02  0.12635071701E+02  0.13355960069E+03  0.00000000000E+00 0. -1.
        -11    1    5    5    0    0  0.37496629254E+02 -0.62942613687E+02  0.12041621447E+03  0.14095330620E+03  0.00000000000E+00 0.  1.
         12    1    5    5    0    0  0.92505220597E+02 -0.18094740412E+02  0.27433210854E+03  0.29007368244E+03  0.00000000000E+00 0. -1.
          5    1    4    4  501    0 -0.35573370299E+03  0.14612438568E+03  0.14073060074E+03  0.40954364299E+03  0.47000000000E+01 0.  1.
         -5    1    4    4    0  501  0.49560677836E+01  0.18624998916E+02  0.20175755656E+02  0.28294952002E+02  0.47000000000E+01 0.  1.
          1    1    1    2  502    0  0.22054774840E+02 -0.39608894434E+02 -0.25512809650E+04  0.25516837265E+04  0.00000000000E+00 0. -1.
          1    1    1    2  503    0  0.38994871253E+02 -0.13909454786E+02  0.10492586531E+04  0.10500751374E+04  0.00000000000E+00 0. -1.
<mgrwt>
<rscale>  0 0.43327428E+02</rscale>
<asrwt>0</asrwt>
<pdfrwt beam="1">  1        2 0.27066461E+00 0.41401364E+02</pdfrwt>
<pdfrwt beam="2">  1        2 0.41344266E+00 0.45343095E+02</pdfrwt>
<totfact> 0.76313652E+00</totfact>
</mgrwt>
</event>
<event>
13    1  0.1589573E-008  0.4254930E+03  0.7546771E-02  0.1213984E+00
          2   -1    0    0  502    0  0.00000000000E+00  0.00000000000E+00  0.15936057884E+04  0.15936057884E+04  0.00000000000E+00 0. -1.
          2   -1    0    0  503    0 -0.00000000000E+00 -0.00000000000E+00 -0.16044875228E+04  0.16044875228E+04  0.00000000000E+00 0. -1.
         24    2    1    2    0    0  0.12792348982E+02 -0.31573659637E+03 -0.17732748955E+03  0.37101189912E+03  0.79696601279E+02 0.  0.
         25    2    1    2    0    0 -0.27013662083E+03  0.42049380827E+03  0.88296500350E+03  0.10222740054E+04  0.12501243139E+03 0.  0.
         24    2    1    2    0    0  0.91161694947E+02  0.20695624907E+03  0.25278049019E+03  0.35157267719E+03  0.92542030855E+02 0.  0.
        -11    1    5    5    0    0  0.10202012865E+03  0.17894328773E+03  0.24585869240E+03  0.32074180192E+03  0.00000000000E+00 0.  1.
         12    1    5    5    0    0 -0.10858433701E+02  0.28012961339E+02  0.69217977933E+01  0.30830875273E+02  0.00000000000E+00 0. -1.
        -13    1    3    3    0    0 -0.25436145474E+02 -0.15583552396E+03 -0.59475205912E+02  0.16872761524E+03  0.00000000000E+00 0.  1.
         14    1    3    3    0    0  0.38228494456E+02 -0.15990107240E+03 -0.11785228364E+03  0.20228428388E+03  0.00000000000E+00 0. -1.
          5    1    4    4  501    0 -0.25258129511E+03  0.42136588203E+03  0.81239957938E+03  0.94940069716E+03  0.47000000000E+01 0. -1.
         -5    1    4    4    0  501 -0.17555325715E+02 -0.87207375461E+00  0.70565424121E+02  0.72873308248E+02  0.47000000000E+01 0. -1.
          1    1    1    2  502    0  0.45731823210E+02 -0.10984491072E+01  0.21662572701E+03  0.22140305293E+03  0.00000000000E+00 0. -1.
          1    1    1    2  503    0  0.12045075369E+03 -0.31061501186E+03 -0.11859254655E+04  0.12318316765E+04  0.00000000000E+00 0. -1.
<mgrwt>
<rscale>  0 0.13951410E+03</rscale>
<asrwt>0</asrwt>
<pdfrwt beam="1">  1        2 0.23435379E+00 0.45745013E+02</pdfrwt>
<pdfrwt beam="2">  1        2 0.23595405E+00 0.42549301E+03</pdfrwt>
<totfact> 0.30508147E+01</totfact>
</mgrwt>
</event>
<event>
13    1  0.1589573E-008  0.5073850E+02  0.7546771E-02  0.1462097E+00
          2   -1    0    0  503    0  0.00000000000E+00  0.00000000000E+00  0.15807765445E+04  0.15807765445E+04  0.00000000000E+00 0. -1.
         -1   -1    0    0    0  501 -0.00000000000E+00 -0.00000000000E+00 -0.28307400028E+03  0.28307400028E+03  0.00000000000E+00 0.  1.
         24    2    1    2    0    0 -0.40116372978E+02  0.39497530773E+02 -0.94960593660E+02  0.13609666251E+03  0.79595281766E+02 0.  0.
         25    2    1    2    0    0 -0.99372561478E+02 -0.75943079267E+02  0.25792246579E+03  0.31271699338E+03  0.12500264927E+03 0.  0.
         24    2    1    2    0    0  0.12480728867E+03  0.15297969476E+02  0.50766532220E+02  0.15867091760E+03  0.82391335249E+02 0.  0.
        -11    1    5    5    0    0  0.97874392188E+02  0.13219673664E+02 -0.26650709666E+01  0.98799084111E+02  0.00000000000E+00 0.  1.
         12    1    5    5    0    0  0.26932896477E+02  0.20782958120E+01  0.53431603187E+02  0.59871833489E+02  0.00000000000E+00 0. -1.
        -11    1    3    3    0    0 -0.34346536257E+02  0.60982661509E+02 -0.88696600910E+02  0.11298520510E+03  0.00000000000E+00 0.  1.
         12    1    3    3    0    0 -0.57698367213E+01 -0.21485130736E+02 -0.62639927495E+01  0.23111457411E+02  0.00000000000E+00 0. -1.
          5    1    4    4  502    0 -0.69904589385E+02 -0.76584916456E+02  0.76721646963E+02  0.12907440551E+03  0.47000000000E+01 0. -1.
         -5    1    4    4    0  502 -0.29467972093E+02  0.64183718946E+00  0.18120081883E+03  0.18364258787E+03  0.47000000000E+01 0. -1.
          1    1    1    2  503    0  0.50734790155E+02 -0.33319576530E+01  0.11640714158E+04  0.11651812657E+04  0.00000000000E+00 0. -1.
         -2    1    1    2    0  501 -0.36053144364E+02  0.24479536671E+02 -0.80097275892E+02  0.91184705623E+02  0.00000000000E+00 0.  1.
<mgrwt>
<rscale>  0 0.47022361E+02</rscale>
<asrwt>0</asrwt>
<pdfrwt beam="1">  1        2 0.23246714E+00 0.50738496E+02</pdfrwt>
<pdfrwt beam="2">  1       -1 0.41628530E-01 0.43578400E+02</pdfrwt>
<totfact> 0.10165745E+02</totfact>
</mgrwt>
</event>
<event>
13    1  0.1589573E-008  0.6040415E+02  0.7546771E-02  0.1549732E+00
          4   -1    0    0  503    0 -0.00000000000E+00  0.00000000000E+00  0.16871440244E+03  0.16871440244E+03  0.00000000000E+00 0. -1.
          2   -1    0    0  502    0  0.00000000000E+00 -0.00000000000E+00 -0.24066746442E+04  0.24066746442E+04  0.00000000000E+00 0. -1.
         24    2    1    2    0    0 -0.85032604369E+02 -0.22673035858E+02  0.10415317471E+03  0.15683181743E+03  0.77483706639E+02 0.  0.
         25    2    1    2    0    0  0.17014390823E+03 -0.25859434330E+02 -0.12597252622E+04  0.12775568017E+04  0.12500394258E+03 0.  0.
         24    2    1    2    0    0 -0.20948934451E+02  0.34071419530E+02 -0.34131477780E+03  0.35310455869E+03  0.81162382541E+02 0.  0.
        -11    1    3    3    0    0  0.13872529209E+02 -0.87061285226E+01  0.81668127429E+01  0.18301381666E+02  0.00000000000E+00 0.  1.
         12    1    3    3    0    0 -0.98905133578E+02 -0.13966907335E+02  0.95986361971E+02  0.13853043576E+03  0.00000000000E+00 0. -1.
        -11    1    5    5    0    0 -0.27813175891E+02 -0.20239947385E+02 -0.10334694627E+03  0.10892116198E+03  0.00000000000E+00 0.  1.
         12    1    5    5    0    0  0.68642414402E+01  0.54311366916E+02 -0.23796783153E+03  0.24418339671E+03  0.00000000000E+00 0. -1.
          5    1    4    4  501    0  0.16720239228E+03  0.17844981080E+02 -0.96370065468E+03  0.97827200981E+03  0.47000000000E+01 0.  1.
         -5    1    4    4    0  501  0.29415159480E+01 -0.43704415410E+02 -0.29602460747E+03  0.29928479192E+03  0.47000000000E+01 0.  1.
          1    1    1    2  502    0 -0.60155004092E+02 -0.52692007182E+01 -0.75872276508E+03  0.76112195031E+03  0.00000000000E+00 0. -1.
          3    1    1    2  503    0 -0.40073653169E+01  0.19730251376E+02  0.17649388540E+02  0.26773918503E+02  0.00000000000E+00 0. -1.
<mgrwt>
<rscale>  0 0.34872954E+02</rscale>
<asrwt>0</asrwt>
<pdfrwt beam="2">  1        2 0.35392273E+00 0.60404150E+02</pdfrwt>
<pdfrwt beam="1">  1        4 0.24810943E-01 0.20133102E+02</pdfrwt>
<totfact> 0.36131645E+01</totfact>
</mgrwt>
</event>
<event>
13    1  0.1589573E-008  0.1123863E+03  0.7546771E-02  0.1373161E+00
         -1   -1    0    0    0  501 -0.00000000000E+00  0.00000000000E+00  0.49385518548E+03  0.49385518548E+03  0.00000000000E+00 0.  1.
          2   -1    0    0  503    0  0.00000000000E+00 -0.00000000000E+00 -0.24776167691E+04  0.24776167691E+04  0.00000000000E+00 0. -1.
         24    2    1    2    0    0  0.28734444849E+03 -0.10416157534E+03  0.73110910352E+01  0.31452359399E+03  0.73859144777E+02 0.  0.
         25    2    1    2    0    0  0.11231811641E+03 -0.12492909589E+03  0.95438148428E+01  0.20961797938E+03  0.12500389835E+03 0.  0.
         24    2    1    2    0    0 -0.32454406108E+03  0.27451914848E+03 -0.28856696234E+03  0.51978387698E+03  0.78833854106E+02 0.  0.
        -11    1    3    3    0    0  0.18766858891E+03 -0.10344247837E+03  0.12998330024E+02  0.21468302722E+03  0.00000000000E+00 0.  1.
         12    1    3    3    0    0  0.99675859587E+02 -0.71909696195E+00 -0.56872389889E+01  0.99840566766E+02  0.00000000000E+00 0. -1.
        -11    1    5    5    0    0 -0.24746233850E+03  0.21240887225E+03 -0.17859859066E+03  0.37182333785E+03  0.00000000000E+00 0.  1.
         12    1    5    5    0    0 -0.77081722575E+02  0.62110276225E+02 -0.10996837168E+03  0.14796053912E+03  0.00000000000E+00 0. -1.
          5    1    4    4  502    0 -0.10211195546E+02 -0.51798054859E+02 -0.30739401513E+02  0.61272406571E+02  0.47000000000E+01 0. -1.
         -5    1    4    4    0  502  0.12252931196E+03 -0.73131041035E+02  0.40283216355E+02  0.14834557281E+03  0.47000000000E+01 0. -1.
          1    1    1    2  503    0  0.89276462831E+00  0.39097505183E+02 -0.17895421345E+04  0.17899694028E+04  0.00000000000E+00 0. -1.
         -2    1    1    2    0  501 -0.76011268457E+02 -0.84525982432E+02  0.77492607334E+02  0.13757710140E+03  0.00000000000E+00 0.  1.
<mgrwt>
<rscale>  0 0.66296066E+02</rscale>
<asrwt>0</asrwt>
<pdfrwt beam="2">  1        2 0.36435540E+00 0.39107697E+02</pdfrwt>
<pdfrwt beam="1">  1       -1 0.72625764E-01 0.11238628E+03</pdfrwt>
<totfact> 0.14308686E+01</totfact>
</mgrwt>
</event>
<event>
13    1  0.1589573E-008  0.1342867E+03  0.7546771E-02  0.1308475E+00
          2   -1    0    0  502    0  0.00000000000E+00  0.00000000000E+00  0.45672630809E+04  0.45672630809E+04  0.00000000000E+00 0. -1.
          4   -1    0    0  503    0 -0.00000000000E+00 -0.00000000000E+00 -0.25276450737E+03  0.25276450737E+03  0.00000000000E+00 0. -1.
         24    2    1    2    0    0 -0.14123967857E+03  0.13452480212E+03  0.80307731491E+02  0.22733784797E+03  0.84779692126E+02 0.  0.
         25    2    1    2    0    0 -0.63585771172E+02 -0.22632641548E+03  0.32115858926E+04  0.32226038993E+04  0.12500059772E+03 0.  0.
         24    2    1    2    0    0 -0.71554005048E+01  0.67612795870E+02 -0.28347215448E+02  0.10891411701E+03  0.80224873571E+02 0.  0.
        -11    1    3    3    0    0 -0.12287663791E+03  0.61557239699E+02  0.51172342748E+02  0.14665118672E+03  0.00000000000E+00 0.  1.
         12    1    3    3    0    0 -0.18363040660E+02  0.72967562417E+02  0.29135388743E+02  0.80686661255E+02  0.00000000000E+00 0. -1.
        -13    1    5    5    0    0 -0.33995526321E+02  0.21568258018E+02  0.12064658589E+02  0.42029056029E+02  0.00000000000E+00 0.  1.
         14    1    5    5    0    0  0.26840125816E+02  0.46044537851E+02 -0.40411874037E+02  0.66885060985E+02  0.00000000000E+00 0. -1.
          5    1    4    4  501    0 -0.15404259187E+02  0.12560235218E+02  0.37921397216E+03  0.37976358092E+03  0.47000000000E+01 0. -1.
         -5    1    4    4    0  501 -0.48181511986E+02 -0.23888665070E+03  0.28323719205E+04  0.28428403184E+04  0.47000000000E+01 0. -1.
          1    1    1    2  502    0  0.39416127788E+02  0.41586724317E+02  0.10832383629E+04  0.10847527080E+04  0.00000000000E+00 0. -1.
          3    1    1    2  503    0  0.17256472246E+03 -0.17397906823E+02 -0.32286198028E+02  0.17641901593E+03  0.00000000000E+00 0. -1.
<mgrwt>
<rscale>  0 0.87717662E+02</rscale>
<asrwt>0</asrwt>
<pdfrwt beam="1">  1        2 0.67165628E+00 0.57298227E+02</pdfrwt>
<pdfrwt beam="2">  1        4 0.37171254E-01 0.13428667E+03</pdfrwt>
<totfact> 0.11665316E+00</totfact>
</mgrwt>
</event>
<event>
13    1  0.1589573E-008  0.1277886E+03  0.7546771E-02  0.1249364E+00
          2   -1    0    0  502    0  0.00000000000E+00  0.00000000000E+00  0.97266085670E+03  0.97266085670E+03  0.00000000000E+00 0. -1.
          2   -1    0    0  503    0 -0.00000000000E+00 -0.00000000000E+00 -0.39699477757E+04  0.39699477757E+04  0.00000000000E+00 0. -1.
         24    2    1    2    0    0 -0.22145022168E+03 -0.67034134132E+01 -0.13602144078E+04  0.13805134527E+04  0.80926023744E+02 0.  0.
         25    2    1    2    0    0 -0.36231242311E+02  0.23337631192E+03 -0.26902820548E+02  0.26856467471E+03  0.12500406738E+03 0.  0.
         24    2    1    2    0    0  0.71361041760E+02 -0.10277148125E+03 -0.64870873608E+03  0.66544738362E+03  0.79641826075E+02 0.  0.
        -11    1    3    3    0    0 -0.30834702760E+02  0.23849202217E+02 -0.14918645325E+03  0.15419520477E+03  0.00000000000E+00 0.  1.
         12    1    3    3    0    0 -0.19061551892E+03 -0.30552615630E+02 -0.12110279546E+04  0.12263182479E+04  0.00000000000E+00 0. -1.
        -11    1    5    5    0    0 -0.50955898850E+01  0.10373903115E+02 -0.42044267456E+02  0.43603937070E+02  0.00000000000E+00 0.  1.
         12    1    5    5    0    0  0.76456631645E+02 -0.11314538437E+03 -0.60666446862E+03  0.62184344655E+03  0.00000000000E+00 0. -1.
          5    1    4    4  501    0 -0.50338802435E+02  0.20216054126E+03  0.21048900506E+02  0.20944695196E+03  0.47000000000E+01 0. -1.
         -5    1    4    4    0  501  0.14107560125E+02  0.31215770665E+02 -0.47951721054E+02  0.59117722748E+02  0.47000000000E+01 0. -1.
          1    1    1    2  502    0  0.67209919039E+02 -0.81719097680E+02  0.82771520134E+03  0.83445050103E+03  0.00000000000E+00 0. -1.
          1    1    1    2  503    0  0.11911050320E+03 -0.42182319577E+02 -0.17891761559E+04  0.17936326203E+04  0.00000000000E+00 0. -1.
<mgrwt>
<rscale>  0 0.11627969E+03</rscale>
<asrwt>0</asrwt>
<pdfrwt beam="1">  1        2 0.14303836E+00 0.10580730E+03</pdfrwt>
<pdfrwt beam="2">  1        2 0.58381586E+00 0.12778859E+03</pdfrwt>
<totfact> 0.34830713E+00</totfact>
</mgrwt>
</event>
<event>
13    1  0.1589573E-008  0.8984169E+02  0.7546771E-02  0.1315842E+00
         -3   -1    0    0    0  501 -0.00000000000E+00  0.00000000000E+00  0.69260117118E+03  0.69260117118E+03  0.00000000000E+00 0.  1.
          2   -1    0    0  503    0  0.00000000000E+00 -0.00000000000E+00 -0.16233333830E+04  0.16233333830E+04  0.00000000000E+00 0. -1.
         24    2    1    2    0    0  0.10609587735E+02 -0.24423964975E+02  0.23935388139E+03  0.25456943187E+03  0.82499828422E+02 0.  0.
         25    2    1    2    0    0 -0.21612121784E+02 -0.12712319118E+03  0.19807238760E+02  0.18067957635E+03  0.12500157222E+03 0.  0.
         24    2    1    2    0    0 -0.35739855272E+01 -0.30512695370E+02 -0.11846748667E+03  0.14632246836E+03  0.80199260571E+02 0.  0.
        -11    1    5    5    0    0 -0.30618891369E+02 -0.41181035870E+02 -0.48729156811E+02  0.70766693773E+02  0.00000000000E+00 0.  1.
         12    1    5    5    0    0  0.27044905842E+02  0.10668340500E+02 -0.69738329863E+02  0.75555774585E+02  0.00000000000E+00 0. -1.
        -13    1    3    3    0    0  0.26589982781E+02  0.23916572589E+02  0.10101252100E+03  0.10715670313E+03  0.00000000000E+00 0.  1.
         14    1    3    3    0    0 -0.15980395046E+02 -0.48340537564E+02  0.13834136039E+03  0.14741272874E+03  0.00000000000E+00 0. -1.
          5    1    4    4  502    0 -0.17761154785E+02  0.79365100131E+01 -0.30455134930E+02  0.36442448520E+02  0.47000000000E+01 0. -1.
         -5    1    4    4    0  502 -0.38509669988E+01 -0.13505970120E+03  0.50262373691E+02  0.14423712783E+03  0.47000000000E+01 0. -1.
          1    1    1    2  503    0 -0.63100904524E+01  0.79874885342E+02 -0.13935106847E+04  0.13958122520E+04  0.00000000000E+00 0. -1.
         -4    1    1    2    0  501  0.20886610028E+02  0.10218496619E+03  0.32208483935E+03  0.33855082563E+03  0.00000000000E+00 0.  1.
<mgrwt>
<rscale>  0 0.84843698E+02</rscale>
<asrwt>0</asrwt>
<pdfrwt beam="2">  1        2 0.23872549E+00 0.80123745E+02</pdfrwt>
<pdfrwt beam="1">  1       -3 0.10185312E+00 0.89841694E+02</pdfrwt>
<totfact> 0.75383594E+00</totfact>
</mgrwt>
</event>
<event>
13    1  0.1589573E-008  0.9411269E+02  0.7546771E-02  0.1394476E+00
          4   -1    0    0  503    0 -0.00000000000E+00  0.00000000000E+00  0.29753171794E+03  0.29753171794E+03  0.00000000000E+00 0. -1.
          2   -1    0    0  502    0  0.00000000000E+00 -0.00000000000E+00 -0.27439769249E+04  0.27439769249E+04  0.00000000000E+00 0. -1.
         24    2    1    2    0    0  0.12150988731E+02  0.10426282378E+03  0.10512908580E+03  0.16952738569E+03  0.81664110038E+02 0.  0.
         25    2    1    2    0    0  0.94711838558E+02  0.23485109610E+02 -0.20029750438E+03  0.25545636936E+03  0.12496793049E+03 0.  0.
         24    2    1    2    0    0  0.10445330237E+02  0.74613437637E+01 -0.12464617678E+04  0.12477426649E+04  0.55045822234E+02 0.  0.
        -11    1    5    5    0    0 -0.12017851582E+02 -0.18551345284E+02 -0.51358281006E+03  0.51405824958E+03  0.00000000000E+00 0.  1.
         12    1    5    5    0    0  0.22463181819E+02  0.26012689048E+02 -0.73287895777E+03  0.73368441531E+03  0.00000000000E+00 0. -1.
        -13    1    3    3    0    0  0.33428636201E+02  0.71657138758E+02  0.29370147880E+02  0.84349421099E+02  0.00000000000E+00 0.  1.
         14    1    3    3    0    0 -0.21277647469E+02  0.32605685023E+02  0.75758937915E+02  0.85177964590E+02  0.00000000000E+00 0. -1.
          5    1    4    4  501    0  0.25638722400E+02  0.40649747599E+02 -0.17211667294E+03  0.17876237068E+03  0.47000000000E+01 0. -1.
         -5    1    4    4    0  501  0.69073116158E+02 -0.17164637989E+02 -0.28180831432E+02  0.76693998678E+02  0.47000000000E+01 0. -1.
          1    1    1    2  502    0 -0.90604549590E+02 -0.16402696875E+03 -0.12265927298E+04  0.12408238214E+04  0.00000000000E+00 0. -1.
          3    1    1    2  503    0 -0.26703607936E+02  0.28817691595E+02  0.12177770931E+03  0.12795840148E+03  0.00000000000E+00 0. -1.
<mgrwt>
<rscale>  0 0.60807017E+02</rscale>
<asrwt>0</asrwt>
<pdfrwt beam="2">  1        2 0.40352602E+00 0.94112686E+02</pdfrwt>
<pdfrwt beam="1">  1        4 0.43754664E-01 0.39287937E+02</pdfrwt>
<totfact> 0.91652750E+00</totfact>
</mgrwt>
</event>
<event>
13    1  0.1589573E-008  0.9434670E+02  0.7546771E-02  0.1306343E+00
          2   -1    0    0  503    0  0.00000000000E+00  0.00000000000E+00  0.33270724839E+04  0.33270724839E+04  0.00000000000E+00 0. -1.
         -3   -1    0    0    0  501 -0.00000000000E+00 -0.00000000000E+00 -0.21148372419E+04  0.21148372419E+04  0.00000000000E+00 0.  1.
         24    2    1    2    0    0  0.13508997225E+03 -0.11249096450E+02 -0.43005564742E+03  0.45808423873E+03  0.80730831285E+02 0.  0.
         25    2    1    2    0    0 -0.11700765124E+03 -0.10597462781E+03  0.54869227202E+03  0.58447892675E+03  0.12502397472E+03 0.  0.
         24    2    1    2    0    0 -0.57128454959E+02 -0.51371139603E+02 -0.29401899858E+03  0.31460463788E+03  0.81401795435E+02 0.  0.
        -13    1    3    3    0    0  0.13128598344E+03 -0.24954040513E+02 -0.31530891293E+03  0.34245937592E+03  0.00000000000E+00 0.  1.
         14    1    3    3    0    0  0.38039888178E+01  0.13704944064E+02 -0.11474673450E+03  0.11562486281E+03  0.00000000000E+00 0. -1.
        -13    1    5    5    0    0 -0.11477316285E+02  0.16536482602E+02 -0.19033285001E+02  0.27702887645E+02  0.00000000000E+00 0.  1.
         14    1    5    5    0    0 -0.45651138674E+02 -0.67907622205E+02 -0.27498571358E+03  0.28690175023E+03  0.00000000000E+00 0. -1.
          5    1    4    4  502    0 -0.51149300693E+02 -0.78369674660E+02  0.13313057382E+03  0.16280017369E+03  0.47000000000E+01 0.  1.
         -5    1    4    4    0  502 -0.65858350550E+02 -0.27604953153E+02  0.41556169819E+03  0.42167875306E+03  0.47000000000E+01 0.  1.
          1    1    1    2  503    0  0.36977940167E+02  0.74479733863E+02  0.27339039952E+04  0.27351683045E+04  0.00000000000E+00 0. -1.
         -4    1    1    2    0  501  0.20681937820E+01  0.94115130002E+02 -0.13462863792E+04  0.13495736179E+04  0.00000000000E+00 0.  1.
<mgrwt>
<rscale>  0 0.88573766E+02</rscale>
<asrwt>0</asrwt>
<pdfrwt beam="1">  1        2 0.48927537E+00 0.83154067E+02</pdfrwt>
<pdfrwt beam="2">  1       -3 0.31100548E+00 0.94346703E+02</pdfrwt>
<totfact> 0.50715474E-02</totfact>
</mgrwt>
</event>
<event>
13    1  0.1589573E-008  0.1773288E+03  0.7546771E-02  0.1278172E+00
          2   -1    0    0  503    0  0.00000000000E+00  0.00000000000E+00  0.32775535225E+03  0.32775535225E+03  0.00000000000E+00 0. -1.
          2   -1    0    0  502    0 -0.00000000000E+00 -0.00000000000E+00 -0.18585239978E+04  0.18585239978E+04  0.00000000000E+00 0. -1.
         24    2    1    2    0    0 -0.72772331477E+02  0.23636710186E+03 -0.22429593928E+03  0.34339290850E+03  0.80279525143E+02 0.  0.
         25    2    1    2    0    0  0.19356532969E+03 -0.13330860566E+03 -0.25102998928E+03  0.36589424023E+03  0.12499527316E+03 0.  0.
         24    2    1    2    0    0 -0.12288269419E+03 -0.23029726364E+03 -0.46657208041E+02  0.27669350799E+03  0.79027945235E+02 0.  0.
        -13    1    3    3    0    0 -0.21845098192E+02  0.12126923549E+03 -0.61787382531E+02  0.13784453718E+03  0.00000000000E+00 0.  1.
         14    1    3    3    0    0 -0.50927233285E+02  0.11509786638E+03 -0.16250855675E+03  0.20554837132E+03  0.00000000000E+00 0. -1.
        -13    1    5    5    0    0 -0.27095690060E+02 -0.13238154555E+03 -0.13783738046E+02  0.13582724858E+03  0.00000000000E+00 0.  1.
         14    1    5    5    0    0 -0.95787004135E+02 -0.97915718088E+02 -0.32873469995E+02  0.14086625941E+03  0.00000000000E+00 0. -1.
          5    1    4    4  501    0  0.29169752845E+02 -0.72705304815E+02 -0.30505775758E+02  0.84199929833E+02  0.47000000000E+01 0. -1.
         -5    1    4    4    0  501  0.16439557684E+03 -0.60603300848E+02 -0.22052421352E+03  0.28169431039E+03  0.47000000000E+01 0. -1.
          1    1    1    2  502    0 -0.16799965787E+02 -0.55038395192E+02 -0.10153001289E+04  0.10169296021E+04  0.00000000000E+00 0. -1.
          1    1    1    2  503    0  0.18889661771E+02  0.18227716263E+03  0.65146200194E+01  0.18336909122E+03  0.00000000000E+00 0. -1.
<mgrwt>
<rscale>  0 0.10101703E+03</rscale>
<asrwt>0</asrwt>
<pdfrwt beam="1">  1        2 0.48199317E-01 0.17732876E+03</pdfrwt>
<pdfrwt beam="2">  1        2 0.27331235E+00 0.57545319E+02</pdfrwt>
<totfact> 0.18292200E+02</totfact>
</mgrwt>
</event>
<event>
13    1  0.1589573E-008  0.1463629E+03  0.7546771E-02  0.1212088E+00
          2   -1    0    0  502    0  0.00000000000E+00  0.00000000000E+00  0.25958285822E+04  0.25958285822E+04  0.00000000000E+00 0. -1.
          2   -1    0    0  503    0 -0.00000000000E+00 -0.00000000000E+00 -0.36719365296E+04  0.36719365296E+04  0.00000000000E+00 0. -1.
         24    2    1    2    0    0 -0.55583219244E+02  0.19331411214E+02 -0.12219131123E+04  0.12259526119E+04  0.80155815738E+02 0.  0.
         25    2    1    2    0    0  0.17532243642E+03  0.66203824693E+02  0.36225440778E+03  0.42658431458E+03  0.12500007349E+03 0.  0.
         24    2    1    2    0    0  0.11848504657E+03 -0.95548399370E+02 -0.23875422208E+03  0.29516921914E+03  0.83385169443E+02 0.  0.
        -11    1    3    3    0    0  0.16489747161E+02  0.65376830620E+01 -0.93499109535E+02  0.95166887860E+02  0.00000000000E+00 0.  1.
         12    1    3    3    0    0 -0.72072966405E+02  0.12793728152E+02 -0.11284140028E+04  0.11307857240E+04  0.00000000000E+00 0. -1.
        -13    1    5    5    0    0  0.67752128650E+02 -0.88058323243E+01 -0.64180742654E+02  0.93739326577E+02  0.00000000000E+00 0.  1.
         14    1    5    5    0    0  0.50732917919E+02 -0.86742567046E+02 -0.17457347942E+03  0.20142989256E+03  0.00000000000E+00 0. -1.
          5    1    4    4  501    0  0.76875250147E+02 -0.26997413437E+02  0.19394072467E+03  0.21041330543E+03  0.47000000000E+01 0. -1.
         -5    1    4    4    0  501  0.98447186272E+02  0.93201238130E+02  0.16831368311E+03  0.21617100915E+03  0.47000000000E+01 0. -1.
          1    1    1    2  502    0 -0.85653323382E+02  0.10518537534E+03  0.21652939351E+04  0.21695387253E+04  0.00000000000E+00 0. -1.
          1    1    1    2  503    0 -0.15257094036E+03 -0.95172211877E+02 -0.21429889559E+04  0.21505202410E+04  0.00000000000E+00 0. -1.
<mgrwt>
<rscale>  0 0.14092634E+03</rscale>
<asrwt>0</asrwt>
<pdfrwt beam="1">  1        2 0.38173950E+00 0.13569170E+03</pdfrwt>
<pdfrwt beam="2">  1        2 0.53999066E+00 0.14636291E+03</pdfrwt>
<totfact> 0.78246783E-01</totfact>
</mgrwt>
</event>
<event>
13    1  0.1589573E-008  0.1591218E+03  0.7546771E-02  0.1225601E+00
          2   -1    0    0  502    0  0.00000000000E+00  0.00000000000E+00  0.59447414968E+04  0.59447414968E+04  0.00000000000E+00 0. -1.
          2   -1    0    0  503    0 -0.00000000000E+00 -0.00000000000E+00 -0.26543831066E+04  0.26543831066E+04  0.00000000000E+00 0. -1.
         24    2    1    2    0    0 -0.93648506788E+03 -0.22117758533E+03  0.67861961079E+01  0.96497572543E+03  0.72168494506E+02 0.  0.
         25    2    1    2    0    0  0.39100944577E+03  0.11750395611E+04  0.33652926218E+04  0.35880951404E+04  0.12500379837E+03 0.  0.
         24    2    1    2    0    0  0.56666844928E+03 -0.87066956674E+03  0.21869152800E+03  0.10631314483E+04  0.56954947006E+02 0.  0.
        -11    1    3    3    0    0 -0.29257032209E+03 -0.90358533712E+02  0.28647267794E+02  0.30754304403E+03  0.00000000000E+00 0.  1.
         12    1    3    3    0    0 -0.64391474579E+03 -0.13081905162E+03 -0.21861071686E+02  0.65743268140E+03  0.00000000000E+00 0. -1.
        -13    1    5    5    0    0  0.16511520095E+03 -0.28681448883E+03  0.49829263614E+02  0.33467676361E+03  0.00000000000E+00 0.  1.
         14    1    5    5    0    0  0.40155324833E+03 -0.58385507791E+03  0.16886226438E+03  0.72845468464E+03  0.00000000000E+00 0. -1.
          5    1    4    4  501    0  0.18856683872E+03  0.43366181693E+03  0.14096685120E+04  0.14868784173E+04  0.47000000000E+01 0.  1.
         -5    1    4    4    0  501  0.20244260705E+03  0.74137774421E+03  0.19556241098E+04  0.21012167231E+04  0.47000000000E+01 0.  1.
          1    1    1    2  502    0 -0.12892513882E+03 -0.94005413266E+02  0.13347130732E+04  0.13442163877E+04  0.00000000000E+00 0. -1.
          1    1    1    2  503    0  0.10773231165E+03  0.10813004192E+02 -0.16351250288E+04  0.16387059016E+04  0.00000000000E+00 0. -1.
<mgrwt>
<rscale>  0 0.13125810E+03</rscale>
<asrwt>0</asrwt>
<pdfrwt beam="1">  1        2 0.87422669E+00 0.15912178E+03</pdfrwt>
<pdfrwt beam="2">  1        2 0.39035046E+00 0.10827360E+03</pdfrwt>
<totfact> 0.34846237E-03</totfact>
</mgrwt>
</event>
<event>
13    1  0.1589573E-008  0.1721403E+03  0.7546771E-02  0.1304956E+00
          2   -1    0    0  502    0  0.00000000000E+00  0.00000000000E+00  0.66585282750E+03  0.66585282750E+03  0.00000000000E+00 0. -1.
          2   -1    0    0  503    0 -0.00000000000E+00 -0.00000000000E+00 -0.34902467920E+04  0.34902467920E+04  0.00000000000E+00 0. -1.
         24    2    1    2    0    0 -0.55809552542E+02 -0.40076080338E+02 -0.28490791449E+03  0.30430443737E+03  0.81901602486E+02 0.  0.
         25    2    1    2    0    0 -0.30929622421E+03 -0.46957339777E+02  0.42468290940E+03  0.54208111094E+03  0.12500884465E+03 0.  0.
         24    2    1    2    0    0  0.41001518000E+02  0.21285289478E+01 -0.11738050553E+03  0.14836944743E+03  0.80929937209E+02 0.  0.
        -11    1    3    3    0    0  0.27275432998E+01 -0.47661065064E+02 -0.13515827334E+03  0.14334146458E+03  0.00000000000E+00 0.  1.
         12    1    3    3    0    0 -0.58537095842E+02  0.75849847259E+01 -0.14974964116E+03  0.16096297279E+03  0.00000000000E+00 0. -1.
        -13    1    5    5    0    0  0.58508972272E+02 -0.17044672940E+02 -0.60642122826E+02  0.85972598965E+02  0.00000000000E+00 0.  1.
         14    1    5    5    0    0 -0.17507454272E+02  0.19173201887E+02 -0.56738382708E+02  0.62396848462E+02  0.00000000000E+00 0. -1.
          5    1    4    4  501    0 -0.48871890980E+02  0.24802658725E+02  0.26920395303E+02  0.61240764946E+02  0.47000000000E+01 0. -1.
         -5    1    4    4    0  501 -0.26042433323E+03 -0.71759998502E+02  0.39776251409E+03  0.48084034600E+03  0.47000000000E+01 0. -1.
          1    1    1    2  502    0  0.44384957546E+02  0.12664064928E+02  0.14678114819E+03  0.15386717799E+03  0.00000000000E+00 0. -1.
          1    1    1    2  503    0  0.27971930120E+03  0.72240826240E+02 -0.29935696021E+04  0.30074774458E+04  0.00000000000E+00 0. -1.
<mgrwt>
<rscale>  0 0.89136734E+02</rscale>
<asrwt>0</asrwt>
<pdfrwt beam="1">  1        2 0.97919534E-01 0.46156289E+02</pdfrwt>
<pdfrwt beam="2">  1        2 0.51327158E+00 0.17214030E+03</pdfrwt>
<totfact> 0.10743120E+01</totfact>
</mgrwt>
</event>
<event>
13    1  0.1589573E-008  0.1728821E+03  0.7546771E-02  0.1223771E+00
          2   -1    0    0  502    0  0.00000000000E+00  0.00000000000E+00  0.91597964185E+03  0.91597964185E+03  0.00000000000E+00 0. -1.
          2   -1    0    0  503    0 -0.00000000000E+00 -0.00000000000E+00 -0.96785955526E+03  0.96785955526E+03  0.00000000000E+00 0. -1.
         24    2    1    2    0    0 -0.45040641930E+02 -0.58363071571E+02 -0.97243048833E+02  0.14655203000E+03  0.81156511764E+02 0.  0.
         25    2    1    2    0    0  0.43669130670E+03  0.19648895783E+03  0.24004283034E+03  0.55004806199E+03  0.12500040881E+03 0.  0.
         24    2    1    2    0    0 -0.13460789872E+03 -0.72549735006E+02  0.23455135144E+02  0.17483664385E+03  0.81455252876E+02 0.  0.
        -13    1    3    3    0    0  0.77464812580E+01 -0.54294310177E+02 -0.62865650488E+02  0.83426435263E+02  0.00000000000E+00 0.  1.
         14    1    3    3    0    0 -0.52787123188E+02 -0.40687613939E+01 -0.34377398346E+02  0.63125594736E+02  0.00000000000E+00 0. -1.
        -13    1    5    5    0    0 -0.29768673568E+02  0.15037081502E+02  0.18493008529E+02  0.38135011611E+02  0.00000000000E+00 0.  1.
         14    1    5    5    0    0 -0.10483922515E+03 -0.87586816508E+02  0.49621266154E+01  0.13670163224E+03  0.00000000000E+00 0. -1.
          5    1    4    4  501    0  0.15718851656E+03  0.12631456297E+03  0.60921013842E+02  0.21070609503E+03  0.47000000000E+01 0.  1.
         -5    1    4    4    0  501  0.27950279014E+03  0.70174394857E+02  0.17912181650E+03  0.33934196695E+03  0.47000000000E+01 0.  1.
          1    1    1    2  502    0 -0.92117457036E+02  0.42797256516E+02  0.37436590522E+03  0.38790084049E+03  0.00000000000E+00 0. -1.
          1    1    1    2  503    0 -0.16492530901E+03 -0.10837340777E+03 -0.59250073528E+03  0.62450162079E+03  0.00000000000E+00 0. -1.
<mgrwt>
<rscale>  0 0.13251523E+03</rscale>
<asrwt>0</asrwt>
<pdfrwt beam="1">  1        2 0.13470289E+00 0.10157377E+03</pdfrwt>
<pdfrwt beam="2">  1        2 0.14233229E+00 0.17288209E+03</pdfrwt>
<totfact> 0.15318665E+02</totfact>
</mgrwt>
</event>
<event>
13    1  0.1589573E-008  0.1352027E+03  0.7546771E-02  0.1245270E+00
          2   -1    0    0  502    0  0.00000000000E+00  0.00000000000E+00  0.20138606801E+04  0.20138606801E+04  0.00000000000E+00 0. -1.
          2   -1    0    0  503    0 -0.00000000000E+00 -0.00000000000E+00 -0.10506236737E+04  0.10506236737E+04  0.00000000000E+00 0. -1.
         24    2    1    2    0    0 -0.25530924786E+01  0.89968206124E+02  0.39021910721E+02  0.12634728240E+03  0.79624932391E+02 0.  0.
         25    2    1    2    0    0  0.24546862814E+03  0.32689086701E+02  0.11517966678E+04  0.11847289567E+04  0.12499485150E+03 0.  0.
         24    2    1    2    0    0  0.10744709415E+01  0.34442869714E+02 -0.48916180861E+02  0.10041328151E+03  0.80638505644E+02 0.  0.
        -11    1    5    5    0    0  0.28945204074E+02  0.24112933359E+02  0.58271897337E+01  0.38121051064E+02  0.00000000000E+00 0.  1.
         12    1    5    5    0    0 -0.27870733132E+02  0.10329936356E+02 -0.54743370595E+02  0.62292230451E+02  0.00000000000E+00 0. -1.
        -13    1    3    3    0    0  0.26296769726E+02  0.86680270683E+02  0.24260892056E+02  0.93774091875E+02  0.00000000000E+00 0.  1.
         14    1    3    3    0    0 -0.28849862205E+02  0.32879354410E+01  0.14761018665E+02  0.32573190521E+02  0.00000000000E+00 0. -1.
          5    1    4    4  501    0  0.73968017360E+02 -0.41752994247E+02  0.26105372484E+03  0.27456459599E+03  0.47000000000E+01 0. -1.
         -5    1    4    4    0  501  0.17150061078E+03  0.74442080949E+02  0.89074294300E+03  0.91016436067E+03  0.47000000000E+01 0. -1.
          1    1    1    2  502    0 -0.37595889662E+02 -0.97313567541E+02  0.72075325854E+03  0.72826412863E+03  0.00000000000E+00 0. -1.
          1    1    1    2  503    0 -0.20639411694E+03 -0.59786594999E+02 -0.89941864982E+03  0.92473070463E+03  0.00000000000E+00 0. -1.
<mgrwt>
<rscale>  0 0.11869245E+03</rscale>
<asrwt>0</asrwt>
<pdfrwt beam="1">  1        2 0.29615598E+00 0.10419834E+03</pdfrwt>
<pdfrwt beam="2">  1        2 0.15450348E+00 0.13520271E+03</pdfrwt>
<totfact> 0.37871468E+01</totfact>
</mgrwt>
</event>
<event>
13    1  0.1589573E-008  0.1017873E+03  0.7546771E-02  0.1390100E+00
          2   -1    0    0  503    0  0.00000000000E+00  0.00000000000E+00  0.35146282771E+04  0.35146282771E+04  0.00000000000E+00 0. -1.
         -3   -1    0    0    0  501 -0.00000000000E+00 -0.00000000000E+00 -0.90934718165E+03  0.90934718165E+03  0.00000000000E+00 0.  1.
         24    2    1    2    0    0 -0.62698101393E+03  0.66103926757E+03  0.29316496264E+03  0.95961327838E+03  0.69525848637E+02 0.  0.
         25    2    1    2    0    0  0.71840653664E+03 -0.48734885983E+03  0.35714098909E+02  0.87779097248E+03  0.12499852573E+03 0.  0.
         24    2    1    2    0    0 -0.93823483283E+02 -0.77191331553E+02  0.11125050842E+04  0.11220987173E+04  0.81710595056E+02 0.  0.
        -11    1    5    5    0    0  0.12231827005E+02 -0.24233427725E+02  0.16706115711E+03  0.16925219888E+03  0.00000000000E+00 0.  1.
         12    1    5    5    0    0 -0.10605531029E+03 -0.52957903828E+02  0.94544392706E+03  0.95284651840E+03  0.00000000000E+00 0. -1.
        -11    1    3    3    0    0 -0.39744104604E+03  0.44700952618E+03  0.22029331325E+03  0.63742140334E+03  0.00000000000E+00 0.  1.
         12    1    3    3    0    0 -0.22953996789E+03  0.21402974139E+03  0.72871649387E+02  0.32219187504E+03  0.00000000000E+00 0. -1.
          5    1    4    4  502    0  0.21483413504E+03 -0.84964277834E+02 -0.12270717254E+02  0.23139856220E+03  0.47000000000E+01 0.  1.
         -5    1    4    4    0  502  0.50357240161E+03 -0.40238458200E+03  0.47984816163E+02  0.64639241028E+03  0.47000000000E+01 0.  1.
          1    1    1    2  503    0 -0.37519731629E+02 -0.27629255235E+01  0.12966137898E+04  0.12971594674E+04  0.00000000000E+00 0. -1.
         -4    1    1    2    0  501  0.39917692198E+02 -0.93736150659E+02 -0.13271684006E+03  0.16731302318E+03  0.00000000000E+00 0.  1.
<mgrwt>
<rscale>  0 0.61881922E+02</rscale>
<asrwt>0</asrwt>
<pdfrwt beam="1">  1        2 0.51685709E+00 0.37621324E+02</pdfrwt>
<pdfrwt beam="2">  1       -3 0.13372753E+00 0.10178728E+03</pdfrwt>
<totfact> 0.50828507E-01</totfact>
</mgrwt>
</event>
<event>
13    1  0.1589573E-008  0.1419908E+03  0.7546771E-02  0.1344117E+00
          2   -1    0    0  503    0  0.00000000000E+00  0.00000000000E+00  0.78537194958E+03  0.78537194958E+03  0.00000000000E+00 0. -1.
          2   -1    0    0  502    0 -0.00000000000E+00 -0.00000000000E+00 -0.34611127549E+04  0.34611127549E+04  0.00000000000E+00 0. -1.
         24    2    1    2    0    0  0.11127148082E+02 -0.12295678813E+03 -0.63144006370E+03  0.64804520014E+03  0.77484464219E+02 0.  0.
         25    2    1    2    0    0 -0.17520618963E+03  0.15996003482E+03  0.53356710578E+03  0.59716302932E+03  0.12500162237E+03 0.  0.
         24    2    1    2    0    0 -0.30601490250E+01  0.92758985147E+02 -0.26332018244E+03  0.29071645059E+03  0.81024331681E+02 0.  0.
        -13    1    3    3    0    0  0.28100383291E+02 -0.87150365565E+01 -0.10226560497E+03  0.10641352058E+03  0.00000000000E+00 0.  1.
         14    1    3    3    0    0 -0.16973235209E+02 -0.11424175157E+03 -0.52917445874E+03  0.54163167955E+03  0.00000000000E+00 0. -1.
        -13    1    5    5    0    0 -0.36614162376E+02  0.65334976682E+02 -0.20353541010E+03  0.21687765959E+03  0.00000000000E+00 0.  1.
         14    1    5    5    0    0  0.33554013351E+02  0.27424008465E+02 -0.59784772340E+02  0.73838790997E+02  0.00000000000E+00 0. -1.
          5    1    4    4  501    0 -0.72550993959E+02 -0.39451633141E+01  0.17924507944E+03  0.19346860092E+03  0.47000000000E+01 0.  1.
         -5    1    4    4    0  501 -0.10265519567E+03  0.16390519813E+03  0.35432202634E+03  0.40369442840E+03  0.47000000000E+01 0.  1.
          1    1    1    2  502    0  0.13952011727E+03 -0.15804532077E+03 -0.25061098640E+04  0.25149613987E+04  0.00000000000E+00 0. -1.
          1    1    1    2  503    0  0.27619073296E+02  0.28283088933E+02  0.19156219899E+03  0.19559862579E+03  0.00000000000E+00 0. -1.
<mgrwt>
<rscale>  0 0.74920781E+02</rscale>
<asrwt>0</asrwt>
<pdfrwt beam="1">  1        2 0.11549588E+00 0.39531586E+02</pdfrwt>
<pdfrwt beam="2">  1        2 0.50898717E+00 0.14199085E+03</pdfrwt>
<totfact> 0.96418895E+00</totfact>
</mgrwt>
</event>
<event>
13    1  0.1589573E-008  0.7543630E+02  0.7546771E-02  0.1355117E+00
          2   -1    0    0  503    0  0.00000000000E+00  0.00000000000E+00  0.23417276162E+04  0.23417276162E+04  0.00000000000E+00 0. -1.
          2   -1    0    0  502    0 -0.00000000000E+00 -0.00000000000E+00 -0.75367044421E+03  0.75367044421E+03  0.00000000000E+00 0. -1.
         24    2    1    2    0    0  0.14373905399E+03  0.72943790948E+01 -0.51817533077E+02  0.16977016607E+03  0.73639180774E+02 0.  0.
         25    2    1    2    0    0 -0.17504006224E+02 -0.10618690036E+03  0.55032754191E+03  0.57451479125E+03  0.12499917576E+03 0.  0.
         24    2    1    2    0    0 -0.72176743220E+02  0.13459867574E+02 -0.57635499014E+02  0.12304667635E+03  0.80174706219E+02 0.  0.
        -11    1    3    3    0    0  0.11620453274E+03 -0.97801312002E+01 -0.10246086354E+02  0.11706462609E+03  0.00000000000E+00 0.  1.
         12    1    3    3    0    0  0.27534521252E+02  0.17074510295E+02 -0.41571446723E+02  0.52705539984E+02  0.00000000000E+00 0. -1.
        -11    1    5    5    0    0 -0.49121493598E+02  0.40710539745E+02 -0.59587774829E+02  0.87298179183E+02  0.00000000000E+00 0.  1.
         12    1    5    5    0    0 -0.23055249622E+02 -0.27250672170E+02  0.19522758148E+01  0.35748497167E+02  0.00000000000E+00 0. -1.
          5    1    4    4  501    0  0.31424565685E+01 -0.63355684103E+02  0.82106973569E+02  0.10386271155E+03  0.47000000000E+01 0. -1.
         -5    1    4    4    0  501 -0.20646462793E+02 -0.42831216259E+02  0.46822056834E+03  0.47065207970E+03  0.47000000000E+01 0. -1.
          1    1    1    2  502    0  0.12767917282E+02  0.74349018064E+02 -0.53712528383E+03  0.54239687197E+03  0.00000000000E+00 0. -1.
          1    1    1    2  503    0 -0.66826221830E+02  0.11083635629E+02  0.16843079460E+04  0.16856695548E+04  0.00000000000E+00 0. -1.
<mgrwt>
<rscale>  0 0.71484196E+02</rscale>
<asrwt>0</asrwt>
<pdfrwt beam="1">  1        2 0.34437171E+00 0.67739139E+02</pdfrwt>
<pdfrwt beam="2">  1        2 0.11083389E+00 0.75436304E+02</pdfrwt>
<totfact> 0.43127465E+01</totfact>
</mgrwt>
</event>
<event>
13    1  0.1589573E-008  0.7057862E+02  0.7546771E-02  0.1473527E+00
          2   -1    0    0  503    0  0.00000000000E+00  0.00000000000E+00  0.19932550954E+04  0.19932550954E+04  0.00000000000E+00 0. -1.
         -3   -1    0    0    0  501 -0.00000000000E+00 -0.00000000000E+00 -0.34215986661E+03  0.34215986661E+03  0.00000000000E+00 0.  1.
         24    2    1    2    0    0 -0.10369667778E+03  0.87884714134E+01 -0.73313082357E+02  0.15009889688E+03  0.79527558664E+02 0.  0.
         25    2    1    2    0    0  0.18202400465E+03  0.35719292689E+02  0.14696832941E+04  0.14866085710E+04  0.12500980846E+03 0.  0.
         24    2    1    2    0    0 -0.96600624662E+02  0.11381704265E+01  0.34029810161E+03  0.36320318490E+03  0.82345488300E+02 0.  0.
        -11    1    5    5    0    0 -0.10577020125E+03 -0.13277134644E+02  0.31603034006E+03  0.33352480210E+03  0.00000000000E+00 0.  1.
         12    1    5    5    0    0  0.91695765834E+01  0.14415305071E+02  0.24267761555E+02  0.29678382805E+02  0.00000000000E+00 0. -1.
        -11    1    3    3    0    0 -0.25866984108E+02  0.39377775431E+02 -0.30796422760E+02  0.56286141452E+02  0.00000000000E+00 0.  1.
         12    1    3    3    0    0 -0.77829693672E+02 -0.30589304018E+02 -0.42516659596E+02  0.93812755426E+02  0.00000000000E+00 0. -1.
          5    1    4    4  502    0  0.10148436248E+03 -0.23896267356E+02  0.10468260014E+04  0.10520156247E+04  0.47000000000E+01 0.  1.
         -5    1    4    4    0  502  0.80539642163E+02  0.59615560044E+02  0.42285729272E+03  0.43459294629E+03  0.47000000000E+01 0.  1.
          1    1    1    2  503    0 -0.27733530076E+02  0.79784333550E+01  0.11723827908E+03  0.12073780754E+03  0.00000000000E+00 0. -1.
         -4    1    1    2    0  501  0.46006827869E+02 -0.53624367883E+02 -0.20281136363E+03  0.21476650172E+03  0.00000000000E+00 0.  1.
<mgrwt>
<rscale>  0 0.45130724E+02</rscale>
<asrwt>0</asrwt>
<pdfrwt beam="1">  1        2 0.29312574E+00 0.28858345E+02</pdfrwt>
<pdfrwt beam="2">  1       -3 0.50317628E-01 0.70578622E+02</pdfrwt>
<totfact> 0.24593406E+01</totfact>
</mgrwt>
</event>
<event>
13    1  0.1589573E-008  0.1264414E+03  0.7546771E-02  0.1304625E+00
          2   -1    0    0  502    0  0.00000000000E+00  0.00000000000E+00  0.17546332340E+04  0.17546332340E+04  0.00000000000E+00 0. -1.
          2   -1    0    0  503    0 -0.00000000000E+00 -0.00000000000E+00 -0.79671547896E+03  0.79671547896E+03  0.00000000000E+00 0. -1.
         24    2    1    2    0    0  0.21116675526E+03 -0.13419393010E+03 -0.16077202588E+03  0.30775779418E+03  0.79169477507E+02 0.  0.
         25    2    1    2    0    0 -0.95999155378E+02  0.28982014352E+03  0.81940268484E+03  0.88332047612E+03  0.12499100042E+03 0.  0.
         24    2    1    2    0    0 -0.54359906202E+02 -0.10482723117E+03 -0.55568283845E+02  0.15391258386E+03  0.81593513863E+02 0.  0.
        -13    1    3    3    0    0  0.16577806296E+02  0.34224160707E+01  0.47536661461E+01  0.17582205072E+02  0.00000000000E+00 0.  1.
         14    1    3    3    0    0  0.19458894897E+03 -0.13761634617E+03 -0.16552569202E+03  0.29017558911E+03  0.00000000000E+00 0. -1.
        -13    1    5    5    0    0 -0.29801201261E+01 -0.72268032013E+02 -0.12161393390E+01  0.72339674881E+02  0.00000000000E+00 0.  1.
         14    1    5    5    0    0 -0.51379786076E+02 -0.32559199152E+02 -0.54352144506E+02  0.81572908977E+02  0.00000000000E+00 0. -1.
          5    1    4    4  501    0 -0.10532386879E+03  0.29774429558E+03  0.77143535590E+03  0.83359425455E+03  0.47000000000E+01 0. -1.
         -5    1    4    4    0  501  0.93247134097E+01 -0.79241520584E+01  0.47967328945E+02  0.49726221576E+02  0.47000000000E+01 0. -1.
          1    1    1    2  502    0  0.61121069450E+02 -0.15390099071E+02  0.76982407526E+03  0.77239999167E+03  0.00000000000E+00 0. -1.
          1    1    1    2  503    0 -0.12192876313E+03 -0.35408883183E+02 -0.41496869536E+03  0.43395786710E+03  0.00000000000E+00 0. -1.
<mgrwt>
<rscale>  0 0.89271820E+02</rscale>
<asrwt>0</asrwt>
<pdfrwt beam="1">  1        2 0.25803430E+00 0.63028884E+02</pdfrwt>
<pdfrwt beam="2">  1        2 0.11716404E+00 0.12644136E+03</pdfrwt>
<totfact> 0.75874120E+01</totfact>
</mgrwt>
</event>
<event>
13    1  0.1589573E-008  0.1906757E+03  0.7546771E-02  0.1261958E+00
          2   -1    0    0  502    0  0.00000000000E+00  0.00000000000E+00  0.44794385288E+04  0.44794385288E+04  0.00000000000E+00 0. -1.
          2   -1    0    0  503    0 -0.00000000000E+00 -0.00000000000E+00 -0.54321559927E+03  0.54321559927E+03  0.00000000000E+00 0. -1.
         24    2    1    2    0    0  0.18122114768E+03  0.74077814495E+02 -0.88317673790E+02  0.22919774793E+03  0.80018555270E+02 0.  0.
         25    2    1    2    0    0 -0.18130917297E+03  0.78587807725E+02  0.11790185195E+04  0.12019811252E+04  0.12499958568E+03 0.  0.
         24    2    1    2    0    0  0.53542571135E+01  0.59242570411E+02  0.62317338326E+02  0.11760337836E+03  0.80054692095E+02 0.  0.
        -11    1    3    3    0    0  0.12376633677E+03  0.71174489505E+02 -0.27340730646E+02  0.14536653544E+03  0.00000000000E+00 0.  1.
         12    1    3    3    0    0  0.57454810903E+02  0.29033249899E+01 -0.60976943145E+02  0.83831212488E+02  0.00000000000E+00 0. -1.
        -13    1    5    5    0    0  0.31458257961E+02  0.46967212469E+02  0.67764683999E+02  0.88247342388E+02  0.00000000000E+00 0.  1.
         14    1    5    5    0    0 -0.26104000847E+02  0.12275357942E+02 -0.54473456733E+01  0.29356035967E+02  0.00000000000E+00 0. -1.
          5    1    4    4  501    0 -0.65289182659E+02  0.84883931908E+02  0.74426625554E+03  0.75194568182E+03  0.47000000000E+01 0. -1.
         -5    1    4    4    0  501 -0.11601999031E+03 -0.62961241832E+01  0.43475226393E+03  0.45003544341E+03  0.47000000000E+01 0. -1.
          1    1    1    2  502    0  0.54955911091E+02 -0.29977347269E+02  0.31016111338E+04  0.31022428046E+04  0.00000000000E+00 0. -1.
          1    1    1    2  503    0 -0.60222142910E+02 -0.18193084536E+03 -0.31840638829E+03  0.37162907192E+03  0.00000000000E+00 0. -1.
<mgrwt>
<rscale>  0 0.10925362E+03</rscale>
<asrwt>0</asrwt>
<pdfrwt beam="1">  1        2 0.65874094E+00 0.62600268E+02</pdfrwt>
<pdfrwt beam="2">  1        2 0.79884649E-01 0.19067574E+03</pdfrwt>
<totfact> 0.34690699E+00</totfact>
</mgrwt>
</event>
<event>
13    1  0.1589573E-008  0.7413040E+02  0.7546771E-02  0.1420031E+00
          2   -1    0    0  503    0  0.00000000000E+00  0.00000000000E+00  0.20008192250E+04  0.20008192250E+04  0.00000000000E+00 0. -1.
          2   -1    0    0  502    0 -0.00000000000E+00 -0.00000000000E+00 -0.80443809415E+03  0.80443809415E+03  0.00000000000E+00 0. -1.
         24    2    1    2    0    0  0.26822323836E+03 -0.80329146782E+02 -0.54031277354E+03  0.61364856069E+03  0.78931523309E+02 0.  0.
         25    2    1    2    0    0 -0.31639947571E+03 -0.37384093505E+02  0.24219784247E+03  0.41927954904E+03  0.12501738546E+03 0.  0.
         24    2    1    2    0    0  0.23882570988E+02  0.14061335189E+03  0.12115535043E+03  0.20287666324E+03  0.78344301786E+02 0.  0.
        -13    1    5    5    0    0  0.52360009835E+02  0.87173668937E+02  0.83410425525E+02  0.13152231093E+03  0.00000000000E+00 0.  1.
         14    1    5    5    0    0 -0.28477438847E+02  0.53439682957E+02  0.37744924902E+02  0.71354352311E+02  0.00000000000E+00 0. -1.
        -13    1    3    3    0    0  0.17148844821E+03 -0.45895057531E+02 -0.25742116042E+03  0.31269841382E+03  0.00000000000E+00 0.  1.
         14    1    3    3    0    0  0.96734790150E+02 -0.34434089251E+02 -0.28289161312E+03  0.30095014687E+03  0.00000000000E+00 0. -1.
          5    1    4    4  501    0 -0.19862183352E+03 -0.66727392128E+02  0.99861935040E+02  0.23215872519E+03  0.47000000000E+01 0.  1.
         -5    1    4    4    0  501 -0.11777764219E+03  0.29343298623E+02  0.14233590743E+03  0.18712082385E+03  0.47000000000E+01 0.  1.
          1    1    1    2  502    0 -0.28095491467E+02  0.29623390964E+02 -0.92827214937E+02  0.10140904183E+03  0.00000000000E+00 0. -1.
          1    1    1    2  503    0  0.52389157823E+02 -0.52523502570E+02  0.14661679265E+04  0.14680435044E+04  0.00000000000E+00 0. -1.
<mgrwt>
<rscale>  0 0.55014312E+02</rscale>
<asrwt>0</asrwt>
<pdfrwt beam="1">  1        2 0.29423812E+00 0.74130401E+02</pdfrwt>
<pdfrwt beam="2">  1        2 0.11829972E+00 0.40827710E+02</pdfrwt>
<totfact> 0.58717027E+01</totfact>
</mgrwt>
</event>
<event>
13    1  0.1589573E-008  0.1914356E+03  0.7546771E-02  0.1302704E+00
          2   -1    0    0  503    0  0.00000000000E+00  0.00000000000E+00  0.15889982490E+04  0.15889982490E+04  0.00000000000E+00 0. -1.
          2   -1    0    0  502    0 -0.00000000000E+00 -0.00000000000E+00 -0.20274718211E+04  0.20274718211E+04  0.00000000000E+00 0. -1.
         24    2    1    2    0    0  0.10892024872E+03  0.51877255777E+02 -0.71854911140E+03  0.73288651710E+03  0.79088249476E+02 0.  0.
         25    2    1    2    0    0  0.31442640196E+03 -0.20720483467E+03  0.89336497711E+02  0.40669782715E+03  0.12499722809E+03 0.  0.
         24    2    1    2    0    0 -0.17917860469E+03  0.12587356060E+01  0.69416865455E+03  0.72144619353E+03  0.80671757167E+02 0.  0.
        -13    1    3    3    0    0  0.50948383503E+01  0.39124170136E+02 -0.18020211922E+03  0.18447076147E+03  0.00000000000E+00 0.  1.
         14    1    3    3    0    0  0.10382541037E+03  0.12753085641E+02 -0.53834699218E+03  0.54841575563E+03  0.00000000000E+00 0. -1.
        -13    1    5    5    0    0 -0.14447639660E+03  0.86510041161E+01  0.40453401914E+03  0.42964641473E+03  0.00000000000E+00 0.  1.
         14    1    5    5    0    0 -0.34702208093E+02 -0.73922685100E+01  0.28963463540E+03  0.29179977879E+03  0.00000000000E+00 0. -1.
          5    1    4    4  501    0  0.86239977546E+02 -0.12557777880E+03  0.14922711812E+02  0.15314009789E+03  0.47000000000E+01 0.  1.
         -5    1    4    4    0  501  0.22818642441E+03 -0.81627055870E+02  0.74413785899E+02  0.25355772926E+03  0.47000000000E+01 0.  1.
          1    1    1    2  502    0 -0.20745579045E+03  0.17521988221E+03 -0.11123655048E+04  0.11450314094E+04  0.00000000000E+00 0. -1.
          1    1    1    2  503    0 -0.36712255531E+02 -0.21151038924E+02  0.60893589184E+03  0.61040812292E+03  0.00000000000E+00 0. -1.
<mgrwt>
<rscale>  0 0.90061040E+02</rscale>
<asrwt>0</asrwt>
<pdfrwt beam="1">  1        2 0.23367621E+00 0.42369283E+02</pdfrwt>
<pdfrwt beam="2">  1        2 0.29815762E+00 0.19143564E+03</pdfrwt>
<totfact> 0.20195968E+01</totfact>
</mgrwt>
</event>
<event>
13    1  0.1589573E-008  0.1860482E+03  0.7546771E-02  0.1367896E+00
          2   -1    0    0  503    0  0.00000000000E+00  0.00000000000E+00  0.52603377426E+03  0.52603377426E+03  0.00000000000E+00 0. -1.
          2   -1    0    0  502    0 -0.00000000000E+00 -0.00000000000E+00 -0.14282502357E+04  0.14282502357E+04  0.00000000000E+00 0. -1.
         24    2    1    2    0    0  0.57401342233E+02 -0.32058123081E+02 -0.67534976657E+03  0.68338826603E+03  0.81237784267E+02 0.  0.
         25    2    1    2    0    0 -0.16996406073E+03  0.11466617332E+03 -0.15710509041E+03  0.28695679822E+03  0.12500432540E+03 0.  0.
         24    2    1    2    0    0 -0.12878675059E+02  0.83215391698E+02 -0.13582706844E+02  0.11616743108E+03  0.78865204193E+02 0.  0.
        -11    1    5    5    0    0  0.45696415744E+00 -0.11928705608E+02 -0.16121153722E+02  0.20059771460E+02  0.00000000000E+00 0.  1.
         12    1    5    5    0    0 -0.13335639216E+02  0.95144097306E+02  0.25384468771E+01  0.96107659622E+02  0.00000000000E+00 0. -1.
        -13    1    3    3    0    0  0.42752251423E+02  0.19069754275E+02 -0.41710283854E+03  0.41972156061E+03  0.00000000000E+00 0.  1.
         14    1    3    3    0    0  0.14649090810E+02 -0.51127877357E+02 -0.25824692804E+03  0.26366670542E+03  0.00000000000E+00 0. -1.
          5    1    4    4  501    0 -0.18929839225E+03  0.10191815046E+03 -0.13126203735E+03  0.25193849081E+03  0.47000000000E+01 0. -1.
         -5    1    4    4    0  501  0.19334331524E+02  0.12748022861E+02 -0.25843053060E+02  0.35018307409E+02  0.47000000000E+01 0. -1.
          1    1    1    2  502    0  0.72078083101E+01 -0.23599201305E+02 -0.44053805794E+03  0.44122857489E+03  0.00000000000E+00 0. -1.
          1    1    1    2  503    0  0.11823358524E+03 -0.14222424064E+03  0.38435916033E+03  0.42654293973E+03  0.00000000000E+00 0. -1.
<mgrwt>
<rscale>  0 0.67755534E+02</rscale>
<asrwt>0</asrwt>
<pdfrwt beam="1">  1        2 0.77357909E-01 0.18604823E+03</pdfrwt>
<pdfrwt beam="2">  1        2 0.21003680E+00 0.24675389E+02</pdfrwt>
<totfact> 0.18771415E+02</totfact>
</mgrwt>
</event>
<event>
13    1  0.1589573E-008  0.1673579E+03  0.7546771E-02  0.1189732E+00
          2   -1    0    0  503    0  0.00000000000E+00  0.00000000000E+00  0.27789763163E+04  0.27789763163E+04  0.00000000000E+00 0. -1.
         -1   -1    0    0    0  501 -0.00000000000E+00 -0.00000000000E+00 -0.94218396440E+03  0.94218396440E+03  0.00000000000E+00 0.  1.
         24    2    1    2    0    0 -0.20732399852E+03 -0.38823618881E+02  0.42442473880E+03  0.48079538300E+03  0.80853742400E+02 0.  0.
         25    2    1    2    0    0  0.23352966723E+03 -0.73634736552E+02  0.28045229601E+03  0.39273171220E+03  0.12500610996E+03 0.  0.
         24    2    1    2    0    0  0.26180118665E+01 -0.41238282884E+02 -0.49568429564E+02  0.10260447210E+03  0.79769659169E+02 0.  0.
        -11    1    3    3    0    0 -0.18629791941E+03 -0.13819125743E+02  0.39448457691E+03  0.43648134489E+03  0.00000000000E+00 0.  1.
         12    1    3    3    0    0 -0.21026079102E+02 -0.25004493138E+02  0.29940161893E+02  0.44314038110E+02  0.00000000000E+00 0. -1.
        -13    1    5    5    0    0  0.32805625525E+02 -0.26528819268E+02 -0.54222604446E+02  0.68702824911E+02  0.00000000000E+00 0.  1.
         14    1    5    5    0    0 -0.30187613658E+02 -0.14709463617E+02  0.46541748819E+01  0.33901647189E+02  0.00000000000E+00 0. -1.
          5    1    4    4  502    0  0.65391590463E+02 -0.83749719274E+02  0.11254523306E+03  0.15485023431E+03  0.47000000000E+01 0.  1.
         -5    1    4    4    0  502  0.16813807677E+03  0.10114982722E+02  0.16790706295E+03  0.23788147789E+03  0.47000000000E+01 0.  1.
          1    1    1    2  503    0  0.23036681741E+03  0.14365283669E+03  0.19319855740E+04  0.19509672643E+04  0.00000000000E+00 0. -1.
         -2    1    1    2    0  501 -0.25919049799E+03  0.10043801627E+02 -0.75050182734E+03  0.79406144916E+03  0.00000000000E+00 0.  1.
<mgrwt>
<rscale>  0 0.15908608E+03</rscale>
<asrwt>0</asrwt>
<pdfrwt beam="1">  1        2 0.40867299E+00 0.16735789E+03</pdfrwt>
<pdfrwt beam="2">  1       -1 0.13855647E+00 0.15122310E+03</pdfrwt>
<totfact> 0.19531824E+00</totfact>
</mgrwt>
</event>
<event>
13    1  0.1589573E-008  0.7182859E+02  0.7546771E-02  0.1376016E+00
         -1   -1    0    0    0  501 -0.00000000000E+00  0.00000000000E+00  0.10027872033E+04  0.10027872033E+04  0.00000000000E+00 0.  1.
          2   -1    0    0  503    0  0.00000000000E+00 -0.00000000000E+00 -0.28109697992E+03  0.28109697992E+03  0.00000000000E+00 0. -1.
         24    2    1    2    0    0  0.76575421982E+02  0.33482402281E+02  0.37569356283E+03  0.39336818098E+03  0.81289643512E+02 0.  0.
         25    2    1    2    0    0 -0.80059490932E+02  0.59601012108E+02  0.27754037073E+02  0.16235118329E+03  0.12500326960E+03 0.  0.
         24    2    1    2    0    0  0.37654891018E+02 -0.88756204721E+02  0.45586784723E+02  0.13351887908E+03  0.80334185970E+02 0.  0.
        -11    1    5    5    0    0 -0.22085317524E+02 -0.17303887948E+02 -0.34401687150E+01  0.28266951534E+02  0.00000000000E+00 0.  1.
         12    1    5    5    0    0  0.59740208542E+02 -0.71452316773E+02  0.49026953438E+02  0.10525192755E+03  0.00000000000E+00 0. -1.
        -13    1    3    3    0    0  0.24270798033E+02  0.54063564345E+02  0.21989096733E+03  0.22773664207E+03  0.00000000000E+00 0.  1.
         14    1    3    3    0    0  0.52304623948E+02 -0.20581162064E+02  0.15580259550E+03  0.16563153891E+03  0.00000000000E+00 0. -1.
          5    1    4    4  502    0 -0.10093746964E+03  0.68873517811E+02 -0.47105400261E+01  0.12237734031E+03  0.47000000000E+01 0.  1.
         -5    1    4    4    0  502  0.20877978709E+02 -0.92725057026E+01  0.32464577099E+02  0.39973842987E+02  0.47000000000E+01 0.  1.
          1    1    1    2  503    0  0.15993314254E+02 -0.57590741583E+02 -0.15221060682E+03  0.16352537554E+03  0.00000000000E+00 0. -1.
         -2    1    1    2    0  501 -0.50164136322E+02  0.53263531915E+02  0.42486644558E+03  0.43112056432E+03  0.00000000000E+00 0.  1.
<mgrwt>
<rscale>  0 0.65522597E+02</rscale>
<asrwt>0</asrwt>
<pdfrwt beam="2">  1        2 0.41337792E-01 0.59770223E+02</pdfrwt>
<pdfrwt beam="1">  1       -1 0.14746870E+00 0.71828587E+02</pdfrwt>
<totfact> 0.60104620E+01</totfact>
</mgrwt>
</event>
<event>
13    1  0.1589573E-008  0.2015033E+03  0.7546771E-02  0.1203629E+00
          2   -1    0    0  503    0  0.00000000000E+00  0.00000000000E+00  0.11461927423E+04  0.11461927423E+04  0.00000000000E+00 0. -1.
          2   -1    0    0  502    0 -0.00000000000E+00 -0.00000000000E+00 -0.26457576285E+04  0.26457576285E+04  0.00000000000E+00 0. -1.
         24    2    1    2    0    0 -0.39268506293E+03  0.18871391033E+03 -0.11369021474E+04  0.12201218197E+04  0.79600650311E+02 0.  0.
         25    2    1    2    0    0  0.65643178691E+03 -0.84167220944E+02 -0.44713751927E+03  0.80842056697E+03  0.12500016000E+03 0.  0.
         24    2    1    2    0    0 -0.14154397915E+02 -0.38496393507E+02  0.41213458731E+02  0.99367517781E+02  0.80579371530E+02 0.  0.
        -11    1    5    5    0    0 -0.35456666578E+02  0.10361474023E+02  0.13819496657E+02  0.39440003000E+02  0.00000000000E+00 0.  1.
         12    1    5    5    0    0  0.21302268663E+02 -0.48857867530E+02  0.27393962073E+02  0.59927514781E+02  0.00000000000E+00 0. -1.
        -13    1    3    3    0    0  0.23613391704E+01 -0.29683282329E+01 -0.10068644357E+02  0.10759390985E+02  0.00000000000E+00 0.  1.
         14    1    3    3    0    0 -0.39504640210E+03  0.19168223856E+03 -0.11268335031E+04  0.12093624288E+04  0.00000000000E+00 0. -1.
          5    1    4    4  501    0  0.62478141049E+03 -0.50276963926E+02 -0.41298985079E+03  0.75064125310E+03  0.47000000000E+01 0.  1.
         -5    1    4    4    0  501  0.31650376424E+02 -0.33890257017E+02 -0.34147668480E+02  0.57779313869E+02  0.47000000000E+01 0.  1.
          1    1    1    2  502    0 -0.19782662569E+03  0.16264492865E+02 -0.79538342357E+03  0.81977722465E+03  0.00000000000E+00 0. -1.
          1    1    1    2  503    0 -0.51765700373E+02 -0.82314788743E+02  0.83864474539E+03  0.84426324162E+03  0.00000000000E+00 0. -1.
<mgrwt>
<rscale>  0 0.14746056E+03</rscale>
<asrwt>0</asrwt>
<pdfrwt beam="1">  1        2 0.16855776E+00 0.10791196E+03</pdfrwt>
<pdfrwt beam="2">  1        2 0.38908200E+00 0.20150331E+03</pdfrwt>
<totfact> 0.15215752E+01</totfact>
</mgrwt>
</event>
<event>
13    1  0.1589573E-008  0.7244805E+02  0.7546771E-02  0.1424276E+00
          2   -1    0    0  502    0  0.00000000000E+00  0.00000000000E+00  0.14886690719E+04  0.14886690719E+04  0.00000000000E+00 0. -1.
          2   -1    0    0  503    0 -0.00000000000E+00 -0.00000000000E+00 -0.25560322506E+04  0.25560322506E+04  0.00000000000E+00 0. -1.
         24    2    1    2    0    0  0.18752801332E+03  0.42273985287E+02 -0.90079549176E+03  0.92461664519E+03  0.80805797907E+02 0.  0.
         25    2    1    2    0    0 -0.13640562595E+03 -0.17560682125E+03  0.11075918778E+03  0.27809323650E+03  0.12499600014E+03 0.  0.
         24    2    1    2    0    0 -0.49223017574E+02  0.20507050634E+02 -0.11209291027E+03  0.14825797422E+03  0.81068870737E+02 0.  0.
        -11    1    3    3    0    0  0.91383374065E+01 -0.62417993524E+01 -0.10247399089E+02  0.15082388995E+02  0.00000000000E+00 0.  1.
         12    1    3    3    0    0  0.17838967591E+03  0.48515784639E+02 -0.89054809267E+03  0.90953425619E+03  0.00000000000E+00 0. -1.
        -13    1    5    5    0    0 -0.20233406225E+02 -0.20531654136E+02 -0.40576475913E+01  0.29110205307E+02  0.00000000000E+00 0.  1.
         14    1    5    5    0    0 -0.28989611349E+02  0.41038704770E+02 -0.10803526267E+03  0.11914776891E+03  0.00000000000E+00 0. -1.
          5    1    4    4  501    0 -0.14959127638E+03 -0.18494457051E+03  0.10690266070E+03  0.26083004619E+03  0.47000000000E+01 0. -1.
         -5    1    4    4    0  501  0.13185650432E+02  0.93377492637E+01  0.38565270846E+01  0.17263190313E+02  0.47000000000E+01 0. -1.
          1    1    1    2  502    0 -0.60486815372E+00  0.72408346537E+02  0.12629264763E+04  0.12650006400E+04  0.00000000000E+00 0. -1.
          1    1    1    2  503    0 -0.12945016406E+01  0.40417438790E+02 -0.14281604408E+04  0.14287328266E+04  0.00000000000E+00 0. -1.
<mgrwt>
<rscale>  0 0.54126392E+02</rscale>
<asrwt>0</asrwt>
<pdfrwt beam="1">  1        2 0.21892193E+00 0.72448055E+02</pdfrwt>
<pdfrwt beam="2">  1        2 0.37588709E+00 0.40438164E+02</pdfrwt>
<totfact> 0.14417518E+01</totfact>
</mgrwt>
</event>
<event>
13    1  0.1589573E-008  0.1003399E+03  0.7546771E-02  0.1383520E+00
          2   -1    0    0  503    0  0.00000000000E+00  0.00000000000E+00  0.19945252945E+04  0.19945252945E+04  0.00000000000E+00 0. -1.
          2   -1    0    0  502    0 -0.00000000000E+00 -0.00000000000E+00 -0.19068429753E+04  0.19068429753E+04  0.00000000000E+00 0. -1.
         24    2    1    2    0    0  0.56943436568E+03  0.15772899981E+03  0.35393225348E+02  0.59520303392E+03  0.62289942952E+02 0.  0.
         25    2    1    2    0    0 -0.67664590065E+02  0.14542598437E+03 -0.17247079266E+03  0.26664177211E+03  0.12499778651E+03 0.  0.
         24    2    1    2    0    0 -0.37125598246E+03 -0.32164536270E+03  0.37232318627E+03  0.62166683435E+03  0.80983665258E+02 0.  0.
        -11    1    5    5    0    0 -0.22470190916E+03 -0.24315562819E+03  0.26099500282E+03  0.42158510291E+03  0.00000000000E+00 0.  1.
         12    1    5    5    0    0 -0.14655407331E+03 -0.78489734504E+02  0.11132818345E+03  0.20008173144E+03  0.00000000000E+00 0. -1.
        -11    1    3    3    0    0  0.18519993320E+03  0.47707658107E+02  0.40532916960E+02  0.19549412589E+03  0.00000000000E+00 0.  1.
         12    1    3    3    0    0  0.38423443248E+03  0.11002134170E+03 -0.51396916124E+01  0.39970890804E+03  0.00000000000E+00 0. -1.
          5    1    4    4  501    0 -0.21260257815E+02 -0.20475672424E+02 -0.16152636573E+02  0.33974246008E+02  0.47000000000E+01 0. -1.
         -5    1    4    4    0  501 -0.46404332250E+02  0.16590165680E+03 -0.15631815609E+03  0.23266752610E+03  0.47000000000E+01 0. -1.
          1    1    1    2  502    0 -0.30569686687E+02  0.26177234666E+02 -0.12801802019E+04  0.12808126727E+04  0.00000000000E+00 0. -1.
          1    1    1    2  503    0 -0.99944106463E+02 -0.76868561472E+01  0.11326169021E+04  0.11370439566E+04  0.00000000000E+00 0. -1.
<mgrwt>
<rscale>  0 0.63547600E+02</rscale>
<asrwt>0</asrwt>
<pdfrwt beam="1">  1        2 0.29331254E+00 0.10033995E+03</pdfrwt>
<pdfrwt beam="2">  1        2 0.28041808E+00 0.40246160E+02</pdfrwt>
<totfact> 0.16034137E+01</totfact>
</mgrwt>
</event>
<event>
13    1  0.1589573E-008  0.8433174E+02  0.7546771E-02  0.1338606E+00
          2   -1    0    0  503    0  0.00000000000E+00  0.00000000000E+00  0.21742789448E+04  0.21742789448E+04  0.00000000000E+00 0. -1.
          2   -1    0    0  502    0 -0.00000000000E+00 -0.00000000000E+00 -0.48768930742E+03  0.48768930742E+03  0.00000000000E+00 0. -1.
         24    2    1    2    0    0  0.43466870855E+02  0.18092621707E+02 -0.62927105881E+02  0.11281623881E+03  0.80938070543E+02 0.  0.
         25    2    1    2    0    0 -0.13977827297E+03 -0.15206067108E+02  0.48085200095E+03  0.51634523674E+03  0.12499826644E+03 0.  0.
         24    2    1    2    0    0  0.18950982189E+02 -0.12944787155E+03 -0.59890277805E+02  0.16542547678E+03  0.81626293664E+02 0.  0.
        -13    1    3    3    0    0 -0.98615118242E+01  0.35360818570E+02 -0.17512592336E+02  0.40673428620E+02  0.00000000000E+00 0.  1.
         14    1    3    3    0    0  0.53328382679E+02 -0.17268196863E+02 -0.45414513545E+02  0.72142810194E+02  0.00000000000E+00 0. -1.
        -13    1    5    5    0    0 -0.24249820637E+02 -0.87874745537E+02 -0.19751562679E+02  0.93274588889E+02  0.00000000000E+00 0.  1.
         14    1    5    5    0    0  0.43200802826E+02 -0.41573126010E+02 -0.40138715126E+02  0.72150887888E+02  0.00000000000E+00 0. -1.
          5    1    4    4  501    0 -0.80053474396E+02  0.20960901609E+01  0.90046766241E+02  0.12059627883E+03  0.47000000000E+01 0.  1.
         -5    1    4    4    0  501 -0.59724798573E+02 -0.17302157269E+02  0.39080523471E+03  0.39574895791E+03  0.47000000000E+01 0.  1.
          1    1    1    2  502    0  0.52152257563E+02  0.46402568811E+02 -0.26376473880E+03  0.27284591584E+03  0.00000000000E+00 0. -1.
          1    1    1    2  503    0  0.25208162362E+02  0.80158748137E+02  0.15923197589E+04  0.15945353841E+04  0.00000000000E+00 0. -1.
<mgrwt>
<rscale>  0 0.76726590E+02</rscale>
<asrwt>0</asrwt>
<pdfrwt beam="1">  1        2 0.31974690E+00 0.84331743E+02</pdfrwt>
<pdfrwt beam="2">  1        2 0.71719017E-01 0.69807280E+02</pdfrwt>
<totfact> 0.81855183E+01</totfact>
</mgrwt>
</event>
<event>
13    1  0.1589573E-008  0.1349068E+03  0.7546771E-02  0.1297654E+00
          2   -1    0    0  502    0  0.00000000000E+00  0.00000000000E+00  0.17733263361E+04  0.17733263361E+04  0.00000000000E+00 0. -1.
          4   -1    0    0  503    0 -0.00000000000E+00 -0.00000000000E+00 -0.18012281949E+04  0.18012281949E+04  0.00000000000E+00 0. -1.
         24    2    1    2    0    0 -0.54645278431E+02 -0.41662206296E+02 -0.68309618517E+03  0.69166599626E+03  0.84021463349E+02 0.  0.
         25    2    1    2    0    0  0.24366041060E+02 -0.80526725609E+02  0.10078738511E+03  0.18127431914E+03  0.12499609710E+03 0.  0.
         24    2    1    2    0    0 -0.11815005751E+03  0.12097795545E+03  0.77086335403E+02  0.20262141592E+03  0.80734337753E+02 0.  0.
        -11    1    5    5    0    0 -0.60552171660E+02  0.11060851508E+03  0.68404029728E+02  0.14345703323E+03  0.00000000000E+00 0.  1.
         12    1    5    5    0    0 -0.57597885847E+02  0.10369440368E+02  0.86823056753E+01  0.59164382693E+02  0.00000000000E+00 0. -1.
        -13    1    3    3    0    0 -0.75494330023E+02 -0.30245088324E+02 -0.59019293656E+03  0.59576997373E+03  0.00000000000E+00 0.  1.
         14    1    3    3    0    0  0.20849051593E+02 -0.11417117972E+02 -0.92903248602E+02  0.95896022524E+02  0.00000000000E+00 0. -1.
          5    1    4    4  501    0  0.43241633106E+02 -0.95767858907E+02  0.11242698853E+03  0.15395856385E+03  0.47000000000E+01 0. -1.
         -5    1    4    4    0  501 -0.18875592046E+02  0.15241133298E+02 -0.11639603422E+02  0.27315755291E+02  0.47000000000E+01 0. -1.
          1    1    1    2  502    0 -0.55251329434E+02  0.30242648370E+02  0.14770098199E+04  0.14783522365E+04  0.00000000000E+00 0. -1.
          3    1    1    2  503    0  0.20368062431E+03 -0.29031671912E+02 -0.99968921397E+03  0.10206405632E+04  0.00000000000E+00 0. -1.
<mgrwt>
<rscale>  0 0.92181017E+02</rscale>
<asrwt>0</asrwt>
<pdfrwt beam="1">  1        2 0.26078329E+00 0.62986722E+02</pdfrwt>
<pdfrwt beam="2">  1        4 0.26488650E+00 0.13490684E+03</pdfrwt>
<totfact> 0.39196741E-01</totfact>
</mgrwt>
</event>
<event>
13    1  0.1589573E-008  0.1084562E+03  0.7546771E-02  0.1402748E+00
          2   -1    0    0  503    0  0.00000000000E+00  0.00000000000E+00  0.28192650213E+04  0.28192650213E+04  0.00000000000E+00 0. -1.
          2   -1    0    0  502    0 -0.00000000000E+00 -0.00000000000E+00 -0.15220176968E+04  0.15220176968E+04  0.00000000000E+00 0. -1.
         24    2    1    2    0    0  0.10515454895E+03  0.10170394087E+03 -0.68230135702E+03  0.70234005610E+03  0.79657026419E+02 0.  0.
         25    2    1    2    0    0 -0.23580486184E+03  0.41657410317E+02  0.14004361684E+04  0.14262490211E+04  0.12500214270E+03 0.  0.
         24    2    1    2    0    0  0.69456454266E+02 -0.28687577409E+02  0.63625379748E+02  0.12607271958E+03  0.78733509626E+02 0.  0.
        -11    1    5    5    0    0  0.85259559415E+02 -0.13442854401E+02  0.55718146596E+02  0.10273468093E+03  0.00000000000E+00 0.  1.
         12    1    5    5    0    0 -0.15803105149E+02 -0.15244723008E+02  0.79072331525E+01  0.23338038651E+02  0.00000000000E+00 0. -1.
        -13    1    3    3    0    0  0.65438577140E+02  0.94383186277E+01 -0.26784125250E+03  0.27588081807E+03  0.00000000000E+00 0.  1.
         14    1    3    3    0    0  0.39715971806E+02  0.92265622243E+02 -0.41446010452E+03  0.42645923803E+03  0.00000000000E+00 0. -1.
          5    1    4    4  501    0 -0.19781709154E+03 -0.17420168724E+02  0.97505295058E+03  0.99508060499E+03  0.47000000000E+01 0. -1.
         -5    1    4    4    0  501 -0.37987770293E+02  0.59077579041E+02  0.42538321783E+03  0.43116841611E+03  0.47000000000E+01 0. -1.
          1    1    1    2  502    0  0.68906353987E+02 -0.83693059940E+02 -0.78162936611E+03  0.78911157631E+03  0.00000000000E+00 0. -1.
          1    1    1    2  503    0 -0.77124953634E+01 -0.30980713838E+02  0.12971164995E+04  0.12975093450E+04  0.00000000000E+00 0. -1.
<mgrwt>
<rscale>  0 0.58843894E+02</rscale>
<asrwt>0</asrwt>
<pdfrwt beam="1">  1        2 0.41459780E+00 0.31926278E+02</pdfrwt>
<pdfrwt beam="2">  1        2 0.22382613E+00 0.10845623E+03</pdfrwt>
<totfact> 0.10414307E+01</totfact>
</mgrwt>
</event>
<event>
13    1  0.1589573E-008  0.1360792E+03  0.7546771E-02  0.1261249E+00
          2   -1    0    0  503    0  0.00000000000E+00  0.00000000000E+00  0.20507846686E+04  0.20507846686E+04  0.00000000000E+00 0. -1.
          2   -1    0    0  502    0 -0.00000000000E+00 -0.00000000000E+00 -0.13355324266E+04  0.13355324266E+04  0.00000000000E+00 0. -1.
         24    2    1    2    0    0 -0.20735287634E+01 -0.75133583354E+02 -0.19821951950E+03  0.22806869048E+03  0.84112988270E+02 0.  0.
         25    2    1    2    0    0 -0.79898580183E+02  0.80047487878E+02  0.11584679528E+02  0.16897013791E+03  0.12500127709E+03 0.  0.
         24    2    1    2    0    0 -0.56196378968E+01 -0.67647189006E+01 -0.23476271205E+03  0.24811542336E+03  0.79814726630E+02 0.  0.
        -11    1    5    5    0    0  0.11328910536E+02  0.28668843633E+02 -0.46437096956E+02  0.55737337422E+02  0.00000000000E+00 0.  1.
         12    1    5    5    0    0 -0.16948548433E+02 -0.35433562534E+02 -0.18832561509E+03  0.19237808594E+03  0.00000000000E+00 0. -1.
        -11    1    3    3    0    0  0.23729255756E+00  0.18780440469E+02 -0.36277240270E+02  0.40850941403E+02  0.00000000000E+00 0.  1.
         12    1    3    3    0    0 -0.23108213210E+01 -0.93914023823E+02 -0.16194227923E+03  0.18721774908E+03  0.00000000000E+00 0. -1.
          5    1    4    4  501    0 -0.41022532601E+02 -0.17454923279E+02  0.40046872007E+02  0.60111267540E+02  0.47000000000E+01 0.  1.
         -5    1    4    4    0  501 -0.38876047582E+02  0.97502411157E+02 -0.28462192480E+02  0.10885887037E+03  0.47000000000E+01 0.  1.
          1    1    1    2  502    0 -0.13070398924E+02 -0.90684803834E+02 -0.79721883957E+03  0.80246647727E+03  0.00000000000E+00 0. -1.
          1    1    1    2  503    0  0.10066214577E+03  0.92535618211E+02  0.19338686336E+04  0.19386963661E+04  0.00000000000E+00 0. -1.
<mgrwt>
<rscale>  0 0.10963385E+03</rscale>
<asrwt>0</asrwt>
<pdfrwt beam="1">  1        2 0.30158598E+00 0.13607922E+03</pdfrwt>
<pdfrwt beam="2">  1        2 0.19640183E+00 0.88327817E+02</pdfrwt>
<totfact> 0.25514595E+01</totfact>
</mgrwt>
</event>
<event>
13    1  0.1589573E-008  0.3810784E+02  0.7546771E-02  0.1539605E+00
          2   -1    0    0  503    0  0.00000000000E+00  0.00000000000E+00  0.14813187403E+03  0.14813187403E+03  0.00000000000E+00 0. -1.
         -1   -1    0    0    0  501 -0.00000000000E+00 -0.00000000000E+00 -0.21364825644E+04  0.21364825644E+04  0.00000000000E+00 0.  1.
         24    2    1    2    0    0 -0.11192421974E+03 -0.52373489704E+02 -0.64439569235E+03  0.66147373670E+03  0.83855128867E+02 0.  0.
         25    2    1    2    0    0  0.13292003592E+03  0.83141445888E+02  0.66909940734E+01  0.20062004153E+03  0.12499358259E+03 0.  0.
         24    2    1    2    0    0 -0.51140590139E+02  0.34394112645E+01 -0.30114376733E+03  0.31390840062E+03  0.72275347609E+02 0.  0.
        -11    1    5    5    0    0  0.18679284435E+02 -0.63964279878E-01 -0.66136228572E+02  0.68723507537E+02  0.00000000000E+00 0.  1.
         12    1    5    5    0    0 -0.69819874575E+02  0.35033755444E+01 -0.23500753875E+03  0.24518489308E+03  0.00000000000E+00 0. -1.
        -13    1    3    3    0    0 -0.58597943932E+02 -0.41251024030E+00 -0.44104520312E+03  0.44492107209E+03  0.00000000000E+00 0.  1.
         14    1    3    3    0    0 -0.53326275806E+02 -0.51960979464E+02 -0.20335048923E+03  0.21655266461E+03  0.00000000000E+00 0. -1.
          5    1    4    4  502    0  0.79605598996E+01 -0.30058621044E+02 -0.34726699782E+01  0.31639226441E+02  0.47000000000E+01 0.  1.
         -5    1    4    4    0  502  0.12495947602E+03  0.11320006693E+03  0.10163664052E+02  0.16898081509E+03  0.47000000000E+01 0.  1.
          1    1    1    2  503    0 -0.37157632422E+01 -0.38007009034E+02  0.16832461389E+02  0.41733336658E+02  0.00000000000E+00 0. -1.
         -2    1    1    2    0  501  0.33860537196E+02  0.37996415855E+01 -0.10663346862E+04  0.10668789230E+04  0.00000000000E+00 0.  1.
<mgrwt>
<rscale>  0 0.36034020E+02</rscale>
<asrwt>0</asrwt>
<pdfrwt beam="1">  1        2 0.21784101E-01 0.38107839E+02</pdfrwt>
<pdfrwt beam="2">  1       -1 0.31418859E+00 0.34073058E+02</pdfrwt>
<totfact> 0.11180060E+01</totfact>
</mgrwt>
</event>
<event>
13    1  0.1589573E-008  0.4041942E+02  0.7546771E-02  0.1564206E+00
         -1   -1    0    0    0  501 -0.00000000000E+00  0.00000000000E+00  0.80902610792E+03  0.80902610792E+03  0.00000000000E+00 0.  1.
          2   -1    0    0  503    0  0.00000000000E+00 -0.00000000000E+00 -0.91291220371E+03  0.91291220371E+03  0.00000000000E+00 0. -1.
         24    2    1    2    0    0  0.30255764253E+01 -0.21839771514E+02  0.77286668397E+02  0.11304732894E+03  0.79500564371E+02 0.  0.
         25    2    1    2    0    0 -0.60129221548E+01 -0.28649202976E+02 -0.20858539854E+03  0.24492221168E+03  0.12498835637E+03 0.  0.
         24    2    1    2    0    0  0.35677329041E+02  0.62868238738E+02  0.28744898814E+02  0.11242579478E+03  0.81166513263E+02 0.  0.
        -13    1    3    3    0    0  0.26881126467E+01  0.25643902306E+02  0.45498864893E+01  0.26182764219E+02  0.00000000000E+00 0.  1.
         14    1    3    3    0    0  0.33746377861E+00 -0.47483673821E+02  0.72736781907E+02  0.86864564717E+02  0.00000000000E+00 0. -1.
        -13    1    5    5    0    0 -0.16720779989E+02  0.31759193293E+02  0.36268666467E+02  0.51025944473E+02  0.00000000000E+00 0.  1.
         14    1    5    5    0    0  0.52398109030E+02  0.31109045445E+02 -0.75237676525E+01  0.61399850310E+02  0.00000000000E+00 0. -1.
          5    1    4    4  502    0 -0.16546950855E+01  0.41163753271E+02 -0.14310834213E+03  0.14899422870E+03  0.47000000000E+01 0.  1.
         -5    1    4    4    0  502 -0.43582270693E+01 -0.69812956247E+02 -0.65477056410E+02  0.95927982984E+02  0.47000000000E+01 0.  1.
          1    1    1    2  503    0 -0.14092583821E+02  0.23544607584E+02 -0.62548205746E+03  0.62608366347E+03  0.00000000000E+00 0. -1.
         -2    1    1    2    0  501 -0.18597399490E+02 -0.35923871832E+02  0.62414979299E+03  0.62545931276E+03  0.00000000000E+00 0.  1.
<mgrwt>
<rscale>  0 0.33303241E+02</rscale>
<asrwt>0</asrwt>
<pdfrwt beam="2">  1        2 0.13425179E+00 0.27439925E+02</pdfrwt>
<pdfrwt beam="1">  1       -1 0.11897443E+00 0.40419420E+02</pdfrwt>
<totfact> 0.30077691E+01</totfact>
</mgrwt>
</event>
<event>
13    1  0.1589573E-008  0.1535731E+03  0.7546771E-02  0.1259549E+00
          2   -1    0    0  503    0  0.00000000000E+00  0.00000000000E+00  0.28772886837E+03  0.28772886837E+03  0.00000000000E+00 0. -1.
          2   -1    0    0  502    0 -0.00000000000E+00 -0.00000000000E+00 -0.19441181699E+04  0.19441181699E+04  0.00000000000E+00 0. -1.
         24    2    1    2    0    0  0.62976915640E+02  0.57401548804E+02 -0.29985999320E+03  0.32156738416E+03  0.78921082882E+02 0.  0.
         25    2    1    2    0    0  0.13798403829E+03  0.41321723425E+02 -0.10581241006E+03  0.21810123565E+03  0.12499921287E+03 0.  0.
         24    2    1    2    0    0  0.12760908913E+02  0.24973119676E+02 -0.65311166223E+02  0.10628386489E+03  0.79020339151E+02 0.  0.
        -11    1    3    3    0    0  0.78859888796E+02  0.51387870336E+02 -0.21018506057E+03  0.23029840418E+03  0.00000000000E+00 0.  1.
         12    1    3    3    0    0 -0.15882973156E+02  0.60136784681E+01 -0.89674932625E+02  0.91268979979E+02  0.00000000000E+00 0. -1.
        -13    1    5    5    0    0  0.35650428482E+02  0.41165426696E+02 -0.33749062015E+02  0.64066719854E+02  0.00000000000E+00 0.  1.
         14    1    5    5    0    0 -0.22889519569E+02 -0.16192307021E+02 -0.31562104208E+02  0.42217145034E+02  0.00000000000E+00 0. -1.
          5    1    4    4  501    0  0.48643454549E+02  0.71626281276E+02 -0.84906935661E+02  0.12135809641E+03  0.47000000000E+01 0.  1.
         -5    1    4    4    0  501  0.89340583745E+02 -0.30304557851E+02 -0.20905474394E+02  0.96743139240E+02  0.47000000000E+01 0.  1.
          1    1    1    2  502    0 -0.13834429616E+03 -0.68692166175E+02 -0.13701993605E+04  0.13788778211E+04  0.00000000000E+00 0. -1.
          1    1    1    2  503    0 -0.75377566687E+02 -0.55004225729E+02  0.18479362846E+03  0.20701673248E+03  0.00000000000E+00 0. -1.
<mgrwt>
<rscale>  0 0.11055324E+03</rscale>
<asrwt>0</asrwt>
<pdfrwt beam="1">  1        2 0.42313070E-01 0.79584376E+02</pdfrwt>
<pdfrwt beam="2">  1        2 0.28589973E+00 0.15357309E+03</pdfrwt>
<totfact> 0.17229208E+02</totfact>
</mgrwt>
</event>
<event>
13    1  0.1589573E-008  0.7438703E+02  0.7546771E-02  0.1499635E+00
          2   -1    0    0  503    0  0.00000000000E+00  0.00000000000E+00  0.30691252968E+04  0.30691252968E+04  0.00000000000E+00 0. -1.
         -3   -1    0    0    0  501 -0.00000000000E+00 -0.00000000000E+00 -0.18898149373E+04  0.18898149373E+04  0.00000000000E+00 0.  1.
         24    2    1    2    0    0  0.34759866303E+02  0.14454044009E+02 -0.27113763527E+03  0.28763531804E+03  0.88324918513E+02 0.  0.
         25    2    1    2    0    0  0.32812968370E+02  0.39418255157E+02  0.27088114581E+02  0.13779974709E+03  0.12499805844E+03 0.  0.
         24    2    1    2    0    0 -0.28396022234E+02 -0.44042466108E+01  0.28686954429E+04  0.28699056353E+04  0.78224546630E+02 0.  0.
        -13    1    3    3    0    0  0.45510769619E+01  0.25820814964E+02 -0.24417526652E+03  0.24557888258E+03  0.00000000000E+00 0.  1.
         14    1    3    3    0    0  0.30208789341E+02 -0.11366770955E+02 -0.26962368753E+02  0.42056435467E+02  0.00000000000E+00 0. -1.
        -13    1    5    5    0    0 -0.26416957060E+02  0.46121436466E+01  0.30064587641E+03  0.30183947802E+03  0.00000000000E+00 0.  1.
         14    1    5    5    0    0 -0.19790651744E+01 -0.90163902573E+01  0.25680495665E+04  0.25680661572E+04  0.00000000000E+00 0. -1.
          5    1    4    4  502    0  0.25128061125E+02  0.84211811788E+02  0.27184165082E+02  0.92109269521E+02  0.47000000000E+01 0. -1.
         -5    1    4    4    0  502  0.76849072445E+01 -0.44793556631E+02 -0.96050501100E-01  0.45690477572E+02  0.47000000000E+01 0. -1.
          1    1    1    2  503    0 -0.11614537953E+02  0.19628796441E+02  0.10703982022E+03  0.10944272591E+03  0.00000000000E+00 0. -1.
         -4    1    1    2    0  501 -0.27562274486E+02 -0.69096848996E+02 -0.15523753830E+04  0.15541568078E+04  0.00000000000E+00 0.  1.
<mgrwt>
<rscale>  0 0.41189689E+02</rscale>
<asrwt>0</asrwt>
<pdfrwt beam="1">  1        2 0.45134196E+00 0.22807611E+02</pdfrwt>
<pdfrwt beam="2">  1       -3 0.27791396E+00 0.74387029E+02</pdfrwt>
<totfact> 0.13341369E-01</totfact>
</mgrwt>
</event>
<event>
13    1  0.1589573E-008  0.5067676E+02  0.7546771E-02  0.1449319E+00
          2   -1    0    0  502    0  0.00000000000E+00  0.00000000000E+00  0.53692368627E+03  0.53692368627E+03  0.00000000000E+00 0. -1.
          2   -1    0    0  503    0 -0.00000000000E+00 -0.00000000000E+00 -0.19054163499E+04  0.19054163499E+04  0.00000000000E+00 0. -1.
         24    2    1    2    0    0 -0.10481648297E+03  0.13213002168E+03 -0.66939230774E+03  0.69503039802E+03  0.80847725883E+02 0.  0.
         25    2    1    2    0    0  0.21340913129E+03 -0.19917240488E+02 -0.76318516387E+02  0.25959515184E+03  0.12499989251E+03 0.  0.
         24    2    1    2    0    0 -0.31782702170E+02 -0.87789982817E+02 -0.16703093240E+03  0.20751868514E+03  0.80296021450E+02 0.  0.
        -11    1    3    3    0    0 -0.21670704648E+02  0.85409948763E+02 -0.25468220364E+03  0.26949490467E+03  0.00000000000E+00 0.  1.
         12    1    3    3    0    0 -0.83145778321E+02  0.46720072917E+02 -0.41471010409E+03  0.42553549335E+03  0.00000000000E+00 0. -1.
        -13    1    5    5    0    0 -0.49429160710E+02 -0.20825082368E+02 -0.79594011609E+02  0.95979855533E+02  0.00000000000E+00 0.  1.
         14    1    5    5    0    0  0.17646458540E+02 -0.66964900449E+02 -0.87436920794E+02  0.11153882960E+03  0.00000000000E+00 0. -1.
          5    1    4    4  501    0  0.10624322243E+03  0.52056074996E+02 -0.27941828531E+02  0.12165645498E+03  0.47000000000E+01 0.  1.
         -5    1    4    4    0  501  0.10716590886E+03 -0.71973315484E+02 -0.48376687856E+02  0.13793869686E+03  0.47000000000E+01 0.  1.
          1    1    1    2  502    0 -0.31419144460E+02 -0.39730501366E+02  0.41000183119E+03  0.41311884120E+03  0.00000000000E+00 0. -1.
          1    1    1    2  503    0 -0.45390801691E+02  0.15307702991E+02 -0.86575273827E+03  0.86707695995E+03  0.00000000000E+00 0. -1.
<mgrwt>
<rscale>  0 0.49270116E+02</rscale>
<asrwt>0</asrwt>
<pdfrwt beam="1">  1        2 0.78959366E-01 0.50676764E+02</pdfrwt>
<pdfrwt beam="2">  1        2 0.28020829E+00 0.47902512E+02</pdfrwt>
<totfact> 0.10584397E+02</totfact>
</mgrwt>
</event>
<event>
13    1  0.1589573E-008  0.2523298E+03  0.7546771E-02  0.1212916E+00
          2   -1    0    0  503    0  0.00000000000E+00  0.00000000000E+00  0.39800504293E+04  0.39800504293E+04  0.00000000000E+00 0. -1.
          2   -1    0    0  502    0 -0.00000000000E+00 -0.00000000000E+00 -0.39740895407E+04  0.39740895407E+04  0.00000000000E+00 0. -1.
         24    2    1    2    0    0 -0.44315913304E+02 -0.22886427469E+02 -0.37556397072E+03  0.38756068074E+03  0.81653514439E+02 0.  0.
         25    2    1    2    0    0 -0.85394551693E+02 -0.10816983792E+03 -0.39053450023E+03  0.43259024902E+03  0.12499673749E+03 0.  0.
         24    2    1    2    0    0 -0.19337709385E+03 -0.29738657827E+02  0.41944850781E+03  0.46994749345E+03  0.81452487385E+02 0.  0.
        -13    1    3    3    0    0 -0.66132261877E+02 -0.35115202667E+01 -0.27390157732E+03  0.28179403985E+03  0.00000000000E+00 0.  1.
         14    1    3    3    0    0  0.21816348574E+02 -0.19374907203E+02 -0.10166239340E+03  0.10576664089E+03  0.00000000000E+00 0. -1.
        -13    1    5    5    0    0 -0.16028036038E+03 -0.44596060199E+01  0.26276122318E+03  0.30781998378E+03  0.00000000000E+00 0.  1.
         14    1    5    5    0    0 -0.33096733477E+02 -0.25279051808E+02  0.15668728463E+03  0.16212750967E+03  0.00000000000E+00 0. -1.
          5    1    4    4  501    0 -0.36752485474E+02 -0.53967034515E+02 -0.33378181327E+03  0.34014052225E+03  0.47000000000E+01 0.  1.
         -5    1    4    4    0  501 -0.48642066219E+02 -0.54202803409E+02 -0.56752686955E+02  0.92449726771E+02  0.47000000000E+01 0.  1.
          1    1    1    2  502    0  0.74008026647E+02  0.73098836256E+02 -0.31498865739E+04  0.31516037277E+04  0.00000000000E+00 0. -1.
          1    1    1    2  503    0  0.24907953220E+03  0.87696086965E+02  0.35024974256E+04  0.35124378191E+04  0.00000000000E+00 0. -1.
<mgrwt>
<rscale>  0 0.14030730E+03</rscale>
<asrwt>0</asrwt>
<pdfrwt beam="1">  1        2 0.58530154E+00 0.25232984E+03</pdfrwt>
<pdfrwt beam="2">  1        2 0.58442493E+00 0.78017486E+02</pdfrwt>
<totfact> 0.80268264E-02</totfact>
</mgrwt>
</event>
<event>
13    1  0.1589573E-008  0.1620791E+03  0.7546771E-02  0.1298309E+00
          2   -1    0    0  503    0  0.00000000000E+00  0.00000000000E+00  0.24527457619E+04  0.24527457619E+04  0.00000000000E+00 0. -1.
          2   -1    0    0  502    0 -0.00000000000E+00 -0.00000000000E+00 -0.10848545664E+04  0.10848545664E+04  0.00000000000E+00 0. -1.
         24    2    1    2    0    0 -0.15562796733E+03  0.74628414874E+02 -0.13528077016E+03  0.23290532114E+03  0.78450859260E+02 0.  0.
         25    2    1    2    0    0  0.16295359190E+03 -0.66057873138E+02  0.11229421117E+04  0.11434786282E+04  0.12500748414E+03 0.  0.
         24    2    1    2    0    0 -0.18463634004E+03 -0.10020348906E+03  0.41966651901E+03  0.47580149654E+03  0.78331089968E+02 0.  0.
        -11    1    5    5    0    0 -0.37787628602E+02 -0.61723331192E+02  0.13219232313E+03  0.15070661824E+03  0.00000000000E+00 0.  1.
         12    1    5    5    0    0 -0.14684871144E+03 -0.38480157868E+02  0.28747419588E+03  0.32509487830E+03  0.00000000000E+00 0. -1.
        -13    1    3    3    0    0 -0.12733386407E+03  0.89757933084E+02 -0.99535413714E+02  0.18487211275E+03  0.00000000000E+00 0.  1.
         14    1    3    3    0    0 -0.28294103254E+02 -0.15129518210E+02 -0.35745356444E+02  0.48033208383E+02  0.00000000000E+00 0. -1.
          5    1    4    4  501    0  0.73494428334E+02 -0.88916132050E+02  0.77096653625E+03  0.77956333903E+03  0.47000000000E+01 0. -1.
         -5    1    4    4    0  501  0.89459163565E+02  0.22858258912E+02  0.35197557548E+03  0.36391528916E+03  0.47000000000E+01 0. -1.
          1    1    1    2  502    0  0.12614631071E+03  0.10151857560E+03 -0.85398549772E+03  0.86920086471E+03  0.00000000000E+00 0. -1.
          1    1    1    2  503    0  0.51164404758E+02 -0.98856282710E+01  0.81454883265E+03  0.81621401773E+03  0.00000000000E+00 0. -1.
<mgrwt>
<rscale>  0 0.91902386E+02</rscale>
<asrwt>0</asrwt>
<pdfrwt beam="1">  1        2 0.36069791E+00 0.52110670E+02</pdfrwt>
<pdfrwt beam="2">  1        2 0.15953744E+00 0.16207906E+03</pdfrwt>
<totfact> 0.24016438E+01</totfact>
</mgrwt>
</event>
<event>
13    1  0.1589573E-008  0.1090863E+03  0.7546771E-02  0.1388803E+00
          2   -1    0    0  503    0  0.00000000000E+00  0.00000000000E+00  0.15477145988E+04  0.15477145988E+04  0.00000000000E+00 0. -1.
          2   -1    0    0  502    0 -0.00000000000E+00 -0.00000000000E+00 -0.36601350083E+04  0.36601350083E+04  0.00000000000E+00 0. -1.
         24    2    1    2    0    0 -0.61276874319E+01 -0.17361144673E+02 -0.26597104961E+03  0.27578026810E+03  0.70535091598E+02 0.  0.
         25    2    1    2    0    0 -0.21489797939E+03 -0.52468160528E+02  0.49500820844E+03  0.55641097153E+03  0.12500397351E+03 0.  0.
         24    2    1    2    0    0  0.92988580074E+02  0.36433625407E+02 -0.17876300585E+04  0.17921863969E+04  0.79602575617E+02 0.  0.
        -13    1    5    5    0    0  0.89851426521E+02  0.53580534192E+02 -0.16698056600E+04  0.16730795243E+04  0.00000000000E+00 0.  1.
         14    1    5    5    0    0  0.31371535534E+01 -0.17146908785E+02 -0.11782439852E+03  0.11910687260E+03  0.00000000000E+00 0. -1.
        -13    1    3    3    0    0  0.26516876332E+02 -0.57193844389E+01 -0.48551783978E+02  0.55615931316E+02  0.00000000000E+00 0.  1.
         14    1    3    3    0    0 -0.32644563764E+02 -0.11641760234E+02 -0.21741926563E+03  0.22016433679E+03  0.00000000000E+00 0. -1.
          5    1    4    4  501    0 -0.15582504605E+03 -0.39495321848E+01  0.42477113925E+03  0.45249271211E+03  0.47000000000E+01 0.  1.
         -5    1    4    4    0  501 -0.59072933343E+02 -0.48518628343E+02  0.70237069198E+02  0.10391825941E+03  0.47000000000E+01 0.  1.
          1    1    1    2  502    0  0.16349126168E+03  0.32274952660E+02 -0.15639115837E+04  0.15727652422E+04  0.00000000000E+00 0. -1.
          1    1    1    2  503    0 -0.35454174928E+02  0.11207271345E+01  0.10100840739E+04  0.10107067284E+04  0.00000000000E+00 0. -1.
<mgrwt>
<rscale>  0 0.62205278E+02</rscale>
<asrwt>0</asrwt>
<pdfrwt beam="1">  1        2 0.22760509E+00 0.35471884E+02</pdfrwt>
<pdfrwt beam="2">  1        2 0.53825515E+00 0.10908630E+03</pdfrwt>
<totfact> 0.30901228E+00</totfact>
</mgrwt>
</event>
<event>
13    1  0.1589573E-008  0.1090492E+03  0.7546771E-02  0.1280317E+00
         -3   -1    0    0    0  501 -0.00000000000E+00  0.00000000000E+00  0.13408946145E+04  0.13408946145E+04  0.00000000000E+00 0.  1.
          2   -1    0    0  503    0  0.00000000000E+00 -0.00000000000E+00 -0.22003410257E+04  0.22003410257E+04  0.00000000000E+00 0. -1.
         24    2    1    2    0    0 -0.39156127504E+02  0.95449476209E+02  0.34343457084E+03  0.36746736973E+03  0.80256828604E+02 0.  0.
         25    2    1    2    0    0  0.48694149282E+02  0.26207429130E+02 -0.31600969777E+03  0.34430422634E+03  0.12500128670E+03 0.  0.
         24    2    1    2    0    0 -0.82721663619E+01  0.26297886621E+02  0.30380734423E+03  0.31322215458E+03  0.71057780279E+02 0.  0.
        -11    1    3    3    0    0  0.12166344991E+02  0.29397695423E+02  0.19062423973E+03  0.19326108046E+03  0.00000000000E+00 0.  1.
         12    1    3    3    0    0 -0.51322472496E+02  0.66051780786E+02  0.15281033111E+03  0.17420628928E+03  0.00000000000E+00 0. -1.
        -13    1    5    5    0    0 -0.52924564377E+01  0.34480219950E+02  0.61087339609E+02  0.70345992945E+02  0.00000000000E+00 0.  1.
         14    1    5    5    0    0 -0.29797099242E+01 -0.81823333296E+01  0.24272000462E+03  0.24287616164E+03  0.00000000000E+00 0. -1.
          5    1    4    4  502    0  0.34758087750E+02  0.71396390038E+02 -0.13074935684E+03  0.15304591954E+03  0.47000000000E+01 0. -1.
         -5    1    4    4    0  502  0.13936061532E+02 -0.45188960908E+02 -0.18526034093E+03  0.19125830680E+03  0.47000000000E+01 0. -1.
          1    1    1    2  503    0 -0.95485651139E+02 -0.65882736260E+02 -0.18457337043E+04  0.18493758276E+04  0.00000000000E+00 0. -1.
         -4    1    1    2    0  501  0.94219795723E+02 -0.82072055699E+02  0.65505507582E+03  0.66686606196E+03  0.00000000000E+00 0.  1.
<mgrwt>
<rscale>  0 0.99989973E+02</rscale>
<asrwt>0</asrwt>
<pdfrwt beam="2">  1        2 0.32357956E+00 0.10904924E+03</pdfrwt>
<pdfrwt beam="1">  1       -3 0.19719039E+00 0.91683302E+02</pdfrwt>
<totfact> 0.76737143E-01</totfact>
</mgrwt>
</event>
<event>
13    1  0.1589573E-008  0.1700149E+03  0.7546771E-02  0.1179191E+00
          2   -1    0    0  503    0  0.00000000000E+00  0.00000000000E+00  0.39610020994E+04  0.39610020994E+04  0.00000000000E+00 0. -1.
          2   -1    0    0  502    0 -0.00000000000E+00 -0.00000000000E+00 -0.13786679403E+04  0.13786679403E+04  0.00000000000E+00 0. -1.
         24    2    1    2    0    0 -0.13894821345E+03 -0.75283256513E+02 -0.48369204194E+03  0.51522912711E+03  0.80801529997E+02 0.  0.
         25    2    1    2    0    0 -0.40568022955E+03 -0.12625978962E+02  0.12930826044E+04  0.13610374237E+04  0.12499753127E+03 0.  0.
         24    2    1    2    0    0  0.59043800758E+02  0.24588611103E+02 -0.16816289482E+03  0.19703738505E+03  0.80338046458E+02 0.  0.
        -11    1    3    3    0    0 -0.85111767503E+02 -0.14899640987E+01 -0.26100507649E+03  0.27453575890E+03  0.00000000000E+00 0.  1.
         12    1    3    3    0    0 -0.53836445948E+02 -0.73793292414E+02 -0.22268696545E+03  0.24069336821E+03  0.00000000000E+00 0. -1.
        -13    1    5    5    0    0 -0.18470736979E+02 -0.30859032603E+01 -0.19026514777E+02  0.26696426504E+02  0.00000000000E+00 0.  1.
         14    1    5    5    0    0  0.77514537737E+02  0.27674514363E+02 -0.14913638004E+03  0.17034095854E+03  0.00000000000E+00 0. -1.
          5    1    4    4  501    0 -0.35429663687E+03 -0.11408278951E+02  0.12270031011E+04  0.12771902583E+04  0.47000000000E+01 0. -1.
         -5    1    4    4    0  501 -0.51383592673E+02 -0.12177000110E+01  0.66079503375E+02  0.83847165460E+02  0.47000000000E+01 0. -1.
          1    1    1    2  502    0  0.22744733912E+03  0.58735577208E+02 -0.63515359286E+03  0.67720177689E+03  0.00000000000E+00 0. -1.
          1    1    1    2  503    0  0.25813730312E+03  0.45850471643E+01  0.25762600843E+04  0.25891643270E+04  0.00000000000E+00 0. -1.
<mgrwt>
<rscale>  0 0.16871802E+03</rscale>
<asrwt>0</asrwt>
<pdfrwt beam="1">  1        2 0.58250030E+00 0.17001494E+03</pdfrwt>
<pdfrwt beam="2">  1        2 0.20274529E+00 0.16743099E+03</pdfrwt>
<totfact> 0.19553220E+00</totfact>
</mgrwt>
</event>
<event>
13    1  0.1589573E-008  0.5410597E+02  0.7546771E-02  0.1497678E+00
          2   -1    0    0  502    0  0.00000000000E+00  0.00000000000E+00  0.18626889049E+04  0.18626889049E+04  0.00000000000E+00 0. -1.
          2   -1    0    0  503    0 -0.00000000000E+00 -0.00000000000E+00 -0.36680553024E+04  0.36680553024E+04  0.00000000000E+00 0. -1.
         24    2    1    2    0    0 -0.15166520392E+03  0.13481918430E+03 -0.15243140928E+04  0.15396963458E+04  0.77154632349E+02 0.  0.
         25    2    1    2    0    0 -0.11583178355E+03  0.13606240062E+03  0.14302275988E+04  0.14467548847E+04  0.12497492980E+03 0.  0.
         24    2    1    2    0    0  0.24643122946E+03 -0.32316717002E+03 -0.61756241183E+03  0.74340217180E+03  0.78090242043E+02 0.  0.
        -11    1    5    5    0    0  0.39264173876E+02 -0.82179918841E+02 -0.18968795100E+03  0.21042037250E+03  0.00000000000E+00 0.  1.
         12    1    5    5    0    0  0.20716705559E+03 -0.24098725118E+03 -0.42787446083E+03  0.53298179930E+03  0.00000000000E+00 0. -1.
        -13    1    3    3    0    0 -0.89541564151E+02  0.12565928788E+03 -0.10876708392E+04  0.10985607870E+04  0.00000000000E+00 0.  1.
         14    1    3    3    0    0 -0.62123639773E+02  0.91598964119E+01 -0.43664325360E+03  0.44113555879E+03  0.00000000000E+00 0. -1.
          5    1    4    4  501    0 -0.14094384787E+03  0.12199223710E+03  0.12997419073E+04  0.13130492717E+04  0.47000000000E+01 0. -1.
         -5    1    4    4    0  501  0.25112064320E+02  0.14070163527E+02  0.13048569144E+03  0.13370561299E+03  0.47000000000E+01 0. -1.
          1    1    1    2  502    0 -0.23420328738E+02  0.21484638782E+02  0.35236548296E+03  0.35379589467E+03  0.00000000000E+00 0. -1.
          1    1    1    2  503    0  0.44486086750E+02  0.30800946323E+02 -0.14460829746E+04  0.14470949104E+04  0.00000000000E+00 0. -1.
<mgrwt>
<rscale>  0 0.41468071E+02</rscale>
<asrwt>0</asrwt>
<pdfrwt beam="1">  1        2 0.27392484E+00 0.31782094E+02</pdfrwt>
<pdfrwt beam="2">  1        2 0.53941990E+00 0.54105966E+02</pdfrwt>
<totfact> 0.25437756E+00</totfact>
</mgrwt>
</event>
<event>
13    1  0.1589573E-008  0.6542206E+02  0.7546771E-02  0.1482968E+00
          2   -1    0    0  503    0  0.00000000000E+00  0.00000000000E+00  0.80260315733E+03  0.80260315733E+03  0.00000000000E+00 0. -1.
          2   -1    0    0  502    0 -0.00000000000E+00 -0.00000000000E+00 -0.11514570363E+04  0.11514570363E+04  0.00000000000E+00 0. -1.
         24    2    1    2    0    0  0.69732540768E+02 -0.68168197545E+02 -0.89610918566E+02  0.15307512432E+03  0.76761621674E+02 0.  0.
         25    2    1    2    0    0 -0.16475621168E+03  0.32649100179E+02  0.34810997108E+01  0.20939629612E+03  0.12499647093E+03 0.  0.
         24    2    1    2    0    0  0.12672737744E+02 -0.94767630850E+01  0.62057311914E+02  0.10231835887E+03  0.79796799935E+02 0.  0.
        -11    1    5    5    0    0  0.36390967031E+01  0.28588284877E+02  0.55657474659E+02  0.62676052384E+02  0.00000000000E+00 0.  1.
         12    1    5    5    0    0  0.90336410411E+01 -0.38065047962E+02  0.63998372552E+01  0.39642306489E+02  0.00000000000E+00 0. -1.
        -11    1    3    3    0    0 -0.15455025550E+02 -0.80413605335E+01 -0.33317732625E+01  0.17737587408E+02  0.00000000000E+00 0.  1.
         12    1    3    3    0    0  0.85187566318E+02 -0.60126837011E+02 -0.86279145304E+02  0.13533753692E+03  0.00000000000E+00 0. -1.
          5    1    4    4  501    0 -0.76630845851E+02  0.77299819098E+02 -0.10739516544E+02  0.10947591417E+03  0.47000000000E+01 0. -1.
         -5    1    4    4    0  501 -0.88125365828E+02 -0.44650718920E+02  0.14220616254E+02  0.99920381950E+02  0.47000000000E+01 0. -1.
          1    1    1    2  502    0  0.59381664959E+02  0.27096694552E+02 -0.90548630943E+03  0.90783581641E+03  0.00000000000E+00 0. -1.
          1    1    1    2  503    0  0.22969268207E+02  0.17899165899E+02  0.58070493736E+03  0.58143459795E+03  0.00000000000E+00 0. -1.
<mgrwt>
<rscale>  0 0.43647252E+02</rscale>
<asrwt>0</asrwt>
<pdfrwt beam="1">  1        2 0.11802988E+00 0.29119880E+02</pdfrwt>
<pdfrwt beam="2">  1        2 0.16933192E+00 0.65422063E+02</pdfrwt>
<totfact> 0.15633444E+02</totfact>
</mgrwt>
</event>
<event>
13    1  0.1589573E-008  0.2451818E+03  0.7546771E-02  0.1319370E+00
          2   -1    0    0  503    0  0.00000000000E+00  0.00000000000E+00  0.29678605332E+04  0.29678605332E+04  0.00000000000E+00 0. -1.
          2   -1    0    0  502    0 -0.00000000000E+00 -0.00000000000E+00 -0.27795999077E+04  0.27795999077E+04  0.00000000000E+00 0. -1.
         24    2    1    2    0    0 -0.79081858819E+02  0.35837477060E+02 -0.34991976312E+03  0.37508570367E+03  0.10347550105E+03 0.  0.
         25    2    1    2    0    0  0.69638257203E+02 -0.19760026029E+03  0.19214213586E+04  0.19368482865E+04  0.12500359183E+03 0.  0.
         24    2    1    2    0    0 -0.51995740355E+03  0.16777007113E+03  0.30041262028E+03  0.62870615865E+03  0.80753905321E+02 0.  0.
        -13    1    5    5    0    0 -0.54942184743E+02 -0.10080538955E+01  0.12603730881E+02  0.56378310271E+02  0.00000000000E+00 0.  1.
         14    1    5    5    0    0 -0.46501521881E+03  0.16877812502E+03  0.28780888940E+03  0.57232784838E+03  0.00000000000E+00 0. -1.
        -13    1    3    3    0    0  0.16639464431E+02  0.22469011168E+02 -0.15520493257E+03  0.15770320014E+03  0.00000000000E+00 0.  1.
         14    1    3    3    0    0 -0.95721323250E+02  0.13368465892E+02 -0.19471483055E+03  0.21738250353E+03  0.00000000000E+00 0. -1.
          5    1    4    4  501    0  0.10451050287E+03 -0.16762215893E+03  0.15294051734E+04  0.15421160487E+04  0.47000000000E+01 0. -1.
         -5    1    4    4    0  501 -0.34872245663E+02 -0.29978101361E+02  0.39201618523E+03  0.39473223780E+03  0.47000000000E+01 0. -1.
          1    1    1    2  502    0  0.51272032816E+03 -0.29048405392E+02 -0.22154868416E+04  0.22742268775E+04  0.00000000000E+00 0. -1.
          1    1    1    2  503    0  0.16680677004E+02  0.23041117489E+02  0.53183325134E+03  0.53259341463E+03  0.00000000000E+00 0. -1.
<mgrwt>
<rscale>  0 0.83512174E+02</rscale>
<asrwt>0</asrwt>
<pdfrwt beam="1">  1        2 0.43645008E+00 0.28445353E+02</pdfrwt>
<pdfrwt beam="2">  1        2 0.40876469E+00 0.24518182E+03</pdfrwt>
<totfact> 0.19319789E+00</totfact>
</mgrwt>
</event>
<event>
13    1  0.1589573E-008  0.8114738E+02  0.7546771E-02  0.1339618E+00
          2   -1    0    0  503    0  0.00000000000E+00  0.00000000000E+00  0.46783092094E+04  0.46783092094E+04  0.00000000000E+00 0. -1.
          2   -1    0    0  502    0 -0.00000000000E+00 -0.00000000000E+00 -0.21719619547E+04  0.21719619547E+04  0.00000000000E+00 0. -1.
         24    2    1    2    0    0  0.83941332467E+02  0.14986739081E+03 -0.56475969167E+02  0.19868094680E+03  0.82329833007E+02 0.  0.
         25    2    1    2    0    0 -0.17721970738E+03  0.40209601447E+02  0.20412324361E+04  0.20531145364E+04  0.12500321771E+03 0.  0.
         24    2    1    2    0    0  0.78486161380E+02 -0.15931973904E+03 -0.18449812564E+03  0.26816676551E+03  0.79567574945E+02 0.  0.
        -11    1    5    5    0    0  0.40117929643E+02 -0.93219876492E+02 -0.15699425665E+03  0.18694007134E+03  0.00000000000E+00 0.  1.
         12    1    5    5    0    0  0.38368231737E+02 -0.66099862550E+02 -0.27503868986E+02  0.81226694165E+02  0.00000000000E+00 0. -1.
        -13    1    3    3    0    0  0.86664492108E+02  0.91561331481E+02 -0.14752706821E+02  0.12693247801E+03  0.00000000000E+00 0.  1.
         14    1    3    3    0    0 -0.27231596410E+01  0.58306059327E+02 -0.41723262346E+02  0.71748468789E+02  0.00000000000E+00 0. -1.
          5    1    4    4  501    0 -0.47437512438E+02 -0.24479260381E+02  0.10449519865E+04  0.10463251387E+04  0.47000000000E+01 0. -1.
         -5    1    4    4    0  501 -0.12978219494E+03  0.64688861828E+02  0.99628044965E+03  0.10067893977E+04  0.47000000000E+01 0. -1.
          1    1    1    2  502    0 -0.66411969316E+02 -0.27584872520E+02 -0.18107404510E+04  0.18121678884E+04  0.00000000000E+00 0. -1.
          1    1    1    2  503    0  0.81204182848E+02 -0.31723806929E+01  0.25168293643E+04  0.25181410271E+04  0.00000000000E+00 0. -1.
<mgrwt>
<rscale>  0 0.76390764E+02</rscale>
<asrwt>0</asrwt>
<pdfrwt beam="1">  1        2 0.68798665E+00 0.81147380E+02</pdfrwt>
<pdfrwt beam="2">  1        2 0.31940617E+00 0.71912967E+02</pdfrwt>
<totfact> 0.29476696E-01</totfact>
</mgrwt>
</event>
<event>
13    1  0.1589573E-008  0.8164203E+02  0.7546771E-02  0.1489908E+00
          2   -1    0    0  503    0  0.00000000000E+00  0.00000000000E+00  0.10639616583E+04  0.10639616583E+04  0.00000000000E+00 0. -1.
          2   -1    0    0  502    0 -0.00000000000E+00 -0.00000000000E+00 -0.11541654065E+04  0.11541654065E+04  0.00000000000E+00 0. -1.
         24    2    1    2    0    0 -0.17921840721E+02  0.27207459719E+02 -0.76793998232E+02  0.11528954708E+03  0.79579666129E+02 0.  0.
         25    2    1    2    0    0 -0.58425397508E+02  0.12540551545E+03  0.32224316058E+03  0.37229695481E+03  0.12499719054E+03 0.  0.
         24    2    1    2    0    0  0.41002395075E+02 -0.70220618071E+02  0.19364057869E+03  0.22515054095E+03  0.81141609368E+02 0.  0.
        -11    1    3    3    0    0  0.20975308524E+02  0.30811882936E+02 -0.64217659670E+02  0.74251218921E+02  0.00000000000E+00 0.  1.
         12    1    3    3    0    0 -0.38897149245E+02 -0.36044232168E+01 -0.12576338562E+02  0.41038328155E+02  0.00000000000E+00 0. -1.
        -11    1    5    5    0    0 -0.21334594572E+02 -0.47324393980E+01  0.21210384032E+02  0.30453920914E+02  0.00000000000E+00 0.  1.
         12    1    5    5    0    0  0.62336989647E+02 -0.65488178673E+02  0.17243019466E+03  0.19469662004E+03  0.00000000000E+00 0. -1.
          5    1    4    4  501    0 -0.71397100646E+02  0.33847737886E+02  0.78151163260E+02  0.11123358153E+03  0.47000000000E+01 0. -1.
         -5    1    4    4    0  501  0.12971703139E+02  0.91557777561E+02  0.24409199732E+03  0.26106337328E+03  0.47000000000E+01 0. -1.
          1    1    1    2  502    0  0.13193206828E+02 -0.80553458127E+02 -0.10154500709E+04  0.10187255602E+04  0.00000000000E+00 0. -1.
          1    1    1    2  503    0  0.22151636326E+02 -0.18388989690E+01  0.48615658167E+03  0.48666446186E+03  0.00000000000E+00 0. -1.
<mgrwt>
<rscale>  0 0.42599595E+02</rscale>
<asrwt>0</asrwt>
<pdfrwt beam="1">  1        2 0.15646495E+00 0.22227833E+02</pdfrwt>
<pdfrwt beam="2">  1        2 0.16973021E+00 0.81642035E+02</pdfrwt>
<totfact> 0.11138560E+02</totfact>
</mgrwt>
</event>
<event>
13    1  0.1589573E-008  0.8506305E+02  0.7546771E-02  0.1392393E+00
          2   -1    0    0  503    0  0.00000000000E+00  0.00000000000E+00  0.20356796805E+04  0.20356796805E+04  0.00000000000E+00 0. -1.
          2   -1    0    0  502    0 -0.00000000000E+00 -0.00000000000E+00 -0.71269199079E+03  0.71269199079E+03  0.00000000000E+00 0. -1.
         24    2    1    2    0    0 -0.54542143127E+02 -0.15281739544E+02 -0.18324878666E+02  0.98954626519E+02  0.79043279227E+02 0.  0.
         25    2    1    2    0    0 -0.71951411276E+01  0.17901331386E+03  0.23607764666E+03  0.32164443701E+03  0.12499980804E+03 0.  0.
         24    2    1    2    0    0  0.12826011347E+02 -0.86622446248E+02  0.26164665731E+03  0.28745027785E+03  0.80627130603E+02 0.  0.
        -11    1    3    3    0    0  0.46289949980E+01  0.21681602599E+02  0.91337925199E+01  0.23978024351E+02  0.00000000000E+00 0.  1.
         12    1    3    3    0    0 -0.59171138125E+02 -0.36963342143E+02 -0.27458671186E+02  0.74976602168E+02  0.00000000000E+00 0. -1.
        -13    1    5    5    0    0  0.38846638887E+02 -0.50390093624E+02  0.20887724934E+03  0.21835276087E+03  0.00000000000E+00 0.  1.
         14    1    5    5    0    0 -0.26020627540E+02 -0.36232352625E+02  0.52769407975E+02  0.69097516977E+02  0.00000000000E+00 0. -1.
          5    1    4    4  501    0  0.26542537215E+02  0.18220221360E+03  0.19638222298E+03  0.26924007953E+03  0.47000000000E+01 0. -1.
         -5    1    4    4    0  501 -0.33737678342E+02 -0.31888997426E+01  0.39695423687E+02  0.52404357483E+02  0.47000000000E+01 0. -1.
          1    1    1    2  502    0  0.54088048308E+01 -0.84916165069E+02 -0.59500102557E+03  0.60105426601E+03  0.00000000000E+00 0. -1.
          1    1    1    2  503    0  0.43502468076E+02  0.78070370045E+01  0.14385892900E+04  0.14392680639E+04  0.00000000000E+00 0. -1.
<mgrwt>
<rscale>  0 0.61315332E+02</rscale>
<asrwt>0</asrwt>
<pdfrwt beam="1">  1        2 0.29936466E+00 0.44197450E+02</pdfrwt>
<pdfrwt beam="2">  1        2 0.10480765E+00 0.85063051E+02</pdfrwt>
<totfact> 0.67321166E+01</totfact>
</mgrwt>
</event>
<event>
13    1  0.1589573E-008  0.1160206E+03  0.7546771E-02  0.1286054E+00
          2   -1    0    0  502    0  0.00000000000E+00  0.00000000000E+00  0.18892726001E+04  0.18892726001E+04  0.00000000000E+00 0. -1.
          2   -1    0    0  503    0 -0.00000000000E+00 -0.00000000000E+00 -0.19988035633E+04  0.19988035633E+04  0.00000000000E+00 0. -1.
         24    2    1    2    0    0  0.78788908092E+02  0.13925943514E+02 -0.49247352513E+03  0.50538442916E+03  0.80508535797E+02 0.  0.
         25    2    1    2    0    0  0.89497855701E+02  0.12315039194E+03  0.60449172905E+03  0.63577732540E+03  0.12500668700E+03 0.  0.
         24    2    1    2    0    0  0.32315495541E+02 -0.96140775995E+02 -0.22172440553E+03  0.25753899189E+03  0.82929369206E+02 0.  0.
        -13    1    3    3    0    0  0.78558596889E+01  0.37775303336E+02 -0.17696066324E+03  0.18111809520E+03  0.00000000000E+00 0.  1.
         14    1    3    3    0    0  0.70933048403E+02 -0.23849359822E+02 -0.31551286189E+03  0.32426633396E+03  0.00000000000E+00 0. -1.
        -13    1    5    5    0    0 -0.15358205976E+02 -0.23159669938E+02 -0.12182138008E+03  0.12495076409E+03  0.00000000000E+00 0.  1.
         14    1    5    5    0    0  0.47673701516E+02 -0.72981106057E+02 -0.99903025447E+02  0.13258822780E+03  0.00000000000E+00 0. -1.
          5    1    4    4  501    0 -0.18694810723E+02  0.67267382584E+02  0.15507613299E+03  0.17013257692E+03  0.47000000000E+01 0. -1.
         -5    1    4    4    0  501  0.10819266642E+03  0.55883009359E+02  0.44941559606E+03  0.46564474848E+03  0.47000000000E+01 0. -1.
          1    1    1    2  502    0 -0.26369996503E+02 -0.77241751686E+02  0.12370611494E+04  0.12397507621E+04  0.00000000000E+00 0. -1.
          1    1    1    2  503    0 -0.17423226283E+03  0.36306192224E+02 -0.12368859110E+04  0.12496246548E+04  0.00000000000E+00 0. -1.
<mgrwt>
<rscale>  0 0.97311287E+02</rscale>
<asrwt>0</asrwt>
<pdfrwt beam="1">  1        2 0.27783421E+00 0.81619023E+02</pdfrwt>
<pdfrwt beam="2">  1        2 0.29394170E+00 0.11602058E+03</pdfrwt>
<totfact> 0.14873587E+01</totfact>
</mgrwt>
</event>
<event>
13    1  0.1589573E-008  0.1783410E+03  0.7546771E-02  0.1328987E+00
          2   -1    0    0  502    0  0.00000000000E+00  0.00000000000E+00  0.82108210931E+03  0.82108210931E+03  0.00000000000E+00 0. -1.
          2   -1    0    0  503    0 -0.00000000000E+00 -0.00000000000E+00 -0.24091340181E+04  0.24091340181E+04  0.00000000000E+00 0. -1.
         24    2    1    2    0    0  0.71958489599E+02 -0.33225518114E+02  0.45630550603E+02  0.12262035957E+03  0.81680145398E+02 0.  0.
         25    2    1    2    0    0 -0.24731247664E+03  0.15325401131E+03  0.19955038761E+03  0.37429341624E+03  0.12499980464E+03 0.  0.
         24    2    1    2    0    0  0.44271374575E+02  0.11647129014E+02 -0.51631078047E+01  0.90519518224E+02  0.77919928621E+02 0.  0.
        -13    1    3    3    0    0  0.80848773866E+02 -0.15794376240E+01  0.30364042003E+02  0.86377045015E+02  0.00000000000E+00 0.  1.
         14    1    3    3    0    0 -0.88902842667E+01 -0.31646080490E+02  0.15266508600E+02  0.36243314550E+02  0.00000000000E+00 0. -1.
        -13    1    5    5    0    0 -0.52931870252E+01  0.17167358273E+02 -0.29875928671E+02  0.34861255469E+02  0.00000000000E+00 0.  1.
         14    1    5    5    0    0  0.49564561600E+02 -0.55202292592E+01  0.24712820866E+02  0.55658262754E+02  0.00000000000E+00 0. -1.
          5    1    4    4  501    0 -0.16009611113E+02  0.66201355139E+02  0.57070166128E+02  0.88983262090E+02  0.47000000000E+01 0.  1.
         -5    1    4    4    0  501 -0.23130286553E+03  0.87052656173E+02  0.14248022148E+03  0.28531015415E+03  0.47000000000E+01 0.  1.
          1    1    1    2  502    0  0.95239975136E+02 -0.12952969350E+03  0.39134205156E+03  0.42308060187E+03  0.00000000000E+00 0. -1.
          1    1    1    2  503    0  0.35842637328E+02 -0.21459287172E+01 -0.22194117907E+04  0.22197022315E+04  0.00000000000E+00 0. -1.
<mgrwt>
<rscale>  0 0.80022867E+02</rscale>
<asrwt>0</asrwt>
<pdfrwt beam="1">  1        2 0.12074737E+00 0.17834104E+03</pdfrwt>
<pdfrwt beam="2">  1        2 0.35428441E+00 0.35906819E+02</pdfrwt>
<totfact> 0.38222519E+01</totfact>
</mgrwt>
</event>
<event>
13    1  0.1589573E-008  0.9494971E+02  0.7546771E-02  0.1372761E+00
          2   -1    0    0  503    0  0.00000000000E+00  0.00000000000E+00  0.26210843567E+04  0.26210843567E+04  0.00000000000E+00 0. -1.
         -1   -1    0    0    0  501 -0.00000000000E+00 -0.00000000000E+00 -0.41298304389E+03  0.41298304389E+03  0.00000000000E+00 0.  1.
         24    2    1    2    0    0 -0.34823807587E+03  0.32612783508E+03  0.20863206404E+03  0.52712554598E+03  0.81883336410E+02 0.  0.
         25    2    1    2    0    0  0.41990454414E+03 -0.33063633272E+03  0.12211216495E+04  0.13388056183E+04  0.12498875891E+03 0.  0.
         24    2    1    2    0    0  0.41504610938E+02 -0.49980980905E+02  0.75145044349E+02  0.12785914454E+03  0.80501254465E+02 0.  0.
        -13    1    3    3    0    0 -0.20477892769E+01  0.14004065537E+02 -0.41285017946E+01  0.14742856560E+02  0.00000000000E+00 0.  1.
         14    1    3    3    0    0 -0.34619028659E+03  0.31212376955E+03  0.21276056584E+03  0.51238268942E+03  0.00000000000E+00 0. -1.
        -13    1    5    5    0    0  0.17346059384E+02 -0.69787471693E+02  0.47860929067E+02  0.86381974466E+02  0.00000000000E+00 0.  1.
         14    1    5    5    0    0  0.24158551554E+02  0.19806490787E+02  0.27284115282E+02  0.41477170073E+02  0.00000000000E+00 0. -1.
          5    1    4    4  502    0  0.13441396018E+03 -0.38614311837E+02  0.28658334075E+03  0.31892049004E+03  0.47000000000E+01 0. -1.
         -5    1    4    4    0  502  0.28549058396E+03 -0.29202202089E+03  0.93453830879E+03  0.10198851282E+04  0.47000000000E+01 0. -1.
          1    1    1    2  503    0 -0.35204130177E+02 -0.30291457079E+02  0.85135363247E+03  0.85261944071E+03  0.00000000000E+00 0. -1.
         -2    1    1    2    0  501 -0.77966949034E+02  0.84780935627E+02 -0.14815107764E+03  0.18765765104E+03  0.00000000000E+00 0.  1.
<mgrwt>
<rscale>  0 0.66405565E+02</rscale>
<asrwt>0</asrwt>
<pdfrwt beam="1">  1        2 0.38545357E+00 0.46442471E+02</pdfrwt>
<pdfrwt beam="2">  1       -1 0.60732802E-01 0.94949708E+02</pdfrwt>
<totfact> 0.16880456E+01</totfact>
</mgrwt>
</event>
<event>
13    1  0.1589573E-008  0.2217473E+03  0.7546771E-02  0.1182762E+00
          2   -1    0    0  502    0  0.00000000000E+00  0.00000000000E+00  0.16323034157E+04  0.16323034157E+04  0.00000000000E+00 0. -1.
          2   -1    0    0  503    0 -0.00000000000E+00 -0.00000000000E+00 -0.55221769928E+04  0.55221769928E+04  0.00000000000E+00 0. -1.
         24    2    1    2    0    0 -0.11693378194E+04  0.10306262673E+03 -0.23604236609E+04  0.26374390374E+04  0.80696816330E+02 0.  0.
         25    2    1    2    0    0 -0.20645942854E+02 -0.39878812195E+02 -0.16967968870E+03  0.21548151439E+03  0.12499804667E+03 0.  0.
         24    2    1    2    0    0  0.14499607369E+04  0.91784297425E+01  0.15165392692E+03  0.14607210939E+04  0.90756918592E+02 0.  0.
        -11    1    3    3    0    0 -0.70791730043E+02  0.11791934824E+02 -0.10693685186E+03  0.12878668043E+03  0.00000000000E+00 0.  1.
         12    1    3    3    0    0 -0.10985460893E+04  0.91270691904E+02 -0.22534868090E+04  0.25086523570E+04  0.00000000000E+00 0. -1.
        -13    1    5    5    0    0  0.46130299310E+03  0.36043819871E+01  0.58489895479E+01  0.46135415213E+03  0.00000000000E+00 0.  1.
         14    1    5    5    0    0  0.98865774385E+03  0.55740477554E+01  0.14580493737E+03  0.99936694174E+03  0.00000000000E+00 0. -1.
          5    1    4    4  501    0 -0.71663456735E+02 -0.77810109887E+01 -0.96998193855E+02  0.12094186527E+03  0.47000000000E+01 0. -1.
         -5    1    4    4    0  501  0.51017513881E+02 -0.32097801207E+02 -0.72681494840E+02  0.94539649127E+02  0.47000000000E+01 0. -1.
          1    1    1    2  502    0 -0.96448214709E+02  0.76861626279E+02  0.65329244809E+03  0.66483155043E+03  0.00000000000E+00 0. -1.
          1    1    1    2  503    0 -0.16352876000E+03 -0.14922387055E+03 -0.21647166025E+04  0.21760072124E+04  0.00000000000E+00 0. -1.
<mgrwt>
<rscale>  0 0.16537173E+03</rscale>
<asrwt>0</asrwt>
<pdfrwt beam="1">  1        2 0.24004462E+00 0.12332870E+03</pdfrwt>
<pdfrwt beam="2">  1        2 0.81208484E+00 0.22174733E+03</pdfrwt>
<totfact> 0.48873524E-02</totfact>
</mgrwt>
</event>
<event>
13    1  0.1589573E-008  0.5899709E+02  0.7546771E-02  0.1511083E+00
          2   -1    0    0  503    0  0.00000000000E+00  0.00000000000E+00  0.12734635058E+04  0.12734635058E+04  0.00000000000E+00 0. -1.
          2   -1    0    0  502    0 -0.00000000000E+00 -0.00000000000E+00 -0.42079276358E+04  0.42079276358E+04  0.00000000000E+00 0. -1.
         24    2    1    2    0    0  0.13858674574E+04  0.50757367028E+03 -0.81812257161E+03  0.16894741367E+04  0.82089439504E+02 0.  0.
         25    2    1    2    0    0 -0.16332311507E+04  0.11133705631E+03 -0.13169373790E+04  0.21047064206E+04  0.12500050146E+03 0.  0.
         24    2    1    2    0    0  0.27731616276E+03 -0.60585083779E+03 -0.46711506974E+03  0.81851968778E+03  0.88422277320E+02 0.  0.
        -11    1    5    5    0    0  0.53368057879E+02 -0.16315747917E+03 -0.16233201440E+03  0.23626297956E+03  0.00000000000E+00 0.  1.
         12    1    5    5    0    0  0.22394810488E+03 -0.44269335862E+03 -0.30478305534E+03  0.58225670822E+03  0.00000000000E+00 0. -1.
        -13    1    3    3    0    0  0.74285564648E+03  0.24707507859E+03 -0.39530969599E+03  0.87701217877E+03  0.00000000000E+00 0.  1.
         14    1    3    3    0    0  0.64301181093E+03  0.26049859169E+03 -0.42281287562E+03  0.81246195792E+03  0.00000000000E+00 0. -1.
          5    1    4    4  501    0 -0.79259186520E+03  0.13005068435E+02 -0.57678490098E+03  0.98034377061E+03  0.47000000000E+01 0.  1.
         -5    1    4    4    0  501 -0.84063928546E+03  0.98331987877E+02 -0.74015247799E+03  0.11243626500E+04  0.47000000000E+01 0.  1.
          1    1    1    2  502    0 -0.55842459331E+02 -0.19151585714E+02 -0.59837444804E+03  0.60127958851E+03  0.00000000000E+00 0. -1.
          1    1    1    2  503    0  0.25889989809E+02  0.60916969064E+01  0.26608533835E+03  0.26741130797E+03  0.00000000000E+00 0. -1.
<mgrwt>
<rscale>  0 0.39612440E+02</rscale>
<asrwt>0</asrwt>
<pdfrwt beam="1">  1        2 0.18727405E+00 0.26596999E+02</pdfrwt>
<pdfrwt beam="2">  1        2 0.61881289E+00 0.58997086E+02</pdfrwt>
<totfact> 0.21245343E+00</totfact>
</mgrwt>
</event>
<event>
13    1  0.1589573E-008  0.1246524E+03  0.7546771E-02  0.1307304E+00
         -1   -1    0    0    0  501 -0.00000000000E+00  0.00000000000E+00  0.18914683639E+04  0.18914683639E+04  0.00000000000E+00 0.  1.
          2   -1    0    0  503    0  0.00000000000E+00 -0.00000000000E+00 -0.21371832309E+04  0.21371832309E+04  0.00000000000E+00 0. -1.
         24    2    1    2    0    0 -0.17022086245E+02 -0.20825408918E+01  0.28208967018E+02  0.82321741358E+02  0.75412431889E+02 0.  0.
         25    2    1    2    0    0 -0.13713261265E+03 -0.50178453441E+02 -0.17817312858E+02  0.19304526670E+03  0.12500315082E+03 0.  0.
         24    2    1    2    0    0  0.13389233088E+02 -0.91132483774E+01  0.76636955920E+01  0.81399896775E+02  0.79403325536E+02 0.  0.
        -13    1    3    3    0    0 -0.21251818130E+02 -0.74757636329E+01 -0.22093829134E+02  0.31554145552E+02  0.00000000000E+00 0.  1.
         14    1    3    3    0    0  0.42297318847E+01  0.53932227412E+01  0.50302796151E+02  0.50767595806E+02  0.00000000000E+00 0. -1.
        -13    1    5    5    0    0  0.24494892459E+02 -0.39591494365E+02  0.13426013510E+02  0.48453524345E+02  0.00000000000E+00 0.  1.
         14    1    5    5    0    0 -0.11105659371E+02  0.30478245988E+02 -0.57623179177E+01  0.32946372431E+02  0.00000000000E+00 0. -1.
          5    1    4    4  502    0 -0.11447928681E+03  0.81782093830E+01 -0.46632777198E+02  0.12397215867E+03  0.47000000000E+01 0. -1.
         -5    1    4    4    0  502 -0.22653325849E+02 -0.58356662824E+02  0.28815464341E+02  0.69073108031E+02  0.47000000000E+01 0. -1.
          1    1    1    2  503    0  0.16401856075E+02  0.60193750102E+02 -0.19650624836E+04  0.19660526119E+04  0.00000000000E+00 0. -1.
         -2    1    1    2    0  501  0.12436360974E+03  0.11804926082E+01  0.17012922669E+04  0.17058320780E+04  0.00000000000E+00 0.  1.
<mgrwt>
<rscale>  0 0.88186498E+02</rscale>
<asrwt>0</asrwt>
<pdfrwt beam="2">  1        2 0.31429165E+00 0.62388368E+02</pdfrwt>
<pdfrwt beam="1">  1       -1 0.27815711E+00 0.12465238E+03</pdfrwt>
<totfact> 0.55358687E-01</totfact>
</mgrwt>
</event>
<event>
13    1  0.1589573E-008  0.7642319E+02  0.7546771E-02  0.1369241E+00
          2   -1    0    0  502    0  0.00000000000E+00  0.00000000000E+00  0.64616514932E+03  0.64616514932E+03  0.00000000000E+00 0. -1.
          2   -1    0    0  503    0 -0.00000000000E+00 -0.00000000000E+00 -0.21546967862E+03  0.21546967862E+03  0.00000000000E+00 0. -1.
         24    2    1    2    0    0 -0.70921423194E+02 -0.27649568309E+02  0.16167172243E+02  0.11232455895E+03  0.81000507335E+02 0.  0.
         25    2    1    2    0    0  0.12793519137E+03  0.93163228222E+02  0.32618206335E+03  0.38349072796E+03  0.12499439864E+03 0.  0.
         24    2    1    2    0    0  0.36142691342E+02  0.64997801962E+00  0.30539579716E+02  0.94730914784E+02  0.82064387390E+02 0.  0.
        -11    1    5    5    0    0  0.35436684253E+02  0.37914108369E+02  0.12789083645E+02  0.53449030531E+02  0.00000000000E+00 0.  1.
         12    1    5    5    0    0  0.70600708939E+00 -0.37264130349E+02  0.17750496071E+02  0.41281884253E+02  0.00000000000E+00 0. -1.
        -11    1    3    3    0    0 -0.64802242166E+02  0.14376877509E+02  0.20903845840E+02  0.69591637196E+02  0.00000000000E+00 0.  1.
         12    1    3    3    0    0 -0.61191810278E+01 -0.42026445818E+02 -0.47366735965E+01  0.42732921750E+02  0.00000000000E+00 0. -1.
          5    1    4    4  501    0  0.11719628591E+03  0.70107130889E+02  0.33016136850E+03  0.35732142181E+03  0.47000000000E+01 0.  1.
         -5    1    4    4    0  501  0.10738905456E+02  0.23056097333E+02 -0.39793051507E+01  0.26169306145E+02  0.47000000000E+01 0.  1.
          1    1    1    2  502    0 -0.73598366039E+02 -0.10071047898E+02  0.14654774214E+03  0.16429968416E+03  0.00000000000E+00 0. -1.
          1    1    1    2  503    0 -0.19558093477E+02 -0.56092590035E+02 -0.88741086745E+02  0.10678894210E+03  0.00000000000E+00 0. -1.
<mgrwt>
<rscale>  0 0.67378658E+02</rscale>
<asrwt>0</asrwt>
<pdfrwt beam="1">  1        2 0.95024286E-01 0.76423194E+02</pdfrwt>
<pdfrwt beam="2">  1        2 0.31686718E-01 0.59404526E+02</pdfrwt>
<totfact> 0.12463580E+03</totfact>
</mgrwt>
</event>
<event>
13    1  0.1589573E-008  0.3881130E+03  0.7546771E-02  0.1090076E+00
          2   -1    0    0  503    0  0.00000000000E+00  0.00000000000E+00  0.19335696054E+04  0.19335696054E+04  0.00000000000E+00 0. -1.
          2   -1    0    0  502    0 -0.00000000000E+00 -0.00000000000E+00 -0.33380099636E+04  0.33380099636E+04  0.00000000000E+00 0. -1.
         24    2    1    2    0    0  0.17507969910E+03  0.22175599119E+03 -0.51712485960E+03  0.59478101377E+03  0.80732355749E+02 0.  0.
         25    2    1    2    0    0 -0.58490336044E+02  0.67382367595E+03  0.64093310711E+03  0.94014893137E+03  0.12500119871E+03 0.  0.
         24    2    1    2    0    0  0.10558939064E+03 -0.31816826667E+03 -0.42980837683E+03  0.55173297722E+03  0.85404168679E+02 0.  0.
        -13    1    3    3    0    0  0.14653646409E+03  0.12703732678E+03 -0.36490558138E+03  0.41324024614E+03  0.00000000000E+00 0.  1.
         14    1    3    3    0    0  0.28543235003E+02  0.94718664417E+02 -0.15221927822E+03  0.18154076764E+03  0.00000000000E+00 0. -1.
        -13    1    5    5    0    0  0.53325451592E+02 -0.22713632271E+03 -0.23926080433E+03  0.33418594430E+03  0.00000000000E+00 0.  1.
         14    1    5    5    0    0  0.52263939045E+02 -0.91031943964E+02 -0.19054757249E+03  0.21754703291E+03  0.00000000000E+00 0. -1.
          5    1    4    4  501    0 -0.86642778627E+02  0.29593201151E+03  0.30457003707E+03  0.43343710502E+03  0.47000000000E+01 0.  1.
         -5    1    4    4    0  501  0.28152442583E+02  0.37789166444E+03  0.33636307004E+03  0.50671182635E+03  0.47000000000E+01 0.  1.
          1    1    1    2  502    0 -0.21125466025E+02 -0.66031139302E+03 -0.20785262542E+04  0.21809926204E+04  0.00000000000E+00 0. -1.
          1    1    1    2  503    0 -0.20105328766E+03  0.82899992547E+02  0.98008602532E+03  0.10039240261E+04  0.00000000000E+00 0. -1.
<mgrwt>
<rscale>  0 0.29052436E+03</rscale>
<asrwt>0</asrwt>
<pdfrwt beam="1">  1        2 0.28434847E+00 0.21747375E+03</pdfrwt>
<pdfrwt beam="2">  1        2 0.49088381E+00 0.38811305E+03</pdfrwt>
<totfact> 0.21698438E+00</totfact>
</mgrwt>
</event>
<event>
13    1  0.1589573E-008  0.2645482E+03  0.7546771E-02  0.1202727E+00
          2   -1    0    0  503    0  0.00000000000E+00  0.00000000000E+00  0.26312441183E+04  0.26312441183E+04  0.00000000000E+00 0. -1.
         -1   -1    0    0    0  501 -0.00000000000E+00 -0.00000000000E+00 -0.48677386047E+03  0.48677386047E+03  0.00000000000E+00 0.  1.
         24    2    1    2    0    0  0.24848136970E+02 -0.83784859415E+02 -0.49219510474E+02  0.12806030380E+03  0.79621282452E+02 0.  0.
         25    2    1    2    0    0 -0.29384509873E+03  0.99257751778E+02  0.14740891561E+04  0.15115426289E+04  0.12500094317E+03 0.  0.
         24    2    1    2    0    0 -0.49215249304E+02 -0.12919526204E+03 -0.23464490704E+03  0.28268681060E+03  0.75763077976E+02 0.  0.
        -13    1    3    3    0    0 -0.26124461856E+02 -0.13799039828E+02 -0.23467588689E+02  0.37731004841E+02  0.00000000000E+00 0.  1.
         14    1    3    3    0    0  0.50972598826E+02 -0.69985819587E+02 -0.25751921785E+02  0.90329298956E+02  0.00000000000E+00 0. -1.
        -13    1    5    5    0    0 -0.54607792203E+02 -0.13380952527E+03 -0.19671103314E+03  0.24409471642E+03  0.00000000000E+00 0.  1.
         14    1    5    5    0    0  0.53925428990E+01  0.46142632252E+01 -0.37933873901E+02  0.38592094180E+02  0.00000000000E+00 0. -1.
          5    1    4    4  502    0 -0.21848611029E+03  0.94158716816E+02  0.84329737727E+03  0.87622748236E+03  0.47000000000E+01 0. -1.
         -5    1    4    4    0  502 -0.75358988448E+02  0.50990349626E+01  0.63079177878E+03  0.63531514658E+03  0.47000000000E+01 0. -1.
          1    1    1    2  503    0  0.24052642126E+03  0.84500561425E+02  0.10432974711E+04  0.10739939093E+04  0.00000000000E+00 0. -1.
         -2    1    1    2    0  501  0.77685789809E+02  0.29221808257E+02 -0.89051951802E+02  0.12173432604E+03  0.00000000000E+00 0.  1.
<mgrwt>
<rscale>  0 0.14818060E+03</rscale>
<asrwt>0</asrwt>
<pdfrwt beam="1">  1        2 0.38694766E+00 0.26454816E+03</pdfrwt>
<pdfrwt beam="2">  1       -1 0.71584392E-01 0.82999976E+02</pdfrwt>
<totfact> 0.96491520E+00</totfact>
</mgrwt>
</event>
<event>
13    1  0.1589573E-008  0.6547803E+02  0.7546771E-02  0.1385496E+00
         -3   -1    0    0    0  501 -0.00000000000E+00  0.00000000000E+00  0.13321393712E+04  0.13321393712E+04  0.00000000000E+00 0.  1.
          2   -1    0    0  503    0  0.00000000000E+00 -0.00000000000E+00 -0.28178883138E+04  0.28178883138E+04  0.00000000000E+00 0. -1.
         24    2    1    2    0    0  0.36432458149E+02 -0.41534593192E+03  0.35995227539E+03  0.55677563128E+03  0.81202806982E+02 0.  0.
         25    2    1    2    0    0 -0.10420560857E+03  0.66999733765E+02  0.47018752664E+03  0.50203796977E+03  0.12497215573E+03 0.  0.
         24    2    1    2    0    0  0.39224119188E+02  0.23226654655E+03 -0.21451495586E+04  0.21595471931E+04  0.80567800425E+02 0.  0.
        -11    1    3    3    0    0  0.11296544049E+02 -0.19616925986E+02  0.45056231334E+02  0.50423205715E+02  0.00000000000E+00 0.  1.
         12    1    3    3    0    0  0.25135914101E+02 -0.39572900593E+03  0.31489604405E+03  0.50635242556E+03  0.00000000000E+00 0. -1.
        -11    1    5    5    0    0  0.97320942794E+01  0.29424230112E+02 -0.60827031711E+03  0.60905933837E+03  0.00000000000E+00 0.  1.
         12    1    5    5    0    0  0.29492024909E+02  0.20284231644E+03 -0.15368792415E+04  0.15504878547E+04  0.00000000000E+00 0. -1.
          5    1    4    4  502    0 -0.37199829195E+02  0.93465163321E+02  0.22645701662E+03  0.24783953362E+03  0.47000000000E+01 0.  1.
         -5    1    4    4    0  502 -0.67005779374E+02 -0.26465429556E+02  0.24373051002E+03  0.25419843616E+03  0.47000000000E+01 0.  1.
          1    1    1    2  503    0  0.33175167016E+02  0.50825589097E+02 -0.54669912654E+03  0.55005796710E+03  0.00000000000E+00 0. -1.
         -4    1    1    2    0  501 -0.46261357845E+01  0.65254062505E+02  0.37595994047E+03  0.38160892369E+03  0.00000000000E+00 0.  1.
<mgrwt>
<rscale>  0 0.63040953E+02</rscale>
<asrwt>0</asrwt>
<pdfrwt beam="2">  1        2 0.41439534E+00 0.60694581E+02</pdfrwt>
<pdfrwt beam="1">  1       -3 0.19590285E+00 0.65478032E+02</pdfrwt>
<totfact> 0.42222924E-01</totfact>
</mgrwt>
</event>
<event>
13    1  0.1589573E-008  0.8500573E+02  0.7546771E-02  0.1492753E+00
          2   -1    0    0  502    0  0.00000000000E+00  0.00000000000E+00  0.16322121660E+04  0.16322121660E+04  0.00000000000E+00 0. -1.
          2   -1    0    0  503    0 -0.00000000000E+00 -0.00000000000E+00 -0.26657363035E+04  0.26657363035E+04  0.00000000000E+00 0. -1.
         24    2    1    2    0    0 -0.14090183314E+03 -0.10133605234E+03 -0.23328707136E+04  0.23406426380E+04  0.78739257345E+02 0.  0.
         25    2    1    2    0    0  0.33486378892E+03 -0.21089518175E+03  0.61211610548E+03  0.73954102907E+03  0.12499708908E+03 0.  0.
         24    2    1    2    0    0 -0.11492429896E+03  0.33153362682E+03 -0.11427822155E+03  0.37654426916E+03  0.74859431675E+02 0.  0.
        -11    1    3    3    0    0 -0.17918756356E+02 -0.52216697242E+02 -0.51362910261E+03  0.51658737920E+03  0.00000000000E+00 0.  1.
         12    1    3    3    0    0 -0.12298307678E+03 -0.49119355099E+02 -0.18192416110E+04  0.18240552588E+04  0.00000000000E+00 0. -1.
        -13    1    5    5    0    0 -0.21064619084E+02  0.11206918701E+03 -0.69930561547E+02  0.13376660380E+03  0.00000000000E+00 0.  1.
         14    1    5    5    0    0 -0.93859679880E+02  0.21946443981E+03 -0.44347659999E+02  0.24277766536E+03  0.00000000000E+00 0. -1.
          5    1    4    4  501    0  0.31751445370E+03 -0.15827937738E+03  0.56231749946E+03  0.66489912754E+03  0.47000000000E+01 0. -1.
         -5    1    4    4    0  501  0.17349335223E+02 -0.52615804370E+02  0.49798606024E+02  0.74641901531E+02  0.47000000000E+01 0. -1.
          1    1    1    2  502    0 -0.75088625836E+02 -0.39856591819E+02  0.81293956844E+03  0.81737237021E+03  0.00000000000E+00 0. -1.
          1    1    1    2  503    0 -0.39490309850E+01  0.20554199095E+02 -0.11430876234E+02  0.23848162982E+02  0.00000000000E+00 0. -1.
<mgrwt>
<rscale>  0 0.42180330E+02</rscale>
<asrwt>0</asrwt>
<pdfrwt beam="1">  1        2 0.24003120E+00 0.85005735E+02</pdfrwt>
<pdfrwt beam="2">  1        2 0.39202004E+00 0.20930121E+02</pdfrwt>
<totfact> 0.11948369E+01</totfact>
</mgrwt>
</event>
<event>
13    1  0.1589573E-008  0.8831696E+02  0.7546771E-02  0.1368905E+00
         -1   -1    0    0    0  501 -0.00000000000E+00  0.00000000000E+00  0.15702504980E+04  0.15702504980E+04  0.00000000000E+00 0.  1.
          2   -1    0    0  503    0  0.00000000000E+00 -0.00000000000E+00 -0.29416985621E+04  0.29416985621E+04  0.00000000000E+00 0. -1.
         24    2    1    2    0    0  0.19815244031E+02 -0.10824841657E+03  0.38057831428E+03  0.40460205517E+03  0.82174242710E+02 0.  0.
         25    2    1    2    0    0 -0.79267202573E+02  0.17572738427E+03 -0.70019709095E+01  0.22986509591E+03  0.12500212691E+03 0.  0.
         24    2    1    2    0    0 -0.23870909574E+02 -0.57810903833E+01  0.55892269604E+03  0.56522849163E+03  0.80532144316E+02 0.  0.
        -11    1    5    5    0    0 -0.18706994385E+02 -0.42835069198E+02  0.31911009031E+03  0.32251518496E+03  0.00000000000E+00 0.  1.
         12    1    5    5    0    0 -0.51639151890E+01  0.37053978815E+02  0.23981260573E+03  0.24271330666E+03  0.00000000000E+00 0. -1.
        -13    1    3    3    0    0 -0.28270542952E+01 -0.80066696215E+02  0.13983696868E+03  0.16116155214E+03  0.00000000000E+00 0.  1.
         14    1    3    3    0    0  0.22642298326E+02 -0.28181720357E+02  0.24074134560E+03  0.24344050304E+03  0.00000000000E+00 0. -1.
          5    1    4    4  502    0  0.26687660755E+01 -0.14531133324E+02 -0.16242665222E+02  0.22454182719E+02  0.47000000000E+01 0. -1.
         -5    1    4    4    0  502 -0.81935968648E+02  0.19025851760E+03  0.92406943126E+01  0.20741091319E+03  0.47000000000E+01 0. -1.
          1    1    1    2  503    0 -0.19882113772E+02 -0.47558986657E+02 -0.28024798207E+04  0.28029538528E+04  0.00000000000E+00 0. -1.
         -2    1    1    2    0  501  0.10320498189E+03 -0.14138890662E+02  0.49853271713E+03  0.50929956466E+03  0.00000000000E+00 0.  1.
<mgrwt>
<rscale>  0 0.67472423E+02</rscale>
<asrwt>0</asrwt>
<pdfrwt beam="2">  1        2 0.43260273E+00 0.51547606E+02</pdfrwt>
<pdfrwt beam="1">  1       -1 0.23091919E+00 0.88316962E+02</pdfrwt>
<totfact> 0.46594392E-01</totfact>
</mgrwt>
</event>
<event>
13    1  0.1589573E-008  0.1338482E+03  0.7546771E-02  0.1314783E+00
          2   -1    0    0  503    0  0.00000000000E+00  0.00000000000E+00  0.13521270324E+04  0.13521270324E+04  0.00000000000E+00 0. -1.
          2   -1    0    0  502    0 -0.00000000000E+00 -0.00000000000E+00 -0.18119789421E+04  0.18119789421E+04  0.00000000000E+00 0. -1.
         24    2    1    2    0    0 -0.63544279970E+03 -0.28040119179E+03 -0.33571056205E+03  0.77744467371E+03  0.96468954365E+02 0.  0.
         25    2    1    2    0    0  0.10904458260E+03  0.70698034192E+03  0.31901206624E+03  0.79316296095E+03  0.12500743727E+03 0.  0.
         24    2    1    2    0    0  0.45341566235E+03 -0.47722940404E+03 -0.48929157852E+03  0.82432472610E+03  0.82288142003E+02 0.  0.
        -11    1    5    5    0    0  0.10157866796E+03 -0.15897488199E+03 -0.12764189664E+03  0.22777992156E+03  0.00000000000E+00 0.  1.
         12    1    5    5    0    0  0.35183699439E+03 -0.31825452205E+03 -0.36164968188E+03  0.59654480454E+03  0.00000000000E+00 0. -1.
        -11    1    3    3    0    0 -0.18287638212E+03 -0.71824844168E+02 -0.48845939205E+02  0.20245618082E+03  0.00000000000E+00 0.  1.
         12    1    3    3    0    0 -0.45256641758E+03 -0.20857634762E+03 -0.28686462284E+03  0.57498849289E+03  0.00000000000E+00 0. -1.
          5    1    4    4  501    0  0.31339653832E+02  0.55015600778E+03  0.23899827893E+03  0.60066302877E+03  0.47000000000E+01 0. -1.
         -5    1    4    4    0  501  0.77704928763E+02  0.15682433414E+03  0.80013787311E+02  0.19249993219E+03  0.47000000000E+01 0. -1.
          1    1    1    2  502    0 -0.12480393532E+02 -0.52841573464E+02 -0.34830960483E+03  0.35251606052E+03  0.00000000000E+00 0. -1.
          1    1    1    2  503    0  0.85462948294E+02  0.10349182738E+03  0.39444776941E+03  0.41665755323E+03  0.00000000000E+00 0. -1.
<mgrwt>
<rscale>  0 0.85248709E+02</rscale>
<asrwt>0</asrwt>
<pdfrwt beam="1">  1        2 0.19884221E+00 0.13384818E+03</pdfrwt>
<pdfrwt beam="2">  1        2 0.26646749E+00 0.54295415E+02</pdfrwt>
<totfact> 0.34741162E+01</totfact>
</mgrwt>
</event>
<event>
13    1  0.1589573E-008  0.4018888E+02  0.7546771E-02  0.1595841E+00
         -1   -1    0    0    0  501 -0.00000000000E+00  0.00000000000E+00  0.16676000228E+04  0.16676000228E+04  0.00000000000E+00 0.  1.
          2   -1    0    0  503    0  0.00000000000E+00 -0.00000000000E+00 -0.21558513289E+04  0.21558513289E+04  0.00000000000E+00 0. -1.
         24    2    1    2    0    0  0.10175347254E+03 -0.20531718913E+03  0.12175663347E+04  0.12416186460E+04  0.81487209448E+02 0.  0.
         25    2    1    2    0    0 -0.23797945460E+02  0.32991708128E+03 -0.41445595678E+03  0.54480451966E+03  0.12500640706E+03 0.  0.
         24    2    1    2    0    0 -0.67221509576E+02 -0.91242711371E+02  0.28734345865E+03  0.31905470524E+03  0.79910437236E+02 0.  0.
        -13    1    3    3    0    0  0.28105400273E+02 -0.12637723373E+03  0.79534777999E+03  0.80581586598E+03  0.00000000000E+00 0.  1.
         14    1    3    3    0    0  0.73648072268E+02 -0.78939955395E+02  0.42221855470E+03  0.43580277999E+03  0.00000000000E+00 0. -1.
        -13    1    5    5    0    0 -0.41846358955E+02 -0.13202068280E+02  0.17192797859E+03  0.17743912248E+03  0.00000000000E+00 0.  1.
         14    1    5    5    0    0 -0.25375150621E+02 -0.78040643091E+02  0.11541548006E+03  0.14161558276E+03  0.00000000000E+00 0. -1.
          5    1    4    4  502    0 -0.43664413921E+02  0.20344820745E+03 -0.16969187551E+03  0.26854269079E+03  0.47000000000E+01 0. -1.
         -5    1    4    4    0  502  0.19866468461E+02  0.12646887382E+03 -0.24476408126E+03  0.27626182887E+03  0.47000000000E+01 0. -1.
          1    1    1    2  503    0  0.21035091370E+02 -0.85339655137E+01 -0.16424185559E+04  0.16425754218E+04  0.00000000000E+00 0. -1.
         -2    1    1    2    0  501 -0.31769108876E+02 -0.24823215266E+02  0.63713413146E+02  0.75398059057E+02  0.00000000000E+00 0.  1.
<mgrwt>
<rscale>  0 0.30204299E+02</rscale>
<asrwt>0</asrwt>
<pdfrwt beam="2">  1        2 0.31703696E+00 0.22700300E+02</pdfrwt>
<pdfrwt beam="1">  1       -1 0.24523530E+00 0.40188881E+02</pdfrwt>
<totfact> 0.11101607E+00</totfact>
</mgrwt>
</event>
<event>
13    1  0.1589573E-008  0.4402819E+02  0.7546771E-02  0.1484307E+00
          2   -1    0    0  503    0  0.00000000000E+00  0.00000000000E+00  0.71798877467E+03  0.71798877467E+03  0.00000000000E+00 0. -1.
          2   -1    0    0  502    0 -0.00000000000E+00 -0.00000000000E+00 -0.17931987572E+04  0.17931987572E+04  0.00000000000E+00 0. -1.
         24    2    1    2    0    0 -0.85635248496E+01  0.57160187077E+01 -0.11261614851E+03  0.13795835072E+03  0.79019635539E+02 0.  0.
         25    2    1    2    0    0  0.72219647338E+02  0.70013171815E+02  0.13993298805E+02  0.16106221880E+03  0.12501081643E+03 0.  0.
         24    2    1    2    0    0 -0.11959845365E+03 -0.26063672995E+02  0.29745288444E+03  0.33156478247E+03  0.80460433426E+02 0.  0.
        -13    1    5    5    0    0  0.63877417415E+01 -0.17084917772E+02  0.58592269866E+02  0.61365721277E+02  0.00000000000E+00 0.  1.
         14    1    5    5    0    0 -0.12598619539E+03 -0.89787552223E+01  0.23886061458E+03  0.27019906119E+03  0.00000000000E+00 0. -1.
        -13    1    3    3    0    0 -0.37494157164E+01 -0.36589397834E+02 -0.45991641515E+02  0.58890349305E+02  0.00000000000E+00 0.  1.
         14    1    3    3    0    0 -0.48141091332E+01  0.42305416542E+02 -0.66624506995E+02  0.79068001416E+02  0.00000000000E+00 0. -1.
          5    1    4    4  501    0  0.53756306779E+02 -0.98703159042E+01  0.47307898116E+02  0.72438186606E+02  0.47000000000E+01 0.  1.
         -5    1    4    4    0  501  0.18463340559E+02  0.79883487719E+02 -0.33314599311E+02  0.88624032192E+02  0.47000000000E+01 0.  1.
          1    1    1    2  502    0  0.43132232901E+02 -0.87602383606E+01 -0.15754976857E+04  0.15761123338E+04  0.00000000000E+00 0. -1.
          1    1    1    2  503    0  0.12810098261E+02 -0.40905279167E+02  0.30145766843E+03  0.30448984603E+03  0.00000000000E+00 0. -1.
<mgrwt>
<rscale>  0 0.43442301E+02</rscale>
<asrwt>0</asrwt>
<pdfrwt beam="1">  1        2 0.10558659E+00 0.42864210E+02</pdfrwt>
<pdfrwt beam="2">  1        2 0.26370570E+00 0.44028188E+02</pdfrwt>
<totfact> 0.88134292E+01</totfact>
</mgrwt>
</event>
<event>
13    1  0.1589573E-008  0.3723006E+02  0.7546771E-02  0.1583496E+00
          2   -1    0    0  502    0  0.00000000000E+00  0.00000000000E+00  0.29639096945E+04  0.29639096945E+04  0.00000000000E+00 0. -1.
          2   -1    0    0  503    0 -0.00000000000E+00 -0.00000000000E+00 -0.20257948371E+04  0.20257948371E+04  0.00000000000E+00 0. -1.
         24    2    1    2    0    0  0.45898326221E+03 -0.28373732663E+03 -0.92998024167E+03  0.10778165491E+04  0.75184825656E+02 0.  0.
         25    2    1    2    0    0 -0.50815408262E+03  0.47679204814E+03  0.12966621978E+04  0.14773315958E+04  0.12499824007E+03 0.  0.
         24    2    1    2    0    0  0.59434447657E+02 -0.25586629732E+03  0.81914259614E+03  0.86285648117E+03  0.67280744667E+02 0.  0.
        -11    1    5    5    0    0  0.45545619505E+02 -0.25254213494E+03  0.76676949637E+03  0.80857120524E+03  0.00000000000E+00 0.  1.
         12    1    5    5    0    0  0.13888828153E+02 -0.33241623845E+01  0.52373099768E+02  0.54285275926E+02  0.00000000000E+00 0. -1.
        -13    1    3    3    0    0  0.29179509383E+03 -0.19582140582E+03 -0.66859710278E+03  0.75532276916E+03  0.00000000000E+00 0.  1.
         14    1    3    3    0    0  0.16718816838E+03 -0.87915920811E+02 -0.26138313890E+03  0.32249377990E+03  0.00000000000E+00 0. -1.
          5    1    4    4  501    0 -0.13011387659E+03  0.19036353856E+03  0.36243063820E+03  0.42958812275E+03  0.47000000000E+01 0. -1.
         -5    1    4    4    0  501 -0.37804020603E+03  0.28642850958E+03  0.93423155955E+03  0.10477434731E+04  0.47000000000E+01 0. -1.
          1    1    1    2  502    0 -0.40752634080E+01  0.26103868751E+02  0.66135041404E+03  0.66187792672E+03  0.00000000000E+00 0. -1.
          1    1    1    2  503    0 -0.61883638398E+01  0.36707707059E+02 -0.90906010883E+03  0.90982197878E+03  0.00000000000E+00 0. -1.
<mgrwt>
<rscale>  0 0.31362724E+02</rscale>
<asrwt>0</asrwt>
<pdfrwt beam="1">  1        2 0.43586907E+00 0.26420063E+02</pdfrwt>
<pdfrwt beam="2">  1        2 0.29791100E+00 0.37230056E+02</pdfrwt>
<totfact> 0.58536307E+00</totfact>
</mgrwt>
</event>
<event>
13    1  0.1589573E-008  0.1342104E+03  0.7546771E-02  0.1297733E+00
          2   -1    0    0  503    0  0.00000000000E+00  0.00000000000E+00  0.16884026715E+04  0.16884026715E+04  0.00000000000E+00 0. -1.
          2   -1    0    0  502    0 -0.00000000000E+00 -0.00000000000E+00 -0.60665430265E+03  0.60665430265E+03  0.00000000000E+00 0. -1.
         24    2    1    2    0    0 -0.10009659948E+03 -0.22594292200E+02 -0.94510477995E+02  0.16150068999E+03  0.81365908999E+02 0.  0.
         25    2    1    2    0    0  0.46128570012E+02  0.21271101257E+03  0.34854183859E+03  0.42951210026E+03  0.12500164470E+03 0.  0.
         24    2    1    2    0    0  0.10584241834E+03  0.62119959279E+01  0.37007190324E+03  0.39340470358E+03  0.81073058526E+02 0.  0.
        -11    1    5    5    0    0 -0.12284204100E+02  0.64990568073E+01  0.60130516730E+02  0.61715625671E+02  0.00000000000E+00 0.  1.
         12    1    5    5    0    0  0.11812662244E+03 -0.28706087944E+00  0.30994138651E+03  0.33168907791E+03  0.00000000000E+00 0. -1.
        -13    1    3    3    0    0 -0.10134899626E+03  0.38597905125E+01 -0.87881064429E+02  0.13419984542E+03  0.00000000000E+00 0.  1.
         14    1    3    3    0    0  0.12523967756E+01 -0.26454082713E+02 -0.66294135664E+01  0.27300844567E+02  0.00000000000E+00 0. -1.
          5    1    4    4  501    0 -0.31885186710E+02  0.10967890818E+03  0.21568909244E+03  0.24411063604E+03  0.47000000000E+01 0.  1.
         -5    1    4    4    0  501  0.78013756722E+02  0.10303210439E+03  0.13285274615E+03  0.18540146422E+03  0.47000000000E+01 0.  1.
          1    1    1    2  502    0  0.13728743479E+01 -0.63252909996E+02 -0.41829355128E+03  0.42305119129E+03  0.00000000000E+00 0. -1.
          1    1    1    2  503    0 -0.53247263216E+02 -0.13307580630E+03  0.87593865629E+03  0.88758828904E+03  0.00000000000E+00 0. -1.
<mgrwt>
<rscale>  0 0.92147708E+02</rscale>
<asrwt>0</asrwt>
<pdfrwt beam="1">  1        2 0.24829451E+00 0.13421044E+03</pdfrwt>
<pdfrwt beam="2">  1        2 0.89213868E-01 0.63267807E+02</pdfrwt>
<totfact> 0.10637697E+02</totfact>
</mgrwt>
</event>
<event>
13    1  0.1589573E-008  0.6335100E+02  0.7546771E-02  0.1394210E+00
          2   -1    0    0  503    0  0.00000000000E+00  0.00000000000E+00  0.10822026998E+04  0.10822026998E+04  0.00000000000E+00 0. -1.
          2   -1    0    0  502    0 -0.00000000000E+00 -0.00000000000E+00 -0.13298341527E+04  0.13298341527E+04  0.00000000000E+00 0. -1.
         24    2    1    2    0    0 -0.24062827009E+03 -0.78517987880E+02 -0.10650219802E+03  0.28510616992E+03  0.76653578898E+02 0.  0.
         25    2    1    2    0    0  0.15788972925E+03  0.24022980278E+02  0.69724637825E+02  0.21446268141E+03  0.12500578552E+03 0.  0.
         24    2    1    2    0    0  0.83664079937E+02  0.48665468448E+02 -0.74981266519E+02  0.14658661597E+03  0.80606696758E+02 0.  0.
        -13    1    5    5    0    0  0.23167252499E+02  0.46027438756E+02 -0.68455065372E+02  0.85681635616E+02  0.00000000000E+00 0.  1.
         14    1    5    5    0    0  0.60496827438E+02  0.26380296915E+01 -0.65262011479E+01  0.60904980356E+02  0.00000000000E+00 0. -1.
        -13    1    3    3    0    0 -0.37678789358E+02 -0.26811663136E+01  0.10052066777E+02  0.39088666731E+02  0.00000000000E+00 0.  1.
         14    1    3    3    0    0 -0.20294948073E+03 -0.75836821566E+02 -0.11655426480E+03  0.24601750319E+03  0.00000000000E+00 0. -1.
          5    1    4    4  501    0  0.12752691757E+03  0.10417724131E+02  0.10511673625E+03  0.16566007944E+03  0.47000000000E+01 0.  1.
         -5    1    4    4    0  501  0.30362811684E+02  0.13605256147E+02 -0.35392098426E+02  0.48802601971E+02  0.47000000000E+01 0.  1.
          1    1    1    2  502    0  0.38850891939E+02 -0.43722023025E+02 -0.94873652961E+03  0.95053774766E+03  0.00000000000E+00 0. -1.
          1    1    1    2  503    0 -0.39776431039E+02  0.49551562180E+02  0.81286390346E+03  0.81534363757E+03  0.00000000000E+00 0. -1.
<mgrwt>
<rscale>  0 0.60871670E+02</rscale>
<asrwt>0</asrwt>
<pdfrwt beam="1">  1        2 0.15914746E+00 0.63350996E+02</pdfrwt>
<pdfrwt beam="2">  1        2 0.19556385E+00 0.58489376E+02</pdfrwt>
<totfact> 0.85254714E+01</totfact>
</mgrwt>
</event>
<event>
13    1  0.1589573E-008  0.1632873E+03  0.7546771E-02  0.1337020E+00
          2   -1    0    0  502    0  0.00000000000E+00  0.00000000000E+00  0.23082707813E+04  0.23082707813E+04  0.00000000000E+00 0. -1.
          2   -1    0    0  503    0 -0.00000000000E+00 -0.00000000000E+00 -0.96179308007E+03  0.96179308007E+03  0.00000000000E+00 0. -1.
         24    2    1    2    0    0 -0.10134000053E+03  0.19862801139E+03 -0.14801372177E+03  0.27922403256E+03  0.79593441390E+02 0.  0.
         25    2    1    2    0    0 -0.22433384765E+02 -0.13197272813E+03  0.58326633702E+03  0.61134822769E+03  0.12500791128E+03 0.  0.
         24    2    1    2    0    0 -0.96654116062E+02 -0.49288407287E+02 -0.10245017322E+03  0.16958576303E+03  0.80572500186E+02 0.  0.
        -13    1    5    5    0    0 -0.10379972886E+03 -0.60641581730E+02 -0.83506073458E+02  0.14637298060E+03  0.00000000000E+00 0.  1.
         14    1    5    5    0    0  0.71456128014E+01  0.11353174443E+02 -0.18944099764E+02  0.23212782430E+02  0.00000000000E+00 0. -1.
        -13    1    3    3    0    0 -0.10225779573E+03  0.18047880625E+03 -0.10492891864E+03  0.23246361922E+03  0.00000000000E+00 0.  1.
         14    1    3    3    0    0  0.91779520098E+00  0.18149205137E+02 -0.43084803131E+02  0.46760413343E+02  0.00000000000E+00 0. -1.
          5    1    4    4  501    0  0.15041969538E+02  0.16666638230E+02  0.33562835150E+02  0.40652079661E+02  0.47000000000E+01 0. -1.
         -5    1    4    4    0  501 -0.37475354303E+02 -0.14863936636E+03  0.54970350187E+03  0.57069614803E+03  0.47000000000E+01 0. -1.
          1    1    1    2  502    0 -0.23407840060E+02  0.28075112631E+02  0.15858565084E+04  0.15862777198E+04  0.00000000000E+00 0. -1.
          1    1    1    2  503    0  0.24383534142E+03 -0.45441988609E+02 -0.57218124920E+03  0.62362811834E+03  0.00000000000E+00 0. -1.
<mgrwt>
<rscale>  0 0.77257228E+02</rscale>
<asrwt>0</asrwt>
<pdfrwt beam="1">  1        2 0.33945158E+00 0.36553234E+02</pdfrwt>
<pdfrwt beam="2">  1        2 0.14144016E+00 0.16328731E+03</pdfrwt>
<totfact> 0.34783389E+01</totfact>
</mgrwt>
</event>
<event>
13    1  0.1589573E-008  0.1371718E+03  0.7546771E-02  0.1264595E+00
          2   -1    0    0  503    0  0.00000000000E+00  0.00000000000E+00  0.76039441070E+03  0.76039441070E+03  0.00000000000E+00 0. -1.
          2   -1    0    0  502    0 -0.00000000000E+00 -0.00000000000E+00 -0.12024548615E+04  0.12024548615E+04  0.00000000000E+00 0. -1.
         24    2    1    2    0    0 -0.83783279087E+02 -0.95158199336E+02 -0.41145416036E+03  0.43784057597E+03  0.79593486784E+02 0.  0.
         25    2    1    2    0    0 -0.98891927931E+02  0.34224488068E+02 -0.39866811126E+02  0.16785263082E+03  0.12503685077E+03 0.  0.
         24    2    1    2    0    0  0.11708453468E+03 -0.15294421263E+02 -0.23034700348E+03  0.27159637184E+03  0.82232229726E+02 0.  0.
        -11    1    3    3    0    0 -0.26266239725E+02  0.91085369976E+01 -0.49130421977E+02  0.56450678997E+02  0.00000000000E+00 0.  1.
         12    1    3    3    0    0 -0.57517039362E+02 -0.10426673633E+03 -0.36232373838E+03  0.38138989698E+03  0.00000000000E+00 0. -1.
        -13    1    5    5    0    0  0.54003845526E+02  0.17536097092E+02 -0.43053011544E+02  0.71256521357E+02  0.00000000000E+00 0.  1.
         14    1    5    5    0    0  0.63080689153E+02 -0.32830518354E+02 -0.18729399193E+03  0.20033985049E+03  0.00000000000E+00 0. -1.
          5    1    4    4  501    0 -0.12136700179E+03  0.50988122389E+01 -0.46539728249E+02  0.13016905667E+03  0.47000000000E+01 0. -1.
         -5    1    4    4    0  501  0.22475073860E+02  0.29125675829E+02  0.66729171224E+01  0.37683574147E+02  0.47000000000E+01 0. -1.
          1    1    1    2  502    0  0.58601864254E+02 -0.61298229277E+02 -0.41145013439E+03  0.42009863663E+03  0.00000000000E+00 0. -1.
          1    1    1    2  503    0  0.69888080849E+01  0.13752636181E+03  0.65105765852E+03  0.66546105697E+03  0.00000000000E+00 0. -1.
<mgrwt>
<rscale>  0 0.10785482E+03</rscale>
<asrwt>0</asrwt>
<pdfrwt beam="1">  1        2 0.11182271E+00 0.13717178E+03</pdfrwt>
<pdfrwt beam="2">  1        2 0.17683160E+00 0.84803605E+02</pdfrwt>
<totfact> 0.14628893E+02</totfact>
</mgrwt>
</event>
<event>
13    1  0.1589573E-008  0.3672030E+02  0.7546771E-02  0.1602960E+00
          2   -1    0    0  502    0  0.00000000000E+00  0.00000000000E+00  0.77087574185E+03  0.77087574185E+03  0.00000000000E+00 0. -1.
          2   -1    0    0  503    0 -0.00000000000E+00 -0.00000000000E+00 -0.20257686253E+04  0.20257686253E+04  0.00000000000E+00 0. -1.
         24    2    1    2    0    0  0.31498657007E+02 -0.28822299767E+02 -0.39270029074E+03  0.40317013185E+03  0.80683000129E+02 0.  0.
         25    2    1    2    0    0 -0.36032011980E+02  0.79881288590E+01 -0.71037858887E+02  0.14843280382E+03  0.12499521497E+03 0.  0.
         24    2    1    2    0    0  0.34083796286E+02  0.51010800486E+02 -0.44965746542E+03  0.46079099415E+03  0.79829174783E+02 0.  0.
        -13    1    5    5    0    0  0.38307648294E+02  0.67768027043E+02 -0.29233725507E+03  0.30252446531E+03  0.00000000000E+00 0.  1.
         14    1    5    5    0    0 -0.42238520082E+01 -0.16757226557E+02 -0.15732021035E+03  0.15826652884E+03  0.00000000000E+00 0. -1.
        -13    1    3    3    0    0 -0.25491859181E+02  0.35106342126E+01 -0.11521815701E+03  0.11805669460E+03  0.00000000000E+00 0.  1.
         14    1    3    3    0    0  0.56990516188E+02 -0.32332933980E+02 -0.27748213374E+03  0.28511343725E+03  0.00000000000E+00 0. -1.
          5    1    4    4  501    0 -0.82392881742E+02  0.81114643479E+01 -0.37438682258E+02  0.90984217009E+02  0.47000000000E+01 0. -1.
         -5    1    4    4    0  501  0.46360869762E+02 -0.12333548888E+00 -0.33599176630E+02  0.57448586814E+02  0.47000000000E+01 0. -1.
          1    1    1    2  502    0 -0.23040432312E+02  0.59733029688E+01  0.72086275219E+03  0.72125560612E+03  0.00000000000E+00 0. -1.
          1    1    1    2  503    0 -0.65100090014E+01 -0.36149932547E+02 -0.10623600205E+04  0.10629948312E+04  0.00000000000E+00 0. -1.
<mgrwt>
<rscale>  0 0.29563859E+02</rscale>
<asrwt>0</asrwt>
<pdfrwt beam="1">  1        2 0.11336408E+00 0.23802140E+02</pdfrwt>
<pdfrwt beam="2">  1        2 0.29790715E+00 0.36720302E+02</pdfrwt>
<totfact> 0.66149094E+01</totfact>
</mgrwt>
</event>
<event>
13    1  0.1589573E-008  0.6072167E+02  0.7546771E-02  0.1457897E+00
          2   -1    0    0  503    0  0.00000000000E+00  0.00000000000E+00  0.18035378317E+04  0.18035378317E+04  0.00000000000E+00 0. -1.
         -3   -1    0    0    0  501 -0.00000000000E+00 -0.00000000000E+00 -0.13080527828E+04  0.13080527828E+04  0.00000000000E+00 0.  1.
         24    2    1    2    0    0  0.87348536368E+02  0.43408215653E+03 -0.47949327895E+02  0.45253744591E+03  0.80211697909E+02 0.  0.
         25    2    1    2    0    0 -0.75939330525E+02 -0.22176210185E+03  0.26552824352E+03  0.37559956092E+03  0.12499828126E+03 0.  0.
         24    2    1    2    0    0  0.15777849521E+02 -0.13647659719E+03 -0.15017107123E+03  0.22722411069E+03  0.10101803665E+03 0.  0.
        -13    1    5    5    0    0 -0.31924594791E+02 -0.83137533264E+02 -0.44373323315E+02  0.99498849299E+02  0.00000000000E+00 0.  1.
         14    1    5    5    0    0  0.47702444313E+02 -0.53339063930E+02 -0.10579774792E+03  0.12772526139E+03  0.00000000000E+00 0. -1.
        -13    1    3    3    0    0  0.73242012436E+02  0.25747589601E+03  0.46320145363E+01  0.26773062016E+03  0.00000000000E+00 0.  1.
         14    1    3    3    0    0  0.14106523932E+02  0.17660626051E+03 -0.52581342432E+02  0.18480682574E+03  0.00000000000E+00 0. -1.
          5    1    4    4  502    0  0.29029189773E+02 -0.24317285195E+02  0.18651731228E+02  0.42473536419E+02  0.47000000000E+01 0.  1.
         -5    1    4    4    0  502 -0.10496852030E+03 -0.19744481666E+03  0.24687651229E+03  0.33312602450E+03  0.47000000000E+01 0.  1.
          1    1    1    2  503    0 -0.43704133937E+02 -0.42130407323E+02  0.12409782201E+04  0.12424620579E+04  0.00000000000E+00 0. -1.
         -4    1    1    2    0  501  0.16517078573E+02 -0.33713050157E+02 -0.81290101558E+03  0.81376743900E+03  0.00000000000E+00 0.  1.
<mgrwt>
<rscale>  0 0.47745137E+02</rscale>
<asrwt>0</asrwt>
<pdfrwt beam="1">  1        2 0.26522615E+00 0.60721666E+02</pdfrwt>
<pdfrwt beam="2">  1       -3 0.19236070E+00 0.37541759E+02</pdfrwt>
<totfact> 0.13763103E+00</totfact>
</mgrwt>
</event>
<event>
13    1  0.1589573E-008  0.2887322E+03  0.7546771E-02  0.1239017E+00
          2   -1    0    0  503    0  0.00000000000E+00  0.00000000000E+00  0.21759590612E+04  0.21759590612E+04  0.00000000000E+00 0. -1.
          2   -1    0    0  502    0 -0.00000000000E+00 -0.00000000000E+00 -0.33217669350E+04  0.33217669350E+04  0.00000000000E+00 0. -1.
         24    2    1    2    0    0  0.20781590637E+03  0.32575575128E+02 -0.83323085486E+03  0.86224690316E+03  0.70338079933E+02 0.  0.
         25    2    1    2    0    0 -0.43481251155E+03  0.34444330703E+03  0.33919327944E+03  0.66210258710E+03  0.12499857225E+03 0.  0.
         24    2    1    2    0    0  0.95343039121E+01 -0.48115997623E+03 -0.18900242083E+03  0.52295339229E+03  0.78437935618E+02 0.  0.
        -11    1    3    3    0    0  0.82398034911E+02  0.45769916617E+02 -0.40562887281E+03  0.41643619425E+03  0.00000000000E+00 0.  1.
         12    1    3    3    0    0  0.12541787146E+03 -0.13194341490E+02 -0.42760198205E+03  0.44581070892E+03  0.00000000000E+00 0. -1.
        -11    1    5    5    0    0 -0.73148635444E+01 -0.10709595207E+03 -0.77039662490E+02  0.13212932973E+03  0.00000000000E+00 0.  1.
         12    1    5    5    0    0  0.16849167456E+02 -0.37406402417E+03 -0.11196275834E+03  0.39082406256E+03  0.00000000000E+00 0. -1.
          5    1    4    4  501    0 -0.16693049068E+03  0.74052073434E+02  0.68864033333E+02  0.19522767064E+03  0.47000000000E+01 0.  1.
         -5    1    4    4    0  501 -0.26788202087E+03  0.27039123360E+03  0.27032924610E+03  0.46687491645E+03  0.47000000000E+01 0.  1.
          1    1    1    2  502    0 -0.24916854109E+02 -0.45618106774E+02 -0.19426595469E+04  0.19433548252E+04  0.00000000000E+00 0. -1.
          1    1    1    2  503    0  0.24237915537E+03  0.14975920085E+03  0.14798916693E+04  0.15070682885E+04  0.00000000000E+00 0. -1.
<mgrwt>
<rscale>  0 0.12250770E+03</rscale>
<asrwt>0</asrwt>
<pdfrwt beam="1">  1        2 0.31999398E+00 0.28873222E+03</pdfrwt>
<pdfrwt beam="2">  1        2 0.48849513E+00 0.51979431E+02</pdfrwt>
<totfact> 0.22690256E+00</totfact>
</mgrwt>
</event>
<event>
13    1  0.1589573E-008  0.1393102E+03  0.7546771E-02  0.1371834E+00
          2   -1    0    0  502    0  0.00000000000E+00  0.00000000000E+00  0.18702538576E+04  0.18702538576E+04  0.00000000000E+00 0. -1.
          2   -1    0    0  503    0 -0.00000000000E+00 -0.00000000000E+00 -0.13635465459E+04  0.13635465459E+04  0.00000000000E+00 0. -1.
         24    2    1    2    0    0 -0.67614343470E+01 -0.46267629702E+02 -0.53505070046E+02  0.10449049694E+03  0.76609796226E+02 0.  0.
         25    2    1    2    0    0  0.13583598166E+02  0.18421293502E+03  0.10888060516E+04  0.11114148823E+04  0.12500201253E+03 0.  0.
         24    2    1    2    0    0  0.40220817038E+02  0.47579645428E+02  0.10996106889E+02  0.99625048933E+02  0.76959075006E+02 0.  0.
        -13    1    3    3    0    0 -0.27160284075E+02  0.10723419885E+02 -0.16383056697E+02  0.33482492616E+02  0.00000000000E+00 0.  1.
         14    1    3    3    0    0  0.20398849728E+02 -0.56991049587E+02 -0.37122013350E+02  0.71008004326E+02  0.00000000000E+00 0. -1.
        -13    1    5    5    0    0  0.29813332150E+02  0.59896881181E+02  0.31159658624E+02  0.73806473122E+02  0.00000000000E+00 0.  1.
         14    1    5    5    0    0  0.10407484889E+02 -0.12317235754E+02 -0.20163551735E+02  0.25818575811E+02  0.00000000000E+00 0. -1.
          5    1    4    4  501    0  0.54822070432E+02  0.42798649995E+02  0.24038391371E+03  0.25028723463E+03  0.47000000000E+01 0.  1.
         -5    1    4    4    0  501 -0.41238472267E+02  0.14141428503E+03  0.84842213787E+03  0.86112764770E+03  0.47000000000E+01 0.  1.
          1    1    1    2  502    0 -0.28401026572E+02 -0.14518396939E+02  0.68294642710E+03  0.68369088369E+03  0.00000000000E+00 0. -1.
          1    1    1    2  503    0 -0.18641954285E+02 -0.17100655381E+03 -0.12225362038E+04  0.12345790917E+04  0.00000000000E+00 0. -1.
<mgrwt>
<rscale>  0 0.66659897E+02</rscale>
<asrwt>0</asrwt>
<pdfrwt beam="1">  1        2 0.27503733E+00 0.31896742E+02</pdfrwt>
<pdfrwt beam="2">  1        2 0.20052155E+00 0.13931021E+03</pdfrwt>
<totfact> 0.33999010E+01</totfact>
</mgrwt>
</event>
<event>
13    1  0.1589573E-008  0.6490040E+02  0.7546771E-02  0.1441742E+00
          2   -1    0    0  503    0  0.00000000000E+00  0.00000000000E+00  0.28690336638E+03  0.28690336638E+03  0.00000000000E+00 0. -1.
          2   -1    0    0  502    0 -0.00000000000E+00 -0.00000000000E+00 -0.16974374086E+04  0.16974374086E+04  0.00000000000E+00 0. -1.
         24    2    1    2    0    0 -0.39313307148E+02  0.49459416050E+02 -0.78020205175E+03  0.78696903632E+03  0.81321907370E+02 0.  0.
         25    2    1    2    0    0  0.37672681458E+02 -0.65759161378E+02  0.45701819466E+02  0.15315676724E+03  0.12499936326E+03 0.  0.
         24    2    1    2    0    0  0.23842939690E+02  0.17787323458E+01 -0.44842558441E+03  0.45636462335E+03  0.81311223285E+02 0.  0.
        -11    1    3    3    0    0 -0.58588917062E+02  0.41100122537E+02 -0.71241364634E+03  0.71599936087E+03  0.00000000000E+00 0.  1.
         12    1    3    3    0    0  0.19275609914E+02  0.83592935135E+01 -0.67788405417E+02  0.70969675458E+02  0.00000000000E+00 0. -1.
        -13    1    5    5    0    0  0.23285921949E+02  0.33639600400E+02 -0.12849738867E+03  0.13485338620E+03  0.00000000000E+00 0.  1.
         14    1    5    5    0    0  0.55701774123E+00 -0.31860868054E+02 -0.31992819575E+03  0.32151123715E+03  0.00000000000E+00 0. -1.
          5    1    4    4  501    0  0.62934041658E+01 -0.99515396433E+02  0.32576329461E+02  0.10500584891E+03  0.47000000000E+01 0.  1.
         -5    1    4    4    0  501  0.31379277292E+02  0.33756235055E+02  0.13125490005E+02  0.48150918333E+02  0.47000000000E+01 0.  1.
          1    1    1    2  502    0  0.38603011517E+02 -0.86736621745E+01 -0.40084498592E+03  0.40279290913E+03  0.00000000000E+00 0. -1.
          1    1    1    2  503    0 -0.60805325518E+02  0.23194675156E+02  0.17323676037E+03  0.18505743895E+03  0.00000000000E+00 0. -1.
<mgrwt>
<rscale>  0 0.50673599E+02</rscale>
<asrwt>0</asrwt>
<pdfrwt beam="1">  1        2 0.42191671E-01 0.64900402E+02</pdfrwt>
<pdfrwt beam="2">  1        2 0.24962315E+00 0.39565451E+02</pdfrwt>
<totfact> 0.25770283E+02</totfact>
</mgrwt>
</event>
<event>
13    1  0.1589573E-008  0.1173918E+03  0.7546771E-02  0.1367035E+00
          4   -1    0    0  503    0 -0.00000000000E+00  0.00000000000E+00  0.76973874375E+03  0.76973874375E+03  0.00000000000E+00 0. -1.
          2   -1    0    0  502    0  0.00000000000E+00 -0.00000000000E+00 -0.40813771583E+03  0.40813771583E+03  0.00000000000E+00 0. -1.
         24    2    1    2    0    0 -0.33815555218E+02 -0.70658348391E+01  0.28911109360E+03  0.30273141455E+03  0.82871389027E+02 0.  0.
         25    2    1    2    0    0  0.12187633337E+03  0.35566689952E+02 -0.10886333294E+03  0.20879340428E+03  0.12499852136E+03 0.  0.
         24    2    1    2    0    0 -0.10853016803E+02  0.39591910521E+02 -0.33033131364E+02  0.96656089321E+02  0.81030268929E+02 0.  0.
        -11    1    3    3    0    0  0.12563704707E+02 -0.32980348430E+02  0.90523450870E+02  0.97159895100E+02  0.00000000000E+00 0.  1.
         12    1    3    3    0    0 -0.46379259926E+02  0.25914513590E+02  0.19858764273E+03  0.20557151945E+03  0.00000000000E+00 0. -1.
        -13    1    5    5    0    0 -0.15533031317E+02  0.61868733173E+02 -0.36710164575E+02  0.73597903431E+02  0.00000000000E+00 0.  1.
         14    1    5    5    0    0  0.46800145140E+01 -0.22276822652E+02  0.36770332115E+01  0.23058185890E+02  0.00000000000E+00 0. -1.
          5    1    4    4  501    0  0.14104565313E+03  0.47403787116E+02 -0.72082142008E+02  0.16540532185E+03  0.47000000000E+01 0.  1.
         -5    1    4    4    0  501 -0.19169319769E+02 -0.11837097164E+02 -0.36781190936E+02  0.43388082423E+02  0.47000000000E+01 0.  1.
          1    1    1    2  502    0  0.90499681266E+01  0.38333688420E+02 -0.16327333455E+03  0.16795700451E+03  0.00000000000E+00 0. -1.
          3    1    1    2  503    0 -0.86257729470E+02 -0.10642645405E+03  0.37765973317E+03  0.40173854691E+03  0.00000000000E+00 0. -1.
<mgrwt>
<rscale>  0 0.67998281E+02</rscale>
<asrwt>0</asrwt>
<pdfrwt beam="2">  1        2 0.60020252E-01 0.39387480E+02</pdfrwt>
<pdfrwt beam="1">  1        4 0.11319687E+00 0.11739178E+03</pdfrwt>
<totfact> 0.27237980E+01</totfact>
</mgrwt>
</event>
<event>
13    1  0.1589573E-008  0.7427893E+02  0.7546771E-02  0.1426499E+00
          2   -1    0    0  502    0  0.00000000000E+00  0.00000000000E+00  0.38056499931E+04  0.38056499931E+04  0.00000000000E+00 0. -1.
          2   -1    0    0  503    0 -0.00000000000E+00 -0.00000000000E+00 -0.15559130348E+04  0.15559130348E+04  0.00000000000E+00 0. -1.
         24    2    1    2    0    0  0.48589610430E+03  0.45825814005E+03  0.38964852172E+03  0.78078704282E+03  0.10819837642E+03 0.  0.
         25    2    1    2    0    0 -0.64066298101E+03 -0.41204289181E+03  0.91579330208E+03  0.11977207255E+04  0.12501665631E+03 0.  0.
         24    2    1    2    0    0  0.69975042722E+02 -0.12060659315E+03 -0.33696145193E+03  0.37416891095E+03  0.83766920224E+02 0.  0.
        -13    1    3    3    0    0  0.27675026145E+03  0.19321082093E+03  0.22044266847E+03  0.40313285480E+03  0.00000000000E+00 0.  1.
         14    1    3    3    0    0  0.20914584285E+03  0.26504731912E+03  0.16920585324E+03  0.37765418802E+03  0.00000000000E+00 0. -1.
        -13    1    5    5    0    0  0.63080566275E+02 -0.75122356488E+02 -0.13405201124E+03  0.16610980706E+03  0.00000000000E+00 0.  1.
         14    1    5    5    0    0  0.68944764467E+01 -0.45484236659E+02 -0.20290944069E+03  0.20805910389E+03  0.00000000000E+00 0. -1.
          5    1    4    4  501    0 -0.29837800190E+03 -0.13432178775E+03  0.45003678239E+03  0.55644134478E+03  0.47000000000E+01 0. -1.
         -5    1    4    4    0  501 -0.34228497911E+03 -0.27772110405E+03  0.46575651969E+03  0.64127938076E+03  0.47000000000E+01 0. -1.
          1    1    1    2  502    0  0.26832196200E+02  0.27995667481E+02  0.21433005456E+04  0.21436513133E+04  0.00000000000E+00 0. -1.
          1    1    1    2  503    0  0.57959637783E+02  0.46395677425E+02 -0.86204395928E+03  0.86523503525E+03  0.00000000000E+00 0. -1.
<mgrwt>
<rscale>  0 0.53669167E+02</rscale>
<asrwt>0</asrwt>
<pdfrwt beam="1">  1        2 0.55965441E+00 0.38777882E+02</pdfrwt>
<pdfrwt beam="2">  1        2 0.22881074E+00 0.74278928E+02</pdfrwt>
<totfact> 0.28931437E+00</totfact>
</mgrwt>
</event>
<event>
13    1  0.1589573E-008  0.1244505E+03  0.7546771E-02  0.1271570E+00
          2   -1    0    0  502    0  0.00000000000E+00  0.00000000000E+00  0.16521975390E+04  0.16521975390E+04  0.00000000000E+00 0. -1.
          2   -1    0    0  503    0 -0.00000000000E+00 -0.00000000000E+00 -0.23882222406E+04  0.23882222406E+04  0.00000000000E+00 0. -1.
         24    2    1    2    0    0  0.48672007938E+02  0.38158253889E+02 -0.33851948850E+03  0.35347786972E+03  0.80784550449E+02 0.  0.
         25    2    1    2    0    0 -0.73816199622E+02 -0.19802690617E+03  0.79879065175E+02  0.25820358055E+03  0.12499974824E+03 0.  0.
         24    2    1    2    0    0  0.16754986560E+02 -0.69387339189E+02  0.13190858539E+03  0.16947198559E+03  0.78902132962E+02 0.  0.
        -11    1    3    3    0    0 -0.11455784205E+02  0.39745453250E+02 -0.14971180044E+03  0.15532082680E+03  0.00000000000E+00 0.  1.
         12    1    3    3    0    0  0.60127792143E+02 -0.15871993601E+01 -0.18880768806E+03  0.19815704293E+03  0.00000000000E+00 0. -1.
        -11    1    5    5    0    0  0.10743530641E+02  0.96744712285E+01  0.62322023278E+02  0.63976975777E+02  0.00000000000E+00 0.  1.
         12    1    5    5    0    0  0.60114559187E+01 -0.79061810417E+02  0.69586562111E+02  0.10549500981E+03  0.00000000000E+00 0. -1.
          5    1    4    4  501    0 -0.49865078109E+02 -0.10258031085E+03  0.10653374913E+03  0.15614344652E+03  0.47000000000E+01 0. -1.
         -5    1    4    4    0  501 -0.23951121512E+02 -0.95446595321E+02 -0.26654683955E+02  0.10206013402E+03  0.47000000000E+01 0. -1.
          1    1    1    2  502    0  0.26742312286E+02  0.11912572552E+03  0.13205573331E+04  0.13261891870E+04  0.00000000000E+00 0. -1.
          1    1    1    2  503    0 -0.18353107162E+02  0.11013026594E+03 -0.19298501968E+04  0.19330771568E+04  0.00000000000E+00 0. -1.
<mgrwt>
<rscale>  0 0.10426709E+03</rscale>
<asrwt>0</asrwt>
<pdfrwt beam="1">  1        2 0.24297023E+00 0.87357028E+02</pdfrwt>
<pdfrwt beam="2">  1        2 0.35120915E+00 0.12445050E+03</pdfrwt>
<totfact> 0.12282339E+01</totfact>
</mgrwt>
</event>
<event>
13    1  0.1589573E-008  0.1578152E+03  0.7546771E-02  0.1245911E+00
          2   -1    0    0  502    0  0.00000000000E+00  0.00000000000E+00  0.74559450610E+03  0.74559450610E+03  0.00000000000E+00 0. -1.
          2   -1    0    0  503    0 -0.00000000000E+00 -0.00000000000E+00 -0.19274195003E+04  0.19274195003E+04  0.00000000000E+00 0. -1.
         24    2    1    2    0    0  0.68095259062E+02 -0.85359081080E+02 -0.51233111661E+03  0.53014720831E+03  0.81546014035E+02 0.  0.
         25    2    1    2    0    0  0.95080269561E+02  0.10922970790E+03 -0.25810287284E+03  0.32126503038E+03  0.12499095979E+03 0.  0.
         24    2    1    2    0    0  0.68402739819E+02  0.10147258971E+03  0.47770063612E+01  0.14615840906E+03  0.79773676558E+02 0.  0.
        -13    1    5    5    0    0  0.73165153112E+02  0.11132930114E+03  0.10813650101E+02  0.13365735277E+03  0.00000000000E+00 0.  1.
         14    1    5    5    0    0 -0.47624132934E+01 -0.98567114296E+01 -0.60366437400E+01  0.12501056284E+02  0.00000000000E+00 0. -1.
        -13    1    3    3    0    0  0.38856365842E+02  0.66408801371E+01 -0.16575856018E+03  0.17038139196E+03  0.00000000000E+00 0.  1.
         14    1    3    3    0    0  0.29238893220E+02 -0.91999961217E+02 -0.34657255643E+03  0.35976581635E+03  0.00000000000E+00 0. -1.
          5    1    4    4  501    0  0.85695636211E+02  0.94076393344E+02 -0.99529865679E+02  0.16162423708E+03  0.47000000000E+01 0.  1.
         -5    1    4    4    0  501  0.93846333502E+01  0.15153314554E+02 -0.15857300716E+03  0.15964079330E+03  0.47000000000E+01 0.  1.
          1    1    1    2  502    0 -0.88429831361E+02  0.68472794330E+01  0.61736502238E+03  0.62370368860E+03  0.00000000000E+00 0. -1.
          1    1    1    2  503    0 -0.14314843708E+03 -0.13219049596E+03 -0.10335330335E+04  0.10517396701E+04  0.00000000000E+00 0. -1.
<mgrwt>
<rscale>  0 0.11831040E+03</rscale>
<asrwt>0</asrwt>
<pdfrwt beam="1">  1        2 0.10964625E+00 0.88694534E+02</pdfrwt>
<pdfrwt beam="2">  1        2 0.28344404E+00 0.15781525E+03</pdfrwt>
<totfact> 0.62839354E+01</totfact>
</mgrwt>
</event>
<event>
13    1  0.1589573E-008  0.8086941E+02  0.7546771E-02  0.1350783E+00
         -1   -1    0    0    0  501 -0.00000000000E+00  0.00000000000E+00  0.15612551024E+04  0.15612551024E+04  0.00000000000E+00 0.  1.
          2   -1    0    0  503    0  0.00000000000E+00 -0.00000000000E+00 -0.25239831734E+04  0.25239831734E+04  0.00000000000E+00 0. -1.
         24    2    1    2    0    0 -0.24940486898E+03  0.27781527726E+03  0.52959507447E+03  0.65303399247E+03  0.81230138964E+02 0.  0.
         25    2    1    2    0    0  0.27144609485E+03 -0.21629110900E+03 -0.67679799365E+03  0.77080909198E+03  0.12500522321E+03 0.  0.
         24    2    1    2    0    0  0.14139146177E+02 -0.88097097701E+02  0.15539760560E+03  0.19683786666E+03  0.81459903304E+02 0.  0.
        -11    1    5    5    0    0 -0.10714678186E+02 -0.93672304141E+02  0.11085904424E+03  0.14553017756E+03  0.00000000000E+00 0.  1.
         12    1    5    5    0    0  0.24853824362E+02  0.55752064392E+01  0.44538561360E+02  0.51307689095E+02  0.00000000000E+00 0. -1.
        -13    1    3    3    0    0 -0.17550732502E+03  0.21864938435E+03  0.33662322752E+03  0.43809310850E+03  0.00000000000E+00 0.  1.
         14    1    3    3    0    0 -0.73897543954E+02  0.59165892909E+02  0.19297184695E+03  0.21494088397E+03  0.00000000000E+00 0. -1.
          5    1    4    4  502    0  0.24869018861E+03 -0.16305883530E+03 -0.47162015670E+03  0.55756852124E+03  0.47000000000E+01 0. -1.
         -5    1    4    4    0  502  0.22755906244E+02 -0.53232273705E+02 -0.20517783695E+03  0.21324057073E+03  0.47000000000E+01 0. -1.
          1    1    1    2  503    0  0.46529898281E+00  0.80931911796E+02 -0.17153453785E+04  0.17172536093E+04  0.00000000000E+00 0. -1.
         -2    1    1    2    0  501 -0.36645671032E+02 -0.54358982354E+02  0.74442262118E+03  0.74730371543E+03  0.00000000000E+00 0.  1.
<mgrwt>
<rscale>  0 0.72812139E+02</rscale>
<asrwt>0</asrwt>
<pdfrwt beam="2">  1        2 0.37117399E+00 0.80869408E+02</pdfrwt>
<pdfrwt beam="1">  1       -1 0.22959634E+00 0.65557640E+02</pdfrwt>
<totfact> 0.74169523E-01</totfact>
</mgrwt>
</event>
<event>
13    1  0.1589573E-008  0.4359764E+02  0.7546771E-02  0.1513092E+00
          2   -1    0    0  503    0  0.00000000000E+00  0.00000000000E+00  0.77452225058E+03  0.77452225058E+03  0.00000000000E+00 0. -1.
          2   -1    0    0  502    0 -0.00000000000E+00 -0.00000000000E+00 -0.41727805647E+03  0.41727805647E+03  0.00000000000E+00 0. -1.
         24    2    1    2    0    0  0.80143957237E+01 -0.91681061723E+01 -0.27937149436E+03  0.28874295010E+03  0.71942856931E+02 0.  0.
         25    2    1    2    0    0 -0.45091155577E+02  0.25117952595E+02  0.52713072527E+03  0.54420985722E+03  0.12503376875E+03 0.  0.
         24    2    1    2    0    0  0.14069060022E+02  0.14255064238E+02 -0.33112160372E+02  0.88677489563E+02  0.79788073573E+02 0.  0.
        -11    1    5    5    0    0 -0.22699846278E+02 -0.18724000936E+02 -0.38751865110E+00  0.29428241585E+02  0.00000000000E+00 0.  1.
         12    1    5    5    0    0  0.36768906300E+02  0.32979065174E+02 -0.32724641720E+02  0.59249247978E+02  0.00000000000E+00 0. -1.
        -13    1    3    3    0    0 -0.10491680825E+02  0.28703523078E+02 -0.12945568768E+03  0.13301406947E+03  0.00000000000E+00 0.  1.
         14    1    3    3    0    0  0.18506076549E+02 -0.37871629250E+02 -0.14991580667E+03  0.15572888063E+03  0.00000000000E+00 0. -1.
          5    1    4    4  501    0 -0.27407668960E+02 -0.16741460316E+02  0.46972379445E+03  0.47084391244E+03  0.47000000000E+01 0. -1.
         -5    1    4    4    0  501 -0.17683486617E+02  0.41859412911E+02  0.57406930819E+02  0.73365944786E+02  0.47000000000E+01 0. -1.
          1    1    1    2  502    0 -0.20700557873E+02 -0.28847516473E+02 -0.56278794803E+02  0.66543181825E+02  0.00000000000E+00 0. -1.
          1    1    1    2  503    0  0.43708257705E+02 -0.13573941873E+01  0.19887591837E+03  0.20362682834E+03  0.00000000000E+00 0. -1.
<mgrwt>
<rscale>  0 0.39344476E+02</rscale>
<asrwt>0</asrwt>
<pdfrwt beam="1">  1        2 0.11390033E+00 0.43597639E+02</pdfrwt>
<pdfrwt beam="2">  1        2 0.61364420E-01 0.35506229E+02</pdfrwt>
<totfact> 0.52118603E+02</totfact>
</mgrwt>
</event>
<event>
13    1  0.1589573E-008  0.6927257E+02  0.7546771E-02  0.1371363E+00
         -1   -1    0    0    0  501 -0.00000000000E+00  0.00000000000E+00  0.99077338479E+03  0.99077338479E+03  0.00000000000E+00 0.  1.
          2   -1    0    0  503    0  0.00000000000E+00 -0.00000000000E+00 -0.22163441454E+04  0.22163441454E+04  0.00000000000E+00 0. -1.
         24    2    1    2    0    0 -0.57985130444E+02  0.78629559591E+02  0.55947460345E+03  0.57424306249E+03  0.84843266787E+02 0.  0.
         25    2    1    2    0    0  0.42603144000E+02  0.79467585222E+02 -0.32222389922E+03  0.35719102758E+03  0.12500825563E+03 0.  0.
         24    2    1    2    0    0  0.12840724394E+03 -0.87628618601E+02 -0.55670252267E+02  0.18412112768E+03  0.81450706421E+02 0.  0.
        -13    1    3    3    0    0 -0.46998355235E+02 -0.24939041042E+01  0.18129735395E+03  0.18730668835E+03  0.00000000000E+00 0.  1.
         14    1    3    3    0    0 -0.10986775209E+02  0.81123463696E+02  0.37817724950E+03  0.38693637414E+03  0.00000000000E+00 0. -1.
        -13    1    5    5    0    0 -0.54669107239E+01 -0.54419807695E+01  0.11028719548E+02  0.13458637465E+02  0.00000000000E+00 0.  1.
         14    1    5    5    0    0  0.13387415467E+03 -0.82186637832E+02 -0.66698971815E+02  0.17066249022E+03  0.00000000000E+00 0. -1.
          5    1    4    4  502    0 -0.13261164518E+02  0.38030739115E+02 -0.26184310311E+03  0.26496433014E+03  0.47000000000E+01 0.  1.
         -5    1    4    4    0  502  0.55864308518E+02  0.41436846107E+02 -0.60380796108E+02  0.92226697437E+02  0.47000000000E+01 0.  1.
          1    1    1    2  503    0 -0.54755543000E+02 -0.33891687900E+02 -0.17452990747E+04  0.17464866665E+04  0.00000000000E+00 0. -1.
         -2    1    1    2    0  501 -0.58269714500E+02 -0.36576838312E+02  0.33814786216E+03  0.34507564593E+03  0.00000000000E+00 0.  1.
<mgrwt>
<rscale>  0 0.66789675E+02</rscale>
<asrwt>0</asrwt>
<pdfrwt beam="2">  1        2 0.32593296E+00 0.64395776E+02</pdfrwt>
<pdfrwt beam="1">  1       -1 0.14570197E+00 0.69272567E+02</pdfrwt>
<totfact> 0.38991003E+00</totfact>
</mgrwt>
</event>
<event>
13    1  0.1589573E-008  0.2262474E+03  0.7546771E-02  0.1364086E+00
         -3   -1    0    0    0  501 -0.00000000000E+00  0.00000000000E+00  0.97905493386E+02  0.97905493386E+02  0.00000000000E+00 0.  1.
          2   -1    0    0  503    0  0.00000000000E+00 -0.00000000000E+00 -0.35469791020E+04  0.35469791020E+04  0.00000000000E+00 0. -1.
         24    2    1    2    0    0 -0.32797926768E+02  0.43851712277E+02 -0.11991580686E+03  0.15458493318E+03  0.80734281201E+02 0.  0.
         25    2    1    2    0    0  0.81770102360E+02  0.95549620111E+02 -0.30108950709E+03  0.34942227301E+03  0.12499981619E+03 0.  0.
         24    2    1    2    0    0  0.20218112919E+03 -0.13806223266E+03 -0.10715835510E+04  0.11018886597E+04  0.76999496583E+02 0.  0.
        -13    1    3    3    0    0 -0.15996032635E+02  0.64829660124E+02 -0.10324840717E+03  0.12295930821E+03  0.00000000000E+00 0.  1.
         14    1    3    3    0    0 -0.16801894133E+02 -0.20977947847E+02 -0.16667399687E+02  0.31625624969E+02  0.00000000000E+00 0. -1.
        -13    1    5    5    0    0  0.13997856652E+03 -0.50699988026E+02 -0.58778685644E+03  0.60634798299E+03  0.00000000000E+00 0.  1.
         14    1    5    5    0    0  0.62202562668E+02 -0.87362244630E+02 -0.48379669456E+03  0.49554067669E+03  0.00000000000E+00 0. -1.
          5    1    4    4  502    0  0.93592467613E+02  0.85052667239E+02 -0.14498170081E+03  0.19244555014E+03  0.47000000000E+01 0.  1.
         -5    1    4    4    0  502 -0.11822365253E+02  0.10496952872E+02 -0.15610780629E+03  0.15697672287E+03  0.47000000000E+01 0.  1.
          1    1    1    2  503    0 -0.23326943862E+03 -0.12241860630E+02 -0.19877104746E+04  0.20013888740E+04  0.00000000000E+00 0. -1.
         -4    1    1    2    0  501 -0.17883866161E+02  0.10902760899E+02  0.31225730924E+02  0.37599855530E+02  0.00000000000E+00 0.  1.
<mgrwt>
<rscale>  0 0.68838973E+02</rscale>
<asrwt>0</asrwt>
<pdfrwt beam="2">  1        2 0.52161438E+00 0.22624737E+03</pdfrwt>
<pdfrwt beam="1">  1       -3 0.14397872E-01 0.20945235E+02</pdfrwt>
<totfact> 0.22828036E+01</totfact>
</mgrwt>
</event>
<event>
13    1  0.1589573E-008  0.1253472E+03  0.7546771E-02  0.1329957E+00
         -1   -1    0    0    0  501 -0.00000000000E+00  0.00000000000E+00  0.19001886708E+04  0.19001886708E+04  0.00000000000E+00 0.  1.
          2   -1    0    0  503    0  0.00000000000E+00 -0.00000000000E+00 -0.56868065643E+03  0.56868065643E+03  0.00000000000E+00 0. -1.
         24    2    1    2    0    0 -0.30266926328E+01 -0.24906973699E+02  0.20757396875E+03  0.22416916658E+03  0.80841477807E+02 0.  0.
         25    2    1    2    0    0 -0.59346997059E+02  0.23510674971E+03  0.33718541030E+03  0.43372328626E+03  0.12499855323E+03 0.  0.
         24    2    1    2    0    0  0.40328702668E+02 -0.53852778776E+02 -0.47333734824E+03  0.48542717995E+03  0.84052220384E+02 0.  0.
        -11    1    5    5    0    0  0.12255737272E+02 -0.37327750810E+02 -0.66140412795E+02  0.76929307037E+02  0.00000000000E+00 0.  1.
         12    1    5    5    0    0  0.28072965396E+02 -0.16525027967E+02 -0.40719693545E+03  0.40849787291E+03  0.00000000000E+00 0. -1.
        -13    1    3    3    0    0 -0.16541688659E+00 -0.54660654392E+02  0.13916541824E+03  0.14951531071E+03  0.00000000000E+00 0.  1.
         14    1    3    3    0    0 -0.28612757462E+01  0.29753680693E+02  0.68408550505E+02  0.74653855867E+02  0.00000000000E+00 0. -1.
          5    1    4    4  502    0 -0.77349737679E+01 -0.14716282858E+02  0.16160731263E+02  0.23657092706E+02  0.47000000000E+01 0.  1.
         -5    1    4    4    0  502 -0.51612023291E+02  0.24982303257E+03  0.32102467903E+03  0.41006619356E+03  0.47000000000E+01 0.  1.
          1    1    1    2  503    0  0.50627920000E+02 -0.15901000347E+01 -0.48289029453E+01  0.50882541262E+02  0.00000000000E+00 0. -1.
         -2    1    1    2    0  501 -0.28582932977E+02 -0.15475689720E+03  0.12649148865E+04  0.12746671532E+04  0.00000000000E+00 0.  1.
<mgrwt>
<rscale>  0 0.79681837E+02</rscale>
<asrwt>0</asrwt>
<pdfrwt beam="2">  1        2 0.83629509E-01 0.50652884E+02</pdfrwt>
<pdfrwt beam="1">  1       -1 0.27943951E+00 0.12534716E+03</pdfrwt>
<totfact> 0.38113811E+00</totfact>
</mgrwt>
</event>
<event>
13    1  0.1589573E-008  0.9999828E+02  0.7546771E-02  0.1375984E+00
          2   -1    0    0  502    0  0.00000000000E+00  0.00000000000E+00  0.51494787255E+03  0.51494787255E+03  0.00000000000E+00 0. -1.
          4   -1    0    0  503    0 -0.00000000000E+00 -0.00000000000E+00 -0.75885256219E+03  0.75885256219E+03  0.00000000000E+00 0. -1.
         24    2    1    2    0    0 -0.26994356566E+02  0.15196209580E+03 -0.20999664344E+03  0.27281216381E+03  0.80664196660E+02 0.  0.
         25    2    1    2    0    0 -0.43488781648E+01 -0.26224410949E+03  0.10009039011E+03  0.30730356855E+03  0.12500604526E+03 0.  0.
         24    2    1    2    0    0 -0.28589653965E+02  0.19737165234E+01 -0.12860094445E+03  0.15453080586E+03  0.80748394257E+02 0.  0.
        -11    1    5    5    0    0 -0.45603310380E+02 -0.12328445600E+02 -0.36258432759E+02  0.59551040585E+02  0.00000000000E+00 0.  1.
         12    1    5    5    0    0  0.17013656415E+02  0.14302162124E+02 -0.92342511695E+02  0.94979765278E+02  0.00000000000E+00 0. -1.
        -13    1    3    3    0    0 -0.12070523712E+02  0.10518840575E+03 -0.19428575376E+03  0.22126285807E+03  0.00000000000E+00 0.  1.
         14    1    3    3    0    0 -0.14923832854E+02  0.46773690051E+02 -0.15710889674E+02  0.51549305742E+02  0.00000000000E+00 0. -1.
          5    1    4    4  501    0  0.13087192759E+02 -0.25841710782E+03  0.11536822669E+03  0.28334183235E+03  0.47000000000E+01 0.  1.
         -5    1    4    4    0  501 -0.17436070924E+02 -0.38270016631E+01 -0.15277836585E+02  0.23961736200E+02  0.47000000000E+01 0.  1.
          1    1    1    2  502    0  0.18262824386E+02  0.97925406633E+02  0.25576777939E+03  0.27448146202E+03  0.00000000000E+00 0. -1.
          3    1    1    2  503    0  0.41670064309E+02  0.10382890529E+02 -0.26116527124E+03  0.26467243449E+03  0.00000000000E+00 0. -1.
<mgrwt>
<rscale>  0 0.65531212E+02</rscale>
<asrwt>0</asrwt>
<pdfrwt beam="1">  1        2 0.75727629E-01 0.99998284E+02</pdfrwt>
<pdfrwt beam="2">  1        4 0.11159596E+00 0.42944134E+02</pdfrwt>
<totfact> 0.20932521E+01</totfact>
</mgrwt>
</event>
<event>
13    1  0.1589573E-008  0.1517182E+03  0.7546771E-02  0.1295521E+00
          2   -1    0    0  502    0  0.00000000000E+00  0.00000000000E+00  0.37393778078E+04  0.37393778078E+04  0.00000000000E+00 0. -1.
          2   -1    0    0  503    0 -0.00000000000E+00 -0.00000000000E+00 -0.13421800669E+04  0.13421800669E+04  0.00000000000E+00 0. -1.
         24    2    1    2    0    0  0.11287506258E+04 -0.69377539365E+03  0.35001233258E+03  0.13712731163E+04  0.49790104477E+02 0.  0.
         25    2    1    2    0    0  0.39737203250E+03  0.18832559717E+03  0.29659368075E+03  0.54494458446E+03  0.12500290361E+03 0.  0.
         24    2    1    2    0    0 -0.14185073578E+04  0.59364496706E+03  0.87003247060E+03  0.17686275983E+04  0.80682156056E+02 0.  0.
        -11    1    5    5    0    0 -0.86853289764E+02  0.51992434654E+02  0.41827401864E+02  0.10952734248E+03  0.00000000000E+00 0.  1.
         12    1    5    5    0    0 -0.13316540681E+04  0.54165253240E+03  0.82820506874E+03  0.16591002558E+04  0.00000000000E+00 0. -1.
        -11    1    3    3    0    0  0.14392587222E+03 -0.73744267518E+02  0.53540624454E+02  0.17035102628E+03  0.00000000000E+00 0.  1.
         12    1    3    3    0    0  0.98482475354E+03 -0.62003112613E+03  0.29647170812E+03  0.12009220900E+04  0.00000000000E+00 0. -1.
          5    1    4    4  501    0  0.32567171534E+03  0.13605947017E+03  0.17400088764E+03  0.39353861881E+03  0.47000000000E+01 0.  1.
         -5    1    4    4    0  501  0.71700317158E+02  0.52266126994E+02  0.12259279311E+03  0.15140596564E+03  0.47000000000E+01 0.  1.
          1    1    1    2  502    0 -0.72607710348E+02 -0.13333737402E+03  0.11303358629E+04  0.11404866934E+04  0.00000000000E+00 0. -1.
          1    1    1    2  503    0 -0.35007590066E+02  0.45142203452E+02 -0.24977660595E+03  0.25622588232E+03  0.00000000000E+00 0. -1.
<mgrwt>
<rscale>  0 0.93096785E+02</rscale>
<asrwt>0</asrwt>
<pdfrwt beam="1">  1        2 0.54990850E+00 0.15171815E+03</pdfrwt>
<pdfrwt beam="2">  1        2 0.19737942E+00 0.57125738E+02</pdfrwt>
<totfact> 0.31349884E+00</totfact>
</mgrwt>
</event>
<event>
13    1  0.1589573E-008  0.9877782E+02  0.7546771E-02  0.1283574E+00
          2   -1    0    0  502    0  0.00000000000E+00  0.00000000000E+00  0.14311034894E+04  0.14311034894E+04  0.00000000000E+00 0. -1.
          2   -1    0    0  503    0 -0.00000000000E+00 -0.00000000000E+00 -0.26155096867E+04  0.26155096867E+04  0.00000000000E+00 0. -1.
         24    2    1    2    0    0 -0.17145417201E+02 -0.66992782513E+02 -0.28576437820E+03  0.30468158095E+03  0.79922385364E+02 0.  0.
         25    2    1    2    0    0  0.24946091870E+03  0.11719919879E+03 -0.56814059864E+03  0.64371955918E+03  0.12499891557E+03 0.  0.
         24    2    1    2    0    0 -0.78490923891E+02  0.58030568752E+02 -0.47953796087E+02  0.13563355864E+03  0.81046428832E+02 0.  0.
        -13    1    3    3    0    0 -0.20938544864E+02  0.12252717925E+02 -0.95623710938E+02  0.98653159357E+02  0.00000000000E+00 0.  1.
         14    1    3    3    0    0  0.37931276635E+01 -0.79245500439E+02 -0.19014066727E+03  0.20602842160E+03  0.00000000000E+00 0. -1.
        -13    1    5    5    0    0 -0.89665069130E+00 -0.18126931676E+02 -0.70263818668E+01  0.19461749063E+02  0.00000000000E+00 0.  1.
         14    1    5    5    0    0 -0.77594273200E+02  0.76157500428E+02 -0.40927414220E+02  0.11617180957E+03  0.00000000000E+00 0. -1.
          5    1    4    4  501    0  0.16271966875E+03  0.38881249708E+02 -0.43724220002E+03  0.46817974503E+03  0.47000000000E+01 0. -1.
         -5    1    4    4    0  501  0.86741249952E+02  0.78317949079E+02 -0.13089839862E+03  0.17553981415E+03  0.47000000000E+01 0. -1.
          1    1    1    2  502    0 -0.60494351038E+02 -0.77898671860E+02  0.13367130782E+04  0.13403468294E+04  0.00000000000E+00 0. -1.
          1    1    1    2  503    0 -0.93330226569E+02 -0.30338313165E+02 -0.16192605026E+04  0.16222316480E+04  0.00000000000E+00 0. -1.
<mgrwt>
<rscale>  0 0.98457079E+02</rscale>
<asrwt>0</asrwt>
<pdfrwt beam="1">  1        2 0.21045640E+00 0.98777824E+02</pdfrwt>
<pdfrwt beam="2">  1        2 0.38463377E+00 0.98137375E+02</pdfrwt>
<totfact> 0.12393930E+01</totfact>
</mgrwt>
</event>
<event>
13    1  0.1589573E-008  0.8062566E+02  0.7546771E-02  0.1332875E+00
          2   -1    0    0  502    0  0.00000000000E+00  0.00000000000E+00  0.26847170631E+04  0.26847170631E+04  0.00000000000E+00 0. -1.
          4   -1    0    0  503    0 -0.00000000000E+00 -0.00000000000E+00 -0.42112027885E+03  0.42112027885E+03  0.00000000000E+00 0. -1.
         24    2    1    2    0    0 -0.32388230011E+03 -0.10027816515E+03  0.32908939937E+02  0.35059820041E+03  0.82949653840E+02 0.  0.
         25    2    1    2    0    0  0.16568085357E+03 -0.16710623775E+03  0.28515396547E+03  0.39027205408E+03  0.12499940895E+03 0.  0.
         24    2    1    2    0    0  0.21932720384E+02  0.19438840028E+03  0.37835635613E+02  0.21499836080E+03  0.80776639164E+02 0.  0.
        -11    1    3    3    0    0  0.27884966182E+01  0.48346893231E+00 -0.59009716014E+01  0.65445337067E+01  0.00000000000E+00 0.  1.
         12    1    3    3    0    0 -0.32667079673E+03 -0.10076163408E+03  0.38809911539E+02  0.34405366671E+03  0.00000000000E+00 0. -1.
        -13    1    5    5    0    0  0.16980207058E+02  0.11347406113E+02 -0.13921185067E+02  0.24716198148E+02  0.00000000000E+00 0.  1.
         14    1    5    5    0    0  0.49525133257E+01  0.18304099417E+03  0.51756820680E+02  0.19028216265E+03  0.00000000000E+00 0. -1.
          5    1    4    4  501    0  0.74913703247E+02 -0.43323777894E+02  0.28590186802E+02  0.91260623746E+02  0.47000000000E+01 0.  1.
         -5    1    4    4    0  501  0.90767150327E+02 -0.12378245986E+03  0.25656377867E+03  0.29901143033E+03  0.47000000000E+01 0.  1.
          1    1    1    2  502    0  0.62219943407E+02  0.44949001692E+02  0.20150844835E+04  0.20165458610E+04  0.00000000000E+00 0. -1.
          3    1    1    2  503    0  0.74048782750E+02  0.28047000923E+02 -0.10738624022E+03  0.13342286564E+03  0.00000000000E+00 0. -1.
<mgrwt>
<rscale>  0 0.78667875E+02</rscale>
<asrwt>0</asrwt>
<pdfrwt beam="1">  1        2 0.39481133E+00 0.76757632E+02</pdfrwt>
<pdfrwt beam="2">  1        4 0.61929454E-01 0.80625657E+02</pdfrwt>
<totfact> 0.54132692E+00</totfact>
</mgrwt>
</event>
<event>
13    1  0.1589573E-008  0.4704359E+02  0.7546771E-02  0.1494150E+00
         -1   -1    0    0    0  501 -0.00000000000E+00  0.00000000000E+00  0.67299082250E+03  0.67299082250E+03  0.00000000000E+00 0.  1.
          2   -1    0    0  503    0  0.00000000000E+00 -0.00000000000E+00 -0.29043932863E+04  0.29043932863E+04  0.00000000000E+00 0. -1.
         24    2    1    2    0    0 -0.66995408382E+02 -0.11711604963E+02  0.18047030709E+03  0.20922554047E+03  0.81118731551E+02 0.  0.
         25    2    1    2    0    0  0.44106766575E+02  0.77754257212E+02 -0.45389981231E+03  0.47920808550E+03  0.12499687287E+03 0.  0.
         24    2    1    2    0    0  0.17497072650E+02 -0.75122723706E+01 -0.11784266600E+03  0.14342402015E+03  0.79504552316E+02 0.  0.
        -11    1    5    5    0    0 -0.31736445767E+02  0.59827540704E+00 -0.42166231675E+02  0.52778319574E+02  0.00000000000E+00 0.  1.
         12    1    5    5    0    0  0.49233518417E+02 -0.81105477777E+01 -0.75676434328E+02  0.90645700580E+02  0.00000000000E+00 0. -1.
        -11    1    3    3    0    0 -0.23260666290E+02  0.34340047909E+02  0.58507290728E+02  0.71717505220E+02  0.00000000000E+00 0.  1.
         12    1    3    3    0    0 -0.43734742092E+02 -0.46051652872E+02  0.12196301636E+03  0.13750803525E+03  0.00000000000E+00 0. -1.
          5    1    4    4  502    0  0.33249399917E+02  0.10908664259E+03 -0.39800177578E+03  0.41404458903E+03  0.47000000000E+01 0. -1.
         -5    1    4    4    0  502  0.10857366659E+02 -0.31332385377E+02 -0.55898036532E+02  0.65163496471E+02  0.47000000000E+01 0. -1.
          1    1    1    2  503    0  0.31885508377E+02 -0.19652531343E+02 -0.22914525691E+04  0.22917586662E+04  0.00000000000E+00 0. -1.
         -2    1    1    2    0  501 -0.26493939220E+02 -0.38877848535E+02  0.45132227647E+03  0.45376779652E+03  0.00000000000E+00 0.  1.
<mgrwt>
<rscale>  0 0.41976623E+02</rscale>
<asrwt>0</asrwt>
<pdfrwt beam="2">  1        2 0.42711666E+00 0.37455409E+02</pdfrwt>
<pdfrwt beam="1">  1       -1 0.98969239E-01 0.47043590E+02</pdfrwt>
<totfact> 0.48686813E+00</totfact>
</mgrwt>
</event>
<event>
13    1  0.1589573E-008  0.1458754E+03  0.7546771E-02  0.1333892E+00
          2   -1    0    0  503    0  0.00000000000E+00  0.00000000000E+00  0.35828094975E+04  0.35828094975E+04  0.00000000000E+00 0. -1.
         -1   -1    0    0    0  501 -0.00000000000E+00 -0.00000000000E+00 -0.92950777681E+03  0.92950777681E+03  0.00000000000E+00 0.  1.
         24    2    1    2    0    0  0.72257914946E+01  0.45817668626E+02 -0.14613500922E+03  0.17285987325E+03  0.79834980048E+02 0.  0.
         25    2    1    2    0    0  0.11380623173E+03 -0.31339957933E+03  0.51497508973E+03  0.62609575547E+03  0.12500158908E+03 0.  0.
         24    2    1    2    0    0 -0.19059601879E+02  0.67706829180E+02  0.17216267945E+04  0.17247092549E+04  0.75337316856E+02 0.  0.
        -11    1    3    3    0    0  0.33611404321E+02  0.31235037011E+02 -0.13164304366E+03  0.13941034747E+03  0.00000000000E+00 0.  1.
         12    1    3    3    0    0 -0.26385612826E+02  0.14582631615E+02 -0.14491965557E+02  0.33449525778E+02  0.00000000000E+00 0. -1.
        -13    1    5    5    0    0 -0.25604074502E+01 -0.11797243501E+02  0.66159586016E+02  0.67251925343E+02  0.00000000000E+00 0.  1.
         14    1    5    5    0    0 -0.16499194429E+02  0.79504072680E+02  0.16554672084E+04  0.16574573295E+04  0.00000000000E+00 0. -1.
          5    1    4    4  502    0  0.15148013757E+02 -0.19050922327E+03  0.21863556864E+03  0.29042525432E+03  0.47000000000E+01 0. -1.
         -5    1    4    4    0  502  0.98658217971E+02 -0.12289035607E+03  0.29633952108E+03  0.33567050115E+03  0.47000000000E+01 0. -1.
          1    1    1    2  503    0 -0.32797099021E+02  0.26313723141E+02  0.12631461048E+04  0.12638457753E+04  0.00000000000E+00 0. -1.
         -2    1    1    2    0  501 -0.69175322323E+02  0.17356135839E+03 -0.70031125899E+03  0.72480661546E+03  0.00000000000E+00 0.  1.
<mgrwt>
<rscale>  0 0.78318687E+02</rscale>
<asrwt>0</asrwt>
<pdfrwt beam="1">  1        2 0.52688374E+00 0.42048326E+02</pdfrwt>
<pdfrwt beam="2">  1       -1 0.13669232E+00 0.14587541E+03</pdfrwt>
<totfact> 0.92568433E-01</totfact>
</mgrwt>
</event>
<event>
13    1  0.1589573E-008  0.1148254E+03  0.7546771E-02  0.1305353E+00
          2   -1    0    0  503    0  0.00000000000E+00  0.00000000000E+00  0.45725331385E+04  0.45725331385E+04  0.00000000000E+00 0. -1.
         -3   -1    0    0    0  501 -0.00000000000E+00 -0.00000000000E+00 -0.12819426685E+04  0.12819426685E+04  0.00000000000E+00 0.  1.
         24    2    1    2    0    0  0.31197982919E+02  0.47827741256E+02 -0.61810868378E+03  0.62588130654E+03  0.80051595471E+02 0.  0.
         25    2    1    2    0    0 -0.16326139682E+03 -0.34814503155E+03  0.11698712892E+04  0.12377736402E+04  0.12500201779E+03 0.  0.
         24    2    1    2    0    0  0.21300133853E+03  0.34279779845E+03 -0.10604393926E+03  0.42493147725E+03  0.80259220444E+02 0.  0.
        -11    1    5    5    0    0  0.12983835986E+03  0.17807901896E+03 -0.95265164423E+02  0.24009495671E+03  0.00000000000E+00 0.  1.
         12    1    5    5    0    0  0.83162978665E+02  0.16471877949E+03 -0.10778774834E+02  0.18483652054E+03  0.00000000000E+00 0. -1.
        -13    1    3    3    0    0  0.28626292251E+02  0.37788401193E+02 -0.14287608406E+03  0.15053572090E+03  0.00000000000E+00 0.  1.
         14    1    3    3    0    0  0.25716906687E+01  0.10039340063E+02 -0.47523259973E+03  0.47534558564E+03  0.00000000000E+00 0. -1.
          5    1    4    4  502    0 -0.11829131411E+03 -0.10995410368E+03  0.44397954120E+03  0.47246445678E+03  0.47000000000E+01 0. -1.
         -5    1    4    4    0  502 -0.44970082712E+02 -0.23819092787E+03  0.72589174801E+03  0.76530918346E+03  0.47000000000E+01 0. -1.
          1    1    1    2  503    0  0.68175131211E+02  0.10269552666E+02  0.31876413016E+04  0.31883867990E+04  0.00000000000E+00 0. -1.
         -4    1    1    2    0  501 -0.14911305583E+03 -0.52750060829E+02 -0.34276949772E+03  0.37750258397E+03  0.00000000000E+00 0.  1.
<mgrwt>
<rscale>  0 0.88974997E+02</rscale>
<asrwt>0</asrwt>
<pdfrwt beam="1">  1        2 0.67243134E+00 0.68944269E+02</pdfrwt>
<pdfrwt beam="2">  1       -3 0.18852098E+00 0.11482535E+03</pdfrwt>
<totfact> 0.36320713E-02</totfact>
</mgrwt>
</event>
<event>
13    1  0.1589573E-008  0.6349947E+02  0.7546771E-02  0.1384950E+00
          2   -1    0    0  502    0  0.00000000000E+00  0.00000000000E+00  0.25275417206E+03  0.25275417206E+03  0.00000000000E+00 0. -1.
          2   -1    0    0  503    0 -0.00000000000E+00 -0.00000000000E+00 -0.86650744052E+03  0.86650744052E+03  0.00000000000E+00 0. -1.
         24    2    1    2    0    0 -0.58742230751E+02  0.25875387799E+02 -0.98552236168E+01  0.10418602631E+03  0.81470346010E+02 0.  0.
         25    2    1    2    0    0  0.39250798212E+02 -0.86573649000E+01 -0.37033151231E+03  0.39291818115E+03  0.12499477166E+03 0.  0.
         24    2    1    2    0    0  0.14702899195E+02  0.57843335376E+01 -0.17688201039E+02  0.82929006856E+02  0.79465174529E+02 0.  0.
        -11    1    5    5    0    0  0.42909596132E+02 -0.12569907945E+02 -0.20441635739E+02  0.49163975608E+02  0.00000000000E+00 0.  1.
         12    1    5    5    0    0 -0.28206696937E+02  0.18354241483E+02  0.27534347000E+01  0.33765031247E+02  0.00000000000E+00 0. -1.
        -13    1    3    3    0    0  0.79019042354E+01 -0.45776684901E+00 -0.28962250446E+02  0.30024349983E+02  0.00000000000E+00 0.  1.
         14    1    3    3    0    0 -0.66644134987E+02  0.26333154648E+02  0.19107026829E+02  0.74161676330E+02  0.00000000000E+00 0. -1.
          5    1    4    4  501    0  0.48461459407E+02  0.24217558610E+02 -0.61189466538E+02  0.81861126355E+02  0.47000000000E+01 0.  1.
         -5    1    4    4    0  501 -0.92106611950E+01 -0.32874923510E+02 -0.30914204577E+03  0.31105705480E+03  0.47000000000E+01 0.  1.
          1    1    1    2  502    0 -0.59823131449E+02 -0.21292618972E+02  0.15251608604E+03  0.16520695863E+03  0.00000000000E+00 0. -1.
          1    1    1    2  503    0  0.64611664793E+02 -0.17097374655E+01 -0.36839441754E+03  0.37402143963E+03  0.00000000000E+00 0. -1.
<mgrwt>
<rscale>  0 0.63180388E+02</rscale>
<asrwt>0</asrwt>
<pdfrwt beam="1">  1        2 0.37169732E-01 0.63499470E+02</pdfrwt>
<pdfrwt beam="2">  1        2 0.12742756E+00 0.62862910E+02</pdfrwt>
<totfact> 0.75594069E+02</totfact>
</mgrwt>
</event>
<event>
13    1  0.1589573E-008  0.2031688E+03  0.7546771E-02  0.1235331E+00
          2   -1    0    0  502    0  0.00000000000E+00  0.00000000000E+00  0.14165738978E+04  0.14165738978E+04  0.00000000000E+00 0. -1.
          2   -1    0    0  503    0 -0.00000000000E+00 -0.00000000000E+00 -0.24943803467E+04  0.24943803467E+04  0.00000000000E+00 0. -1.
         24    2    1    2    0    0 -0.18493394728E+03  0.65779537607E+03 -0.70166158792E+03  0.98258558901E+03  0.79057789895E+02 0.  0.
         25    2    1    2    0    0 -0.42381478779E+02 -0.27937099205E+03 -0.19398549421E+03  0.36482847059E+03  0.12500040017E+03 0.  0.
         24    2    1    2    0    0  0.20618550133E+03 -0.25033950812E+03  0.32720539978E+03  0.47149525668E+03  0.10030988558E+03 0.  0.
        -11    1    5    5    0    0  0.13687925295E+03 -0.16159364654E+03  0.27576661909E+03  0.34770053882E+03  0.00000000000E+00 0.  1.
         12    1    5    5    0    0  0.69306248386E+02 -0.88745861582E+02  0.51438780690E+02  0.12379471787E+03  0.00000000000E+00 0. -1.
        -13    1    3    3    0    0 -0.15644731188E+03  0.42867379075E+03 -0.48572828858E+03  0.66646001425E+03  0.00000000000E+00 0.  1.
         14    1    3    3    0    0 -0.28486635406E+02  0.22912158532E+03 -0.21593329934E+03  0.31612557476E+03  0.00000000000E+00 0. -1.
          5    1    4    4  501    0 -0.78719163723E+02 -0.10965422092E+03 -0.77082435153E+02  0.15551381518E+03  0.47000000000E+01 0.  1.
         -5    1    4    4    0  501  0.36337684945E+02 -0.16971677113E+03 -0.11690305906E+03  0.20931465541E+03  0.47000000000E+01 0.  1.
          1    1    1    2  502    0  0.88506597194E+01 -0.20379593383E+03  0.77703301825E+03  0.80336257585E+03  0.00000000000E+00 0. -1.
          1    1    1    2  503    0  0.12279265006E+02  0.75711057930E+02 -0.12863977848E+04  0.12886823524E+04  0.00000000000E+00 0. -1.
<mgrwt>
<rscale>  0 0.12483236E+03</rscale>
<asrwt>0</asrwt>
<pdfrwt beam="1">  1        2 0.20831969E+00 0.20316880E+03</pdfrwt>
<pdfrwt beam="2">  1        2 0.36682063E+00 0.76700356E+02</pdfrwt>
<totfact> 0.14225303E+01</totfact>
</mgrwt>
</event>
<event>
13    1  0.1589573E-008  0.2549184E+03  0.7546771E-02  0.1168139E+00
          4   -1    0    0  503    0  0.00000000000E+00  0.00000000000E+00  0.12919666498E+04  0.12919666498E+04  0.00000000000E+00 0. -1.
         -1   -1    0    0    0  501 -0.00000000000E+00 -0.00000000000E+00 -0.16891252586E+04  0.16891252586E+04  0.00000000000E+00 0.  1.
         24    2    1    2    0    0  0.46378605161E+02 -0.60408956142E+02 -0.26431303903E+03  0.28738009817E+03  0.83220918186E+02 0.  0.
         25    2    1    2    0    0 -0.51604773975E+03  0.24097420867E+03  0.40524586923E+02  0.58450448683E+03  0.12501765489E+03 0.  0.
         24    2    1    2    0    0 -0.12710417796E+03  0.24850008254E+02  0.66914349991E+01  0.15149181763E+03  0.78307091263E+02 0.  0.
        -13    1    3    3    0    0  0.47899045998E+02 -0.79304581567E+02 -0.23342399467E+03  0.25113800300E+03  0.00000000000E+00 0.  1.
         14    1    3    3    0    0 -0.15204408368E+01  0.18895625425E+02 -0.30889044361E+02  0.36242095167E+02  0.00000000000E+00 0. -1.
        -13    1    5    5    0    0 -0.98676084640E+02 -0.11226605559E+02  0.24398201904E+02  0.10226572548E+03  0.00000000000E+00 0.  1.
         14    1    5    5    0    0 -0.28428093317E+02  0.36076613814E+02 -0.17706766905E+02  0.49226092147E+02  0.00000000000E+00 0. -1.
          5    1    4    4  502    0 -0.24616042918E+03  0.10532750432E+03  0.80855449606E+02  0.27972939387E+03  0.47000000000E+01 0.  1.
         -5    1    4    4    0  502 -0.26988731057E+03  0.13564670435E+03 -0.40330862684E+02  0.30477509296E+03  0.47000000000E+01 0.  1.
          3    1    1    2  503    0  0.11959126099E+03 -0.40908960042E+02  0.82415281973E+03  0.83378863208E+03  0.00000000000E+00 0. -1.
         -2    1    1    2    0  501  0.47718205156E+03 -0.16450630074E+03 -0.10042144114E+04  0.11239268737E+04  0.00000000000E+00 0.  1.
<mgrwt>
<rscale>  0 0.17965375E+03</rscale>
<asrwt>0</asrwt>
<pdfrwt beam="1">  1        4 0.18999510E+00 0.12661100E+03</pdfrwt>
<pdfrwt beam="2">  1       -1 0.24840077E+00 0.25491838E+03</pdfrwt>
<totfact> 0.53967461E-02</totfact>
</mgrwt>
</event>
<event>
13    1  0.1589573E-008  0.1032499E+03  0.7546771E-02  0.1354427E+00
          2   -1    0    0  503    0  0.00000000000E+00  0.00000000000E+00  0.18199227550E+03  0.18199227550E+03  0.00000000000E+00 0. -1.
          2   -1    0    0  502    0 -0.00000000000E+00 -0.00000000000E+00 -0.42247080321E+04  0.42247080321E+04  0.00000000000E+00 0. -1.
         24    2    1    2    0    0  0.88870158338E+01 -0.88796415893E+02 -0.20925971247E+04  0.20962506054E+04  0.85674336298E+02 0.  0.
         25    2    1    2    0    0  0.65672242550E+02 -0.55529229709E+00 -0.30161854957E+03  0.33303152207E+03  0.12499237360E+03 0.  0.
         24    2    1    2    0    0 -0.29080230545E+01 -0.64009818453E+01 -0.30751827747E+03  0.31897075220E+03  0.84412206539E+02 0.  0.
        -11    1    3    3    0    0 -0.17868786108E+02  0.90078240463E+01 -0.52224962486E+03  0.52263285878E+03  0.00000000000E+00 0.  1.
         12    1    3    3    0    0  0.26755801942E+02 -0.97804239939E+02 -0.15703474998E+04  0.15736177466E+04  0.00000000000E+00 0. -1.
        -13    1    5    5    0    0 -0.14411569413E+02 -0.31408576237E+02 -0.27123483129E+03  0.27342736824E+03  0.00000000000E+00 0.  1.
         14    1    5    5    0    0  0.11503546359E+02  0.25007594392E+02 -0.36283446174E+02  0.45543383958E+02  0.00000000000E+00 0. -1.
          5    1    4    4  501    0  0.77187721424E+02  0.43242606208E+02 -0.24404789285E+03  0.25963307057E+03  0.47000000000E+01 0.  1.
         -5    1    4    4    0  501 -0.11515478874E+02 -0.43797898506E+02 -0.57570656718E+02  0.73398451497E+02  0.47000000000E+01 0.  1.
          1    1    1    2  502    0 -0.49520187595E+02 -0.50967067068E+01 -0.14824626764E+04  0.14832982883E+04  0.00000000000E+00 0. -1.
          1    1    1    2  503    0 -0.22131047734E+02  0.10084939674E+03  0.14148087149E+03  0.17514913957E+03  0.00000000000E+00 0. -1.
<mgrwt>
<rscale>  0 0.71693524E+02</rscale>
<asrwt>0</asrwt>
<pdfrwt beam="1">  1        2 0.26763572E-01 0.10324986E+03</pdfrwt>
<pdfrwt beam="2">  1        2 0.62128055E+00 0.49781778E+02</pdfrwt>
<totfact> 0.18248150E+01</totfact>
</mgrwt>
</event>
<event>
13    1  0.1589573E-008  0.1199146E+03  0.7546771E-02  0.1367127E+00
          2   -1    0    0  502    0  0.00000000000E+00  0.00000000000E+00  0.83876124577E+03  0.83876124577E+03  0.00000000000E+00 0. -1.
          2   -1    0    0  503    0 -0.00000000000E+00 -0.00000000000E+00 -0.16429500626E+04  0.16429500626E+04  0.00000000000E+00 0. -1.
         24    2    1    2    0    0  0.67709660741E+02  0.45064595151E+02 -0.40452023658E+03  0.42030311981E+03  0.80016715880E+02 0.  0.
         25    2    1    2    0    0  0.65956052736E+01  0.58158976844E+02  0.11735114762E+03  0.18120548981E+03  0.12505266528E+03 0.  0.
         24    2    1    2    0    0 -0.60068431675E+02  0.33746949188E+02 -0.18824111195E+03  0.21311445225E+03  0.72360075087E+02 0.  0.
        -11    1    3    3    0    0  0.52556019071E+02  0.65867629327E+02 -0.25439941552E+03  0.26799205650E+03  0.00000000000E+00 0.  1.
         12    1    3    3    0    0  0.15153641670E+02 -0.20803034177E+02 -0.15012082107E+03  0.15231106330E+03  0.00000000000E+00 0. -1.
        -13    1    5    5    0    0 -0.49878292561E+02  0.53824527881E+02 -0.11436390035E+03  0.13588239611E+03  0.00000000000E+00 0.  1.
         14    1    5    5    0    0 -0.10190139114E+02 -0.20077578693E+02 -0.73877211600E+02  0.77232056137E+02  0.00000000000E+00 0. -1.
          5    1    4    4  501    0  0.38017369945E+02  0.68932269504E+02  0.24654996340E+02  0.82625280883E+02  0.47000000000E+01 0. -1.
         -5    1    4    4    0  501 -0.31421764672E+02 -0.10773292660E+02  0.92696151282E+02  0.98580208928E+02  0.47000000000E+01 0. -1.
          1    1    1    2  502    0 -0.21645337121E+02  0.31874911707E+02  0.66143446125E+03  0.66255571625E+03  0.00000000000E+00 0. -1.
          1    1    1    2  503    0  0.74085027808E+01 -0.16884543289E+03 -0.99021307713E+03  0.10045325302E+04  0.00000000000E+00 0. -1.
<mgrwt>
<rscale>  0 0.67972518E+02</rscale>
<asrwt>0</asrwt>
<pdfrwt beam="1">  1        2 0.12334724E+00 0.38529607E+02</pdfrwt>
<pdfrwt beam="2">  1        2 0.24161030E+00 0.11991462E+03</pdfrwt>
<totfact> 0.79618305E+01</totfact>
</mgrwt>
</event>
<event>
13    1  0.1589573E-008  0.1597530E+03  0.7546771E-02  0.1281122E+00
         -1   -1    0    0    0  501 -0.00000000000E+00  0.00000000000E+00  0.22802231202E+04  0.22802231202E+04  0.00000000000E+00 0.  1.
          2   -1    0    0  503    0  0.00000000000E+00 -0.00000000000E+00 -0.16081624024E+04  0.16081624024E+04  0.00000000000E+00 0. -1.
         24    2    1    2    0    0 -0.53473247861E+02  0.24244546183E+03  0.99335638443E+03  0.10283158210E+04  0.95064877546E+02 0.  0.
         25    2    1    2    0    0 -0.22776110043E+03 -0.72561353130E+02 -0.43294333543E+03  0.51010312975E+03  0.12500000980E+03 0.  0.
         24    2    1    2    0    0  0.11783864158E+03 -0.31656335339E+03  0.98850051554E+02  0.36227754676E+03  0.85880067717E+02 0.  0.
        -11    1    5    5    0    0  0.12755551704E+03 -0.25946388118E+03  0.69561149336E+02  0.29737294608E+03  0.00000000000E+00 0.  1.
         12    1    5    5    0    0 -0.97168754595E+01 -0.57099472208E+02  0.29288902218E+02  0.64904600671E+02  0.00000000000E+00 0. -1.
        -11    1    3    3    0    0 -0.55600248299E+02  0.23885874309E+03  0.84419538605E+03  0.87909654566E+03  0.00000000000E+00 0.  1.
         12    1    3    3    0    0  0.21270004383E+01  0.35867187338E+01  0.14916099838E+03  0.14921927529E+03  0.00000000000E+00 0. -1.
          5    1    4    4  502    0 -0.82587597655E+02  0.94202197660E+01 -0.63345288726E+02  0.10461437488E+03  0.47000000000E+01 0.  1.
         -5    1    4    4    0  502 -0.14517350277E+03 -0.81981572896E+02 -0.36959804670E+03  0.40548875487E+03  0.47000000000E+01 0.  1.
          1    1    1    2  503    0  0.37157484028E+02  0.49765527072E+02 -0.98012603869E+03  0.98209181751E+03  0.00000000000E+00 0. -1.
         -2    1    1    2    0  501  0.12623822268E+03  0.96913717621E+02  0.99292365591E+03  0.10055972076E+04  0.00000000000E+00 0.  1.
<mgrwt>
<rscale>  0 0.99608188E+02</rscale>
<asrwt>0</asrwt>
<pdfrwt beam="2">  1        2 0.23649447E+00 0.62107055E+02</pdfrwt>
<pdfrwt beam="1">  1       -1 0.33532693E+00 0.15975304E+03</pdfrwt>
<totfact> 0.42323201E-01</totfact>
</mgrwt>
</event>
<event>
13    1  0.1589573E-008  0.1431007E+03  0.7546771E-02  0.1272357E+00
          2   -1    0    0  502    0  0.00000000000E+00  0.00000000000E+00  0.16406792425E+04  0.16406792425E+04  0.00000000000E+00 0. -1.
          2   -1    0    0  503    0 -0.00000000000E+00 -0.00000000000E+00 -0.69274890443E+03  0.69274890443E+03  0.00000000000E+00 0. -1.
         24    2    1    2    0    0  0.12685474153E+01 -0.50036444129E+02  0.57752214377E+02  0.11020521430E+03  0.79401612327E+02 0.  0.
         25    2    1    2    0    0  0.17692660614E+02 -0.16602881562E+03  0.58557116564E+02  0.21663537381E+03  0.12499340555E+03 0.  0.
         24    2    1    2    0    0  0.43028509392E+02  0.88481910512E+02  0.49772045910E+03  0.51355055900E+03  0.79548853788E+02 0.  0.
        -11    1    5    5    0    0 -0.21255263117E+02  0.11967332387E+02  0.14108452974E+03  0.14317767908E+03  0.00000000000E+00 0.  1.
         12    1    5    5    0    0  0.64283772509E+02  0.76514578125E+02  0.35663592936E+03  0.37037287992E+03  0.00000000000E+00 0. -1.
        -13    1    3    3    0    0 -0.29223046580E+02 -0.10379563117E+02  0.51054036318E+02  0.59734716926E+02  0.00000000000E+00 0.  1.
         14    1    3    3    0    0  0.30491593995E+02 -0.39656881012E+02  0.66981780590E+01  0.50470497375E+02  0.00000000000E+00 0. -1.
          5    1    4    4  501    0  0.62182989688E+02 -0.12692803162E+03  0.13492094800E+02  0.14206187398E+03  0.47000000000E+01 0.  1.
         -5    1    4    4    0  501 -0.44490329075E+02 -0.39100783999E+02  0.45065021764E+02  0.74573499831E+02  0.47000000000E+01 0.  1.
          1    1    1    2  502    0 -0.11167554503E+03  0.70872356417E+02  0.90619523720E+03  0.91579698961E+03  0.00000000000E+00 0. -1.
          1    1    1    2  503    0  0.49685827610E+02  0.56710992818E+02 -0.57229468915E+03  0.57724001022E+03  0.00000000000E+00 0. -1.
<mgrwt>
<rscale>  0 0.10387237E+03</rscale>
<asrwt>0</asrwt>
<pdfrwt beam="1">  1        2 0.24127636E+00 0.14310072E+03</pdfrwt>
<pdfrwt beam="2">  1        2 0.10187484E+00 0.75397733E+02</pdfrwt>
<totfact> 0.95960672E+01</totfact>
</mgrwt>
</event>
<event>
13    1  0.1589573E-008  0.4585211E+02  0.7546771E-02  0.1574353E+00
          2   -1    0    0  502    0  0.00000000000E+00  0.00000000000E+00  0.25106850859E+04  0.25106850859E+04  0.00000000000E+00 0. -1.
          2   -1    0    0  503    0 -0.00000000000E+00 -0.00000000000E+00 -0.17770260176E+04  0.17770260176E+04  0.00000000000E+00 0. -1.
         24    2    1    2    0    0  0.13006919835E+03 -0.61744418876E+02 -0.62231485190E+03  0.64360404714E+03  0.78867134976E+02 0.  0.
         25    2    1    2    0    0 -0.17074128036E+03 -0.71288890041E+02  0.10618363546E+04  0.10850629514E+04  0.12502189346E+03 0.  0.
         24    2    1    2    0    0  0.20098633901E+02  0.96751501722E+02 -0.76211822313E+02  0.15062441750E+03  0.84348474304E+02 0.  0.
        -11    1    3    3    0    0 -0.99751696169E+01  0.18523058765E+01 -0.47121722908E+02  0.48201574826E+02  0.00000000000E+00 0.  1.
         12    1    3    3    0    0  0.14004436797E+03 -0.63596724753E+02 -0.57519312899E+03  0.59540247232E+03  0.00000000000E+00 0. -1.
        -13    1    5    5    0    0 -0.24938395014E+01  0.93010837334E+02 -0.27863114564E+02  0.97126660862E+02  0.00000000000E+00 0.  1.
         14    1    5    5    0    0  0.22592473402E+02  0.37406643876E+01 -0.48348707749E+02  0.53497756640E+02  0.00000000000E+00 0. -1.
          5    1    4    4  501    0 -0.15426446746E+03 -0.97261068355E+02  0.99163187433E+03  0.10082723370E+04  0.47000000000E+01 0.  1.
         -5    1    4    4    0  501 -0.16476812896E+02  0.25972178314E+02  0.70204480294E+02  0.76790614420E+02  0.47000000000E+01 0.  1.
          1    1    1    2  502    0  0.20581632780E+02 -0.95747024137E+01  0.13887758542E+04  0.13889613572E+04  0.00000000000E+00 0. -1.
          1    1    1    2  503    0 -0.81846774555E-02  0.45856509609E+02 -0.10184264664E+04  0.10194583302E+04  0.00000000000E+00 0. -1.
<mgrwt>
<rscale>  0 0.32261916E+02</rscale>
<asrwt>0</asrwt>
<pdfrwt beam="1">  1        2 0.36921839E+00 0.22699747E+02</pdfrwt>
<pdfrwt beam="2">  1        2 0.26132736E+00 0.45852106E+02</pdfrwt>
<totfact> 0.12585431E+01</totfact>
</mgrwt>
</event>
<event>
13    1  0.1589573E-008  0.4931401E+02  0.7546771E-02  0.1530560E+00
          2   -1    0    0  503    0  0.00000000000E+00  0.00000000000E+00  0.14505453188E+04  0.14505453188E+04  0.00000000000E+00 0. -1.
         -3   -1    0    0    0  501 -0.00000000000E+00 -0.00000000000E+00 -0.16300341543E+04  0.16300341543E+04  0.00000000000E+00 0.  1.
         24    2    1    2    0    0 -0.12548975420E+03  0.17236548441E+03 -0.13124721200E+03  0.26255306377E+03  0.79061634258E+02 0.  0.
         25    2    1    2    0    0  0.22639299373E+03  0.20225600088E+02 -0.99324334155E+03  0.10265602837E+04  0.12502326978E+03 0.  0.
         24    2    1    2    0    0 -0.73441532849E+02 -0.24461399926E+03  0.21759862808E+03  0.34530805296E+03  0.81601599927E+02 0.  0.
        -13    1    5    5    0    0 -0.15744651148E+01 -0.52106778540E+02  0.97536527045E+01  0.53035168061E+02  0.00000000000E+00 0.  1.
         14    1    5    5    0    0 -0.71867067734E+02 -0.19250722072E+03  0.20784497538E+03  0.29227288489E+03  0.00000000000E+00 0. -1.
        -13    1    3    3    0    0 -0.68401226970E+01  0.52747255916E+02 -0.79617227702E+01  0.53781496024E+02  0.00000000000E+00 0.  1.
         14    1    3    3    0    0 -0.11864963150E+03  0.11961822849E+03 -0.12328548923E+03  0.20877156774E+03  0.00000000000E+00 0. -1.
          5    1    4    4  502    0  0.60237077365E+02  0.60344824189E+02 -0.40838401695E+03  0.41721648888E+03  0.47000000000E+01 0. -1.
         -5    1    4    4    0  502  0.16615591637E+03 -0.40119224100E+02 -0.58485932460E+03  0.60934379479E+03  0.47000000000E+01 0. -1.
          1    1    1    2  503    0  0.34430431307E+00  0.49311697302E+02  0.10856770885E+04  0.10867964402E+04  0.00000000000E+00 0. -1.
         -4    1    1    2    0  501 -0.27806010997E+02  0.27112174617E+01 -0.35827399843E+03  0.35936163248E+03  0.00000000000E+00 0.  1.
<mgrwt>
<rscale>  0 0.37117768E+02</rscale>
<asrwt>0</asrwt>
<pdfrwt beam="1">  1        2 0.21331549E+00 0.49314009E+02</pdfrwt>
<pdfrwt beam="2">  1       -3 0.23971090E+00 0.27937877E+02</pdfrwt>
<totfact> 0.11475268E+00</totfact>
</mgrwt>
</event>
<event>
13    1  0.1589573E-008  0.3650468E+02  0.7546771E-02  0.1597756E+00
          2   -1    0    0  502    0  0.00000000000E+00  0.00000000000E+00  0.16538000070E+04  0.16538000070E+04  0.00000000000E+00 0. -1.
          2   -1    0    0  503    0 -0.00000000000E+00 -0.00000000000E+00 -0.87112461121E+03  0.87112461121E+03  0.00000000000E+00 0. -1.
         24    2    1    2    0    0 -0.44643546174E+02 -0.63931823354E+01 -0.28998980130E+03  0.30441254918E+03  0.80864060265E+02 0.  0.
         25    2    1    2    0    0  0.41282465909E+02  0.13403240818E+01  0.72512421780E+02  0.15028452162E+03  0.12498538981E+03 0.  0.
         24    2    1    2    0    0 -0.29652992639E+02 -0.13848040312E+02 -0.43042072848E+03  0.43906935413E+03  0.80304582909E+02 0.  0.
        -11    1    3    3    0    0 -0.51011420839E+02 -0.31307879096E+02 -0.14035272880E+03  0.15258190205E+03  0.00000000000E+00 0.  1.
         12    1    3    3    0    0  0.63678746657E+01  0.24914696761E+02 -0.14963707250E+03  0.15183064713E+03  0.00000000000E+00 0. -1.
        -11    1    5    5    0    0 -0.18129166971E+02  0.96900813947E+01 -0.23162664879E+02  0.30968910488E+02  0.00000000000E+00 0.  1.
         12    1    5    5    0    0 -0.11523825668E+02 -0.23538121706E+02 -0.40725806360E+03  0.40810044364E+03  0.00000000000E+00 0. -1.
          5    1    4    4  501    0  0.73199708248E+02 -0.23721328978E+02  0.77278234441E+02  0.10915545911E+03  0.47000000000E+01 0.  1.
         -5    1    4    4    0  501 -0.31917242339E+02  0.25061653060E+02 -0.47658126607E+01  0.41129062510E+02  0.47000000000E+01 0.  1.
          1    1    1    2  502    0  0.13422694466E+02  0.33949418977E+02  0.15291234235E+04  0.15295591443E+04  0.00000000000E+00 0. -1.
          1    1    1    2  503    0  0.19591378437E+02 -0.15048520412E+02 -0.98549919690E+02  0.10159904895E+03  0.00000000000E+00 0. -1.
<mgrwt>
<rscale>  0 0.30030086E+02</rscale>
<asrwt>0</asrwt>
<pdfrwt beam="1">  1        2 0.24320588E+00 0.36504681E+02</pdfrwt>
<pdfrwt beam="2">  1        2 0.12810656E+00 0.24703847E+02</pdfrwt>
<totfact> 0.85200131E+01</totfact>
</mgrwt>
</event>
<event>
13    1  0.1589573E-008  0.6032840E+02  0.7546771E-02  0.1473213E+00
          2   -1    0    0  502    0  0.00000000000E+00  0.00000000000E+00  0.15726682177E+04  0.15726682177E+04  0.00000000000E+00 0. -1.
          4   -1    0    0  503    0 -0.00000000000E+00 -0.00000000000E+00 -0.51665406645E+03  0.51665406645E+03  0.00000000000E+00 0. -1.
         24    2    1    2    0    0  0.51459795603E+03  0.25064764896E+03  0.33891136296E+03  0.67247912348E+03  0.98650693356E+02 0.  0.
         25    2    1    2    0    0 -0.20940735794E+03  0.24610281193E+03  0.25619570935E+03  0.43090606985E+03  0.12500305574E+03 0.  0.
         24    2    1    2    0    0 -0.22382818194E+03 -0.45518956103E+03  0.37211132597E+03  0.63587718102E+03  0.92608633137E+02 0.  0.
        -11    1    3    3    0    0  0.33111256310E+03  0.11933598033E+03  0.17148711898E+03  0.39151556498E+03  0.00000000000E+00 0.  1.
         12    1    3    3    0    0  0.18348539293E+03  0.13131166863E+03  0.16742424397E+03  0.28096355850E+03  0.00000000000E+00 0. -1.
        -13    1    5    5    0    0 -0.11555244008E+03 -0.17571555403E+03  0.20019952161E+03  0.29035869332E+03  0.00000000000E+00 0.  1.
         14    1    5    5    0    0 -0.10827574186E+03 -0.27947400700E+03  0.17191180436E+03  0.34551848770E+03  0.00000000000E+00 0. -1.
          5    1    4    4  501    0 -0.40157459690E+02  0.13761785379E+03  0.84390482081E+02  0.16641856482E+03  0.47000000000E+01 0. -1.
         -5    1    4    4    0  501 -0.16924989825E+03  0.10848495814E+03  0.17180522727E+03  0.26448750503E+03  0.47000000000E+01 0. -1.
          1    1    1    2  502    0 -0.33440559205E+02 -0.51665819975E+01  0.21107825065E+03  0.21377322673E+03  0.00000000000E+00 0. -1.
          3    1    1    2  503    0 -0.47921856952E+02 -0.36394317861E+02 -0.12228249767E+03  0.13628668307E+03  0.00000000000E+00 0. -1.
<mgrwt>
<rscale>  0 0.45181319E+02</rscale>
<asrwt>0</asrwt>
<pdfrwt beam="1">  1        2 0.23127474E+00 0.33837325E+02</pdfrwt>
<pdfrwt beam="2">  1        4 0.75978540E-01 0.60328398E+02</pdfrwt>
<totfact> 0.12693205E+01</totfact>
</mgrwt>
</event>
<event>
13    1  0.1589573E-008  0.9414446E+02  0.7546771E-02  0.1348817E+00
          2   -1    0    0  503    0  0.00000000000E+00  0.00000000000E+00  0.76550635048E+03  0.76550635048E+03  0.00000000000E+00 0. -1.
          2   -1    0    0  502    0 -0.00000000000E+00 -0.00000000000E+00 -0.14587617124E+04  0.14587617124E+04  0.00000000000E+00 0. -1.
         24    2    1    2    0    0 -0.44141084209E+02 -0.14293505762E+03 -0.55647867364E+03  0.58189265788E+03  0.80942480049E+02 0.  0.
         25    2    1    2    0    0 -0.26372204245E+02  0.22242797521E+03  0.17726025842E+03  0.31180727516E+03  0.12503151729E+03 0.  0.
         24    2    1    2    0    0 -0.18334500357E+02  0.26108461909E+02 -0.10818971175E+03  0.13835098855E+03  0.80113523305E+02 0.  0.
        -11    1    3    3    0    0 -0.24209820744E+02  0.85552634759E+00 -0.62679085632E+02  0.67197582706E+02  0.00000000000E+00 0.  1.
         12    1    3    3    0    0 -0.19931263465E+02 -0.14379058396E+03 -0.49379958800E+03  0.51469507518E+03  0.00000000000E+00 0. -1.
        -13    1    5    5    0    0 -0.23816015939E+02  0.51959751070E+02 -0.88676225406E+02  0.10550114359E+03  0.00000000000E+00 0.  1.
         14    1    5    5    0    0  0.54815155819E+01 -0.25851289161E+02 -0.19513486348E+02  0.32849844959E+02  0.00000000000E+00 0. -1.
          5    1    4    4  501    0 -0.65390791950E+02  0.59504305813E+02  0.69492541769E+02  0.11255230537E+03  0.47000000000E+01 0. -1.
         -5    1    4    4    0  501  0.39018587704E+02  0.16292366939E+03  0.10776771665E+03  0.19925496979E+03  0.47000000000E+01 0. -1.
          1    1    1    2  502    0  0.85036206605E+01 -0.56631490971E+02 -0.69335318828E+03  0.69571407995E+03  0.00000000000E+00 0. -1.
          1    1    1    2  503    0  0.80344168151E+02 -0.48969888527E+02  0.48750595336E+03  0.49650306132E+03  0.00000000000E+00 0. -1.
<mgrwt>
<rscale>  0 0.73425553E+02</rscale>
<asrwt>0</asrwt>
<pdfrwt beam="1">  1        2 0.11257446E+00 0.94144464E+02</pdfrwt>
<pdfrwt beam="2">  1        2 0.21452378E+00 0.57266372E+02</pdfrwt>
<totfact> 0.11219953E+02</totfact>
</mgrwt>
</event>
<event>
13    1  0.1589573E-008  0.3727996E+03  0.7546771E-02  0.1301554E+00
          2   -1    0    0  503    0  0.00000000000E+00  0.00000000000E+00  0.23132164009E+04  0.23132164009E+04  0.00000000000E+00 0. -1.
          2   -1    0    0  502    0 -0.00000000000E+00 -0.00000000000E+00 -0.30463011499E+04  0.30463011499E+04  0.00000000000E+00 0. -1.
         24    2    1    2    0    0 -0.62328107054E+03 -0.44129584080E+03 -0.68912565043E+03  0.10317379994E+04  0.79798654700E+02 0.  0.
         25    2    1    2    0    0  0.43174883281E+03  0.10256053858E+04 -0.57310413667E+03  0.12579143075E+04  0.12500636556E+03 0.  0.
         24    2    1    2    0    0  0.42697082104E+03 -0.26882850851E+03 -0.27082830740E+02  0.50966912305E+03  0.66755421254E+02 0.  0.
        -11    1    3    3    0    0 -0.36203947435E+03 -0.22850135466E+03 -0.34171625188E+03  0.54777317100E+03  0.00000000000E+00 0.  1.
         12    1    3    3    0    0 -0.26124159619E+03 -0.21279448614E+03 -0.34740939855E+03  0.48396482839E+03  0.00000000000E+00 0. -1.
        -13    1    5    5    0    0  0.16124051894E+03 -0.12243345540E+03 -0.38421634416E+02  0.20606959490E+03  0.00000000000E+00 0.  1.
         14    1    5    5    0    0  0.26573030210E+03 -0.14639505311E+03  0.11338803676E+02  0.30359952816E+03  0.00000000000E+00 0. -1.
          5    1    4    4  501    0  0.17093003423E+03  0.46466328039E+03 -0.19039381306E+03  0.53047236949E+03  0.47000000000E+01 0.  1.
         -5    1    4    4    0  501  0.26081879858E+03  0.56094210540E+03 -0.38271032361E+03  0.72744193796E+03  0.47000000000E+01 0.  1.
          1    1    1    2  502    0 -0.17521270456E+02 -0.13284597338E+02 -0.97958816945E+03  0.97983491322E+03  0.00000000000E+00 0. -1.
          1    1    1    2  503    0 -0.21791731285E+03 -0.30219643914E+03  0.15358160383E+04  0.15803612077E+04  0.00000000000E+00 0. -1.
<mgrwt>
<rscale>  0 0.90538088E+02</rscale>
<asrwt>0</asrwt>
<pdfrwt beam="1">  1        2 0.34017888E+00 0.37279959E+03</pdfrwt>
<pdfrwt beam="2">  1        2 0.44798546E+00 0.21988075E+02</pdfrwt>
<totfact> 0.30946153E+00</totfact>
</mgrwt>
</event>
<event>
13    1  0.1589573E-008  0.9965412E+02  0.7546771E-02  0.1325846E+00
          2   -1    0    0  503    0  0.00000000000E+00  0.00000000000E+00  0.11637686327E+04  0.11637686327E+04  0.00000000000E+00 0. -1.
          2   -1    0    0  502    0 -0.00000000000E+00 -0.00000000000E+00 -0.42447265108E+04  0.42447265108E+04  0.00000000000E+00 0. -1.
         24    2    1    2    0    0  0.76597497339E+02  0.14361466251E+03 -0.52812705705E+03  0.55867938394E+03  0.81927515356E+02 0.  0.
         25    2    1    2    0    0  0.23017478354E+02 -0.14232237673E+03 -0.98935191359E+03  0.10075847071E+04  0.12499707946E+03 0.  0.
         24    2    1    2    0    0 -0.28976890938E+02  0.38579872340E+01  0.10661309186E+03  0.13856624451E+03  0.83544649663E+02 0.  0.
        -11    1    5    5    0    0 -0.58179377560E+02 -0.12377069910E+01  0.78453038719E+02  0.97679328295E+02  0.00000000000E+00 0.  1.
         12    1    5    5    0    0  0.29202486622E+02  0.50956942250E+01  0.28160053140E+02  0.40886916213E+02  0.00000000000E+00 0. -1.
        -13    1    3    3    0    0 -0.23256673952E+01 -0.70487615538E+01 -0.62901703535E+02  0.63338124979E+02  0.00000000000E+00 0.  1.
         14    1    3    3    0    0  0.78923164735E+02  0.15066342407E+03 -0.46522535351E+03  0.49534125896E+03  0.00000000000E+00 0. -1.
          5    1    4    4  501    0 -0.36265362866E+02 -0.32790233925E+02 -0.12517709493E+03  0.13446847616E+03  0.47000000000E+01 0.  1.
         -5    1    4    4    0  501  0.59282841220E+02 -0.10953214281E+03 -0.86417481866E+03  0.87311623096E+03  0.47000000000E+01 0.  1.
          1    1    1    2  502    0 -0.84687250602E+01  0.65521272797E+02 -0.26842927769E+04  0.26851056717E+04  0.00000000000E+00 0. -1.
          1    1    1    2  503    0 -0.62169359695E+02 -0.70671545808E+02  0.10142007775E+04  0.10185591362E+04  0.00000000000E+00 0. -1.
<mgrwt>
<rscale>  0 0.81140493E+02</rscale>
<asrwt>0</asrwt>
<pdfrwt beam="1">  1        2 0.17114245E+00 0.99654124E+02</pdfrwt>
<pdfrwt beam="2">  1        2 0.62422448E+00 0.66066304E+02</pdfrwt>
<totfact> 0.20342614E+00</totfact>
</mgrwt>
</event>
<event>
13    1  0.1589573E-008  0.2504447E+03  0.7546771E-02  0.1226170E+00
          2   -1    0    0  503    0  0.00000000000E+00  0.00000000000E+00  0.16694635103E+04  0.16694635103E+04  0.00000000000E+00 0. -1.
          2   -1    0    0  502    0 -0.00000000000E+00 -0.00000000000E+00 -0.18307281973E+04  0.18307281973E+04  0.00000000000E+00 0. -1.
         24    2    1    2    0    0  0.16770045408E+03  0.37500783029E+03 -0.20886665331E+03  0.47356488304E+03  0.10901423991E+03 0.  0.
         25    2    1    2    0    0 -0.34538990259E+03 -0.19399656929E+03 -0.82792397087E+02  0.42356614255E+03  0.12499936956E+03 0.  0.
         24    2    1    2    0    0  0.24057191197E+03 -0.36396757912E+03 -0.26934846105E+03  0.51922459802E+03  0.81843425149E+02 0.  0.
        -11    1    5    5    0    0  0.96684357773E+02 -0.19530415549E+03 -0.97609129144E+02  0.23878676739E+03  0.00000000000E+00 0.  1.
         12    1    5    5    0    0  0.14388755420E+03 -0.16866342363E+03 -0.17173933191E+03  0.28043783063E+03  0.00000000000E+00 0. -1.
        -11    1    3    3    0    0  0.13623074699E+03  0.33079168735E+03 -0.21740604652E+03  0.41862554378E+03  0.00000000000E+00 0.  1.
         12    1    3    3    0    0  0.31469707085E+02  0.44216142949E+02  0.85393932141E+01  0.54939339255E+02  0.00000000000E+00 0. -1.
          5    1    4    4  501    0 -0.20655500886E+03 -0.13273664034E+03  0.97431953077E+01  0.24576616372E+03  0.47000000000E+01 0. -1.
         -5    1    4    4    0  501 -0.13883489374E+03 -0.61259928947E+02 -0.92535592395E+02  0.17779997883E+03  0.47000000000E+01 0. -1.
          1    1    1    2  502    0  0.56979776163E+02 -0.37816046828E+02 -0.82791745739E+03  0.83073706101E+03  0.00000000000E+00 0. -1.
          1    1    1    2  503    0 -0.11986223962E+03  0.22077236494E+03  0.12276602818E+04  0.12530990229E+04  0.00000000000E+00 0. -1.
<mgrwt>
<rscale>  0 0.13087056E+03</rscale>
<asrwt>0</asrwt>
<pdfrwt beam="1">  1        2 0.24550934E+00 0.25044474E+03</pdfrwt>
<pdfrwt beam="2">  1        2 0.26922473E+00 0.68386755E+02</pdfrwt>
<totfact> 0.21903119E+01</totfact>
</mgrwt>
</event>
<event>
13    1  0.1589573E-008  0.1222769E+03  0.7546771E-02  0.1293965E+00
          2   -1    0    0  503    0  0.00000000000E+00  0.00000000000E+00  0.44296250312E+03  0.44296250312E+03  0.00000000000E+00 0. -1.
          2   -1    0    0  502    0 -0.00000000000E+00 -0.00000000000E+00 -0.13693862944E+04  0.13693862944E+04  0.00000000000E+00 0. -1.
         24    2    1    2    0    0 -0.24577279299E+02 -0.13785946866E+03 -0.81914105973E+03  0.83509363340E+03  0.82340907573E+02 0.  0.
         25    2    1    2    0    0 -0.16697168415E+03  0.15198002530E+03 -0.13181637611E+03  0.28976580716E+03  0.12494476614E+03 0.  0.
         24    2    1    2    0    0  0.29975775355E+02  0.14414294272E+02  0.13411625469E+03  0.15929905954E+03  0.79263494809E+02 0.  0.
        -11    1    3    3    0    0 -0.22001807704E+02  0.20968560868E+01 -0.13232372485E+03  0.13415679075E+03  0.00000000000E+00 0.  1.
         12    1    3    3    0    0 -0.25754715954E+01 -0.13995632475E+03 -0.68681733488E+03  0.70093684265E+03  0.00000000000E+00 0. -1.
        -13    1    5    5    0    0  0.29097087912E+02 -0.21727911532E+02  0.11000367608E+03  0.11584278750E+03  0.00000000000E+00 0.  1.
         14    1    5    5    0    0  0.87868744290E+00  0.36142205804E+02  0.24112578609E+02  0.43456272035E+02  0.00000000000E+00 0. -1.
          5    1    4    4  501    0 -0.15322073684E+03  0.60122918869E+02 -0.76567343564E+02  0.18159297252E+03  0.47000000000E+01 0. -1.
         -5    1    4    4    0  501 -0.13750947316E+02  0.91857106435E+02 -0.55249032551E+02  0.10817283463E+03  0.47000000000E+01 0. -1.
          1    1    1    2  502    0  0.97969610516E+02 -0.62091782326E+02 -0.30160738489E+03  0.32314153035E+03  0.00000000000E+00 0. -1.
          1    1    1    2  503    0  0.63603577580E+02  0.33556931410E+02  0.19202477480E+03  0.20504876703E+03  0.00000000000E+00 0. -1.
<mgrwt>
<rscale>  0 0.93772589E+02</rscale>
<asrwt>0</asrwt>
<pdfrwt beam="1">  1        2 0.65141544E-01 0.71913022E+02</pdfrwt>
<pdfrwt beam="2">  1        2 0.20138034E+00 0.12227686E+03</pdfrwt>
<totfact> 0.21602783E+02</totfact>
</mgrwt>
</event>
<event>
13    1  0.1589573E-008  0.1334996E+03  0.7546771E-02  0.1241199E+00
          2   -1    0    0  503    0  0.00000000000E+00  0.00000000000E+00  0.39757026279E+04  0.39757026279E+04  0.00000000000E+00 0. -1.
          2   -1    0    0  502    0 -0.00000000000E+00 -0.00000000000E+00 -0.24480852671E+04  0.24480852671E+04  0.00000000000E+00 0. -1.
         24    2    1    2    0    0  0.16957729362E+03  0.40068890625E+02 -0.73224198386E+03  0.75680002347E+03  0.78778030518E+02 0.  0.
         25    2    1    2    0    0 -0.19131913342E+03  0.12896492476E+03 -0.36377900926E+02  0.26491863246E+03  0.12499426993E+03 0.  0.
         24    2    1    2    0    0 -0.23119546074E+02 -0.59738762739E+02 -0.42158378218E+03  0.43373806474E+03  0.79325848416E+02 0.  0.
        -11    1    5    5    0    0  0.16152119678E+02  0.90730793915E+01 -0.40947951670E+02  0.44943814766E+02  0.00000000000E+00 0.  1.
         12    1    5    5    0    0 -0.39271665753E+02 -0.68811842131E+02 -0.38063583051E+03  0.38879424998E+03  0.00000000000E+00 0. -1.
        -13    1    3    3    0    0  0.28830428135E+01 -0.10093383674E+02 -0.11506846411E+03  0.11554626676E+03  0.00000000000E+00 0.  1.
         14    1    3    3    0    0  0.16669425080E+03  0.50162274299E+02 -0.61717351975E+03  0.64125375671E+03  0.00000000000E+00 0. -1.
          5    1    4    4  501    0 -0.10935259626E-01 -0.13576912008E+02  0.15064557880E+02  0.20817386084E+02  0.47000000000E+01 0.  1.
         -5    1    4    4    0  501 -0.19130819816E+03  0.14254183677E+03 -0.51442458806E+02  0.24410124637E+03  0.47000000000E+01 0.  1.
          1    1    1    2  502    0 -0.63245628644E+02 -0.12945391809E+03 -0.11198522737E+04  0.11290825662E+04  0.00000000000E+00 0. -1.
          1    1    1    2  503    0  0.10810701452E+03  0.20158865445E+02  0.38376733014E+04  0.38392486081E+04  0.00000000000E+00 0. -1.
<mgrwt>
<rscale>  0 0.12115801E+03</rscale>
<asrwt>0</asrwt>
<pdfrwt beam="1">  1        2 0.58466215E+00 0.10995735E+03</pdfrwt>
<pdfrwt beam="2">  1        2 0.36001254E+00 0.13349960E+03</pdfrwt>
<totfact> 0.62644744E-01</totfact>
</mgrwt>
</event>
<event>
13    1  0.1589573E-008  0.5276320E+02  0.7546771E-02  0.1436333E+00
          2   -1    0    0  503    0  0.00000000000E+00  0.00000000000E+00  0.87412570894E+03  0.87412570894E+03  0.00000000000E+00 0. -1.
         -3   -1    0    0    0  501 -0.00000000000E+00 -0.00000000000E+00 -0.21863330363E+04  0.21863330363E+04  0.00000000000E+00 0.  1.
         24    2    1    2    0    0 -0.37841167792E+01 -0.37556124520E+02  0.38544501028E+02  0.97201399658E+02  0.80855745048E+02 0.  0.
         25    2    1    2    0    0  0.20223860437E+03  0.62445088814E+02 -0.21070586886E+03  0.32376205781E+03  0.12500025876E+03 0.  0.
         24    2    1    2    0    0 -0.12920683414E+03  0.23907899504E+02  0.13721057956E+03  0.20609125539E+03  0.79880340259E+02 0.  0.
        -11    1    3    3    0    0 -0.31487407709E+02 -0.32733799429E+02  0.49356323188E+02  0.67074623428E+02  0.00000000000E+00 0.  1.
         12    1    3    3    0    0  0.27703290930E+02 -0.48223250909E+01 -0.10811822160E+02  0.30126776230E+02  0.00000000000E+00 0. -1.
        -13    1    5    5    0    0 -0.10050610675E+03  0.30137714345E+02  0.54325532810E+02  0.11815677228E+03  0.00000000000E+00 0.  1.
         14    1    5    5    0    0 -0.28700727382E+02 -0.62298148410E+01  0.82885046751E+02  0.87934483111E+02  0.00000000000E+00 0. -1.
          5    1    4    4  502    0  0.13199792893E+03  0.65951815699E+02 -0.20557112267E+03  0.25309024421E+03  0.47000000000E+01 0.  1.
         -5    1    4    4    0  502  0.70240675436E+02 -0.35067268851E+01 -0.51347461867E+01  0.70671813600E+02  0.47000000000E+01 0.  1.
          1    1    1    2  503    0 -0.18573612362E+02 -0.49318543701E+02  0.57652565467E+03  0.57892929475E+03  0.00000000000E+00 0. -1.
         -4    1    1    2    0  501 -0.50674041093E+02  0.52167990245E+00 -0.18537821938E+04  0.18544747376E+04  0.00000000000E+00 0.  1.
<mgrwt>
<rscale>  0 0.51709441E+02</rscale>
<asrwt>0</asrwt>
<pdfrwt beam="1">  1        2 0.12854790E+00 0.52763200E+02</pdfrwt>
<pdfrwt beam="2">  1       -3 0.32151956E+00 0.50676726E+02</pdfrwt>
<totfact> 0.86178731E-01</totfact>
</mgrwt>
</event>
<event>
13    1  0.1589573E-008  0.1461341E+03  0.7546771E-02  0.1253879E+00
          2   -1    0    0  503    0  0.00000000000E+00  0.00000000000E+00  0.11774005583E+04  0.11774005583E+04  0.00000000000E+00 0. -1.
          2   -1    0    0  502    0 -0.00000000000E+00 -0.00000000000E+00 -0.25266964362E+04  0.25266964362E+04  0.00000000000E+00 0. -1.
         24    2    1    2    0    0  0.11329950341E+03 -0.12559188753E+02 -0.14496300560E+04  0.14561729808E+04  0.77575382891E+02 0.  0.
         25    2    1    2    0    0  0.11610121581E+03  0.43629285180E+02 -0.93180943834E+02  0.19921787423E+03  0.12498826458E+03 0.  0.
         24    2    1    2    0    0  0.10763627760E+02 -0.39037356248E+02  0.27208527305E+02  0.94468206490E+02  0.80896027182E+02 0.  0.
        -11    1    3    3    0    0  0.35910755419E+02  0.27117918755E+02 -0.31265772290E+03  0.31587943200E+03  0.00000000000E+00 0.  1.
         12    1    3    3    0    0  0.77388747995E+02 -0.39677107508E+02 -0.11369723331E+04  0.11402935488E+04  0.00000000000E+00 0. -1.
        -13    1    5    5    0    0  0.30679159426E+02  0.13930961388E+02  0.72667057085E+01  0.34468645464E+02  0.00000000000E+00 0.  1.
         14    1    5    5    0    0 -0.19915531666E+02 -0.52968317636E+02  0.19941821597E+02  0.59999561026E+02  0.00000000000E+00 0. -1.
          5    1    4    4  501    0  0.13611898941E+03  0.11056675293E+02 -0.80838659142E+02  0.15876904030E+03  0.47000000000E+01 0.  1.
         -5    1    4    4    0  501 -0.20017773603E+02  0.32572609887E+02 -0.12342284692E+02  0.40448833930E+02  0.47000000000E+01 0.  1.
          1    1    1    2  502    0 -0.20345914465E+03 -0.11086117670E+03 -0.87519023163E+03  0.90534179490E+03  0.00000000000E+00 0. -1.
          1    1    1    2  503    0 -0.36705202334E+02  0.11882843652E+03  0.10414968263E+04  0.10488961381E+04  0.00000000000E+00 0. -1.
<mgrwt>
<rscale>  0 0.11369329E+03</rscale>
<asrwt>0</asrwt>
<pdfrwt beam="1">  1        2 0.17314714E+00 0.88454130E+02</pdfrwt>
<pdfrwt beam="2">  1        2 0.37157301E+00 0.14613409E+03</pdfrwt>
<totfact> 0.17748355E+01</totfact>
</mgrwt>
</event>
<event>
13    1  0.1589573E-008  0.7300856E+02  0.7546771E-02  0.1456175E+00
          2   -1    0    0  502    0  0.00000000000E+00  0.00000000000E+00  0.21309277064E+04  0.21309277064E+04  0.00000000000E+00 0. -1.
          2   -1    0    0  503    0 -0.00000000000E+00 -0.00000000000E+00 -0.67316420733E+03  0.67316420733E+03  0.00000000000E+00 0. -1.
         24    2    1    2    0    0  0.30780374320E+03 -0.51913055929E+02  0.35506966214E+03  0.47720943118E+03  0.64932784736E+02 0.  0.
         25    2    1    2    0    0 -0.11556653047E+02  0.97265739509E+00  0.14041583519E+03  0.18830985507E+03  0.12493795441E+03 0.  0.
         24    2    1    2    0    0 -0.22246278130E+03 -0.22699131750E+02  0.23691351696E+03  0.33604165610E+03  0.82407769478E+02 0.  0.
        -11    1    5    5    0    0 -0.16965412208E+03 -0.24369996982E+02  0.12453269345E+03  0.21186035407E+03  0.00000000000E+00 0.  1.
         12    1    5    5    0    0 -0.52808659218E+02  0.16708652317E+01  0.11238082351E+03  0.12418130202E+03  0.00000000000E+00 0. -1.
        -13    1    3    3    0    0  0.25460552003E+03 -0.22111350940E+02  0.30773030622E+03  0.40001352982E+03  0.00000000000E+00 0.  1.
         14    1    3    3    0    0  0.53198223170E+02 -0.29801704989E+02  0.47339355916E+02  0.77195901363E+02  0.00000000000E+00 0. -1.
          5    1    4    4  501    0 -0.51429886692E+02 -0.38382872100E+02  0.48554173755E+02  0.80609403328E+02  0.47000000000E+01 0. -1.
         -5    1    4    4    0  501  0.39873233645E+02  0.39355529495E+02  0.91861661439E+02  0.10770045174E+03  0.47000000000E+01 0. -1.
          1    1    1    2  502    0 -0.24774782967E+02  0.19645208393E+02  0.12612804963E+04  0.12616767472E+04  0.00000000000E+00 0. -1.
          1    1    1    2  503    0 -0.49009525895E+02  0.53994321892E+02 -0.53591601152E+03  0.54085422419E+03  0.00000000000E+00 0. -1.
<mgrwt>
<rscale>  0 0.48045965E+02</rscale>
<asrwt>0</asrwt>
<pdfrwt beam="1">  1        2 0.31337172E+00 0.31618414E+02</pdfrwt>
<pdfrwt beam="2">  1        2 0.98994737E-01 0.73008557E+02</pdfrwt>
<totfact> 0.67975759E+01</totfact>
</mgrwt>
</event>
<event>
13    1  0.1589573E-008  0.9182021E+02  0.7546771E-02  0.1422103E+00
          2   -1    0    0  502    0  0.00000000000E+00  0.00000000000E+00  0.13408559751E+04  0.13408559751E+04  0.00000000000E+00 0. -1.
          2   -1    0    0  503    0 -0.00000000000E+00 -0.00000000000E+00 -0.63664778722E+03  0.63664778722E+03  0.00000000000E+00 0. -1.
         24    2    1    2    0    0  0.52700680932E+02  0.10046283036E+03 -0.50566658199E+03  0.52451203108E+03  0.80895219606E+02 0.  0.
         25    2    1    2    0    0 -0.61449211695E+02 -0.65064470804E+02  0.57672916338E+03  0.59686718177E+03  0.12499805518E+03 0.  0.
         24    2    1    2    0    0 -0.96124131150E+02 -0.27376722727E+02  0.28135743098E+03  0.30925071515E+03  0.80527432063E+02 0.  0.
        -13    1    5    5    0    0  0.11082162329E+02 -0.18419578186E+01  0.69914787780E+02  0.70811614025E+02  0.00000000000E+00 0.  1.
         14    1    5    5    0    0 -0.10720629348E+03 -0.25534764908E+02  0.21144264320E+03  0.23843910113E+03  0.00000000000E+00 0. -1.
        -13    1    3    3    0    0 -0.11429555911E+02  0.39864385437E+02 -0.83588056541E+02  0.93310059323E+02  0.00000000000E+00 0.  1.
         14    1    3    3    0    0  0.64130236843E+02  0.60598444919E+02 -0.42207852545E+03  0.43120197176E+03  0.00000000000E+00 0. -1.
          5    1    4    4  501    0 -0.57056859395E+02 -0.10024659086E+03  0.48143413156E+03  0.49508158642E+03  0.47000000000E+01 0. -1.
         -5    1    4    4    0  501 -0.43923523005E+01  0.35182120053E+02  0.95295031817E+02  0.10178559534E+03  0.47000000000E+01 0. -1.
          1    1    1    2  502    0  0.15573693761E+02 -0.28459331211E+02  0.42707075969E+03  0.42830118754E+03  0.00000000000E+00 0. -1.
          1    1    1    2  503    0  0.89298968153E+02  0.20437694387E+02 -0.75282584226E+02  0.11857264673E+03  0.00000000000E+00 0. -1.
<mgrwt>
<rscale>  0 0.54578543E+02</rscale>
<asrwt>0</asrwt>
<pdfrwt beam="1">  1        2 0.19718470E+00 0.32441848E+02</pdfrwt>
<pdfrwt beam="2">  1        2 0.93624675E-01 0.91820213E+02</pdfrwt>
<totfact> 0.16537779E+02</totfact>
</mgrwt>
</event>
<event>
13    1  0.1589573E-008  0.9265990E+02  0.7546771E-02  0.1357525E+00
          2   -1    0    0  503    0  0.00000000000E+00  0.00000000000E+00  0.11651523106E+04  0.11651523106E+04  0.00000000000E+00 0. -1.
          2   -1    0    0  502    0 -0.00000000000E+00 -0.00000000000E+00 -0.16294589606E+04  0.16294589606E+04  0.00000000000E+00 0. -1.
         24    2    1    2    0    0  0.18875347775E+03 -0.77002150706E+02 -0.82013561600E+03  0.84919013499E+03  0.83332167604E+02 0.  0.
         25    2    1    2    0    0 -0.14634622450E+03  0.10030155558E+03  0.13689363276E+03  0.25659774643E+03  0.12499966923E+03 0.  0.
         24    2    1    2    0    0 -0.27736298706E+02  0.12599723023E+02 -0.25384569121E+03  0.26828074928E+03  0.81294958044E+02 0.  0.
        -13    1    3    3    0    0  0.51074008358E+01 -0.30319926076E+01 -0.15744644981E+03  0.15755844338E+03  0.00000000000E+00 0.  1.
         14    1    3    3    0    0  0.18364607691E+03 -0.73970158098E+02 -0.66268916619E+03  0.69163169161E+03  0.00000000000E+00 0. -1.
        -13    1    5    5    0    0  0.29052235526E+02  0.55825318608E+01 -0.84472047246E+02  0.89502646983E+02  0.00000000000E+00 0.  1.
         14    1    5    5    0    0 -0.56788534232E+02  0.70171911625E+01 -0.16937364396E+03  0.17877810230E+03  0.00000000000E+00 0. -1.
          5    1    4    4  501    0 -0.11253580468E+03  0.29199856992E+01  0.58138830520E+02  0.12678740973E+03  0.47000000000E+01 0. -1.
         -5    1    4    4    0  501 -0.33810419829E+02  0.97381569877E+02  0.78754802235E+02  0.12981033671E+03  0.47000000000E+01 0. -1.
          1    1    1    2  502    0  0.18509315134E+02  0.50768317198E+02 -0.47005480722E+03  0.47315065103E+03  0.00000000000E+00 0. -1.
          1    1    1    2  503    0 -0.33180269672E+02 -0.86667445092E+02  0.94283583162E+03  0.94739198947E+03  0.00000000000E+00 0. -1.
<mgrwt>
<rscale>  0 0.70760720E+02</rscale>
<asrwt>0</asrwt>
<pdfrwt beam="1">  1        2 0.17134593E+00 0.92659896E+02</pdfrwt>
<pdfrwt beam="2">  1        2 0.23962632E+00 0.54037180E+02</pdfrwt>
<totfact> 0.54297174E+01</totfact>
</mgrwt>
</event>
<event>
13    1  0.1589573E-008  0.7873557E+02  0.7546771E-02  0.1336195E+00
          2   -1    0    0  502    0  0.00000000000E+00  0.00000000000E+00  0.10729937528E+04  0.10729937528E+04  0.00000000000E+00 0. -1.
          2   -1    0    0  503    0 -0.00000000000E+00 -0.00000000000E+00 -0.26851851237E+04  0.26851851237E+04  0.00000000000E+00 0. -1.
         24    2    1    2    0    0 -0.63553808582E+02 -0.45413539291E+02 -0.27751997340E+03  0.29906415076E+03  0.79501915061E+02 0.  0.
         25    2    1    2    0    0  0.27857235774E+03 -0.87086569338E+02  0.49091190821E+01  0.31755181548E+03  0.12501370729E+03 0.  0.
         24    2    1    2    0    0 -0.15326270597E+03  0.32487508349E+02 -0.93682438431E+02  0.19957026124E+03  0.80665944869E+02 0.  0.
        -13    1    5    5    0    0 -0.14306901861E+03  0.48360763386E+02 -0.98240325688E+02  0.18016289605E+03  0.00000000000E+00 0.  1.
         14    1    5    5    0    0 -0.10193687356E+02 -0.15873255036E+02  0.45578872575E+01  0.19407365190E+02  0.00000000000E+00 0. -1.
        -13    1    3    3    0    0 -0.51733181807E+02 -0.68103529803E+02 -0.22307086725E+03  0.23890379798E+03  0.00000000000E+00 0.  1.
         14    1    3    3    0    0 -0.11820626775E+02  0.22689990512E+02 -0.54449106152E+02  0.60160352787E+02  0.00000000000E+00 0. -1.
          5    1    4    4  501    0  0.22064922593E+03 -0.10020059146E+02  0.44654895018E+00  0.22092707370E+03  0.47000000000E+01 0. -1.
         -5    1    4    4    0  501  0.57923131811E+02 -0.77066510192E+02  0.44625701320E+01  0.96624741780E+02  0.47000000000E+01 0. -1.
          1    1    1    2  502    0 -0.73075054733E+02  0.22133054430E+02  0.84558713545E+03  0.84902734901E+03  0.00000000000E+00 0. -1.
          1    1    1    2  503    0  0.11319211544E+02  0.77879545849E+02 -0.20914852137E+04  0.20929653000E+04  0.00000000000E+00 0. -1.
<mgrwt>
<rscale>  0 0.77535319E+02</rscale>
<asrwt>0</asrwt>
<pdfrwt beam="1">  1        2 0.15779320E+00 0.76353361E+02</pdfrwt>
<pdfrwt beam="2">  1        2 0.39488017E+00 0.78735574E+02</pdfrwt>
<totfact> 0.18404480E+01</totfact>
</mgrwt>
</event>
<event>
13    1  0.1589573E-008  0.9434044E+02  0.7546771E-02  0.1334669E+00
          4   -1    0    0  503    0 -0.00000000000E+00  0.00000000000E+00  0.18123342457E+04  0.18123342457E+04  0.00000000000E+00 0. -1.
          2   -1    0    0  502    0  0.00000000000E+00 -0.00000000000E+00 -0.37239935467E+03  0.37239935467E+03  0.00000000000E+00 0. -1.
         24    2    1    2    0    0 -0.21115556450E+03  0.84377047016E+02  0.79131633263E+03  0.82725375278E+03  0.80380810673E+02 0.  0.
         25    2    1    2    0    0  0.90611231499E+02 -0.14903557548E+02 -0.99336373051E+02  0.18418227500E+03  0.12499153616E+03 0.  0.
         24    2    1    2    0    0  0.14688321164E+03 -0.30001389838E+02  0.82417143600E+02  0.18935696781E+03  0.81170896547E+02 0.  0.
        -11    1    3    3    0    0 -0.75815959303E+02  0.73163616748E+02  0.35019285973E+03  0.36569934852E+03  0.00000000000E+00 0.  1.
         12    1    3    3    0    0 -0.13533960519E+03  0.11213430268E+02  0.44112347289E+03  0.46155440426E+03  0.00000000000E+00 0. -1.
        -13    1    5    5    0    0  0.14851481888E+01 -0.16993424112E+02  0.29511561925E+02  0.34086865733E+02  0.00000000000E+00 0.  1.
         14    1    5    5    0    0  0.14539806345E+03 -0.13007965726E+02  0.52905581674E+02  0.15527010208E+03  0.00000000000E+00 0. -1.
          5    1    4    4  501    0  0.20927284997E+02  0.47105207793E+02 -0.68439218122E+02  0.85807158417E+02  0.47000000000E+01 0. -1.
         -5    1    4    4    0  501  0.69683946502E+02 -0.62008765341E+02 -0.30897154928E+02  0.98375116579E+02  0.47000000000E+01 0. -1.
          1    1    1    2  502    0  0.63879626724E+02 -0.94682993921E+01 -0.14977459545E+03  0.16310329501E+03  0.00000000000E+00 0. -1.
          3    1    1    2  503    0 -0.90218505366E+02 -0.30003800237E+02  0.81531238332E+03  0.82083730978E+03  0.00000000000E+00 0. -1.
<mgrwt>
<rscale>  0 0.78053002E+02</rscale>
<asrwt>0</asrwt>
<pdfrwt beam="2">  1        2 0.54764612E-01 0.64577515E+02</pdfrwt>
<pdfrwt beam="1">  1        4 0.26651974E+00 0.94340440E+02</pdfrwt>
<totfact> 0.28788720E+00</totfact>
</mgrwt>
</event>
<event>
13    1  0.1589573E-008  0.7143472E+02  0.7546771E-02  0.1385706E+00
          2   -1    0    0  503    0  0.00000000000E+00  0.00000000000E+00  0.11201585785E+04  0.11201585785E+04  0.00000000000E+00 0. -1.
          2   -1    0    0  502    0 -0.00000000000E+00 -0.00000000000E+00 -0.45582121758E+03  0.45582121758E+03  0.00000000000E+00 0. -1.
         24    2    1    2    0    0 -0.22368254585E+02  0.15646510653E+03 -0.27002628004E+03  0.32324324913E+03  0.81180895673E+02 0.  0.
         25    2    1    2    0    0 -0.56931310754E+02 -0.24202563442E+03  0.79233762348E+03  0.83978561200E+03  0.12499353052E+03 0.  0.
         24    2    1    2    0    0  0.97803791744E+01  0.42040885282E+02 -0.34042788150E+02  0.95865233606E+02  0.78537505290E+02 0.  0.
        -11    1    5    5    0    0 -0.12099530599E+02  0.49807608276E+02  0.38765485521E+01  0.51402569114E+02  0.00000000000E+00 0.  1.
         12    1    5    5    0    0  0.21879909774E+02 -0.77667229941E+01 -0.37919336702E+02  0.44462664492E+02  0.00000000000E+00 0. -1.
        -11    1    3    3    0    0 -0.19715912389E+02  0.90040904329E+02 -0.80434731191E+02  0.12233489950E+03  0.00000000000E+00 0.  1.
         12    1    3    3    0    0 -0.26523421965E+01  0.66424202202E+02 -0.18959154885E+03  0.20090834963E+03  0.00000000000E+00 0. -1.
          5    1    4    4  501    0  0.12666754278E+02 -0.89409597148E+02  0.14360838230E+03  0.16970556913E+03  0.47000000000E+01 0. -1.
         -5    1    4    4    0  501 -0.69598065032E+02 -0.15261603727E+03  0.64872924118E+03  0.67008004287E+03  0.47000000000E+01 0. -1.
          1    1    1    2  502    0  0.70634620210E+02 -0.12008053667E+02 -0.47997244350E+02  0.86239076933E+02  0.00000000000E+00 0. -1.
          1    1    1    2  503    0 -0.11154340451E+01  0.55527696275E+02  0.22406604993E+03  0.23084662436E+03  0.00000000000E+00 0. -1.
<mgrwt>
<rscale>  0 0.62987345E+02</rscale>
<asrwt>0</asrwt>
<pdfrwt beam="1">  1        2 0.16472920E+00 0.55538899E+02</pdfrwt>
<pdfrwt beam="2">  1        2 0.67032532E-01 0.71434720E+02</pdfrwt>
<totfact> 0.29687797E+02</totfact>
</mgrwt>
</event>
<event>
13    1  0.1589573E-008  0.1011526E+03  0.7546771E-02  0.1337947E+00
         -3   -1    0    0    0  501 -0.00000000000E+00  0.00000000000E+00  0.17344038334E+04  0.17344038334E+04  0.00000000000E+00 0.  1.
          2   -1    0    0  503    0  0.00000000000E+00 -0.00000000000E+00 -0.26069602125E+04  0.26069602125E+04  0.00000000000E+00 0. -1.
         24    2    1    2    0    0 -0.27925907416E+03 -0.25162320211E+03  0.32386639389E+03  0.50270342173E+03  0.80755326700E+02 0.  0.
         25    2    1    2    0    0  0.16615417906E+03  0.68078314810E+03 -0.44370075223E+03  0.83879078557E+03  0.12500687365E+03 0.  0.
         24    2    1    2    0    0  0.23656444349E+03 -0.34349549626E+03 -0.40170376139E+03  0.58629502634E+03  0.91782646103E+02 0.  0.
        -13    1    5    5    0    0  0.36195353269E+02 -0.12670295723E+03 -0.11885383094E+03  0.17745415210E+03  0.00000000000E+00 0.  1.
         14    1    5    5    0    0  0.20036909022E+03 -0.21679253903E+03 -0.28284993045E+03  0.40884087424E+03  0.00000000000E+00 0. -1.
        -13    1    3    3    0    0 -0.84634858728E+02 -0.12620580773E+03  0.14608476536E+03  0.21078833907E+03  0.00000000000E+00 0.  1.
         14    1    3    3    0    0 -0.19462421543E+03 -0.12541739438E+03  0.17778162853E+03  0.29191508266E+03  0.00000000000E+00 0. -1.
          5    1    4    4  502    0  0.12259405892E+03  0.38026619123E+03 -0.18708862227E+03  0.44119827976E+03  0.47000000000E+01 0. -1.
         -5    1    4    4    0  502  0.43560120137E+02  0.30051695687E+03 -0.25661212995E+03  0.39759250581E+03  0.47000000000E+01 0. -1.
          1    1    1    2  503    0 -0.94947486924E+02 -0.34544986934E+02 -0.13796171054E+04  0.13833118734E+04  0.00000000000E+00 0. -1.
         -4    1    1    2    0  501 -0.28512061472E+02 -0.51119462805E+02  0.10285988460E+04  0.10302629389E+04  0.00000000000E+00 0.  1.
<mgrwt>
<rscale>  0 0.76946649E+02</rscale>
<asrwt>0</asrwt>
<pdfrwt beam="2">  1        2 0.38337650E+00 0.10115260E+03</pdfrwt>
<pdfrwt beam="1">  1       -3 0.25505939E+00 0.58533214E+02</pdfrwt>
<totfact> 0.23836658E-01</totfact>
</mgrwt>
</event>
<event>
13    1  0.1589573E-008  0.9214109E+02  0.7546771E-02  0.1314231E+00
          2   -1    0    0  503    0  0.00000000000E+00  0.00000000000E+00  0.34188031258E+04  0.34188031258E+04  0.00000000000E+00 0. -1.
          2   -1    0    0  502    0 -0.00000000000E+00 -0.00000000000E+00 -0.29102550521E+03  0.29102550521E+03  0.00000000000E+00 0. -1.
         24    2    1    2    0    0 -0.50150289599E+02 -0.18538354159E+03  0.21231124314E+03  0.29739911135E+03  0.80548484947E+02 0.  0.
         25    2    1    2    0    0  0.18764772956E+02  0.21811291512E+03  0.85091185877E+03  0.88746884502E+03  0.12499839615E+03 0.  0.
         24    2    1    2    0    0  0.31157058873E+02  0.11681072065E+03  0.17709243102E+03  0.22893093551E+03  0.80200606793E+02 0.  0.
        -11    1    5    5    0    0 -0.19749487486E+02  0.27496890597E+02  0.15094562783E+02  0.37067061848E+02  0.00000000000E+00 0.  1.
         12    1    5    5    0    0  0.50906546359E+02  0.89313830053E+02  0.16199786824E+03  0.19186387366E+03  0.00000000000E+00 0. -1.
        -13    1    3    3    0    0  0.20823471065E+02 -0.22935052310E+02  0.31923612101E+02  0.44483149407E+02  0.00000000000E+00 0.  1.
         14    1    3    3    0    0 -0.70973760664E+02 -0.16244848928E+03  0.18038763104E+03  0.25291596194E+03  0.00000000000E+00 0. -1.
          5    1    4    4  501    0  0.70809455754E+02  0.14277384321E+03  0.57672453258E+03  0.59835743984E+03  0.47000000000E+01 0. -1.
         -5    1    4    4    0  501 -0.52044682798E+02  0.75339071904E+02  0.27418732619E+03  0.28911140518E+03  0.47000000000E+01 0. -1.
          1    1    1    2  502    0  0.41532318898E+02 -0.81886786986E+02 -0.19317391718E+03  0.21388441195E+03  0.00000000000E+00 0. -1.
          1    1    1    2  503    0 -0.41303861128E+02 -0.67653307192E+02  0.20806360049E+04  0.20821453272E+04  0.00000000000E+00 0. -1.
<mgrwt>
<rscale>  0 0.85461019E+02</rscale>
<asrwt>0</asrwt>
<pdfrwt beam="1">  1        2 0.50276514E+00 0.79265244E+02</pdfrwt>
<pdfrwt beam="2">  1        2 0.42797870E-01 0.92141087E+02</pdfrwt>
<totfact> 0.32247511E+01</totfact>
</mgrwt>
</event>
<event>
13    1  0.1589573E-008  0.4939867E+02  0.7546771E-02  0.1509456E+00
          2   -1    0    0  502    0  0.00000000000E+00  0.00000000000E+00  0.26157427972E+04  0.26157427972E+04  0.00000000000E+00 0. -1.
          2   -1    0    0  503    0 -0.00000000000E+00 -0.00000000000E+00 -0.97882983755E+03  0.97882983755E+03  0.00000000000E+00 0. -1.
         24    2    1    2    0    0 -0.47798280274E+02 -0.12291930638E+03 -0.43433013795E+03  0.46082405622E+03  0.79512958544E+02 0.  0.
         25    2    1    2    0    0  0.58980357749E+02  0.19960559866E+03  0.27274462421E+03  0.36515408829E+03  0.12500720197E+03 0.  0.
         24    2    1    2    0    0  0.17874600668E+02 -0.38254085431E+02 -0.23882197864E+03  0.25530894282E+03  0.79773694910E+02 0.  0.
        -11    1    5    5    0    0 -0.17630668144E+02  0.14357724302E+02 -0.34196741700E+02  0.41065823372E+02  0.00000000000E+00 0.  1.
         12    1    5    5    0    0  0.35505268812E+02 -0.52611809733E+02 -0.20462523694E+03  0.21424311945E+03  0.00000000000E+00 0. -1.
        -11    1    3    3    0    0 -0.10992245791E+02 -0.35074595997E+02 -0.36683332659E+02  0.51929987935E+02  0.00000000000E+00 0.  1.
         12    1    3    3    0    0 -0.36806034483E+02 -0.87844710382E+02 -0.39764680530E+03  0.40889406828E+03  0.00000000000E+00 0. -1.
          5    1    4    4  501    0  0.66428365443E+02  0.16180833579E+03  0.13207006674E+03  0.21922421809E+03  0.47000000000E+01 0.  1.
         -5    1    4    4    0  501 -0.74480076946E+01  0.37797262871E+02  0.14067455747E+03  0.14592987020E+03  0.47000000000E+01 0.  1.
          1    1    1    2  502    0 -0.47828540262E+02 -0.12372383504E+02  0.22739498969E+04  0.22744864868E+04  0.00000000000E+00 0. -1.
          1    1    1    2  503    0  0.18771862120E+02 -0.26059823346E+02 -0.23662944483E+03  0.23879906063E+03  0.00000000000E+00 0. -1.
<mgrwt>
<rscale>  0 0.39831315E+02</rscale>
<asrwt>0</asrwt>
<pdfrwt beam="1">  1        2 0.38466806E+00 0.49398671E+02</pdfrwt>
<pdfrwt beam="2">  1        2 0.14394556E+00 0.32116930E+02</pdfrwt>
<totfact> 0.25109813E+01</totfact>
</mgrwt>
</event>
<event>
13    1  0.1589573E-008  0.1284313E+03  0.7546771E-02  0.1440163E+00
          2   -1    0    0  502    0  0.00000000000E+00  0.00000000000E+00  0.27856983486E+04  0.27856983486E+04  0.00000000000E+00 0. -1.
          2   -1    0    0  503    0 -0.00000000000E+00 -0.00000000000E+00 -0.13317836050E+04  0.13317836050E+04  0.00000000000E+00 0. -1.
         24    2    1    2    0    0  0.33303198317E+02  0.22483934314E+03 -0.79773230346E+03  0.83349049081E+03  0.81656212519E+02 0.  0.
         25    2    1    2    0    0 -0.48396326363E+02 -0.15661257576E+03  0.17732341902E+04  0.17851760757E+04  0.12499769854E+03 0.  0.
         24    2    1    2    0    0  0.43442361691E+02  0.37859491099E+02  0.25470832437E+03  0.27346365433E+03  0.81150846441E+02 0.  0.
        -11    1    3    3    0    0 -0.84118827130E+01 -0.34172797008E+01 -0.40454729266E+02  0.41461098530E+02  0.00000000000E+00 0.  1.
         12    1    3    3    0    0  0.41715081030E+02  0.22825662284E+03 -0.75727757420E+03  0.79202939228E+03  0.00000000000E+00 0. -1.
        -11    1    5    5    0    0  0.69705475647E+00  0.12117899245E+02 -0.16901027770E+01  0.12255032225E+02  0.00000000000E+00 0.  1.
         12    1    5    5    0    0  0.42745306935E+02  0.25741591854E+02  0.25639842715E+03  0.26120862210E+03  0.00000000000E+00 0. -1.
          5    1    4    4  501    0  0.25750817946E+02 -0.17252558120E+02  0.66581305489E+03  0.66655072534E+03  0.47000000000E+01 0.  1.
         -5    1    4    4    0  501 -0.74147144309E+02 -0.13936001764E+03  0.11074211353E+04  0.11186253503E+04  0.47000000000E+01 0.  1.
          1    1    1    2  502    0  0.12270778020E+02  0.16084345764E+02  0.71610872602E+03  0.71639443441E+03  0.00000000000E+00 0. -1.
          1    1    1    2  503    0 -0.40620011666E+02 -0.12217060424E+03 -0.49240419346E+03  0.50895729843E+03  0.00000000000E+00 0. -1.
<mgrwt>
<rscale>  0 0.50972982E+02</rscale>
<asrwt>0</asrwt>
<pdfrwt beam="1">  1        2 0.40966152E+00 0.20230625E+02</pdfrwt>
<pdfrwt beam="2">  1        2 0.19585053E+00 0.12843128E+03</pdfrwt>
<totfact> 0.14436495E+01</totfact>
</mgrwt>
</event>
<event>
13    1  0.1589573E-008  0.1117747E+03  0.7546771E-02  0.1334242E+00
         -1   -1    0    0    0  501 -0.00000000000E+00  0.00000000000E+00  0.53474815836E+03  0.53474815836E+03  0.00000000000E+00 0.  1.
          2   -1    0    0  503    0  0.00000000000E+00 -0.00000000000E+00 -0.17291388162E+04  0.17291388162E+04  0.00000000000E+00 0. -1.
         24    2    1    2    0    0 -0.11151817573E+03 -0.76064549936E+02  0.41755980406E+02  0.16139351568E+03  0.77988369190E+02 0.  0.
         25    2    1    2    0    0  0.83529469547E+02  0.13966325940E+03 -0.67248251270E+03  0.70309452865E+03  0.12500475201E+03 0.  0.
         24    2    1    2    0    0  0.14329589626E+03 -0.64188206294E+02  0.90470532479E+01  0.17638024881E+03  0.79839234008E+02 0.  0.
        -13    1    5    5    0    0  0.14368372177E+03 -0.58059948650E+02 -0.11051661424E+02  0.15536443853E+03  0.00000000000E+00 0.  1.
         14    1    5    5    0    0 -0.38782551322E+00 -0.61282576441E+01  0.20098714672E+02  0.21015810283E+02  0.00000000000E+00 0. -1.
        -13    1    3    3    0    0 -0.96635226566E+02 -0.81630109388E+02  0.57563842161E+02  0.13897999027E+03  0.00000000000E+00 0.  1.
         14    1    3    3    0    0 -0.14882949160E+02  0.55655594527E+01 -0.15807861756E+02  0.22413525403E+02  0.00000000000E+00 0. -1.
          5    1    4    4  502    0  0.31173354777E+02 -0.96641168788E+01 -0.24558427268E+03  0.24778801059E+03  0.47000000000E+01 0.  1.
         -5    1    4    4    0  502  0.52356114770E+02  0.14932737628E+03 -0.42689824001E+03  0.45530651806E+03  0.47000000000E+01 0.  1.
          1    1    1    2  503    0 -0.16082684066E+02  0.52291534580E+02 -0.88737235011E+03  0.88905722260E+03  0.00000000000E+00 0. -1.
         -2    1    1    2    0  501 -0.99224506016E+02 -0.51702037750E+02  0.31466117127E+03  0.33396145886E+03  0.00000000000E+00 0.  1.
<mgrwt>
<rscale>  0 0.78198859E+02</rscale>
<asrwt>0</asrwt>
<pdfrwt beam="2">  1        2 0.25428511E+00 0.54708841E+02</pdfrwt>
<pdfrwt beam="1">  1       -1 0.78639437E-01 0.11177465E+03</pdfrwt>
<totfact> 0.26198468E+01</totfact>
</mgrwt>
</event>
<event>
13    1  0.1589573E-008  0.8713266E+02  0.7546771E-02  0.1387900E+00
          2   -1    0    0  503    0  0.00000000000E+00  0.00000000000E+00  0.31880742128E+04  0.31880742128E+04  0.00000000000E+00 0. -1.
          2   -1    0    0  502    0 -0.00000000000E+00 -0.00000000000E+00 -0.31086845421E+04  0.31086845421E+04  0.00000000000E+00 0. -1.
         24    2    1    2    0    0 -0.10179819512E+03 -0.11254978403E+03 -0.93133183898E+02  0.19316871730E+03  0.74900180150E+02 0.  0.
         25    2    1    2    0    0  0.21684814086E+03  0.17424000407E+03  0.44556742131E+03  0.53994223099E+03  0.12499836266E+03 0.  0.
         24    2    1    2    0    0 -0.47000980809E+02  0.33414009894E+02 -0.43364361857E+03  0.44464671062E+03  0.79613573515E+02 0.  0.
        -13    1    3    3    0    0 -0.21585807514E+02 -0.58389307697E+02 -0.53108867115E+01  0.62477706880E+02  0.00000000000E+00 0.  1.
         14    1    3    3    0    0 -0.80212387608E+02 -0.54160476333E+02 -0.87822297186E+02  0.13069101042E+03  0.00000000000E+00 0. -1.
        -13    1    5    5    0    0  0.37067177748E+00  0.21980582733E+02 -0.25773134912E+02  0.33875328752E+02  0.00000000000E+00 0.  1.
         14    1    5    5    0    0 -0.47371652587E+02  0.11433427161E+02 -0.40787048366E+03  0.41077138187E+03  0.00000000000E+00 0. -1.
          5    1    4    4  501    0  0.20129307930E+03  0.16057147059E+03  0.31136219722E+03  0.40406757950E+03  0.47000000000E+01 0. -1.
         -5    1    4    4    0  501  0.15555061558E+02  0.13668533477E+02  0.13420522409E+03  0.13587465150E+03  0.47000000000E+01 0. -1.
          1    1    1    2  502    0 -0.24852209706E+02 -0.83479141760E+02 -0.24782463914E+04  0.24797765174E+04  0.00000000000E+00 0. -1.
          1    1    1    2  503    0 -0.43196755222E+02 -0.11625088170E+02  0.26388454433E+04  0.26392245785E+04  0.00000000000E+00 0. -1.
<mgrwt>
<rscale>  0 0.62432080E+02</rscale>
<asrwt>0</asrwt>
<pdfrwt beam="1">  1        2 0.46883444E+00 0.44733682E+02</pdfrwt>
<pdfrwt beam="2">  1        2 0.45715949E+00 0.87132656E+02</pdfrwt>
<totfact> 0.10592221E+00</totfact>
</mgrwt>
</event>
<event>
13    1  0.1589573E-008  0.2843962E+03  0.7546771E-02  0.1268979E+00
          2   -1    0    0  503    0  0.00000000000E+00  0.00000000000E+00  0.31947694022E+04  0.31947694022E+04  0.00000000000E+00 0. -1.
          2   -1    0    0  502    0 -0.00000000000E+00 -0.00000000000E+00 -0.38474455604E+04  0.38474455604E+04  0.00000000000E+00 0. -1.
         24    2    1    2    0    0  0.88116369816E+03 -0.84214824103E+03 -0.12252591580E+04  0.17299819322E+04  0.76904867406E+02 0.  0.
         25    2    1    2    0    0 -0.12258000658E+04  0.36909285517E+03 -0.15746561105E+03  0.12958529709E+04  0.12499666623E+03 0.  0.
         24    2    1    2    0    0  0.99677055511E+02  0.45504155856E+03  0.34393235771E+03  0.58856482490E+03  0.10545497152E+03 0.  0.
        -11    1    5    5    0    0 -0.20585759471E+02  0.98438253159E+02  0.59690531903E+02  0.11694794901E+03  0.00000000000E+00 0.  1.
         12    1    5    5    0    0  0.12026281498E+03  0.35660330540E+03  0.28424182581E+03  0.47161687589E+03  0.00000000000E+00 0. -1.
        -13    1    3    3    0    0  0.60261258311E+03 -0.61018619381E+03 -0.82541471094E+03  0.11902850757E+04  0.00000000000E+00 0.  1.
         14    1    3    3    0    0  0.27855111505E+03 -0.23196204723E+03 -0.39984444709E+03  0.53969685650E+03  0.00000000000E+00 0. -1.
          5    1    4    4  501    0 -0.30482409562E+03  0.14635214044E+03 -0.57985692793E+02  0.34310509884E+03  0.47000000000E+01 0. -1.
         -5    1    4    4    0  501 -0.92097597017E+03  0.22274071473E+03 -0.99479918257E+02  0.95274787209E+03  0.47000000000E+01 0. -1.
          1    1    1    2  502    0 -0.39153614996E+02  0.18324366931E+01 -0.15099771458E+04  0.15104857974E+04  0.00000000000E+00 0. -1.
          1    1    1    2  503    0  0.28411292712E+03  0.16181390608E+02  0.18960933989E+04  0.19173294371E+04  0.00000000000E+00 0. -1.
<mgrwt>
<rscale>  0 0.10558091E+03</rscale>
<asrwt>0</asrwt>
<pdfrwt beam="1">  1        2 0.46981903E+00 0.28439624E+03</pdfrwt>
<pdfrwt beam="2">  1        2 0.56580081E+00 0.39196472E+02</pdfrwt>
<totfact> 0.34123251E-01</totfact>
</mgrwt>
</event>
<event>
13    1  0.1589573E-008  0.5060701E+02  0.7546771E-02  0.1494080E+00
          2   -1    0    0  502    0  0.00000000000E+00  0.00000000000E+00  0.19373450997E+04  0.19373450997E+04  0.00000000000E+00 0. -1.
          2   -1    0    0  503    0 -0.00000000000E+00 -0.00000000000E+00 -0.67336163632E+03  0.67336163632E+03  0.00000000000E+00 0. -1.
         24    2    1    2    0    0 -0.10573664827E+03 -0.72264627415E+02 -0.35674521110E+03  0.38726046295E+03  0.79379502146E+02 0.  0.
         25    2    1    2    0    0  0.26327779031E+02  0.12823178005E+03 -0.14052217023E+03  0.22914587897E+03  0.12499924864E+03 0.  0.
         24    2    1    2    0    0  0.22884914274E+02 -0.93513331685E+02  0.20519659209E+03  0.24112470995E+03  0.82261910035E+02 0.  0.
        -13    1    3    3    0    0 -0.37959275880E+02 -0.69112903357E+02 -0.23511687433E+03  0.24798678318E+03  0.00000000000E+00 0.  1.
         14    1    3    3    0    0 -0.67777372393E+02 -0.31517240582E+01 -0.12162833677E+03  0.13927367977E+03  0.00000000000E+00 0. -1.
        -13    1    5    5    0    0  0.53371180163E+01  0.95327333543E+01  0.66806591520E+02  0.67694006415E+02  0.00000000000E+00 0.  1.
         14    1    5    5    0    0  0.17547796258E+02 -0.10304606504E+03  0.13839000057E+03  0.17343070354E+03  0.00000000000E+00 0. -1.
          5    1    4    4  501    0 -0.68576862040E+01  0.10741425393E+03 -0.15356745923E+03  0.18758972344E+03  0.47000000000E+01 0. -1.
         -5    1    4    4    0  501  0.33185465235E+02  0.20817526119E+02  0.13045289006E+02  0.41556155523E+02  0.47000000000E+01 0. -1.
          1    1    1    2  502    0  0.34005155156E+02 -0.75580479261E+01  0.16479723388E+04  0.16483404697E+04  0.00000000000E+00 0. -1.
          1    1    1    2  503    0  0.22518799812E+02  0.45104226980E+02 -0.91918086135E+02  0.10483521448E+03  0.00000000000E+00 0. -1.
<mgrwt>
<rscale>  0 0.41986825E+02</rscale>
<asrwt>0</asrwt>
<pdfrwt beam="1">  1        2 0.28490369E+00 0.34834963E+02</pdfrwt>
<pdfrwt beam="2">  1        2 0.99023770E-01 0.50607014E+02</pdfrwt>
<totfact> 0.83011500E+01</totfact>
</mgrwt>
</event>
<event>
13    1  0.1589573E-008  0.1491442E+03  0.7546771E-02  0.1359044E+00
         -1   -1    0    0    0  501 -0.00000000000E+00  0.00000000000E+00  0.26150294079E+03  0.26150294079E+03  0.00000000000E+00 0.  1.
          2   -1    0    0  503    0  0.00000000000E+00 -0.00000000000E+00 -0.27551497882E+04  0.27551497882E+04  0.00000000000E+00 0. -1.
         24    2    1    2    0    0 -0.14372597483E+03 -0.36403127154E+03 -0.85568133960E+03  0.94441870896E+03  0.80995187524E+02 0.  0.
         25    2    1    2    0    0  0.31289081218E+03  0.35347631602E+03 -0.10364376009E+04  0.11457197339E+04  0.12499856691E+03 0.  0.
         24    2    1    2    0    0 -0.61653974027E+02 -0.10115938136E+03 -0.11318781619E+03  0.18232627921E+03  0.79980981521E+02 0.  0.
        -13    1    5    5    0    0 -0.27007715267E+02  0.50672707369E+01 -0.40807852188E+02  0.49197303959E+02  0.00000000000E+00 0.  1.
         14    1    5    5    0    0 -0.34646258761E+02 -0.10622665209E+03 -0.72379964004E+02  0.13312897525E+03  0.00000000000E+00 0. -1.
        -13    1    3    3    0    0  0.81710311147E+01 -0.51691744139E+02 -0.10888834007E+03  0.12081172445E+03  0.00000000000E+00 0.  1.
         14    1    3    3    0    0 -0.15189700594E+03 -0.31233952740E+03 -0.74679299952E+03  0.82360698451E+03  0.00000000000E+00 0. -1.
          5    1    4    4  502    0  0.15360185469E+03  0.24109028629E+03 -0.51540010712E+03  0.58938732284E+03  0.47000000000E+01 0. -1.
         -5    1    4    4    0  502  0.15928895749E+03  0.11238602973E+03 -0.52103749376E+03  0.55633241103E+03  0.47000000000E+01 0. -1.
          1    1    1    2  503    0 -0.12400738983E+03  0.82965937095E+02 -0.60488863337E+03  0.62301800795E+03  0.00000000000E+00 0. -1.
         -2    1    1    2    0  501  0.16496526507E+02  0.28748399782E+02  0.11654854261E+03  0.12116999901E+03  0.00000000000E+00 0.  1.
<mgrwt>
<rscale>  0 0.70309455E+02</rscale>
<asrwt>0</asrwt>
<pdfrwt beam="2">  1        2 0.40516907E+00 0.14914424E+03</pdfrwt>
<pdfrwt beam="1">  1       -1 0.38456317E-01 0.33145224E+02</pdfrwt>
<totfact> 0.27497758E+01</totfact>
</mgrwt>
</event>
<event>
13    1  0.1589573E-008  0.6050355E+02  0.7546771E-02  0.1516504E+00
         -1   -1    0    0    0  501 -0.00000000000E+00  0.00000000000E+00  0.95091479693E+03  0.95091479693E+03  0.00000000000E+00 0.  1.
          2   -1    0    0  503    0  0.00000000000E+00 -0.00000000000E+00 -0.15671025986E+04  0.15671025986E+04  0.00000000000E+00 0. -1.
         24    2    1    2    0    0 -0.90958236884E+02 -0.17609612284E+03  0.19937319308E+03  0.29255252470E+03  0.80957175443E+02 0.  0.
         25    2    1    2    0    0 -0.88815442862E+02  0.16258166728E+03 -0.50203574563E+03  0.54953529381E+03  0.12501267066E+03 0.  0.
         24    2    1    2    0    0  0.11488502747E+03 -0.30920519697E+02  0.12557616638E+03  0.20106083131E+03  0.10247651560E+03 0.  0.
        -11    1    5    5    0    0  0.99761177865E+02 -0.60607799869E+02  0.11976517213E+03  0.16724022982E+03  0.00000000000E+00 0.  1.
         12    1    5    5    0    0  0.15123849601E+02  0.29687280172E+02  0.58109942442E+01  0.33820601486E+02  0.00000000000E+00 0. -1.
        -11    1    3    3    0    0 -0.33497794492E+02 -0.10711353438E+03  0.61361082896E+02  0.12790853754E+03  0.00000000000E+00 0.  1.
         12    1    3    3    0    0 -0.57460442391E+02 -0.68982588464E+02  0.13801211018E+03  0.16464398716E+03  0.00000000000E+00 0. -1.
          5    1    4    4  502    0 -0.38908090096E+02 -0.12389099799E+02 -0.80584378059E+02  0.90461379913E+02  0.47000000000E+01 0. -1.
         -5    1    4    4    0  502 -0.49907352766E+02  0.17497076708E+03 -0.42145136757E+03  0.45907391390E+03  0.47000000000E+01 0. -1.
          1    1    1    2  503    0  0.24984464494E+02 -0.98348419884E+00 -0.95505641853E+03  0.95538366811E+03  0.00000000000E+00 0. -1.
         -2    1    1    2    0  501  0.39904187785E+02  0.45418459457E+02  0.51595500306E+03  0.51948507759E+03  0.00000000000E+00 0.  1.
<mgrwt>
<rscale>  0 0.38894982E+02</rscale>
<asrwt>0</asrwt>
<pdfrwt beam="2">  1        2 0.23045626E+00 0.25003814E+02</pdfrwt>
<pdfrwt beam="1">  1       -1 0.13984041E+00 0.60503553E+02</pdfrwt>
<totfact> 0.96129098E+00</totfact>
</mgrwt>
</event>
<event>
13    1  0.1589573E-008  0.1290208E+03  0.7546771E-02  0.1267636E+00
          2   -1    0    0  502    0  0.00000000000E+00  0.00000000000E+00  0.99025539247E+03  0.99025539247E+03  0.00000000000E+00 0. -1.
          2   -1    0    0  503    0 -0.00000000000E+00 -0.00000000000E+00 -0.16067419649E+04  0.16067419649E+04  0.00000000000E+00 0. -1.
         24    2    1    2    0    0 -0.20556499434E+02  0.12415591072E+03 -0.34266537645E+02  0.15345655187E+03  0.80854547648E+02 0.  0.
         25    2    1    2    0    0  0.14383926739E+03 -0.12135251710E+03  0.11801205823E+03  0.25488877460E+03  0.12500109312E+03 0.  0.
         24    2    1    2    0    0  0.46073094214E+02 -0.81597183808E+02  0.99841563872E+02  0.15773001842E+03  0.78291700828E+02 0.  0.
        -11    1    3    3    0    0  0.90552012458E+01  0.75462993358E+02 -0.53903232676E+02  0.93178423087E+02  0.00000000000E+00 0.  1.
         12    1    3    3    0    0 -0.29611700680E+02  0.48692917358E+02  0.19636695030E+02  0.60278128784E+02  0.00000000000E+00 0. -1.
        -13    1    5    5    0    0  0.37334847063E+02 -0.96634442346E+02  0.92389235563E+02  0.13880877890E+03  0.00000000000E+00 0.  1.
         14    1    5    5    0    0  0.87382471501E+01  0.15037258538E+02  0.74523283096E+01  0.18921239517E+02  0.00000000000E+00 0. -1.
          5    1    4    4  501    0  0.11708793271E+03 -0.14581862292E+03  0.84391995172E+02  0.20522366731E+03  0.47000000000E+01 0. -1.
         -5    1    4    4    0  501  0.26751334685E+02  0.24466105827E+02  0.33620063056E+02  0.49665107286E+02  0.47000000000E+01 0. -1.
          1    1    1    2  502    0 -0.85251097911E+02 -0.19854280653E+02  0.60932197796E+03  0.61557713975E+03  0.00000000000E+00 0. -1.
          1    1    1    2  503    0 -0.84104764260E+02  0.98648070840E+02 -0.14093956348E+04  0.14153448727E+04  0.00000000000E+00 0. -1.
<mgrwt>
<rscale>  0 0.10627095E+03</rscale>
<asrwt>0</asrwt>
<pdfrwt beam="1">  1        2 0.14562579E+00 0.87532521E+02</pdfrwt>
<pdfrwt beam="2">  1        2 0.23628558E+00 0.12902079E+03</pdfrwt>
<totfact> 0.64802931E+01</totfact>
</mgrwt>
</event>
<event>
13    1  0.1589573E-008  0.8838525E+02  0.7546771E-02  0.1334220E+00
          2   -1    0    0  503    0  0.00000000000E+00  0.00000000000E+00  0.25838447284E+04  0.25838447284E+04  0.00000000000E+00 0. -1.
          2   -1    0    0  502    0 -0.00000000000E+00 -0.00000000000E+00 -0.30451195389E+04  0.30451195389E+04  0.00000000000E+00 0. -1.
         24    2    1    2    0    0 -0.72436450227E+03  0.44705459703E+03 -0.10022039139E+04  0.13182132008E+04  0.93336020859E+02 0.  0.
         25    2    1    2    0    0  0.13997840111E+03 -0.48297884151E+03 -0.16775784384E+02  0.51842852392E+03  0.12499677335E+03 0.  0.
         24    2    1    2    0    0  0.63941700311E+03 -0.52355789449E+02  0.11677535826E+03  0.65896572998E+03  0.94890022823E+02 0.  0.
        -11    1    5    5    0    0  0.37356780013E+03 -0.88144817681E+01  0.10985661370E+03  0.38948565051E+03  0.00000000000E+00 0.  1.
         12    1    5    5    0    0  0.26584920298E+03 -0.43541307681E+02  0.69187445520E+01  0.26948007946E+03  0.00000000000E+00 0. -1.
        -13    1    3    3    0    0 -0.33810729899E+03  0.19938256417E+03 -0.53309870494E+03  0.66201524283E+03  0.00000000000E+00 0.  1.
         14    1    3    3    0    0 -0.38625720328E+03  0.24767203286E+03 -0.46910520899E+03  0.65619795797E+03  0.00000000000E+00 0. -1.
          5    1    4    4  501    0  0.15640173873E+03 -0.45970649275E+03 -0.30295568218E+02  0.48655058812E+03  0.47000000000E+01 0. -1.
         -5    1    4    4    0  501 -0.16423337621E+02 -0.23272348768E+02  0.13519783834E+02  0.31877935798E+02  0.47000000000E+01 0. -1.
          1    1    1    2  502    0  0.14161532217E+02  0.87261842936E+02 -0.13440911758E+04  0.13469952736E+04  0.00000000000E+00 0. -1.
          1    1    1    2  503    0 -0.69192434169E+02  0.10181909987E+01  0.17850207053E+04  0.17863615390E+04  0.00000000000E+00 0. -1.
<mgrwt>
<rscale>  0 0.78206474E+02</rscale>
<asrwt>0</asrwt>
<pdfrwt beam="1">  1        2 0.37997717E+00 0.69199925E+02</pdfrwt>
<pdfrwt beam="2">  1        2 0.44781170E+00 0.88385248E+02</pdfrwt>
<totfact> 0.21695843E+00</totfact>
</mgrwt>
</event>
<event>
13    1  0.1589573E-008  0.9570922E+02  0.7546771E-02  0.1307793E+00
         -3   -1    0    0    0  501 -0.00000000000E+00  0.00000000000E+00  0.61327653258E+03  0.61327653258E+03  0.00000000000E+00 0.  1.
          2   -1    0    0  503    0  0.00000000000E+00 -0.00000000000E+00 -0.15491623998E+04  0.15491623998E+04  0.00000000000E+00 0. -1.
         24    2    1    2    0    0  0.31575839109E+02 -0.13495552209E+02  0.13621051009E+03  0.16143940855E+03  0.79562654744E+02 0.  0.
         25    2    1    2    0    0 -0.36206130771E+02 -0.23249459741E+03 -0.12944651433E+03  0.29621750307E+03  0.12499514921E+03 0.  0.
         24    2    1    2    0    0  0.23466278038E+02  0.76863469876E+02 -0.44789099809E+01  0.11248211132E+03  0.78571658542E+02 0.  0.
        -11    1    5    5    0    0  0.26662366929E+02 -0.61396508244E+01 -0.10250309198E+02  0.29217220285E+02  0.00000000000E+00 0.  1.
         12    1    5    5    0    0 -0.31960888914E+01  0.83003120701E+02  0.57713992166E+01  0.83264891036E+02  0.00000000000E+00 0. -1.
        -13    1    3    3    0    0  0.56540121190E+02 -0.24556746319E+00  0.10555025480E+03  0.11974014321E+03  0.00000000000E+00 0.  1.
         14    1    3    3    0    0 -0.24964282082E+02 -0.13249984746E+02  0.30660255287E+02  0.41699265340E+02  0.00000000000E+00 0. -1.
          5    1    4    4  502    0 -0.46374353617E+02 -0.19355216044E+03 -0.47310750882E+02  0.20462995048E+03  0.47000000000E+01 0. -1.
         -5    1    4    4    0  502  0.10168222846E+02 -0.38942436963E+02 -0.82135763447E+02  0.91587552590E+02  0.47000000000E+01 0. -1.
          1    1    1    2  503    0  0.46309492288E+02  0.66326864473E+02 -0.12525636347E+04  0.12551730881E+04  0.00000000000E+00 0. -1.
         -4    1    1    2    0  501 -0.65145478663E+02  0.10279981527E+03  0.31439268168E+03  0.33712682139E+03  0.00000000000E+00 0.  1.
<mgrwt>
<rscale>  0 0.87990294E+02</rscale>
<asrwt>0</asrwt>
<pdfrwt beam="2">  1        2 0.22781800E+00 0.80893894E+02</pdfrwt>
<pdfrwt beam="1">  1       -3 0.90187725E-01 0.95709224E+02</pdfrwt>
<totfact> 0.10744103E+01</totfact>
</mgrwt>
</event>
<event>
13    1  0.1589573E-008  0.8087044E+02  0.7546771E-02  0.1473842E+00
          2   -1    0    0  503    0  0.00000000000E+00  0.00000000000E+00  0.25866618702E+04  0.25866618702E+04  0.00000000000E+00 0. -1.
          2   -1    0    0  502    0 -0.00000000000E+00 -0.00000000000E+00 -0.26242823365E+04  0.26242823365E+04  0.00000000000E+00 0. -1.
         24    2    1    2    0    0  0.49409706806E+03  0.30506527884E+03  0.15892097318E+03  0.60466393730E+03  0.56266014074E+02 0.  0.
         25    2    1    2    0    0 -0.61679500077E+03 -0.25835506641E+03 -0.43699286215E+03  0.80856079389E+03  0.12499753015E+03 0.  0.
         24    2    1    2    0    0  0.19639891948E+03 -0.12240326267E+03  0.60537807602E+02  0.25339368509E+03  0.83596885178E+02 0.  0.
        -11    1    3    3    0    0  0.23377561778E+03  0.16381775731E+03  0.54452068763E+02  0.29060682179E+03  0.00000000000E+00 0.  1.
         12    1    3    3    0    0  0.26032145028E+03  0.14124752152E+03  0.10446890441E+03  0.31405711551E+03  0.00000000000E+00 0. -1.
        -13    1    5    5    0    0  0.94673152298E+02 -0.53203530303E+02 -0.14073099073E+02  0.10950649990E+03  0.00000000000E+00 0.  1.
         14    1    5    5    0    0  0.10172576718E+03 -0.69199732369E+02  0.74610906675E+02  0.14388718520E+03  0.00000000000E+00 0. -1.
          5    1    4    4  501    0 -0.35607801414E+03 -0.14537493871E+03 -0.17707856231E+03  0.42344342266E+03  0.47000000000E+01 0.  1.
         -5    1    4    4    0  501 -0.26071698662E+03 -0.11298012770E+03 -0.25991429984E+03  0.38511737124E+03  0.47000000000E+01 0.  1.
          1    1    1    2  502    0 -0.58844662040E+02  0.55425483928E+02 -0.16811500669E+04  0.16830924592E+04  0.00000000000E+00 0. -1.
          1    1    1    2  503    0 -0.14856324731E+02  0.20267566316E+02  0.18610636820E+04  0.18612333312E+04  0.00000000000E+00 0. -1.
<mgrwt>
<rscale>  0 0.45080175E+02</rscale>
<asrwt>0</asrwt>
<pdfrwt beam="1">  1        2 0.38039145E+00 0.25129358E+02</pdfrwt>
<pdfrwt beam="2">  1        2 0.38592387E+00 0.80870437E+02</pdfrwt>
<totfact> 0.42082939E+00</totfact>
</mgrwt>
</event>
<event>
13    1  0.1589573E-008  0.9506071E+02  0.7546771E-02  0.1398160E+00
          4   -1    0    0  503    0 -0.00000000000E+00  0.00000000000E+00  0.25447520270E+04  0.25447520270E+04  0.00000000000E+00 0. -1.
          2   -1    0    0  502    0  0.00000000000E+00 -0.00000000000E+00 -0.23079467766E+04  0.23079467766E+04  0.00000000000E+00 0. -1.
         24    2    1    2    0    0 -0.13866921309E+03  0.69481198983E+02 -0.66713463634E+01  0.17443079850E+03  0.79528667364E+02 0.  0.
         25    2    1    2    0    0  0.12635195279E+03 -0.18987830681E+03 -0.63771616141E+03  0.68871654507E+03  0.12501995663E+03 0.  0.
         24    2    1    2    0    0 -0.14483945881E+02  0.20332978872E+03 -0.13145054891E+03  0.25567381349E+03  0.80852114568E+02 0.  0.
        -11    1    5    5    0    0  0.17628748037E+02  0.16143371906E+03 -0.11930403718E+03  0.20150700160E+03  0.00000000000E+00 0.  1.
         12    1    5    5    0    0 -0.32112693918E+02  0.41896069661E+02 -0.12146511727E+02  0.54166811894E+02  0.00000000000E+00 0. -1.
        -11    1    3    3    0    0 -0.44910031806E+02  0.60904902140E+02 -0.22527235372E+02  0.78954381734E+02  0.00000000000E+00 0.  1.
         12    1    3    3    0    0 -0.93759181284E+02  0.85762968425E+01  0.15855889008E+02  0.95476416768E+02  0.00000000000E+00 0. -1.
          5    1    4    4  501    0  0.58114889704E+02 -0.31843008275E+02 -0.74762129840E+02  0.10001391723E+03  0.47000000000E+01 0. -1.
         -5    1    4    4    0  501  0.68237063084E+02 -0.15803529853E+03 -0.56295403157E+03  0.58870262784E+03  0.47000000000E+01 0. -1.
          1    1    1    2  502    0  0.35912383222E+02  0.11705612809E+02 -0.13594025196E+04  0.13599271785E+04  0.00000000000E+00 0. -1.
          3    1    1    2  503    0 -0.91111770399E+01 -0.94638293699E+02  0.23720458268E+04  0.23739504680E+04  0.00000000000E+00 0. -1.
<mgrwt>
<rscale>  0 0.59921858E+02</rscale>
<asrwt>0</asrwt>
<pdfrwt beam="2">  1        2 0.33940394E+00 0.37771956E+02</pdfrwt>
<pdfrwt beam="1">  1        4 0.37422824E+00 0.95060714E+02</pdfrwt>
<totfact> 0.54980862E-02</totfact>
</mgrwt>
</event>
<event>
13    1  0.1589573E-008  0.1492788E+03  0.7546771E-02  0.1335756E+00
          2   -1    0    0  503    0  0.00000000000E+00  0.00000000000E+00  0.13182873689E+04  0.13182873689E+04  0.00000000000E+00 0. -1.
          2   -1    0    0  502    0 -0.00000000000E+00 -0.00000000000E+00 -0.15772583236E+04  0.15772583236E+04  0.00000000000E+00 0. -1.
         24    2    1    2    0    0  0.76694175270E+02  0.21738334865E+03 -0.36063117728E+03  0.43582547626E+03  0.82167407999E+02 0.  0.
         25    2    1    2    0    0  0.15681255405E+02  0.88054559917E+02  0.32000485720E+03  0.35500166390E+03  0.12499426167E+03 0.  0.
         24    2    1    2    0    0  0.86421659494E+01 -0.25532312600E+02 -0.15136622662E+03  0.17373639784E+03  0.80907449309E+02 0.  0.
        -11    1    3    3    0    0 -0.14255827311E+02  0.66730963529E+02 -0.11369772077E+03  0.13260249550E+03  0.00000000000E+00 0.  1.
         12    1    3    3    0    0  0.90950002581E+02  0.15065238512E+03 -0.24693345652E+03  0.30322298075E+03  0.00000000000E+00 0. -1.
        -11    1    5    5    0    0  0.21823540849E+02  0.24751535463E+02 -0.65969574135E+02  0.73762389837E+02  0.00000000000E+00 0.  1.
         12    1    5    5    0    0 -0.13181374900E+02 -0.50283848062E+02 -0.85396652484E+02  0.99974008000E+02  0.00000000000E+00 0. -1.
          5    1    4    4  501    0  0.27716697335E+02  0.10567236754E+03  0.16173556355E+03  0.19523152176E+03  0.47000000000E+01 0.  1.
         -5    1    4    4    0  501 -0.12035441930E+02 -0.17617807621E+02  0.15826929365E+03  0.15977014214E+03  0.47000000000E+01 0.  1.
          1    1    1    2  502    0 -0.11855811580E+03 -0.24348287845E+03 -0.98017117081E+03  0.10168950108E+04  0.00000000000E+00 0. -1.
          1    1    1    2  503    0  0.17540519180E+02 -0.36422717508E+02  0.91319276287E+03  0.91408714372E+03  0.00000000000E+00 0. -1.
<mgrwt>
<rscale>  0 0.77683881E+02</rscale>
<asrwt>0</asrwt>
<pdfrwt beam="1">  1        2 0.19386579E+00 0.40426281E+02</pdfrwt>
<pdfrwt beam="2">  1        2 0.23194975E+00 0.14927877E+03</pdfrwt>
<totfact> 0.46605929E+01</totfact>
</mgrwt>
</event>
<event>
13    1  0.1589573E-008  0.1048813E+03  0.7546771E-02  0.1327247E+00
          2   -1    0    0  503    0  0.00000000000E+00  0.00000000000E+00  0.97332588692E+03  0.97332588692E+03  0.00000000000E+00 0. -1.
         -1   -1    0    0    0  501 -0.00000000000E+00 -0.00000000000E+00 -0.46894207998E+03  0.46894207998E+03  0.00000000000E+00 0.  1.
         24    2    1    2    0    0  0.62616721596E+02  0.62981693819E+02 -0.10552712130E+03  0.15976663946E+03  0.80634100585E+02 0.  0.
         25    2    1    2    0    0 -0.12667701667E+03  0.32043274276E+02  0.30282074201E+03  0.35270242814E+03  0.12499905216E+03 0.  0.
         24    2    1    2    0    0  0.22630234897E+02 -0.42999427171E+01 -0.37888237457E+02  0.89665780632E+02  0.77934694712E+02 0.  0.
        -13    1    5    5    0    0  0.44672484470E+02 -0.17821611579E+02 -0.41537975816E+02  0.63550327638E+02  0.00000000000E+00 0.  1.
         14    1    5    5    0    0 -0.22042249573E+02  0.13521668862E+02  0.36497383585E+01  0.26115452995E+02  0.00000000000E+00 0. -1.
        -13    1    3    3    0    0  0.70123775615E+02  0.42912067055E+02 -0.41186453305E+02  0.91951690257E+02  0.00000000000E+00 0.  1.
         14    1    3    3    0    0 -0.75070540184E+01  0.20069626764E+02 -0.64340667991E+02  0.67814949207E+02  0.00000000000E+00 0. -1.
          5    1    4    4  502    0  0.68515328817E+01  0.38853828331E+02  0.33448040163E+02  0.51936739111E+02  0.47000000000E+01 0.  1.
         -5    1    4    4    0  502 -0.13352854956E+03 -0.68105540547E+01  0.26937270185E+03  0.30076568903E+03  0.47000000000E+01 0.  1.
          1    1    1    2  503    0 -0.19178066225E+02 -0.10379043610E+03  0.58386678776E+03  0.59333015994E+03  0.00000000000E+00 0. -1.
         -2    1    1    2    0  501  0.60608126405E+02  0.13065410722E+02 -0.23888836407E+03  0.24680295872E+03  0.00000000000E+00 0.  1.
<mgrwt>
<rscale>  0 0.80639231E+02</rscale>
<asrwt>0</asrwt>
<pdfrwt beam="1">  1        2 0.14313616E+00 0.10488134E+03</pdfrwt>
<pdfrwt beam="2">  1       -1 0.68962070E-01 0.62000403E+02</pdfrwt>
<totfact> 0.79942597E+01</totfact>
</mgrwt>
</event>
<event>
13    1  0.1589573E-008  0.7644911E+02  0.7546771E-02  0.1507913E+00
          2   -1    0    0  503    0  0.00000000000E+00  0.00000000000E+00  0.83572555246E+03  0.83572555246E+03  0.00000000000E+00 0. -1.
          2   -1    0    0  502    0 -0.00000000000E+00 -0.00000000000E+00 -0.48324406429E+04  0.48324406429E+04  0.00000000000E+00 0. -1.
         24    2    1    2    0    0 -0.70779438188E+03  0.41677804008E+03 -0.13584128281E+04  0.15893664594E+04  0.78252851721E+02 0.  0.
         25    2    1    2    0    0  0.59881854008E+03 -0.70676959884E+02  0.38222557100E+03  0.72477593725E+03  0.12499958195E+03 0.  0.
         24    2    1    2    0    0  0.84531442194E+02 -0.26282725923E+03 -0.46831782349E+03  0.55332442768E+03  0.10306602518E+03 0.  0.
        -11    1    5    5    0    0 -0.10710770219E+02 -0.11503882513E+03 -0.22746634794E+03  0.25512661824E+03  0.00000000000E+00 0.  1.
         12    1    5    5    0    0  0.95242212413E+02 -0.14778843410E+03 -0.24085147555E+03  0.29819780944E+03  0.00000000000E+00 0. -1.
        -13    1    3    3    0    0 -0.66055463293E+03  0.37636548849E+03 -0.12178204736E+04  0.14356427515E+04  0.00000000000E+00 0.  1.
         14    1    3    3    0    0 -0.47239748954E+02  0.40412551587E+02 -0.14059235454E+03  0.15372370787E+03  0.00000000000E+00 0. -1.
          5    1    4    4  501    0  0.39259777143E+03 -0.10372687717E+03  0.23480978601E+03  0.46909487397E+03  0.47000000000E+01 0. -1.
         -5    1    4    4    0  501  0.20622076865E+03  0.33049917288E+02  0.14741578499E+03  0.25568106328E+03  0.47000000000E+01 0. -1.
          1    1    1    2  502    0  0.46663840244E+01 -0.76300286301E+02 -0.26750198299E+04  0.26761118436E+04  0.00000000000E+00 0. -1.
          1    1    1    2  503    0  0.19778015581E+02 -0.69735346643E+01  0.12280982012E+03  0.12458752748E+03  0.00000000000E+00 0. -1.
<mgrwt>
<rscale>  0 0.40040551E+02</rscale>
<asrwt>0</asrwt>
<pdfrwt beam="1">  1        2 0.12290082E+00 0.20971411E+02</pdfrwt>
<pdfrwt beam="2">  1        2 0.71065302E+00 0.76449112E+02</pdfrwt>
<totfact> 0.10942990E+00</totfact>
</mgrwt>
</event>
<event>
13    1  0.1589573E-008  0.1061012E+03  0.7546771E-02  0.1326317E+00
          2   -1    0    0  502    0  0.00000000000E+00  0.00000000000E+00  0.38051503976E+04  0.38051503976E+04  0.00000000000E+00 0. -1.
          2   -1    0    0  503    0 -0.00000000000E+00 -0.00000000000E+00 -0.26249345448E+04  0.26249345448E+04  0.00000000000E+00 0. -1.
         24    2    1    2    0    0 -0.20074820770E+01 -0.48245962752E+02 -0.50738381081E+03  0.51592397271E+03  0.80046931480E+02 0.  0.
         25    2    1    2    0    0 -0.22430818710E+03 -0.24440606735E+03  0.26739113928E+04  0.26973104345E+04  0.12503181445E+03 0.  0.
         24    2    1    2    0    0  0.58297968605E+02  0.17901552239E+03  0.17557966147E+03  0.26971695126E+03  0.80459964426E+02 0.  0.
        -11    1    3    3    0    0  0.26621365240E+02  0.63719366364E+01 -0.23816614067E+03  0.23973403852E+03  0.00000000000E+00 0.  1.
         12    1    3    3    0    0 -0.28628847317E+02 -0.54617899388E+02 -0.26921767014E+03  0.27618993419E+03  0.00000000000E+00 0. -1.
        -13    1    5    5    0    0  0.54234433898E+02  0.18361176841E+03  0.14945487108E+03  0.24288148099E+03  0.00000000000E+00 0.  1.
         14    1    5    5    0    0  0.40635347069E+01 -0.45962460204E+01  0.26124790383E+02  0.26835470265E+02  0.00000000000E+00 0. -1.
          5    1    4    4  501    0 -0.15602324928E+03 -0.10930264048E+03  0.11263553458E+04  0.11423610535E+04  0.47000000000E+01 0.  1.
         -5    1    4    4    0  501 -0.68284937814E+02 -0.13510342687E+03  0.15475560470E+04  0.15549493809E+04  0.47000000000E+01 0.  1.
          1    1    1    2  502    0  0.61329666750E+02  0.75566606227E+01  0.88879256637E+03  0.89093807707E+03  0.00000000000E+00 0. -1.
          1    1    1    2  503    0  0.10668803382E+03  0.10607984709E+03 -0.20506839571E+04  0.20561955068E+04  0.00000000000E+00 0. -1.
<mgrwt>
<rscale>  0 0.80971350E+02</rscale>
<asrwt>0</asrwt>
<pdfrwt beam="1">  1        2 0.55958094E+00 0.61793456E+02</pdfrwt>
<pdfrwt beam="2">  1        2 0.38601979E+00 0.10610120E+03</pdfrwt>
<totfact> 0.76268794E-01</totfact>
</mgrwt>
</event>
<event>
13    1  0.1589573E-008  0.1617884E+03  0.7546771E-02  0.1344883E+00
          2   -1    0    0  502    0  0.00000000000E+00  0.00000000000E+00  0.27939281423E+04  0.27939281423E+04  0.00000000000E+00 0. -1.
          2   -1    0    0  503    0 -0.00000000000E+00 -0.00000000000E+00 -0.68751171462E+03  0.68751171462E+03  0.00000000000E+00 0. -1.
         24    2    1    2    0    0  0.15281097232E+03 -0.28911551096E+03 -0.49868152830E+02  0.34054450790E+03  0.80899674002E+02 0.  0.
         25    2    1    2    0    0 -0.29124649720E+02  0.53803710185E+03  0.11106552578E+03  0.56417347401E+03  0.12499595819E+03 0.  0.
         24    2    1    2    0    0 -0.28369906059E+02 -0.85254555559E+02  0.17345948216E+02  0.11962198105E+03  0.77041194294E+02 0.  0.
        -11    1    3    3    0    0 -0.15320546680E+01 -0.44463134615E+02 -0.22855716400E+02  0.50017010141E+02  0.00000000000E+00 0.  1.
         12    1    3    3    0    0  0.15434302699E+03 -0.24465237635E+03 -0.27012436431E+02  0.29052749776E+03  0.00000000000E+00 0. -1.
        -11    1    5    5    0    0 -0.53597672284E+02 -0.62672921349E+02  0.22239829774E+02  0.85412034123E+02  0.00000000000E+00 0.  1.
         12    1    5    5    0    0  0.25227766225E+02 -0.22581634211E+02 -0.48938815579E+01  0.34209946931E+02  0.00000000000E+00 0. -1.
          5    1    4    4  501    0 -0.47509516847E+02  0.29182135933E+03  0.11478921366E+03  0.31719948538E+03  0.47000000000E+01 0. -1.
         -5    1    4    4    0  501  0.18384867127E+02  0.24621574253E+03 -0.37236878870E+01  0.24697398863E+03  0.47000000000E+01 0. -1.
          1    1    1    2  502    0 -0.19637365436E+02 -0.28324615034E+02  0.22143253385E+04  0.22145935552E+04  0.00000000000E+00 0. -1.
          1    1    1    2  503    0 -0.75679051102E+02 -0.13534242030E+03 -0.18645223201E+03  0.24250633874E+03  0.00000000000E+00 0. -1.
<mgrwt>
<rscale>  0 0.74674016E+02</rscale>
<asrwt>0</asrwt>
<pdfrwt beam="1">  1        2 0.41087178E+00 0.34466069E+02</pdfrwt>
<pdfrwt beam="2">  1        2 0.10110467E+00 0.16178835E+03</pdfrwt>
<totfact> 0.31295686E+01</totfact>
</mgrwt>
</event>
<event>
13    1  0.1589573E-008  0.1606583E+03  0.7546771E-02  0.1295411E+00
          2   -1    0    0  503    0  0.00000000000E+00  0.00000000000E+00  0.16989731777E+04  0.16989731777E+04  0.00000000000E+00 0. -1.
          2   -1    0    0  502    0 -0.00000000000E+00 -0.00000000000E+00 -0.15052967155E+04  0.15052967155E+04  0.00000000000E+00 0. -1.
         24    2    1    2    0    0  0.26125544183E+03  0.23563747940E+02 -0.30815946475E+03  0.41259838029E+03  0.80408405051E+02 0.  0.
         25    2    1    2    0    0 -0.20170826225E+03 -0.19072112206E+03  0.36475096197E+03  0.47510996566E+03  0.12500178300E+03 0.  0.
         24    2    1    2    0    0 -0.19857301706E+03  0.17601807488E+03  0.13351055237E+03  0.30799250571E+03  0.81367746640E+02 0.  0.
        -13    1    3    3    0    0  0.24911552793E+03  0.40835739011E+02 -0.29213165831E+03  0.38609197042E+03  0.00000000000E+00 0.  1.
         14    1    3    3    0    0  0.12139913902E+02 -0.17271991071E+02 -0.16027806438E+02  0.26506409873E+02  0.00000000000E+00 0. -1.
        -13    1    5    5    0    0 -0.16374644549E+03  0.17702977779E+03  0.12700691490E+03  0.27254943967E+03  0.00000000000E+00 0.  1.
         14    1    5    5    0    0 -0.34826571568E+02 -0.10117029064E+01  0.65036374691E+01  0.35443066040E+02  0.00000000000E+00 0. -1.
          5    1    4    4  501    0 -0.77564501472E+02 -0.10668106263E+01  0.91543253128E+02  0.12008183529E+03  0.47000000000E+01 0. -1.
         -5    1    4    4    0  501 -0.12414376078E+03 -0.18965431143E+03  0.27320770884E+03  0.35502813037E+03  0.47000000000E+01 0. -1.
          1    1    1    2  502    0  0.15516705586E+03  0.42672780522E+02 -0.99530495047E+03  0.10082309883E+04  0.00000000000E+00 0. -1.
          1    1    1    2  503    0 -0.16141218374E+02 -0.51533481285E+02  0.99887936312E+03  0.10003380532E+04  0.00000000000E+00 0. -1.
<mgrwt>
<rscale>  0 0.93144533E+02</rscale>
<asrwt>0</asrwt>
<pdfrwt beam="1">  1        2 0.24984900E+00 0.54002209E+02</pdfrwt>
<pdfrwt beam="2">  1        2 0.22136716E+00 0.16065832E+03</pdfrwt>
<totfact> 0.32377192E+01</totfact>
</mgrwt>
</event>
<event>
13    1  0.1589573E-008  0.8071563E+02  0.7546771E-02  0.1385599E+00
          2   -1    0    0  503    0  0.00000000000E+00  0.00000000000E+00  0.15696524586E+04  0.15696524586E+04  0.00000000000E+00 0. -1.
          2   -1    0    0  502    0 -0.00000000000E+00 -0.00000000000E+00 -0.34763915133E+03  0.34763915133E+03  0.00000000000E+00 0. -1.
         24    2    1    2    0    0 -0.44404021678E+02  0.35636798719E+02 -0.63327138025E+02  0.11736897162E+03  0.80767880531E+02 0.  0.
         25    2    1    2    0    0  0.27320932669E+02 -0.10309659963E+03  0.82863960719E+03  0.84477442203E+03  0.12499953317E+03 0.  0.
         24    2    1    2    0    0  0.13634651855E+02  0.27176441646E+02 -0.11366485147E+02  0.87082001466E+02  0.80806034941E+02 0.  0.
        -13    1    5    5    0    0  0.32593707691E+02  0.51765621063E+01 -0.36116848187E+02  0.48924158647E+02  0.00000000000E+00 0.  1.
         14    1    5    5    0    0 -0.18959055837E+02  0.21999879540E+02  0.24750363040E+02  0.38157842819E+02  0.00000000000E+00 0. -1.
        -13    1    3    3    0    0 -0.58473188801E+02  0.13689673104E+02 -0.14134104863E+02  0.61695169005E+02  0.00000000000E+00 0.  1.
         14    1    3    3    0    0  0.14069167123E+02  0.21947125615E+02 -0.49193033163E+02  0.55673802619E+02  0.00000000000E+00 0. -1.
          5    1    4    4  501    0  0.62034057769E+02 -0.11076307554E+03  0.59614170912E+03  0.60952744859E+03  0.47000000000E+01 0.  1.
         -5    1    4    4    0  501 -0.34713125100E+02  0.76664759136E+01  0.23249789807E+03  0.23524697344E+03  0.47000000000E+01 0.  1.
          1    1    1    2  502    0 -0.31743293381E+02  0.74659900522E+02 -0.19081733517E+03  0.20734751704E+03  0.00000000000E+00 0. -1.
          1    1    1    2  503    0  0.35191730535E+02 -0.34376541258E+02  0.65888465842E+03  0.66071869778E+03  0.00000000000E+00 0. -1.
<mgrwt>
<rscale>  0 0.63014694E+02</rscale>
<asrwt>0</asrwt>
<pdfrwt beam="1">  1        2 0.23083124E+00 0.49195574E+02</pdfrwt>
<pdfrwt beam="2">  1        2 0.51123405E-01 0.80715627E+02</pdfrwt>
<totfact> 0.23791594E+02</totfact>
</mgrwt>
</event>
<event>
13    1  0.1589573E-008  0.1098274E+03  0.7546771E-02  0.1363295E+00
         -1   -1    0    0    0  501 -0.00000000000E+00  0.00000000000E+00  0.22541332039E+04  0.22541332039E+04  0.00000000000E+00 0.  1.
          4   -1    0    0  503    0  0.00000000000E+00 -0.00000000000E+00 -0.17086256942E+03  0.17086256942E+03  0.00000000000E+00 0. -1.
         24    2    1    2    0    0  0.38914856556E+02 -0.35598370934E+02  0.14222856929E+04  0.14253919508E+04  0.77871761774E+02 0.  0.
         25    2    1    2    0    0  0.94098852905E+02 -0.13079195426E+03 -0.34301101669E+02  0.20679399784E+03  0.12500425013E+03 0.  0.
         24    2    1    2    0    0  0.40255809364E+01  0.65061485007E+01  0.51749696274E+02  0.87714753307E+02  0.70408178595E+02 0.  0.
        -11    1    3    3    0    0  0.55761811532E+02 -0.33517981643E+02  0.72871182977E+03  0.73161039192E+03  0.00000000000E+00 0.  1.
         12    1    3    3    0    0 -0.16846954977E+02 -0.20803892911E+01  0.69357386311E+03  0.69378155892E+03  0.00000000000E+00 0. -1.
        -11    1    5    5    0    0 -0.32086314744E+02 -0.45132453312E+01  0.29914901468E+02  0.44099912779E+02  0.00000000000E+00 0.  1.
         12    1    5    5    0    0  0.36111895681E+02  0.11019393832E+02  0.21834794806E+02  0.43614840528E+02  0.00000000000E+00 0. -1.
          5    1    4    4  502    0 -0.22546111694E+02 -0.53282615724E+02  0.11884200791E+02  0.59251063445E+02  0.47000000000E+01 0.  1.
         -5    1    4    4    0  502  0.11664496460E+03 -0.77509338539E+02 -0.46185302460E+02  0.14754293440E+03  0.47000000000E+01 0.  1.
          3    1    1    2  503    0 -0.25741167652E+02  0.34984304301E+02  0.35210032482E+01  0.43576446888E+02  0.00000000000E+00 0. -1.
         -2    1    1    2    0  501 -0.11129812275E+03  0.12489987240E+03  0.64001534376E+03  0.66151862446E+03  0.00000000000E+00 0.  1.
<mgrwt>
<rscale>  0 0.69066913E+02</rscale>
<asrwt>0</asrwt>
<pdfrwt beam="2">  1        4 0.25126850E-01 0.43433964E+02</pdfrwt>
<pdfrwt beam="1">  1       -1 0.33149016E+00 0.10982738E+03</pdfrwt>
<totfact> 0.13479290E+00</totfact>
</mgrwt>
</event>
<event>
13    1  0.1589573E-008  0.8347500E+02  0.7546771E-02  0.1353034E+00
          2   -1    0    0  503    0  0.00000000000E+00  0.00000000000E+00  0.47929188177E+03  0.47929188177E+03  0.00000000000E+00 0. -1.
          2   -1    0    0  502    0 -0.00000000000E+00 -0.00000000000E+00 -0.28052570906E+04  0.28052570906E+04  0.00000000000E+00 0. -1.
         24    2    1    2    0    0  0.24880421340E+02 -0.22966377899E+03 -0.75907634008E+03  0.79746666675E+03  0.79948156710E+02 0.  0.
         25    2    1    2    0    0 -0.12861203101E+03  0.54387733556E+02  0.35932654609E+03  0.40526558209E+03  0.12500218085E+03 0.  0.
         24    2    1    2    0    0  0.11225819513E+02  0.63115230034E+02 -0.95370453678E+03  0.95901680253E+03  0.77790312954E+02 0.  0.
        -11    1    5    5    0    0 -0.22228538403E+02  0.62272657740E+02 -0.69970182988E+03  0.70281906816E+03  0.00000000000E+00 0.  1.
         12    1    5    5    0    0  0.33454357916E+02  0.84257229442E+00 -0.25400270689E+03  0.25619773438E+03  0.00000000000E+00 0. -1.
        -13    1    3    3    0    0  0.26201757369E+02 -0.96979455550E+02 -0.21300553858E+03  0.23550563975E+03  0.00000000000E+00 0.  1.
         14    1    3    3    0    0 -0.13213360298E+01 -0.13268432344E+03 -0.54607080150E+03  0.56196102700E+03  0.00000000000E+00 0. -1.
          5    1    4    4  501    0 -0.31489516604E+01 -0.28273242045E+02  0.23028136777E+02  0.36900910500E+02  0.47000000000E+01 0. -1.
         -5    1    4    4    0  501 -0.12546307935E+03  0.82660975602E+02  0.33629840932E+03  0.36836467159E+03  0.47000000000E+01 0. -1.
          1    1    1    2  502    0  0.50483921102E+02  0.66157247868E+02 -0.10327718096E+04  0.10361192105E+04  0.00000000000E+00 0. -1.
          1    1    1    2  503    0  0.42021869053E+02  0.46003567527E+02  0.60260931512E+02  0.86680710487E+02  0.00000000000E+00 0. -1.
<mgrwt>
<rscale>  0 0.72118509E+02</rscale>
<asrwt>0</asrwt>
<pdfrwt beam="1">  1        2 0.70484099E-01 0.62307028E+02</pdfrwt>
<pdfrwt beam="2">  1        2 0.41253781E+00 0.83475004E+02</pdfrwt>
<totfact> 0.40761624E+01</totfact>
</mgrwt>
</event>
<event>
13    1  0.1589573E-008  0.1322688E+03  0.7546771E-02  0.1227315E+00
          2   -1    0    0  502    0  0.00000000000E+00  0.00000000000E+00  0.26146535460E+04  0.26146535460E+04  0.00000000000E+00 0. -1.
          2   -1    0    0  503    0 -0.00000000000E+00 -0.00000000000E+00 -0.15409585763E+04  0.15409585763E+04  0.00000000000E+00 0. -1.
         24    2    1    2    0    0  0.69008708739E+02 -0.36611524116E+02  0.10021861383E+03  0.15057279723E+03  0.80782368913E+02 0.  0.
         25    2    1    2    0    0  0.32244054662E+03 -0.12648330406E+03  0.51795579150E+03  0.63550685262E+03  0.12499930184E+03 0.  0.
         24    2    1    2    0    0 -0.17391095996E+03 -0.19289171113E+02  0.10027178225E+03  0.21691295875E+03  0.79873069560E+02 0.  0.
        -13    1    5    5    0    0 -0.11984951855E+03 -0.48686353348E+02  0.80108157879E+02  0.15215644928E+03  0.00000000000E+00 0.  1.
         14    1    5    5    0    0 -0.54061441419E+02  0.29397182235E+02  0.20163624375E+02  0.64756509476E+02  0.00000000000E+00 0. -1.
        -13    1    3    3    0    0 -0.11538903745E+02  0.46812422196E+01 -0.34774332540E+01  0.12928761363E+02  0.00000000000E+00 0.  1.
         14    1    3    3    0    0  0.80547612484E+02 -0.41292766336E+02  0.10369604708E+03  0.13764403586E+03  0.00000000000E+00 0. -1.
          5    1    4    4  501    0  0.94233373463E+02 -0.39953370111E+02  0.66108448316E+02  0.12193694024E+03  0.47000000000E+01 0.  1.
         -5    1    4    4    0  501  0.22820717316E+03 -0.86529933949E+02  0.45184734318E+03  0.51356991237E+03  0.47000000000E+01 0.  1.
          1    1    1    2  502    0 -0.18110750636E+03  0.55160106385E+02  0.17456743198E+04  0.17559104183E+04  0.00000000000E+00 0. -1.
          1    1    1    2  503    0 -0.36430789035E+02  0.12722389290E+03 -0.13904255377E+04  0.13967090954E+04  0.00000000000E+00 0. -1.
<mgrwt>
<rscale>  0 0.13009471E+03</rscale>
<asrwt>0</asrwt>
<pdfrwt beam="1">  1        2 0.38450788E+00 0.12795638E+03</pdfrwt>
<pdfrwt beam="2">  1        2 0.22661155E+00 0.13226877E+03</pdfrwt>
<totfact> 0.10323410E+01</totfact>
</mgrwt>
</event>
<event>
13    1  0.1589573E-008  0.5617356E+02  0.7546771E-02  0.1436119E+00
          2   -1    0    0  502    0  0.00000000000E+00  0.00000000000E+00  0.32939689748E+04  0.32939689748E+04  0.00000000000E+00 0. -1.
          2   -1    0    0  503    0 -0.00000000000E+00 -0.00000000000E+00 -0.20278032266E+04  0.20278032266E+04  0.00000000000E+00 0. -1.
         24    2    1    2    0    0  0.50111690567E+03 -0.53951991520E+02 -0.61599032252E+03  0.80009225855E+03  0.81698067442E+02 0.  0.
         25    2    1    2    0    0 -0.75713981250E+02  0.54833591595E+03  0.77559300694E+03  0.96102944606E+03  0.12501279971E+03 0.  0.
         24    2    1    2    0    0 -0.42147978794E+03 -0.41459616463E+03 -0.26860160796E+03  0.65477144976E+03  0.83926374011E+02 0.  0.
        -11    1    5    5    0    0 -0.28056016899E+03 -0.29882648342E+03 -0.22364999908E+03  0.46693746659E+03  0.00000000000E+00 0.  1.
         12    1    5    5    0    0 -0.14091961895E+03 -0.11576968121E+03 -0.44951608877E+02  0.18783398317E+03  0.00000000000E+00 0. -1.
        -13    1    3    3    0    0  0.44852064971E+03 -0.73221368100E+02 -0.55367105734E+03  0.71629866794E+03  0.00000000000E+00 0.  1.
         14    1    3    3    0    0  0.52596255967E+02  0.19269376580E+02 -0.62319265176E+02  0.83793590611E+02  0.00000000000E+00 0. -1.
          5    1    4    4  501    0 -0.71051482434E+02  0.15512071802E+03  0.28582376580E+03  0.33290849405E+03  0.47000000000E+01 0.  1.
         -5    1    4    4    0  501 -0.46624988162E+01  0.39321519793E+03  0.48976924115E+03  0.62812095201E+03  0.47000000000E+01 0.  1.
          1    1    1    2  502    0  0.31255097660E+02 -0.36002969938E+02  0.21392254509E+04  0.21397566742E+04  0.00000000000E+00 0. -1.
          1    1    1    2  503    0 -0.35178234137E+02 -0.43784789865E+02 -0.76406077915E+03  0.76612237287E+03  0.00000000000E+00 0. -1.
<mgrwt>
<rscale>  0 0.51751196E+02</rscale>
<asrwt>0</asrwt>
<pdfrwt beam="1">  1        2 0.48440721E+00 0.47676986E+02</pdfrwt>
<pdfrwt beam="2">  1        2 0.29820635E+00 0.56173565E+02</pdfrwt>
<totfact> 0.33583446E+00</totfact>
</mgrwt>
</event>
<event>
13    1  0.1589573E-008  0.5905768E+02  0.7546771E-02  0.1433087E+00
          4   -1    0    0  503    0 -0.00000000000E+00  0.00000000000E+00  0.39130835039E+03  0.39130835039E+03  0.00000000000E+00 0. -1.
          2   -1    0    0  502    0  0.00000000000E+00 -0.00000000000E+00 -0.32551696432E+04  0.32551696432E+04  0.00000000000E+00 0. -1.
         24    2    1    2    0    0  0.20847160543E+03 -0.84790448830E+02 -0.19423719644E+04  0.19571776442E+04  0.84176315775E+02 0.  0.
         25    2    1    2    0    0 -0.23879701423E+03  0.13529219829E+03 -0.17437747218E+03  0.34837124719E+03  0.12500812030E+03 0.  0.
         24    2    1    2    0    0 -0.58430448589E+02 -0.76810361794E+02 -0.33450478550E+03  0.35746363961E+03  0.81073134419E+02 0.  0.
        -11    1    5    5    0    0 -0.76329305608E+02 -0.75429353997E+02 -0.27109899432E+03  0.29156545588E+03  0.00000000000E+00 0.  1.
         12    1    5    5    0    0  0.17898857020E+02 -0.13810077978E+01 -0.63405791176E+02  0.65898183737E+02  0.00000000000E+00 0. -1.
        -13    1    3    3    0    0  0.61356830196E+02 -0.56556033638E+02 -0.48490374646E+03  0.49203139014E+03  0.00000000000E+00 0.  1.
         14    1    3    3    0    0  0.14711477523E+03 -0.28234415192E+02 -0.14574682180E+04  0.14651462540E+04  0.00000000000E+00 0. -1.
          5    1    4    4  501    0 -0.13779930023E+03  0.14062297257E+03 -0.13927388070E+03  0.24121105158E+03  0.47000000000E+01 0.  1.
         -5    1    4    4    0  501 -0.10099771401E+03 -0.53307742822E+01 -0.35103591476E+02  0.10716019561E+03  0.47000000000E+01 0.  1.
          1    1    1    2  502    0  0.44582427144E+02 -0.12845047048E+02 -0.69420181760E+03  0.69575049522E+03  0.00000000000E+00 0. -1.
          3    1    1    2  503    0  0.44173430252E+02  0.39153659382E+02  0.28159474690E+03  0.28771496740E+03  0.00000000000E+00 0. -1.
<mgrwt>
<rscale>  0 0.52345388E+02</rscale>
<asrwt>0</asrwt>
<pdfrwt beam="2">  1        2 0.47870142E+00 0.46395992E+02</pdfrwt>
<pdfrwt beam="1">  1        4 0.57545345E-01 0.59057680E+02</pdfrwt>
<totfact> 0.33690809E+00</totfact>
</mgrwt>
</event>
<event>
13    1  0.1589573E-008  0.1366819E+03  0.7546771E-02  0.1286104E+00
          2   -1    0    0  502    0  0.00000000000E+00  0.00000000000E+00  0.15449589164E+04  0.15449589164E+04  0.00000000000E+00 0. -1.
          2   -1    0    0  503    0 -0.00000000000E+00 -0.00000000000E+00 -0.27445867042E+04  0.27445867042E+04  0.00000000000E+00 0. -1.
         24    2    1    2    0    0  0.95653568212E+02 -0.29379904044E+01 -0.21868527622E+03  0.25261427908E+03  0.82658859539E+02 0.  0.
         25    2    1    2    0    0 -0.24043471686E+03 -0.49115587731E+02  0.85529096595E+03  0.89853722264E+03  0.12500124005E+03 0.  0.
         24    2    1    2    0    0  0.35985935882E+02  0.61113576713E+01 -0.30505072905E+03  0.31743275992E+03  0.79845309837E+02 0.  0.
        -13    1    5    5    0    0 -0.18501656406E+02 -0.18227804222E+02 -0.63209137265E+02  0.68337099516E+02  0.00000000000E+00 0.  1.
         14    1    5    5    0    0  0.54487592289E+02  0.24339161893E+02 -0.24184159179E+03  0.24909566041E+03  0.00000000000E+00 0. -1.
        -13    1    3    3    0    0 -0.86241557005E+01 -0.18005330454E+02 -0.23738003060E+02  0.31017104564E+02  0.00000000000E+00 0.  1.
         14    1    3    3    0    0  0.10427772391E+03  0.15067340049E+02 -0.19494727316E+03  0.22159717452E+03  0.00000000000E+00 0. -1.
          5    1    4    4  501    0 -0.18031105403E+03 -0.69492122511E+02  0.75810450246E+03  0.78235909782E+03  0.47000000000E+01 0.  1.
         -5    1    4    4    0  501 -0.60123662824E+02  0.20376534781E+02  0.97186463487E+02  0.11617812482E+03  0.47000000000E+01 0.  1.
          1    1    1    2  502    0  0.81851885949E+02  0.10973380890E+03  0.63706501857E+03  0.65160807081E+03  0.00000000000E+00 0. -1.
          1    1    1    2  503    0  0.26943326815E+02 -0.63791588436E+02 -0.21682477671E+04  0.21693532882E+04  0.00000000000E+00 0. -1.
<mgrwt>
<rscale>  0 0.97288103E+02</rscale>
<asrwt>0</asrwt>
<pdfrwt beam="1">  1        2 0.22719984E+00 0.13668194E+03</pdfrwt>
<pdfrwt beam="2">  1        2 0.40361569E+00 0.69248174E+02</pdfrwt>
<totfact> 0.95966531E+00</totfact>
</mgrwt>
</event>
<event>
13    1  0.1589573E-008  0.7580067E+02  0.7546771E-02  0.1374169E+00
          2   -1    0    0  502    0  0.00000000000E+00  0.00000000000E+00  0.26581260034E+04  0.26581260034E+04  0.00000000000E+00 0. -1.
          2   -1    0    0  503    0 -0.00000000000E+00 -0.00000000000E+00 -0.31692353471E+04  0.31692353471E+04  0.00000000000E+00 0. -1.
         24    2    1    2    0    0 -0.35121845823E+02 -0.26585189550E+03 -0.57915785298E+03  0.64419025843E+03  0.87444245050E+02 0.  0.
         25    2    1    2    0    0 -0.39312013063E+03  0.57530140309E+03  0.46202560259E+02  0.70941821407E+03  0.12499753750E+03 0.  0.
         24    2    1    2    0    0  0.42486027628E+03 -0.33381822191E+03  0.41608155934E+03  0.68666890087E+03  0.80308503684E+02 0.  0.
        -13    1    5    5    0    0  0.15588160089E+03 -0.16336498513E+03  0.14390402419E+03  0.26776026598E+03  0.00000000000E+00 0.  1.
         14    1    5    5    0    0  0.26897867539E+03 -0.17045323678E+03  0.27217753515E+03  0.41890863489E+03  0.00000000000E+00 0. -1.
        -13    1    3    3    0    0 -0.54871677242E+02 -0.97823677451E+02 -0.20878761466E+03  0.23700768103E+03  0.00000000000E+00 0.  1.
         14    1    3    3    0    0  0.19749831420E+02 -0.16802821805E+03 -0.37037023832E+03  0.40718257740E+03  0.00000000000E+00 0. -1.
          5    1    4    4  501    0 -0.16882090356E+03  0.35639191330E+03  0.20612559342E+02  0.39492108192E+03  0.47000000000E+01 0.  1.
         -5    1    4    4    0  501 -0.22429922707E+03  0.21890948980E+03  0.25590000916E+02  0.31449713215E+03  0.47000000000E+01 0.  1.
          1    1    1    2  502    0  0.38133873600E+02 -0.43040992351E+02  0.16952487229E+04  0.16962237328E+04  0.00000000000E+00 0. -1.
          1    1    1    2  503    0 -0.34752173427E+02  0.67409706673E+02 -0.20894843333E+04  0.20908602443E+04  0.00000000000E+00 0. -1.
<mgrwt>
<rscale>  0 0.66021570E+02</rscale>
<asrwt>0</asrwt>
<pdfrwt beam="1">  1        2 0.39090088E+00 0.57504081E+02</pdfrwt>
<pdfrwt beam="2">  1        2 0.46606402E+00 0.75800667E+02</pdfrwt>
<totfact> 0.17999874E+00</totfact>
</mgrwt>
</event>
<event>
13    1  0.1589573E-008  0.1409583E+03  0.7546771E-02  0.1226617E+00
         -1   -1    0    0    0  501 -0.00000000000E+00  0.00000000000E+00  0.11999771999E+04  0.11999771999E+04  0.00000000000E+00 0.  1.
          2   -1    0    0  503    0  0.00000000000E+00 -0.00000000000E+00 -0.12216364167E+04  0.12216364167E+04  0.00000000000E+00 0. -1.
         24    2    1    2    0    0 -0.54819258985E+02 -0.38897164072E+02  0.23301605402E+03  0.25552088389E+03  0.80475462996E+02 0.  0.
         25    2    1    2    0    0  0.22996443387E+03  0.16427728229E+03  0.12716978281E+03  0.33416932282E+03  0.12500526522E+03 0.  0.
         24    2    1    2    0    0 -0.21151102700E+02  0.69096075932E+02  0.44087381612E+02  0.11654051371E+03  0.80102167655E+02 0.  0.
        -11    1    3    3    0    0 -0.75730535406E+02 -0.28950784168E+02  0.16889519800E+03  0.18734687029E+03  0.00000000000E+00 0.  1.
         12    1    3    3    0    0  0.20911276422E+02 -0.99463799036E+01  0.64120856012E+02  0.68174013601E+02  0.00000000000E+00 0. -1.
        -13    1    5    5    0    0 -0.31139941503E+02 -0.63013074432E+01  0.14652746684E+02  0.34987217919E+02  0.00000000000E+00 0.  1.
         14    1    5    5    0    0  0.99888388030E+01  0.75397383375E+02  0.29434634928E+02  0.81553295787E+02  0.00000000000E+00 0. -1.
          5    1    4    4  502    0  0.17687602511E+03  0.16655386445E+03  0.63598400935E+02  0.25118153719E+03  0.47000000000E+01 0.  1.
         -5    1    4    4    0  502  0.53088408758E+02 -0.22765821586E+01  0.63571381878E+02  0.82987785635E+02  0.47000000000E+01 0.  1.
          1    1    1    2  503    0 -0.13687016867E+03 -0.90988968266E+02 -0.10600159335E+04  0.10726817863E+04  0.00000000000E+00 0. -1.
         -2    1    1    2    0  501 -0.17123903509E+02 -0.10348722589E+03  0.63408349818E+03  0.64270110989E+03  0.00000000000E+00 0.  1.
<mgrwt>
<rscale>  0 0.13056677E+03</rscale>
<asrwt>0</asrwt>
<pdfrwt beam="2">  1        2 0.17965241E+00 0.14095835E+03</pdfrwt>
<pdfrwt beam="1">  1       -1 0.17646724E+00 0.12094127E+03</pdfrwt>
<totfact> 0.64626075E+00</totfact>
</mgrwt>
</event>
<event>
13    1  0.1589573E-008  0.4383329E+02  0.7546771E-02  0.1484491E+00
         -1   -1    0    0    0  501 -0.00000000000E+00  0.00000000000E+00  0.34308788069E+03  0.34308788069E+03  0.00000000000E+00 0.  1.
          2   -1    0    0  503    0  0.00000000000E+00 -0.00000000000E+00 -0.12299535521E+04  0.12299535521E+04  0.00000000000E+00 0. -1.
         24    2    1    2    0    0  0.89039021428E+02 -0.57777153007E+02  0.11588363742E+03  0.17543027328E+03  0.77978308623E+02 0.  0.
         25    2    1    2    0    0 -0.49905327095E+02  0.26191147097E+02 -0.27795837527E+03  0.30993985354E+03  0.12500134627E+03 0.  0.
         24    2    1    2    0    0  0.62960856852E+01  0.79987317506E+02 -0.17418591823E+03  0.20779984580E+03  0.80015186988E+02 0.  0.
        -11    1    5    5    0    0  0.26729757707E+02  0.23336188815E+01 -0.78094492899E+02  0.82575271997E+02  0.00000000000E+00 0.  1.
         12    1    5    5    0    0 -0.20433672022E+02  0.77653698625E+02 -0.96091425329E+02  0.12522457380E+03  0.00000000000E+00 0. -1.
        -11    1    3    3    0    0  0.99615981814E+02 -0.59400641853E+02  0.88072635124E+02  0.14563162137E+03  0.00000000000E+00 0.  1.
         12    1    3    3    0    0 -0.10576960386E+02  0.16234888458E+01  0.27811002295E+02  0.29798651910E+02  0.00000000000E+00 0. -1.
          5    1    4    4  502    0 -0.19882006383E+02 -0.16752269562E+01  0.72678944535E+01  0.21748858659E+02  0.47000000000E+01 0.  1.
         -5    1    4    4    0  502 -0.30023320712E+02  0.27866374053E+02 -0.28522626973E+03  0.28819099488E+03  0.47000000000E+01 0.  1.
          1    1    1    2  503    0 -0.43465624608E+02 -0.54469849537E+01 -0.71174566797E+03  0.71309243864E+03  0.00000000000E+00 0. -1.
         -2    1    1    2    0  501 -0.19641554108E+01 -0.42954326643E+02  0.16114065265E+03  0.16677902153E+03  0.00000000000E+00 0.  1.
<mgrwt>
<rscale>  0 0.43414247E+02</rscale>
<asrwt>0</asrwt>
<pdfrwt beam="2">  1        2 0.18087552E+00 0.43833290E+02</pdfrwt>
<pdfrwt beam="1">  1       -1 0.50454099E-01 0.42999210E+02</pdfrwt>
<totfact> 0.10890276E+02</totfact>
</mgrwt>
</event>
<event>
13    1  0.1589573E-008  0.6313686E+02  0.7546771E-02  0.1483410E+00
          2   -1    0    0  503    0  0.00000000000E+00  0.00000000000E+00  0.10032154344E+04  0.10032154344E+04  0.00000000000E+00 0. -1.
          2   -1    0    0  502    0 -0.00000000000E+00 -0.00000000000E+00 -0.19190863526E+04  0.19190863526E+04  0.00000000000E+00 0. -1.
         24    2    1    2    0    0  0.51352308477E+02 -0.30868948041E+02 -0.12909009225E+04  0.12948680040E+04  0.81657850688E+02 0.  0.
         25    2    1    2    0    0 -0.62658598576E+02  0.15165723235E+03  0.50029060276E+02  0.21226034202E+03  0.12500211928E+03 0.  0.
         24    2    1    2    0    0 -0.18099951568E+02 -0.32409008916E+02 -0.15232498250E+03  0.17042183486E+03  0.66803812732E+02 0.  0.
        -11    1    3    3    0    0  0.42450620926E+02  0.17765862796E+02 -0.40868481305E+03  0.41126750116E+03  0.00000000000E+00 0.  1.
         12    1    3    3    0    0  0.89016875506E+01 -0.48634810837E+02 -0.88221610947E+03  0.88360050288E+03  0.00000000000E+00 0. -1.
        -13    1    5    5    0    0  0.21756708985E+02  0.38225008320E+01 -0.36102001263E+02  0.42323993121E+02  0.00000000000E+00 0.  1.
         14    1    5    5    0    0 -0.39856660553E+02 -0.36231509748E+02 -0.11622298124E+03  0.12809784173E+03  0.00000000000E+00 0. -1.
          5    1    4    4  501    0 -0.81847685628E+02  0.12477389784E+03  0.78252158286E+02  0.16856173795E+03  0.47000000000E+01 0.  1.
         -5    1    4    4    0  501  0.19189087052E+02  0.26883334504E+02 -0.28223098010E+02  0.43698604065E+02  0.47000000000E+01 0.  1.
          1    1    1    2  502    0  0.10858568629E+02 -0.28051890367E+02 -0.38196417608E+03  0.38314677197E+03  0.00000000000E+00 0. -1.
          1    1    1    2  503    0  0.18547673038E+02 -0.60327385023E+02  0.85929010266E+03  0.86160483406E+03  0.00000000000E+00 0. -1.
<mgrwt>
<rscale>  0 0.43579443E+02</rscale>
<asrwt>0</asrwt>
<pdfrwt beam="1">  1        2 0.14753168E+00 0.63136858E+02</pdfrwt>
<pdfrwt beam="2">  1        2 0.28221858E+00 0.30080177E+02</pdfrwt>
<totfact> 0.53080131E+01</totfact>
</mgrwt>
</event>
<event>
13    1  0.1589573E-008  0.1690826E+03  0.7546771E-02  0.1200304E+00
          2   -1    0    0  503    0  0.00000000000E+00  0.00000000000E+00  0.11496040581E+04  0.11496040581E+04  0.00000000000E+00 0. -1.
          2   -1    0    0  502    0 -0.00000000000E+00 -0.00000000000E+00 -0.71971370592E+03  0.71971370592E+03  0.00000000000E+00 0. -1.
         24    2    1    2    0    0 -0.79371129315E+02 -0.13234345349E+03 -0.25517823009E+03  0.30869529848E+03  0.79763978948E+02 0.  0.
         25    2    1    2    0    0 -0.36836047920E+02 -0.18588300595E+02  0.29020770786E+03  0.31866650097E+03  0.12500162316E+03 0.  0.
         24    2    1    2    0    0  0.38947785690E+02 -0.11162178416E+02 -0.44347693144E+02  0.10136263488E+03  0.81646442818E+02 0.  0.
        -11    1    5    5    0    0 -0.16921961025E+02 -0.26022053637E+02 -0.50242886278E+01  0.31444292274E+02  0.00000000000E+00 0.  1.
         12    1    5    5    0    0  0.55869746715E+02  0.14859875221E+02 -0.39323404516E+02  0.69918342603E+02  0.00000000000E+00 0. -1.
        -13    1    3    3    0    0 -0.83105532479E+02 -0.13536592402E+03 -0.21022598926E+03  0.26348705751E+03  0.00000000000E+00 0.  1.
         14    1    3    3    0    0  0.37344031634E+01  0.30224705359E+01 -0.44952240839E+02  0.45208240970E+02  0.00000000000E+00 0. -1.
          5    1    4    4  501    0  0.42262988286E+02 -0.17320372711E+02  0.62433036927E+02  0.77499223155E+02  0.47000000000E+01 0.  1.
         -5    1    4    4    0  501 -0.79099036206E+02 -0.12679278840E+01  0.22777467093E+03  0.24116727782E+03  0.47000000000E+01 0.  1.
          1    1    1    2  502    0  0.19827766386E+03  0.28686291031E+02 -0.31051560716E+03  0.36953603014E+03  0.00000000000E+00 0. -1.
          1    1    1    2  503    0 -0.12101827232E+03  0.13340764147E+03  0.74972417475E+03  0.77105729958E+03  0.00000000000E+00 0. -1.
<mgrwt>
<rscale>  0 0.15013772E+03</rscale>
<asrwt>0</asrwt>
<pdfrwt beam="1">  1        2 0.16905942E+00 0.16908258E+03</pdfrwt>
<pdfrwt beam="2">  1        2 0.10584025E+00 0.13331554E+03</pdfrwt>
<totfact> 0.16039364E+02</totfact>
</mgrwt>
</event>
<event>
13    1  0.1589573E-008  0.6357928E+02  0.7546771E-02  0.1441343E+00
          2   -1    0    0  502    0  0.00000000000E+00  0.00000000000E+00  0.16794982538E+04  0.16794982538E+04  0.00000000000E+00 0. -1.
          2   -1    0    0  503    0 -0.00000000000E+00 -0.00000000000E+00 -0.10414613995E+04  0.10414613995E+04  0.00000000000E+00 0. -1.
         24    2    1    2    0    0 -0.86026189452E+02 -0.79242457560E+02 -0.29116657096E+03  0.32439765052E+03  0.82316409459E+02 0.  0.
         25    2    1    2    0    0 -0.36701429048E+02 -0.83596836793E+02  0.77914679126E+03  0.79437860288E+03  0.12502886219E+03 0.  0.
         24    2    1    2    0    0  0.89716524184E+02  0.71793480407E+02 -0.35171030686E+03  0.37833158420E+03  0.78938514750E+02 0.  0.
        -11    1    3    3    0    0 -0.88246077411E+02 -0.70586475952E+02 -0.29404325707E+03  0.31500993285E+03  0.00000000000E+00 0.  1.
         12    1    3    3    0    0  0.22198879587E+01 -0.86559816079E+01  0.28766861069E+01  0.93877176727E+01  0.00000000000E+00 0. -1.
        -11    1    5    5    0    0  0.44042356691E+02 -0.10314539996E+02 -0.12438656396E+03  0.13235609624E+03  0.00000000000E+00 0.  1.
         12    1    5    5    0    0  0.45674167493E+02  0.82108020404E+02 -0.22732374290E+03  0.24597548796E+03  0.00000000000E+00 0. -1.
          5    1    4    4  501    0  0.37526613338E+02  0.60820381573E+01  0.19389585563E+03  0.19764344342E+03  0.47000000000E+01 0.  1.
         -5    1    4    4    0  501 -0.74228042386E+02 -0.89678874951E+02  0.58525093563E+03  0.59673515947E+03  0.47000000000E+01 0.  1.
          1    1    1    2  502    0  0.38074528187E+02  0.50855574389E+02  0.86049849099E+03  0.86284043260E+03  0.00000000000E+00 0. -1.
          1    1    1    2  503    0 -0.50634338704E+01  0.40190239558E+02 -0.35873155012E+03  0.36101138316E+03  0.00000000000E+00 0. -1.
<mgrwt>
<rscale>  0 0.50749048E+02</rscale>
<asrwt>0</asrwt>
<pdfrwt beam="1">  1        2 0.24698504E+00 0.63579276E+02</pdfrwt>
<pdfrwt beam="2">  1        2 0.15315609E+00 0.40507946E+02</pdfrwt>
<totfact> 0.61820324E+01</totfact>
</mgrwt>
</event>
<event>
13    1  0.1589573E-008  0.9305102E+02  0.7546771E-02  0.1432841E+00
          2   -1    0    0  503    0  0.00000000000E+00  0.00000000000E+00  0.46702469140E+04  0.46702469140E+04  0.00000000000E+00 0. -1.
          2   -1    0    0  502    0 -0.00000000000E+00 -0.00000000000E+00 -0.18790747141E+04  0.18790747141E+04  0.00000000000E+00 0. -1.
         24    2    1    2    0    0  0.11808113348E+03 -0.44094999083E+03 -0.52680495361E+03  0.70213794008E+03  0.84226950917E+02 0.  0.
         25    2    1    2    0    0 -0.13608393420E+03  0.31014800389E+03  0.12990573588E+04  0.13482896887E+04  0.12499776735E+03 0.  0.
         24    2    1    2    0    0 -0.96740465344E+02  0.99876215837E+02  0.32387750105E+03  0.36137204535E+03  0.79744237072E+02 0.  0.
        -11    1    5    5    0    0 -0.10514345171E+03  0.10549008344E+03  0.28988126729E+03  0.32590558797E+03  0.00000000000E+00 0.  1.
         12    1    5    5    0    0  0.84029863615E+01 -0.56138676050E+01  0.33996233762E+02  0.35466457383E+02  0.00000000000E+00 0. -1.
        -11    1    3    3    0    0  0.24535409830E+02 -0.24178970322E+03 -0.30081832571E+03  0.38672459452E+03  0.00000000000E+00 0.  1.
         12    1    3    3    0    0  0.93545723651E+02 -0.19916028761E+03 -0.22598662789E+03  0.31541334557E+03  0.00000000000E+00 0. -1.
          5    1    4    4  501    0 -0.21248502552E+02  0.15308339750E+03  0.41020285122E+03  0.43837711459E+03  0.47000000000E+01 0.  1.
         -5    1    4    4    0  501 -0.11483543164E+03  0.15706460639E+03  0.88885450757E+03  0.90991257414E+03  0.47000000000E+01 0.  1.
          1    1    1    2  502    0  0.29034022870E+02 -0.52299423032E+01 -0.12203197018E+04  0.12206762476E+04  0.00000000000E+00 0. -1.
          1    1    1    2  503    0  0.85709243190E+02  0.36155713404E+02  0.29153619954E+04  0.29168457063E+04  0.00000000000E+00 0. -1.
<mgrwt>
<rscale>  0 0.52393950E+02</rscale>
<asrwt>0</asrwt>
<pdfrwt beam="1">  1        2 0.68680101E+00 0.93051015E+02</pdfrwt>
<pdfrwt beam="2">  1        2 0.27633452E+00 0.29501301E+02</pdfrwt>
<totfact> 0.43804333E-01</totfact>
</mgrwt>
</event>
<event>
13    1  0.1589573E-008  0.1714852E+03  0.7546771E-02  0.1251160E+00
          2   -1    0    0  503    0  0.00000000000E+00  0.00000000000E+00  0.34304878538E+04  0.34304878538E+04  0.00000000000E+00 0. -1.
          2   -1    0    0  502    0 -0.00000000000E+00 -0.00000000000E+00 -0.33489991277E+04  0.33489991277E+04  0.00000000000E+00 0. -1.
         24    2    1    2    0    0 -0.10271437584E+02  0.87449419535E+02 -0.82504966172E+03  0.83352372286E+03  0.79384815041E+02 0.  0.
         25    2    1    2    0    0 -0.33958811761E+03  0.70753737265E+02  0.70771621116E+03  0.79800651391E+03  0.12500391894E+03 0.  0.
         24    2    1    2    0    0  0.32784687192E+02 -0.17447879846E+03 -0.26022121115E+03  0.32513990996E+03  0.80518292900E+02 0.  0.
        -13    1    3    3    0    0 -0.21098558979E+02  0.38194062584E+02 -0.14051684295E+03  0.14713571545E+03  0.00000000000E+00 0.  1.
         14    1    3    3    0    0  0.10827121395E+02  0.49255356951E+02 -0.68453281878E+03  0.68638800742E+03  0.00000000000E+00 0. -1.
        -13    1    5    5    0    0 -0.14751634968E+01 -0.14869573145E+03 -0.22475639777E+03  0.26949589050E+03  0.00000000000E+00 0.  1.
         14    1    5    5    0    0  0.34259850689E+02 -0.25783067015E+02 -0.35464813380E+02  0.55644019464E+02  0.00000000000E+00 0. -1.
          5    1    4    4  501    0  0.26881271806E+01  0.49534183956E+01 -0.17407956966E+01  0.75420654464E+01  0.47000000000E+01 0.  1.
         -5    1    4    4    0  501 -0.34227624479E+03  0.65800318869E+02  0.70945700686E+03  0.79046444847E+03  0.47000000000E+01 0.  1.
          1    1    1    2  502    0  0.24974258423E+03 -0.21986611702E+02 -0.21741136502E+04  0.21885211750E+04  0.00000000000E+00 0. -1.
          1    1    1    2  503    0  0.67332283770E+02  0.38262253364E+02  0.26331570380E+04  0.26342956598E+04  0.00000000000E+00 0. -1.
<mgrwt>
<rscale>  0 0.11524134E+03</rscale>
<asrwt>0</asrwt>
<pdfrwt beam="1">  1        2 0.50448351E+00 0.77444409E+02</pdfrwt>
<pdfrwt beam="2">  1        2 0.49249987E+00 0.17148517E+03</pdfrwt>
<totfact> 0.46260624E-01</totfact>
</mgrwt>
</event>
<event>
13    1  0.1589573E-008  0.1565598E+03  0.7546771E-02  0.1298979E+00
          2   -1    0    0  503    0  0.00000000000E+00  0.00000000000E+00  0.13316649009E+04  0.13316649009E+04  0.00000000000E+00 0. -1.
          2   -1    0    0  502    0 -0.00000000000E+00 -0.00000000000E+00 -0.23863252819E+04  0.23863252819E+04  0.00000000000E+00 0. -1.
         24    2    1    2    0    0  0.67637710009E+02  0.35426419349E+02 -0.55931765860E+03  0.56988267161E+03  0.78103298147E+02 0.  0.
         25    2    1    2    0    0 -0.92960535144E+02  0.24673144004E+03  0.45566507240E+03  0.54108638323E+03  0.12500300522E+03 0.  0.
         24    2    1    2    0    0  0.46339798685E+01 -0.31141085072E+02  0.31163044112E+02  0.93491608542E+02  0.82330459738E+02 0.  0.
        -11    1    3    3    0    0  0.49020175716E+02  0.60217238716E+02 -0.37207413221E+03  0.38008979640E+03  0.00000000000E+00 0.  1.
         12    1    3    3    0    0  0.18617534292E+02 -0.24790819367E+02 -0.18724352639E+03  0.18979287521E+03  0.00000000000E+00 0. -1.
        -11    1    5    5    0    0 -0.32870113185E+02 -0.42554363677E+01  0.33711423472E+02  0.47275925713E+02  0.00000000000E+00 0.  1.
         12    1    5    5    0    0  0.37504093054E+02 -0.26885648705E+02 -0.25483793597E+01  0.46215682830E+02  0.00000000000E+00 0. -1.
          5    1    4    4  501    0 -0.56795741458E+02  0.21873795824E+03  0.28185148258E+03  0.36129544538E+03  0.47000000000E+01 0.  1.
         -5    1    4    4    0  501 -0.36164793686E+02  0.27993481800E+02  0.17381358982E+03  0.17979093784E+03  0.47000000000E+01 0.  1.
          1    1    1    2  502    0  0.63240999427E+02 -0.21839987505E+03 -0.17395039463E+04  0.17543009744E+04  0.00000000000E+00 0. -1.
          1    1    1    2  503    0 -0.42552154160E+02 -0.32616899264E+02  0.75733310740E+03  0.75922854497E+03  0.00000000000E+00 0. -1.
<mgrwt>
<rscale>  0 0.91618360E+02</rscale>
<asrwt>0</asrwt>
<pdfrwt beam="1">  1        2 0.19583308E+00 0.53614811E+02</pdfrwt>
<pdfrwt beam="2">  1        2 0.35093018E+00 0.15655980E+03</pdfrwt>
<totfact> 0.17840968E+01</totfact>
</mgrwt>
</event>
<event>
13    1  0.1589573E-008  0.1280170E+03  0.7546771E-02  0.1355917E+00
          2   -1    0    0  503    0  0.00000000000E+00  0.00000000000E+00  0.18099559070E+04  0.18099559070E+04  0.00000000000E+00 0. -1.
          2   -1    0    0  502    0 -0.00000000000E+00 -0.00000000000E+00 -0.29745748222E+04  0.29745748222E+04  0.00000000000E+00 0. -1.
         24    2    1    2    0    0  0.22595915569E+03 -0.40671159979E+03 -0.36599112283E+03  0.59492056358E+03  0.59237737385E+02 0.  0.
         25    2    1    2    0    0 -0.32436938575E+03 -0.36092656254E+01  0.73470774457E+03  0.81280159544E+03  0.12498975322E+03 0.  0.
         24    2    1    2    0    0  0.10289022074E+03  0.52952637925E+03 -0.60244394022E+03  0.81253449158E+03  0.79303310512E+02 0.  0.
        -13    1    5    5    0    0  0.79874597549E+02  0.33998473853E+03 -0.44067558107E+03  0.56228510697E+03  0.00000000000E+00 0.  1.
         14    1    5    5    0    0  0.23015623190E+02  0.18954164072E+03 -0.16176835915E+03  0.25024938461E+03  0.00000000000E+00 0. -1.
        -13    1    3    3    0    0  0.18035411599E+03 -0.28147832002E+03 -0.28223708979E+03  0.43751048748E+03  0.00000000000E+00 0.  1.
         14    1    3    3    0    0  0.45605039705E+02 -0.12523327977E+03 -0.83754033036E+02  0.15741007610E+03  0.00000000000E+00 0. -1.
          5    1    4    4  501    0 -0.30332364028E+02 -0.23323143600E+02  0.29696669841E+02  0.48662136560E+02  0.47000000000E+01 0.  1.
         -5    1    4    4    0  501 -0.29403702172E+03  0.19713877975E+02  0.70501107472E+03  0.76413945888E+03  0.47000000000E+01 0.  1.
          1    1    1    2  502    0  0.39633921714E+02  0.10340640159E+01 -0.17423345752E+04  0.17427856119E+04  0.00000000000E+00 0. -1.
          1    1    1    2  503    0 -0.44113912392E+02 -0.12023957785E+03  0.81144297860E+03  0.82148846666E+03  0.00000000000E+00 0. -1.
<mgrwt>
<rscale>  0 0.71242838E+02</rscale>
<asrwt>0</asrwt>
<pdfrwt beam="1">  1        2 0.26616999E+00 0.12801699E+03</pdfrwt>
<pdfrwt beam="2">  1        2 0.43743747E+00 0.39647409E+02</pdfrwt>
<totfact> 0.59771303E+00</totfact>
</mgrwt>
</event>
<event>
13    1  0.1589573E-008  0.8173996E+02  0.7546771E-02  0.1398825E+00
          2   -1    0    0  502    0  0.00000000000E+00  0.00000000000E+00  0.13122041314E+04  0.13122041314E+04  0.00000000000E+00 0. -1.
          2   -1    0    0  503    0 -0.00000000000E+00 -0.00000000000E+00 -0.29813889329E+04  0.29813889329E+04  0.00000000000E+00 0. -1.
         24    2    1    2    0    0 -0.70121035247E+02  0.52242298458E+03 -0.43843337438E+03  0.69033387543E+03  0.80587228456E+02 0.  0.
         25    2    1    2    0    0  0.16901426794E+03  0.60746092796E+02 -0.26795427615E+03  0.34594810133E+03  0.12499873658E+03 0.  0.
         24    2    1    2    0    0 -0.12187120491E+03 -0.53173287273E+03  0.20671809233E+03  0.59149044472E+03  0.97653151369E+02 0.  0.
        -13    1    5    5    0    0 -0.33710822750E+02 -0.10804541408E+03  0.31145836938E+01  0.11322513725E+03  0.00000000000E+00 0.  1.
         14    1    5    5    0    0 -0.88160382162E+02 -0.42368745865E+03  0.20360350863E+03  0.47826530747E+03  0.00000000000E+00 0. -1.
        -13    1    3    3    0    0 -0.26010114316E+02  0.20591310555E+03 -0.22465054743E+03  0.30585061965E+03  0.00000000000E+00 0.  1.
         14    1    3    3    0    0 -0.44110920930E+02  0.31650987904E+03 -0.21378282696E+03  0.38448325578E+03  0.00000000000E+00 0. -1.
          5    1    4    4  501    0  0.47581989060E+02 -0.12101495176E+01 -0.17365295587E+03  0.18011926390E+03  0.47000000000E+01 0. -1.
         -5    1    4    4    0  501  0.12143227888E+03  0.61956242314E+02 -0.94301320281E+02  0.16582883743E+03  0.47000000000E+01 0. -1.
          1    1    1    2  502    0 -0.88977313938E+01 -0.81324268294E+02  0.74566630339E+03  0.75014068164E+03  0.00000000000E+00 0. -1.
          1    1    1    2  503    0  0.31875703612E+02  0.29888063645E+02 -0.19151815467E+04  0.19156799612E+04  0.00000000000E+00 0. -1.
<mgrwt>
<rscale>  0 0.59763909E+02</rscale>
<asrwt>0</asrwt>
<pdfrwt beam="1">  1        2 0.19297120E+00 0.81739963E+02</pdfrwt>
<pdfrwt beam="2">  1        2 0.43843955E+00 0.43696188E+02</pdfrwt>
<totfact> 0.10643146E+01</totfact>
</mgrwt>
</event>
<event>
13    1  0.1589573E-008  0.7522363E+02  0.7546771E-02  0.1382362E+00
          2   -1    0    0  502    0  0.00000000000E+00  0.00000000000E+00  0.53946845991E+03  0.53946845991E+03  0.00000000000E+00 0. -1.
          2   -1    0    0  503    0 -0.00000000000E+00 -0.00000000000E+00 -0.31388458712E+04  0.31388458712E+04  0.00000000000E+00 0. -1.
         24    2    1    2    0    0  0.40006485909E+02 -0.40359072869E+02 -0.71151107995E+02  0.12357050449E+03  0.83533321096E+02 0.  0.
         25    2    1    2    0    0 -0.94122099628E+02  0.80729489503E+02 -0.55170138882E+03  0.57911716572E+03  0.12500419632E+03 0.  0.
         24    2    1    2    0    0  0.25977799801E+02 -0.27568862718E+02 -0.37578603557E+02  0.95229180091E+02  0.78876847182E+02 0.  0.
        -11    1    5    5    0    0  0.29323270211E+02  0.22614956082E+02 -0.18921583387E+02  0.41585054194E+02  0.00000000000E+00 0.  1.
         12    1    5    5    0    0 -0.33454704103E+01 -0.50183818800E+02 -0.18657020170E+02  0.53644125897E+02  0.00000000000E+00 0. -1.
        -11    1    3    3    0    0  0.59581584552E+02 -0.55867992652E+01 -0.32881084525E+02  0.68281353702E+02  0.00000000000E+00 0.  1.
         12    1    3    3    0    0 -0.19575098644E+02 -0.34772273604E+02 -0.38270023470E+02  0.55289150788E+02  0.00000000000E+00 0. -1.
          5    1    4    4  501    0  0.26485081036E+02 -0.36822808823E+01 -0.60581455606E+02  0.66386907394E+02  0.47000000000E+01 0. -1.
         -5    1    4    4    0  501 -0.12060718066E+03  0.84411770385E+02 -0.49111993321E+03  0.51273025833E+03  0.47000000000E+01 0. -1.
          1    1    1    2  502    0  0.35671678731E+02 -0.66466218357E+02  0.46739651764E+03  0.47344453904E+03  0.00000000000E+00 0. -1.
          1    1    1    2  503    0 -0.75338648123E+01  0.53664664442E+02 -0.24063428286E+04  0.24069529418E+04  0.00000000000E+00 0. -1.
<mgrwt>
<rscale>  0 0.63846983E+02</rscale>
<asrwt>0</asrwt>
<pdfrwt beam="1">  1        2 0.79333599E-01 0.75223628E+02</pdfrwt>
<pdfrwt beam="2">  1        2 0.46159497E+00 0.54190916E+02</pdfrwt>
<totfact> 0.25751696E+01</totfact>
</mgrwt>
</event>
<event>
13    1  0.1589573E-008  0.1206443E+03  0.7546771E-02  0.1393592E+00
         -1   -1    0    0    0  501 -0.00000000000E+00  0.00000000000E+00  0.10762046749E+04  0.10762046749E+04  0.00000000000E+00 0.  1.
          2   -1    0    0  503    0  0.00000000000E+00 -0.00000000000E+00 -0.10707877166E+04  0.10707877166E+04  0.00000000000E+00 0. -1.
         24    2    1    2    0    0 -0.27849592421E+02  0.20591318367E+03 -0.13240557606E+02  0.22247982129E+03  0.78397190709E+02 0.  0.
         25    2    1    2    0    0 -0.90347948505E+02 -0.18119971680E+03 -0.75513000719E+03  0.79173388779E+03  0.12500052864E+03 0.  0.
         24    2    1    2    0    0 -0.10904002921E+03 -0.10742056737E+02  0.33241773368E+02  0.13999821088E+03  0.80556587560E+02 0.  0.
        -11    1    5    5    0    0 -0.10123362899E+03 -0.27545354247E+02  0.48889869387E+02  0.11574633259E+03  0.00000000000E+00 0.  1.
         12    1    5    5    0    0 -0.78064002226E+01  0.16803297510E+02 -0.15648096018E+02  0.24251878291E+02  0.00000000000E+00 0. -1.
        -11    1    3    3    0    0  0.26959165832E+02  0.87368159473E+02 -0.31219278267E+01  0.91486274082E+02  0.00000000000E+00 0.  1.
         12    1    3    3    0    0 -0.54808758253E+02  0.11854502419E+03 -0.10118629780E+02  0.13099354721E+03  0.00000000000E+00 0. -1.
          5    1    4    4  502    0  0.18745056742E+02 -0.72568199813E+02 -0.15619129245E+03  0.17330704144E+03  0.47000000000E+01 0.  1.
         -5    1    4    4    0  502 -0.10909300525E+03 -0.10863151698E+03 -0.59893871474E+03  0.61842684635E+03  0.47000000000E+01 0.  1.
          1    1    1    2  503    0  0.25743443257E+02 -0.17027200894E+02 -0.11229260342E+03  0.11645719911E+03  0.00000000000E+00 0. -1.
         -2    1    1    2    0  501  0.20149412688E+03  0.30557907602E+01  0.85283835316E+03  0.87632327235E+03  0.00000000000E+00 0.  1.
<mgrwt>
<rscale>  0 0.61022038E+02</rscale>
<asrwt>0</asrwt>
<pdfrwt beam="2">  1        2 0.15746878E+00 0.30865036E+02</pdfrwt>
<pdfrwt beam="1">  1       -1 0.15826539E+00 0.12064425E+03</pdfrwt>
<totfact> 0.11421753E+01</totfact>
</mgrwt>
</event>
<event>
13    1  0.1589573E-008  0.1278517E+03  0.7546771E-02  0.1369509E+00
          2   -1    0    0  503    0  0.00000000000E+00  0.00000000000E+00  0.19551911200E+04  0.19551911200E+04  0.00000000000E+00 0. -1.
          2   -1    0    0  502    0 -0.00000000000E+00 -0.00000000000E+00 -0.14990985775E+04  0.14990985775E+04  0.00000000000E+00 0. -1.
         24    2    1    2    0    0  0.15416958222E+03 -0.43427880087E+02 -0.63625160698E+03  0.66114023085E+03  0.81461994933E+02 0.  0.
         25    2    1    2    0    0 -0.13121829365E+03  0.13770117036E+03  0.22580121194E+03  0.32062662857E+03  0.12504157200E+03 0.  0.
         24    2    1    2    0    0  0.24054348981E+01  0.42792768802E+02  0.53413353602E+02  0.10564925185E+03  0.80447317516E+02 0.  0.
        -11    1    3    3    0    0  0.66930776418E+02 -0.55651324123E+02 -0.39031119084E+03  0.39989951789E+03  0.00000000000E+00 0.  1.
         12    1    3    3    0    0  0.87238805806E+02  0.12223444037E+02 -0.24594041613E+03  0.26124071297E+03  0.00000000000E+00 0. -1.
        -13    1    5    5    0    0 -0.16175417737E+02 -0.19964874912E+02  0.14477291852E+02  0.29492920313E+02  0.00000000000E+00 0.  1.
         14    1    5    5    0    0  0.18580852635E+02  0.62757643714E+02  0.38936061750E+02  0.76156331541E+02  0.00000000000E+00 0. -1.
          5    1    4    4  501    0  0.20129236919E+02  0.12509232384E+01  0.38947030282E+02  0.44110227336E+02  0.47000000000E+01 0. -1.
         -5    1    4    4    0  501 -0.15134753057E+03  0.13645024713E+03  0.18685418166E+03  0.27651640124E+03  0.47000000000E+01 0. -1.
          1    1    1    2  502    0 -0.54186444879E+02 -0.11647140045E+03 -0.77136229198E+03  0.78198564144E+03  0.00000000000E+00 0. -1.
          1    1    1    2  503    0  0.28829721405E+02 -0.20594658632E+02  0.15844918759E+04  0.15848879448E+04  0.00000000000E+00 0. -1.
<mgrwt>
<rscale>  0 0.67303790E+02</rscale>
<asrwt>0</asrwt>
<pdfrwt beam="1">  1        2 0.28752811E+00 0.35430111E+02</pdfrwt>
<pdfrwt beam="2">  1        2 0.22045567E+00 0.12785170E+03</pdfrwt>
<totfact> 0.26393341E+01</totfact>
</mgrwt>
</event>
<event>
13    1  0.1589573E-008  0.3127927E+02  0.7546771E-02  0.1588742E+00
          2   -1    0    0  502    0  0.00000000000E+00  0.00000000000E+00  0.33573979119E+04  0.33573979119E+04  0.00000000000E+00 0. -1.
          2   -1    0    0  503    0 -0.00000000000E+00 -0.00000000000E+00 -0.12256776130E+04  0.12256776130E+04  0.00000000000E+00 0. -1.
         24    2    1    2    0    0  0.44341714714E+03  0.15993593350E+03 -0.70391553424E+03  0.85120679384E+03  0.82810973567E+02 0.  0.
         25    2    1    2    0    0 -0.59136295057E+03 -0.38101203408E+03  0.22445249877E+04  0.23555034998E+04  0.12499603086E+03 0.  0.
         24    2    1    2    0    0  0.13816160664E+03  0.19235153343E+03  0.24705163507E+02  0.25135922214E+03  0.80519385793E+02 0.  0.
        -11    1    3    3    0    0  0.25183922738E+03  0.13387728236E+03 -0.42513722445E+03  0.51194509744E+03  0.00000000000E+00 0.  1.
         12    1    3    3    0    0  0.19157791976E+03  0.26058651137E+02 -0.27877830979E+03  0.33926169640E+03  0.00000000000E+00 0. -1.
        -11    1    5    5    0    0  0.43936625155E+02  0.16267349700E+02 -0.11861068225E+02  0.48329479986E+02  0.00000000000E+00 0.  1.
         12    1    5    5    0    0  0.94224981483E+02  0.17608418373E+03  0.36566231732E+02  0.20302974215E+03  0.00000000000E+00 0. -1.
          5    1    4    4  501    0 -0.36643675421E+03 -0.23612812114E+03  0.11830182214E+04  0.12607880816E+04  0.47000000000E+01 0.  1.
         -5    1    4    4    0  501 -0.22492619636E+03 -0.14488391294E+03  0.10615067663E+04  0.10947154182E+04  0.47000000000E+01 0.  1.
          1    1    1    2  502    0 -0.20271472042E+02  0.23827743413E+02  0.84458534586E+03  0.84516454041E+03  0.00000000000E+00 0. -1.
          1    1    1    2  503    0  0.30055668838E+02  0.48968237294E+01 -0.27817966399E+03  0.27984146864E+03  0.00000000000E+00 0. -1.
<mgrwt>
<rscale>  0 0.30862844E+02</rscale>
<asrwt>0</asrwt>
<pdfrwt beam="1">  1        2 0.49373499E+00 0.31279269E+02</pdfrwt>
<pdfrwt beam="2">  1        2 0.18024671E+00 0.30451964E+02</pdfrwt>
<totfact> 0.84926190E+00</totfact>
</mgrwt>
</event>
<event>
13    1  0.1589573E-008  0.1678133E+03  0.7546771E-02  0.1275876E+00
          2   -1    0    0  502    0  0.00000000000E+00  0.00000000000E+00  0.14061096745E+04  0.14061096745E+04  0.00000000000E+00 0. -1.
          2   -1    0    0  503    0 -0.00000000000E+00 -0.00000000000E+00 -0.14216782284E+04  0.14216782284E+04  0.00000000000E+00 0. -1.
         24    2    1    2    0    0 -0.16866787757E+03 -0.14356311225E+02  0.19018167319E+03  0.26679969171E+03  0.79737381975E+02 0.  0.
         25    2    1    2    0    0  0.29994051611E+03 -0.20546271718E+03  0.55198224400E+03  0.67267295731E+03  0.12500107379E+03 0.  0.
         24    2    1    2    0    0  0.35828101742E+01  0.94965232424E+02 -0.37735660025E+02  0.12959467599E+03  0.79621404836E+02 0.  0.
        -13    1    5    5    0    0 -0.25595087901E+02  0.66122801846E+01 -0.23684584377E+02  0.35493524917E+02  0.00000000000E+00 0.  1.
         14    1    5    5    0    0  0.29177898075E+02  0.88352952240E+02 -0.14051075649E+02  0.94101151069E+02  0.00000000000E+00 0. -1.
        -13    1    3    3    0    0 -0.28653169767E+02 -0.34961906226E+02  0.53639280575E+02  0.70146357320E+02  0.00000000000E+00 0.  1.
         14    1    3    3    0    0 -0.14001470780E+03  0.20605595001E+02  0.13654239261E+03  0.19665333439E+03  0.00000000000E+00 0. -1.
          5    1    4    4  501    0  0.12093668293E+03 -0.11022959915E+03  0.14821505335E+03  0.22083033724E+03  0.47000000000E+01 0. -1.
         -5    1    4    4    0  501  0.17900383318E+03 -0.95233118032E+02  0.40376719065E+03  0.45184262006E+03  0.47000000000E+01 0. -1.
          1    1    1    2  502    0 -0.62091351563E+02  0.28671578786E+01  0.51341153052E+03  0.51716047432E+03  0.00000000000E+00 0. -1.
          1    1    1    2  503    0 -0.72764097150E+02  0.12198663810E+03 -0.12334083416E+04  0.12415601036E+04  0.00000000000E+00 0. -1.
<mgrwt>
<rscale>  0 0.10213158E+03</rscale>
<asrwt>0</asrwt>
<pdfrwt beam="1">  1        2 0.20678084E+00 0.62157514E+02</pdfrwt>
<pdfrwt beam="2">  1        2 0.20907033E+00 0.16781333E+03</pdfrwt>
<totfact> 0.48593332E+01</totfact>
</mgrwt>
</event>
<event>
13    1  0.1589573E-008  0.1164277E+03  0.7546771E-02  0.1357179E+00
          2   -1    0    0  502    0  0.00000000000E+00  0.00000000000E+00  0.16645876336E+03  0.16645876336E+03  0.00000000000E+00 0. -1.
          2   -1    0    0  503    0 -0.00000000000E+00 -0.00000000000E+00 -0.28861066506E+04  0.28861066506E+04  0.00000000000E+00 0. -1.
         24    2    1    2    0    0  0.31629927170E+02 -0.28206187586E+02 -0.83621176745E+03  0.84161591934E+03  0.85271298606E+02 0.  0.
         25    2    1    2    0    0 -0.18342097876E+03 -0.97017623906E+01 -0.38949682662E+02  0.22556440397E+03  0.12499937166E+03 0.  0.
         24    2    1    2    0    0  0.42700870462E+02  0.40161973083E+02 -0.70218325744E+02  0.12090397842E+03  0.79062066178E+02 0.  0.
        -11    1    3    3    0    0  0.29438772698E+02 -0.56583158732E+02 -0.66530675254E+03  0.66835721748E+03  0.00000000000E+00 0.  1.
         12    1    3    3    0    0  0.21911544721E+01  0.28376971146E+02 -0.17090501491E+03  0.17325870186E+03  0.00000000000E+00 0. -1.
        -13    1    5    5    0    0  0.24587020481E+01 -0.46626163104E+01  0.15366418718E+02  0.16245369520E+02  0.00000000000E+00 0.  1.
         14    1    5    5    0    0  0.40242168414E+02  0.44824589394E+02 -0.85584744463E+02  0.10465860890E+03  0.00000000000E+00 0. -1.
          5    1    4    4  501    0 -0.38292729490E+02  0.26504857006E+02  0.35185931373E+02  0.58557496047E+02  0.47000000000E+01 0.  1.
         -5    1    4    4    0  501 -0.14512824927E+03 -0.36206619397E+02 -0.74135614036E+02  0.16700690792E+03  0.47000000000E+01 0.  1.
          1    1    1    2  502    0  0.12727440430E+02  0.41211234383E+02  0.32885380688E+02  0.54238379791E+02  0.00000000000E+00 0. -1.
          1    1    1    2  503    0  0.96362740699E+02 -0.43465257490E+02 -0.18071534921E+04  0.18102427324E+04  0.00000000000E+00 0. -1.
<mgrwt>
<rscale>  0 0.70864226E+02</rscale>
<asrwt>0</asrwt>
<pdfrwt beam="1">  1        2 0.24479229E-01 0.43131816E+02</pdfrwt>
<pdfrwt beam="2">  1        2 0.42442746E+00 0.11642771E+03</pdfrwt>
<totfact> 0.10475556E+02</totfact>
</mgrwt>
</event>
<event>
13    1  0.1589573E-008  0.9223724E+02  0.7546771E-02  0.1338072E+00
          2   -1    0    0  503    0  0.00000000000E+00  0.00000000000E+00  0.99953611951E+03  0.99953611951E+03  0.00000000000E+00 0. -1.
          2   -1    0    0  502    0 -0.00000000000E+00 -0.00000000000E+00 -0.11960104010E+04  0.11960104010E+04  0.00000000000E+00 0. -1.
         24    2    1    2    0    0  0.17654560788E+02 -0.13615705507E+00 -0.97094397821E+02  0.12655267258E+03  0.79224710750E+02 0.  0.
         25    2    1    2    0    0  0.36200431757E+02 -0.17974504250E+02  0.15351309888E+03  0.20205066823E+03  0.12499858777E+03 0.  0.
         24    2    1    2    0    0 -0.43007738621E+02  0.57371477797E+02 -0.47430415567E+02  0.11792913996E+03  0.80724752615E+02 0.  0.
        -13    1    5    5    0    0 -0.35017900829E+02  0.58424607149E+02  0.17056174146E+01  0.68136607120E+02  0.00000000000E+00 0.  1.
         14    1    5    5    0    0 -0.79898377914E+01 -0.10531293524E+01 -0.49136032981E+02  0.49792532839E+02  0.00000000000E+00 0. -1.
        -13    1    3    3    0    0 -0.10261452468E+02 -0.30114776480E+02 -0.15803436816E+02  0.35523876258E+02  0.00000000000E+00 0.  1.
         14    1    3    3    0    0  0.27916013256E+02  0.29978619425E+02 -0.81290961005E+02  0.91028796322E+02  0.00000000000E+00 0. -1.
          5    1    4    4  501    0  0.42806198799E+02  0.16705572700E+02  0.18128682327E+01  0.46225786160E+02  0.47000000000E+01 0.  1.
         -5    1    4    4    0  501 -0.66057670425E+01 -0.34680076950E+02  0.15170023065E+03  0.15582488207E+03  0.47000000000E+01 0.  1.
          1    1    1    2  502    0  0.60991082241E+02  0.19788505232E+02 -0.97337843405E+03  0.97548812034E+03  0.00000000000E+00 0. -1.
          1    1    1    2  503    0 -0.71838336165E+02 -0.59049321724E+02  0.76791586711E+03  0.77352591935E+03  0.00000000000E+00 0. -1.
<mgrwt>
<rscale>  0 0.76904748E+02</rscale>
<asrwt>0</asrwt>
<pdfrwt beam="1">  1        2 0.14699061E+00 0.92237243E+02</pdfrwt>
<pdfrwt beam="2">  1        2 0.17588388E+00 0.64120956E+02</pdfrwt>
<totfact> 0.10806720E+02</totfact>
</mgrwt>
</event>
<event>
13    1  0.1589573E-008  0.5511200E+02  0.7546771E-02  0.1553192E+00
          2   -1    0    0  502    0  0.00000000000E+00  0.00000000000E+00  0.31367991077E+04  0.31367991077E+04  0.00000000000E+00 0. -1.
          2   -1    0    0  503    0 -0.00000000000E+00 -0.00000000000E+00 -0.69119473849E+03  0.69119473849E+03  0.00000000000E+00 0. -1.
         24    2    1    2    0    0 -0.26649947852E+01 -0.11815114600E+02 -0.91259230647E+02  0.12311731237E+03  0.81749166950E+02 0.  0.
         25    2    1    2    0    0  0.33355556038E+02  0.10947385879E+03  0.16914375966E+04  0.16999063983E+04  0.12499400348E+03 0.  0.
         24    2    1    2    0    0  0.20223408408E+01 -0.28384765008E+02 -0.48544787059E+02  0.97663864646E+02  0.79823864603E+02 0.  0.
        -11    1    5    5    0    0 -0.15926151269E+02  0.12716202518E+02  0.10968063960E+02  0.23143952294E+02  0.00000000000E+00 0.  1.
         12    1    5    5    0    0  0.17948492110E+02 -0.41100967526E+02 -0.59512851019E+02  0.74519912352E+02  0.00000000000E+00 0. -1.
        -11    1    3    3    0    0  0.32394534783E+01  0.19594822099E+02  0.59953158693E+01  0.20745961639E+02  0.00000000000E+00 0.  1.
         12    1    3    3    0    0 -0.59044482635E+01 -0.31409936699E+02 -0.97254546517E+02  0.10237135073E+03  0.00000000000E+00 0. -1.
          5    1    4    4  501    0 -0.15383931304E+02 -0.22314742525E+02  0.36636543858E+03  0.36739670339E+03  0.47000000000E+01 0. -1.
         -5    1    4    4    0  501  0.48739487342E+02  0.13178860132E+03  0.13250721580E+04  0.13325096949E+04  0.47000000000E+01 0. -1.
          1    1    1    2  502    0 -0.24246330732E+02 -0.49421737528E+02  0.13998674689E+04  0.14009494363E+04  0.00000000000E+00 0. -1.
          1    1    1    2  503    0 -0.84665713624E+01 -0.19852241655E+02 -0.50589667865E+03  0.50635683446E+03  0.00000000000E+00 0. -1.
<mgrwt>
<rscale>  0 0.34488289E+02</rscale>
<asrwt>0</asrwt>
<pdfrwt beam="1">  1        2 0.46129398E+00 0.55112003E+02</pdfrwt>
<pdfrwt beam="2">  1        2 0.10164629E+00 0.21582269E+02</pdfrwt>
<totfact> 0.20224860E+01</totfact>
</mgrwt>
</event>
<event>
13    1  0.1589573E-008  0.1528436E+03  0.7546771E-02  0.1240971E+00
          4   -1    0    0  503    0 -0.00000000000E+00  0.00000000000E+00  0.71939256423E+03  0.71939256423E+03  0.00000000000E+00 0. -1.
          2   -1    0    0  502    0  0.00000000000E+00 -0.00000000000E+00 -0.15427027171E+04  0.15427027171E+04  0.00000000000E+00 0. -1.
         24    2    1    2    0    0 -0.68939307856E+02 -0.13082215806E+03  0.11738966057E+03  0.20481294899E+03  0.79378501230E+02 0.  0.
         25    2    1    2    0    0  0.64212461352E+02 -0.26387154607E+02 -0.44610198600E+03  0.46845602178E+03  0.12499816123E+03 0.  0.
         24    2    1    2    0    0  0.50502278747E+02  0.84478257250E+02 -0.12934900759E+02  0.12796966868E+03  0.80758085272E+02 0.  0.
        -13    1    5    5    0    0  0.67408111940E+02  0.82847819853E+02 -0.21498491820E+02  0.10894861156E+03  0.00000000000E+00 0.  1.
         14    1    5    5    0    0 -0.16905833193E+02  0.16304373973E+01  0.85635910611E+01  0.19021057119E+02  0.00000000000E+00 0. -1.
        -13    1    3    3    0    0 -0.54490261499E+02 -0.47541003892E+02  0.91061608151E+02  0.11628220899E+03  0.00000000000E+00 0.  1.
         14    1    3    3    0    0 -0.14449046357E+02 -0.83281154165E+02  0.26328052420E+02  0.88530739994E+02  0.00000000000E+00 0. -1.
          5    1    4    4  501    0  0.15616953248E+02  0.30846980137E+02 -0.31258577342E+02  0.46846708206E+02  0.47000000000E+01 0. -1.
         -5    1    4    4    0  501  0.48595508104E+02 -0.57234134744E+02 -0.41484340866E+03  0.42160931358E+03  0.47000000000E+01 0. -1.
          1    1    1    2  502    0 -0.43720857802E+02 -0.85761821588E+02 -0.95594980834E+03  0.96078438763E+03  0.00000000000E+00 0. -1.
          3    1    1    2  503    0 -0.20545744405E+01  0.15849287700E+03  0.47428688167E+03  0.50007225424E+03  0.00000000000E+00 0. -1.
<mgrwt>
<rscale>  0 0.12129802E+03</rscale>
<asrwt>0</asrwt>
<pdfrwt beam="2">  1        2 0.22686804E+00 0.96263199E+02</pdfrwt>
<pdfrwt beam="1">  1        4 0.10579303E+00 0.15284356E+03</pdfrwt>
<totfact> 0.59822397E+00</totfact>
</mgrwt>
</event>
<event>
13    1  0.1589573E-008  0.1044147E+03  0.7546771E-02  0.1389743E+00
          2   -1    0    0  503    0  0.00000000000E+00  0.00000000000E+00  0.16135791039E+04  0.16135791039E+04  0.00000000000E+00 0. -1.
          2   -1    0    0  502    0 -0.00000000000E+00 -0.00000000000E+00 -0.33664692054E+04  0.33664692054E+04  0.00000000000E+00 0. -1.
         24    2    1    2    0    0  0.23611516622E+02 -0.14544870801E+02 -0.80184482325E+03  0.80645763493E+03  0.81545934230E+02 0.  0.
         25    2    1    2    0    0  0.57297814213E+01  0.70686369345E+02  0.58037470962E+02  0.15499464767E+03  0.12500239824E+03 0.  0.
         24    2    1    2    0    0 -0.19386155099E+01  0.52053646852E+02 -0.10708787473E+03  0.14262440582E+03  0.78489284886E+02 0.  0.
        -11    1    5    5    0    0  0.26881819854E+02  0.50655025279E+02 -0.95776789311E+02  0.11163224084E+03  0.00000000000E+00 0.  1.
         12    1    5    5    0    0 -0.28820435364E+02  0.13986215729E+01 -0.11311085416E+02  0.30992164980E+02  0.00000000000E+00 0. -1.
        -13    1    3    3    0    0  0.34528299312E+02 -0.19402179768E+02 -0.17206490021E+03  0.17656437330E+03  0.00000000000E+00 0.  1.
         14    1    3    3    0    0 -0.10916782690E+02  0.48573089671E+01 -0.62977992304E+03  0.62989326164E+03  0.00000000000E+00 0. -1.
          5    1    4    4  501    0 -0.57290697914E+02  0.16662079094E+02  0.32032192651E+02  0.67882253301E+02  0.47000000000E+01 0. -1.
         -5    1    4    4    0  501  0.63020479335E+02  0.54024290251E+02  0.26005278312E+02  0.87112394370E+02  0.47000000000E+01 0. -1.
          1    1    1    2  502    0 -0.36669237167E+02 -0.28498862563E+01 -0.23869611699E+04  0.23872445165E+04  0.00000000000E+00 0. -1.
          1    1    1    2  503    0  0.92665546334E+01 -0.10534525914E+03  0.14849662955E+04  0.14887271044E+04  0.00000000000E+00 0. -1.
<mgrwt>
<rscale>  0 0.61970593E+02</rscale>
<asrwt>0</asrwt>
<pdfrwt beam="1">  1        2 0.23729105E+00 0.10441473E+03</pdfrwt>
<pdfrwt beam="2">  1        2 0.49506900E+00 0.36779815E+02</pdfrwt>
<totfact> 0.47808418E+00</totfact>
</mgrwt>
</event>
<event>
13    1  0.1589573E-008  0.1195728E+03  0.7546771E-02  0.1389056E+00
          2   -1    0    0  503    0  0.00000000000E+00  0.00000000000E+00  0.12417720681E+04  0.12417720681E+04  0.00000000000E+00 0. -1.
         -1   -1    0    0    0  501 -0.00000000000E+00 -0.00000000000E+00 -0.15056977425E+04  0.15056977425E+04  0.00000000000E+00 0.  1.
         24    2    1    2    0    0 -0.23775063239E+03  0.14839673747E+03  0.35008286817E+03  0.45550989319E+03  0.79901772961E+02 0.  0.
         25    2    1    2    0    0  0.36479734806E+03  0.41106175903E+02  0.28900711705E+03  0.48365006680E+03  0.12500180224E+03 0.  0.
         24    2    1    2    0    0 -0.24886157780E+02 -0.26152315800E+03  0.19758435611E+03  0.33820628632E+03  0.79562750751E+02 0.  0.
        -11    1    3    3    0    0 -0.97276820306E+02  0.32228141608E+02  0.17479034570E+03  0.20261564063E+03  0.00000000000E+00 0.  1.
         12    1    3    3    0    0 -0.14047381208E+03  0.11616859586E+03  0.17529252247E+03  0.25289425256E+03  0.00000000000E+00 0. -1.
        -13    1    5    5    0    0 -0.36412766381E+02 -0.48026329912E+02  0.51283801594E+02  0.79135619201E+02  0.00000000000E+00 0.  1.
         14    1    5    5    0    0  0.11526608601E+02 -0.21349682809E+03  0.14630055451E+03  0.25907066712E+03  0.00000000000E+00 0. -1.
          5    1    4    4  502    0  0.26470109597E+03 -0.26460981676E+02  0.21362155270E+03  0.34120831107E+03  0.47000000000E+01 0. -1.
         -5    1    4    4    0  502  0.10009625208E+03  0.67567157579E+02  0.75385564349E+02  0.14244175573E+03  0.47000000000E+01 0. -1.
          1    1    1    2  503    0 -0.76543981936E+02  0.91686760765E+02  0.16522074898E+03  0.20387088846E+03  0.00000000000E+00 0. -1.
         -2    1    1    2    0  501 -0.25616575949E+02 -0.19666516134E+02 -0.12658207647E+04  0.12662326758E+04  0.00000000000E+00 0.  1.
<mgrwt>
<rscale>  0 0.62141997E+02</rscale>
<asrwt>0</asrwt>
<pdfrwt beam="1">  1        2 0.18261354E+00 0.11957276E+03</pdfrwt>
<pdfrwt beam="2">  1       -1 0.22142614E+00 0.32295214E+02</pdfrwt>
<totfact> 0.36654791E+00</totfact>
</mgrwt>
</event>
<event>
13    1  0.1589573E-008  0.1438808E+03  0.7546771E-02  0.1215083E+00
          2   -1    0    0  503    0  0.00000000000E+00  0.00000000000E+00  0.61276732327E+03  0.61276732327E+03  0.00000000000E+00 0. -1.
          2   -1    0    0  502    0 -0.00000000000E+00 -0.00000000000E+00 -0.41467067383E+04  0.41467067383E+04  0.00000000000E+00 0. -1.
         24    2    1    2    0    0  0.63176497912E+01 -0.31241990966E+03 -0.72844769672E+03  0.79683424178E+03  0.81625053524E+02 0.  0.
         25    2    1    2    0    0 -0.12814512370E+03  0.37133339116E+03  0.11742286352E+02  0.41239730861E+03  0.12499599489E+03 0.  0.
         24    2    1    2    0    0 -0.16481176985E+02 -0.32758894206E+01  0.57921050888E+02  0.10055765930E+03  0.80465110841E+02 0.  0.
        -11    1    5    5    0    0  0.27828328139E+02 -0.51758528548E+01  0.47027929599E+02  0.54889265455E+02  0.00000000000E+00 0.  1.
         12    1    5    5    0    0 -0.44309505124E+02  0.18999634342E+01  0.10893121289E+02  0.45668393850E+02  0.00000000000E+00 0. -1.
        -13    1    3    3    0    0  0.11388635063E+02 -0.14249276233E+03 -0.43277817805E+03  0.45577498804E+03  0.00000000000E+00 0.  1.
         14    1    3    3    0    0 -0.50709852718E+01 -0.16992714733E+03 -0.29566951867E+03  0.34105925374E+03  0.00000000000E+00 0. -1.
          5    1    4    4  501    0 -0.85392246700E+02  0.19856628051E+03  0.66381417426E+02  0.22616141610E+03  0.47000000000E+01 0.  1.
         -5    1    4    4    0  501 -0.42752877002E+02  0.17276711065E+03 -0.54639131074E+02  0.18623589251E+03  0.47000000000E+01 0.  1.
          1    1    1    2  502    0 -0.12961875940E+03 -0.32656659470E+02 -0.30977287705E+04  0.31006113939E+04  0.00000000000E+00 0. -1.
          1    1    1    2  503    0  0.26792741029E+03 -0.22980932608E+02  0.22257371500E+03  0.34907345797E+03  0.00000000000E+00 0. -1.
<mgrwt>
<rscale>  0 0.13870459E+03</rscale>
<asrwt>0</asrwt>
<pdfrwt beam="1">  1        2 0.90112843E-01 0.14388076E+03</pdfrwt>
<pdfrwt beam="2">  1        2 0.60980980E+00 0.13371463E+03</pdfrwt>
<totfact> 0.45130557E+00</totfact>
</mgrwt>
</event>
<event>
13    1  0.1589573E-008  0.3935529E+03  0.7546771E-02  0.1277399E+00
          2   -1    0    0  503    0  0.00000000000E+00  0.00000000000E+00  0.17803834845E+04  0.17803834845E+04  0.00000000000E+00 0. -1.
         -3   -1    0    0    0  501 -0.00000000000E+00 -0.00000000000E+00 -0.87825472598E+03  0.87825472598E+03  0.00000000000E+00 0.  1.
         24    2    1    2    0    0 -0.38369497290E+03 -0.87901142732E+02 -0.14090856214E+03  0.42580211264E+03  0.80645973999E+02 0.  0.
         25    2    1    2    0    0  0.52720796628E+02  0.53707421863E+02  0.36698277544E+03  0.39492632960E+03  0.12500591501E+03 0.  0.
         24    2    1    2    0    0 -0.46284974259E+02 -0.31660775375E+02  0.30859372154E+03  0.32378947072E+03  0.80404184181E+02 0.  0.
        -11    1    5    5    0    0  0.21400986807E+02 -0.20058733276E+02  0.89154025928E+02  0.93855182895E+02  0.00000000000E+00 0.  1.
         12    1    5    5    0    0 -0.67685961066E+02 -0.11602042099E+02  0.21943969561E+03  0.22993428782E+03  0.00000000000E+00 0. -1.
        -11    1    3    3    0    0 -0.31583140647E+03 -0.10151780462E+03 -0.10591685137E+03  0.34824376717E+03  0.00000000000E+00 0.  1.
         12    1    3    3    0    0 -0.67863566433E+02  0.13616661889E+02 -0.34991710771E+02  0.77558345475E+02  0.00000000000E+00 0. -1.
          5    1    4    4  502    0  0.72303401488E+02  0.74309505243E+02  0.19847478916E+03  0.22397324923E+03  0.47000000000E+01 0. -1.
         -5    1    4    4    0  502 -0.19582604859E+02 -0.20602083379E+02  0.16850798627E+03  0.17095308038E+03  0.47000000000E+01 0. -1.
          1    1    1    2  503    0 -0.14581344222E+02  0.21672399528E+02  0.87277029834E+03  0.87316109749E+03  0.00000000000E+00 0. -1.
         -4    1    1    2    0  501  0.39184049476E+03  0.44182096716E+02 -0.50530947462E+03  0.64095920006E+03  0.00000000000E+00 0.  1.
<mgrwt>
<rscale>  0 0.10139038E+03</rscale>
<asrwt>0</asrwt>
<pdfrwt beam="1">  1        2 0.26182110E+00 0.26121036E+02</pdfrwt>
<pdfrwt beam="2">  1       -3 0.12915511E+00 0.39355287E+03</pdfrwt>
<totfact> 0.40498172E+00</totfact>
</mgrwt>
</event>
<event>
13    1  0.1589573E-008  0.1049088E+03  0.7546771E-02  0.1283631E+00
          2   -1    0    0  502    0  0.00000000000E+00  0.00000000000E+00  0.64511782733E+03  0.64511782733E+03  0.00000000000E+00 0. -1.
          2   -1    0    0  503    0 -0.00000000000E+00 -0.00000000000E+00 -0.11319736360E+04  0.11319736360E+04  0.00000000000E+00 0. -1.
         24    2    1    2    0    0  0.10567627239E+03 -0.33966167776E+01 -0.32894917380E+03  0.35461708822E+03  0.79791658446E+02 0.  0.
         25    2    1    2    0    0 -0.20203820475E+03 -0.91817742821E+02 -0.30561085931E+02  0.25653169828E+03  0.12499839269E+03 0.  0.
         24    2    1    2    0    0 -0.73940068572E+02  0.48707819252E+01 -0.13334864215E+03  0.17541501526E+03  0.86589312034E+02 0.  0.
        -11    1    3    3    0    0 -0.11090572976E+02 -0.84239898951E+01 -0.55843798431E+02  0.57554272108E+02  0.00000000000E+00 0.  1.
         12    1    3    3    0    0  0.11676684537E+03  0.50273731175E+01 -0.27310537537E+03  0.29706281611E+03  0.00000000000E+00 0. -1.
        -13    1    5    5    0    0 -0.11792490010E+01 -0.32185276118E+02 -0.34349373313E+02  0.47086750515E+02  0.00000000000E+00 0.  1.
         14    1    5    5    0    0 -0.72760819571E+02  0.37056058043E+02 -0.98999268838E+02  0.12832826475E+03  0.00000000000E+00 0. -1.
          5    1    4    4  501    0 -0.14590747124E+03 -0.10825243252E+02 -0.52417673122E+02  0.15548594313E+03  0.47000000000E+01 0. -1.
         -5    1    4    4    0  501 -0.56130733510E+02 -0.80992499569E+02  0.21856587191E+02  0.10104575515E+03  0.47000000000E+01 0. -1.
          1    1    1    2  502    0  0.86299584937E+02  0.32884112822E+02  0.48863293279E+03  0.49728374822E+03  0.00000000000E+00 0. -1.
          1    1    1    2  503    0  0.84002415996E+02  0.57459464851E+02 -0.48262983961E+03  0.49324391337E+03  0.00000000000E+00 0. -1.
<mgrwt>
<rscale>  0 0.98430652E+02</rscale>
<asrwt>0</asrwt>
<pdfrwt beam="1">  1        2 0.94870270E-01 0.92352494E+02</pdfrwt>
<pdfrwt beam="2">  1        2 0.16646671E+00 0.10490884E+03</pdfrwt>
<totfact> 0.19290056E+02</totfact>
</mgrwt>
</event>
<event>
13    1  0.1589573E-008  0.1238160E+03  0.7546771E-02  0.1351486E+00
          2   -1    0    0  503    0  0.00000000000E+00  0.00000000000E+00  0.38957370934E+03  0.38957370934E+03  0.00000000000E+00 0. -1.
          2   -1    0    0  502    0 -0.00000000000E+00 -0.00000000000E+00 -0.92560097972E+03  0.92560097972E+03  0.00000000000E+00 0. -1.
         24    2    1    2    0    0  0.38010506091E+02  0.18413736989E+02 -0.12315330189E+03  0.15370485578E+03  0.81698118962E+02 0.  0.
         25    2    1    2    0    0 -0.13646296453E+03  0.33864869312E+02 -0.18990148031E+02  0.18909107847E+03  0.12500336066E+03 0.  0.
         24    2    1    2    0    0 -0.65146209571E+02 -0.46787432481E+02  0.14547301861E+03  0.18446978913E+03  0.80209796769E+02 0.  0.
        -11    1    5    5    0    0 -0.79828085922E+01  0.14761041359E+02  0.68537954578E+02  0.70562488567E+02  0.00000000000E+00 0.  1.
         12    1    5    5    0    0 -0.57163400979E+02 -0.61548473840E+02  0.76935064031E+02  0.11390730056E+03  0.00000000000E+00 0. -1.
        -13    1    3    3    0    0 -0.23770743919E+02  0.13247366662E+02 -0.56284919034E+02  0.62518262137E+02  0.00000000000E+00 0.  1.
         14    1    3    3    0    0  0.61781250010E+02  0.51663703266E+01 -0.66868382858E+02  0.91186593648E+02  0.00000000000E+00 0. -1.
          5    1    4    4  501    0 -0.12113835738E+03  0.61703010625E+02  0.21167609693E+02  0.13766597564E+03  0.47000000000E+01 0. -1.
         -5    1    4    4    0  501 -0.15324607144E+02 -0.27838141312E+02 -0.40157757724E+02  0.51425102832E+02  0.47000000000E+01 0. -1.
          1    1    1    2  502    0  0.14171295321E+03  0.31014015912E+02 -0.65176415334E+03  0.66771321828E+03  0.00000000000E+00 0. -1.
          1    1    1    2  503    0  0.21885714799E+02 -0.36505189733E+02  0.11240731427E+03  0.12019574739E+03  0.00000000000E+00 0. -1.
<mgrwt>
<rscale>  0 0.72594673E+02</rscale>
<asrwt>0</asrwt>
<pdfrwt beam="1">  1        2 0.57290252E-01 0.42563052E+02</pdfrwt>
<pdfrwt beam="2">  1        2 0.13611779E+00 0.12381599E+03</pdfrwt>
<totfact> 0.43249534E+02</totfact>
</mgrwt>
</event>
<event>
13    1  0.1589573E-008  0.9450232E+02  0.7546771E-02  0.1457281E+00
          2   -1    0    0  503    0  0.00000000000E+00  0.00000000000E+00  0.96215199482E+03  0.96215199482E+03  0.00000000000E+00 0. -1.
          2   -1    0    0  502    0 -0.00000000000E+00 -0.00000000000E+00 -0.29582786155E+04  0.29582786155E+04  0.00000000000E+00 0. -1.
         24    2    1    2    0    0  0.16240847183E+02  0.87981424738E+02 -0.44986583485E+03  0.46662814538E+03  0.85779137786E+02 0.  0.
         25    2    1    2    0    0  0.52949296773E+02 -0.11367425627E+03 -0.25295733904E+03  0.30877930227E+03  0.12502710733E+03 0.  0.
         24    2    1    2    0    0 -0.19509116220E+02 -0.26372735593E+02  0.33834834861E+03  0.34842436993E+03  0.76444815100E+02 0.  0.
        -13    1    3    3    0    0  0.44859911289E+02  0.28645364381E+02 -0.13862630768E+03  0.14849317062E+03  0.00000000000E+00 0.  1.
         14    1    3    3    0    0 -0.28619064106E+02  0.59336060357E+02 -0.31123952717E+03  0.31813497476E+03  0.00000000000E+00 0. -1.
        -13    1    5    5    0    0  0.92529522436E+01  0.10319734036E+02  0.10791250213E+02  0.17566021660E+02  0.00000000000E+00 0.  1.
         14    1    5    5    0    0 -0.28762068464E+02 -0.36692469630E+02  0.32755709839E+03  0.33085834827E+03  0.00000000000E+00 0. -1.
          5    1    4    4  501    0  0.81051609382E+02 -0.90951102780E+02 -0.24158067148E+03  0.27060077108E+03  0.47000000000E+01 0. -1.
         -5    1    4    4    0  501 -0.28102312609E+02 -0.22723153493E+02 -0.11376667569E+02  0.38178531188E+02  0.47000000000E+01 0. -1.
          1    1    1    2  502    0 -0.60419895884E+02  0.73786673821E+02 -0.22128457999E+04  0.22148999009E+04  0.00000000000E+00 0. -1.
          1    1    1    2  503    0  0.10738868148E+02 -0.21721106692E+02  0.58119400454E+03  0.58169889176E+03  0.00000000000E+00 0. -1.
<mgrwt>
<rscale>  0 0.47852515E+02</rscale>
<asrwt>0</asrwt>
<pdfrwt beam="1">  1        2 0.14149294E+00 0.24230761E+02</pdfrwt>
<pdfrwt beam="2">  1        2 0.43504097E+00 0.94502322E+02</pdfrwt>
<totfact> 0.15799147E+01</totfact>
</mgrwt>
</event>
<event>
13    1  0.1589573E-008  0.1075141E+03  0.7546771E-02  0.1296602E+00
          2   -1    0    0  502    0  0.00000000000E+00  0.00000000000E+00  0.86795894096E+03  0.86795894096E+03  0.00000000000E+00 0. -1.
          2   -1    0    0  503    0 -0.00000000000E+00 -0.00000000000E+00 -0.33667217461E+04  0.33667217461E+04  0.00000000000E+00 0. -1.
         24    2    1    2    0    0 -0.80386970853E+02  0.29337918609E+02 -0.61645365234E+03  0.62752875218E+03  0.80339596577E+02 0.  0.
         25    2    1    2    0    0 -0.35547167448E+02 -0.14331421231E+03 -0.15883592702E+02  0.19410955577E+03  0.12499466614E+03 0.  0.
         24    2    1    2    0    0 -0.32718046000E+02  0.41434913691E+02 -0.72539713088E+03  0.73181696718E+03  0.81041676703E+02 0.  0.
        -11    1    3    3    0    0 -0.64048072899E+02  0.42085783276E+02 -0.58410538867E+03  0.58911159712E+03  0.00000000000E+00 0.  1.
         12    1    3    3    0    0 -0.16338897955E+02 -0.12747864667E+02 -0.32348263671E+02  0.38417155055E+02  0.00000000000E+00 0. -1.
        -11    1    5    5    0    0  0.10806102155E+02  0.48929285418E+02 -0.30276451631E+03  0.30688303823E+03  0.00000000000E+00 0.  1.
         12    1    5    5    0    0 -0.43524148155E+02 -0.74943717266E+01 -0.42263261457E+03  0.42493392896E+03  0.00000000000E+00 0. -1.
          5    1    4    4  501    0 -0.22647620115E+02 -0.34004307781E+02 -0.62228174726E+02  0.74589834255E+02  0.47000000000E+01 0. -1.
         -5    1    4    4    0  501 -0.12899547334E+02 -0.10930990453E+03  0.46344582024E+02  0.11951972152E+03  0.47000000000E+01 0. -1.
          1    1    1    2  502    0  0.79396901008E+02 -0.80964366713E+01  0.76654715569E+03  0.77069057479E+03  0.00000000000E+00 0. -1.
          1    1    1    2  503    0  0.69255283293E+02  0.80637816677E+02 -0.19075755849E+04  0.19105348371E+04  0.00000000000E+00 0. -1.
<mgrwt>
<rscale>  0 0.92631264E+02</rscale>
<asrwt>0</asrwt>
<pdfrwt beam="1">  1        2 0.12764102E+00 0.79808647E+02</pdfrwt>
<pdfrwt beam="2">  1        2 0.49510613E+00 0.10751405E+03</pdfrwt>
<totfact> 0.99269368E+00</totfact>
</mgrwt>
</event>
<event>
13    1  0.1589573E-008  0.6814321E+02  0.7546771E-02  0.1407696E+00
          2   -1    0    0  502    0  0.00000000000E+00  0.00000000000E+00  0.21155214099E+04  0.21155214099E+04  0.00000000000E+00 0. -1.
          2   -1    0    0  503    0 -0.00000000000E+00 -0.00000000000E+00 -0.20537371569E+04  0.20537371569E+04  0.00000000000E+00 0. -1.
         24    2    1    2    0    0 -0.16065550727E+03  0.74200189414E+03 -0.36991150739E+03  0.85177335445E+03  0.11093385923E+03 0.  0.
         25    2    1    2    0    0  0.43227000756E+03 -0.59159458653E+03  0.23982460163E+03  0.78101452763E+03  0.12500535422E+03 0.  0.
         24    2    1    2    0    0 -0.35300948432E+03 -0.13994785561E+03  0.31534507113E+03  0.49996305562E+03  0.79494935575E+02 0.  0.
        -11    1    5    5    0    0 -0.16845260876E+03 -0.91886896195E+02  0.19960401116E+03  0.27687767039E+03  0.00000000000E+00 0.  1.
         12    1    5    5    0    0 -0.18455687557E+03 -0.48060959419E+02  0.11574105997E+03  0.22308538523E+03  0.00000000000E+00 0. -1.
        -13    1    3    3    0    0 -0.15624196595E+02  0.21268791376E+03 -0.60213419771E+02  0.22159855617E+03  0.00000000000E+00 0.  1.
         14    1    3    3    0    0 -0.14503131068E+03  0.52931398038E+03 -0.30969808762E+03  0.63017479827E+03  0.00000000000E+00 0. -1.
          5    1    4    4  501    0  0.10866236673E+03 -0.13072277855E+03  0.11172498366E+03  0.20347116933E+03  0.47000000000E+01 0. -1.
         -5    1    4    4    0  501  0.32360764084E+03 -0.46087180798E+03  0.12809961796E+03  0.57754335830E+03  0.47000000000E+01 0. -1.
          1    1    1    2  502    0  0.49156866993E+02 -0.47196047964E+02  0.95474880474E+03  0.95717769754E+03  0.00000000000E+00 0. -1.
          1    1    1    2  503    0  0.32238117042E+02  0.36736595969E+02 -0.10782227171E+04  0.10793299316E+04  0.00000000000E+00 0. -1.
<mgrwt>
<rscale>  0 0.57711131E+02</rscale>
<asrwt>0</asrwt>
<pdfrwt beam="1">  1        2 0.31110609E+00 0.68143208E+02</pdfrwt>
<pdfrwt beam="2">  1        2 0.30202017E+00 0.48876105E+02</pdfrwt>
<totfact> 0.12251035E+01</totfact>
</mgrwt>
</event>
<event>
13    1  0.1589573E-008  0.9011854E+02  0.7546771E-02  0.1307150E+00
          2   -1    0    0  503    0  0.00000000000E+00  0.00000000000E+00  0.59306274562E+03  0.59306274562E+03  0.00000000000E+00 0. -1.
          2   -1    0    0  502    0 -0.00000000000E+00 -0.00000000000E+00 -0.16206443193E+04  0.16206443193E+04  0.00000000000E+00 0. -1.
         24    2    1    2    0    0 -0.57317075025E+02  0.22682819038E+02 -0.12376916548E+03  0.16167031863E+03  0.83777850505E+02 0.  0.
         25    2    1    2    0    0  0.37022790914E+03  0.12880023932E+03 -0.48003297669E+02  0.41423142457E+03  0.12500060064E+03 0.  0.
         24    2    1    2    0    0 -0.14131956292E+03 -0.11154606637E+03  0.22319463797E+03  0.29512013492E+03  0.69758897843E+02 0.  0.
        -11    1    5    5    0    0 -0.34456597339E+01 -0.85277356975E+01 -0.40544024462E+01  0.10051518608E+02  0.00000000000E+00 0.  1.
         12    1    5    5    0    0 -0.13787390319E+03 -0.10301833068E+03  0.22724904041E+03  0.28506861631E+03  0.00000000000E+00 0. -1.
        -13    1    3    3    0    0 -0.36034598764E+02  0.40467116758E+02 -0.26108200914E+02  0.60147468790E+02  0.00000000000E+00 0.  1.
         14    1    3    3    0    0 -0.21282476261E+02 -0.17784297720E+02 -0.97660964562E+02  0.10152284984E+03  0.00000000000E+00 0. -1.
          5    1    4    4  501    0  0.16878068223E+03  0.13907173511E+02  0.24563649267E+02  0.17118934264E+03  0.47000000000E+01 0.  1.
         -5    1    4    4    0  501  0.20144722691E+03  0.11489306581E+03 -0.72566946936E+02  0.24304208193E+03  0.47000000000E+01 0.  1.
          1    1    1    2  502    0 -0.87001228531E+02 -0.22261954082E+02 -0.11948152457E+04  0.11981854112E+04  0.00000000000E+00 0. -1.
          1    1    1    2  503    0 -0.84590042665E+02 -0.17675037906E+02  0.11581149713E+03  0.14449977561E+03  0.00000000000E+00 0. -1.
<mgrwt>
<rscale>  0 0.88248320E+02</rscale>
<asrwt>0</asrwt>
<pdfrwt beam="1">  1        2 0.87215110E-01 0.86416910E+02</pdfrwt>
<pdfrwt beam="2">  1        2 0.23833005E+00 0.90118544E+02</pdfrwt>
<totfact> 0.12099019E+02</totfact>
</mgrwt>
</event>
<event>
13    1  0.1589573E-008  0.1200592E+03  0.7546771E-02  0.1257306E+00
          2   -1    0    0  503    0  0.00000000000E+00  0.00000000000E+00  0.23118944125E+04  0.23118944125E+04  0.00000000000E+00 0. -1.
          2   -1    0    0  502    0 -0.00000000000E+00 -0.00000000000E+00 -0.16624007901E+04  0.16624007901E+04  0.00000000000E+00 0. -1.
         24    2    1    2    0    0  0.43568336822E+03 -0.50411034667E+02  0.40182298774E+03  0.60058441993E+03  0.82937700873E+02 0.  0.
         25    2    1    2    0    0 -0.25276065570E+03  0.34021368526E+02  0.13430002887E+03  0.31417767762E+03  0.12500285107E+03 0.  0.
         24    2    1    2    0    0 -0.55801459056E+02  0.26779091293E+02 -0.47474192870E+00  0.90768224845E+02  0.66390682316E+02 0.  0.
        -11    1    5    5    0    0 -0.23228053302E+02  0.22297933120E+01 -0.31726430715E+02  0.39383763714E+02  0.00000000000E+00 0.  1.
         12    1    5    5    0    0 -0.32573405753E+02  0.24549297981E+02  0.31251688786E+02  0.51384461131E+02  0.00000000000E+00 0. -1.
        -11    1    3    3    0    0  0.17259697072E+03 -0.11595584401E+02  0.21318355744E+03  0.27453852378E+03  0.00000000000E+00 0.  1.
         12    1    3    3    0    0  0.26308639750E+03 -0.38815450266E+02  0.18863943030E+03  0.32604589615E+03  0.00000000000E+00 0. -1.
          5    1    4    4  501    0 -0.18250224043E+03  0.32791790763E+02  0.15396281994E+03  0.24105810343E+03  0.47000000000E+01 0. -1.
         -5    1    4    4    0  501 -0.70258415268E+02  0.12295777626E+01 -0.19662791075E+02  0.73119574194E+02  0.47000000000E+01 0. -1.
          1    1    1    2  502    0 -0.73303551818E+02  0.78682052229E+02 -0.14236729889E+04  0.14277286351E+04  0.00000000000E+00 0. -1.
          1    1    1    2  503    0 -0.53817701648E+02 -0.89071477381E+02  0.15375183367E+04  0.15410362451E+04  0.00000000000E+00 0. -1.
<mgrwt>
<rscale>  0 0.11178130E+03</rscale>
<asrwt>0</asrwt>
<pdfrwt beam="1">  1        2 0.33998448E+00 0.10407412E+03</pdfrwt>
<pdfrwt beam="2">  1        2 0.24447070E+00 0.12005923E+03</pdfrwt>
<totfact> 0.13165778E+01</totfact>
</mgrwt>
</event>
<event>
13    1  0.1589573E-008  0.6202851E+03  0.7546771E-02  0.1104781E+00
          2   -1    0    0  503    0  0.00000000000E+00  0.00000000000E+00  0.12955520400E+04  0.12955520400E+04  0.00000000000E+00 0. -1.
          2   -1    0    0  502    0 -0.00000000000E+00 -0.00000000000E+00 -0.15974222839E+04  0.15974222839E+04  0.00000000000E+00 0. -1.
         24    2    1    2    0    0  0.34681998441E+02  0.20379941976E+03 -0.10028031507E+04  0.10270869413E+04  0.80971485029E+02 0.  0.
         25    2    1    2    0    0  0.39525173345E+02 -0.17186676851E+03 -0.11402349225E+03  0.24439144388E+03  0.12500158243E+03 0.  0.
         24    2    1    2    0    0 -0.55620905567E+02  0.13477311653E+02  0.14107152339E+03  0.17209598378E+03  0.80252911830E+02 0.  0.
        -11    1    5    5    0    0 -0.69304956150E+02 -0.82192973981E+00  0.70750699784E+02  0.99042990844E+02  0.00000000000E+00 0.  1.
         12    1    5    5    0    0  0.13684050583E+02  0.14299241393E+02  0.70320823602E+02  0.73052992935E+02  0.00000000000E+00 0. -1.
        -13    1    3    3    0    0 -0.38460836133E+01  0.21544390330E+02 -0.27331132733E+03  0.27418613160E+03  0.00000000000E+00 0.  1.
         14    1    3    3    0    0  0.38528082054E+02  0.18225502943E+03 -0.72949182339E+03  0.75290080970E+03  0.00000000000E+00 0. -1.
          5    1    4    4  501    0  0.69551668869E+02 -0.88563305679E+02 -0.18784381250E+02  0.11426214042E+03  0.47000000000E+01 0. -1.
         -5    1    4    4    0  501 -0.30026495525E+02 -0.83303462828E+02 -0.95239111001E+02  0.13012930345E+03  0.47000000000E+01 0. -1.
          1    1    1    2  502    0 -0.56809581778E+02 -0.16046587290E+03 -0.36538008313E+03  0.40308712470E+03  0.00000000000E+00 0. -1.
          1    1    1    2  503    0  0.38223315560E+02  0.11505591000E+03  0.10392649588E+04  0.10463128303E+04  0.00000000000E+00 0. -1.
<mgrwt>
<rscale>  0 0.26397081E+03</rscale>
<asrwt>0</asrwt>
<pdfrwt beam="1">  1        2 0.19052236E+00 0.11233639E+03</pdfrwt>
<pdfrwt beam="2">  1        2 0.23491504E+00 0.62028510E+03</pdfrwt>
<totfact> 0.39187366E+01</totfact>
</mgrwt>
</event>
<event>
13    1  0.1589573E-008  0.1512881E+03  0.7546771E-02  0.1325994E+00
          2   -1    0    0  503    0  0.00000000000E+00  0.00000000000E+00  0.13432739337E+04  0.13432739337E+04  0.00000000000E+00 0. -1.
          2   -1    0    0  502    0 -0.00000000000E+00 -0.00000000000E+00 -0.26821499551E+04  0.26821499551E+04  0.00000000000E+00 0. -1.
         24    2    1    2    0    0 -0.37129268783E+02  0.16006532637E+03 -0.53313758984E+03  0.56397585425E+03  0.82665489632E+02 0.  0.
         25    2    1    2    0    0  0.64992935115E+01 -0.45545579781E+02  0.62214826674E+03  0.63624909199E+03  0.12501120189E+03 0.  0.
         24    2    1    2    0    0 -0.12254063766E+03 -0.23041253266E+02  0.44648534788E+02  0.15496493561E+03  0.80458264825E+02 0.  0.
        -11    1    3    3    0    0 -0.25587563031E+02  0.30853044154E+01 -0.94492871007E+02  0.97944602487E+02  0.00000000000E+00 0.  1.
         12    1    3    3    0    0 -0.11541705753E+02  0.15698002195E+03 -0.43864471883E+03  0.46603125177E+03  0.00000000000E+00 0. -1.
        -13    1    5    5    0    0 -0.47211487017E+01 -0.17078732360E+02 -0.14593360452E+02  0.22955141327E+02  0.00000000000E+00 0.  1.
         14    1    5    5    0    0 -0.11781948896E+03 -0.59625209060E+01  0.59241895240E+02  0.13200979428E+03  0.00000000000E+00 0. -1.
          5    1    4    4  501    0 -0.37206440528E+01  0.85855407538E+01  0.51994165157E+03  0.52004708031E+03  0.47000000000E+01 0.  1.
         -5    1    4    4    0  501  0.10219937564E+02 -0.54131120534E+02  0.10220661518E+03  0.11620201169E+03  0.47000000000E+01 0.  1.
          1    1    1    2  502    0  0.11179023836E+03 -0.10476474484E+03 -0.20677582761E+04  0.20734263906E+04  0.00000000000E+00 0. -1.
          1    1    1    2  503    0  0.41380374570E+02  0.13286251520E+02  0.59522304306E+03  0.59680761629E+03  0.00000000000E+00 0. -1.
<mgrwt>
<rscale>  0 0.81087203E+02</rscale>
<asrwt>0</asrwt>
<pdfrwt beam="1">  1        2 0.19754029E+00 0.43461016E+02</pdfrwt>
<pdfrwt beam="2">  1        2 0.39443381E+00 0.15128810E+03</pdfrwt>
<totfact> 0.12699563E+01</totfact>
</mgrwt>
</event>
<event>
13    1  0.1589573E-008  0.8704880E+02  0.7546771E-02  0.1412895E+00
         -3   -1    0    0    0  501 -0.00000000000E+00  0.00000000000E+00  0.94107628354E+03  0.94107628354E+03  0.00000000000E+00 0.  1.
          2   -1    0    0  503    0  0.00000000000E+00 -0.00000000000E+00 -0.76126479421E+03  0.76126479421E+03  0.00000000000E+00 0. -1.
         24    2    1    2    0    0  0.11060967960E+03 -0.15823652766E+02  0.44461344174E+03  0.46637456695E+03  0.85669334755E+02 0.  0.
         25    2    1    2    0    0 -0.94499793455E+02 -0.19237646705E+03 -0.10586860847E+03  0.26976024910E+03  0.12499405463E+03 0.  0.
         24    2    1    2    0    0 -0.21508110861E+02  0.10211540182E+03 -0.27108512224E+03  0.30196971257E+03  0.82513087949E+02 0.  0.
        -13    1    5    5    0    0  0.14119386174E+02 -0.87257209471E+01 -0.35162695641E+02  0.38883292514E+02  0.00000000000E+00 0.  1.
         14    1    5    5    0    0 -0.35627497035E+02  0.11084112277E+03 -0.23592242660E+03  0.26308642005E+03  0.00000000000E+00 0. -1.
        -13    1    3    3    0    0  0.98123363455E+02  0.20888833955E+01  0.22242856986E+03  0.24311936693E+03  0.00000000000E+00 0.  1.
         14    1    3    3    0    0  0.12486316148E+02 -0.17912536162E+02  0.22218487188E+03  0.22325520002E+03  0.00000000000E+00 0. -1.
          5    1    4    4  502    0 -0.52729274006E+02 -0.56511334985E+02  0.19853671634E+02  0.79938511347E+02  0.47000000000E+01 0. -1.
         -5    1    4    4    0  502 -0.41770519449E+02 -0.13586513207E+03 -0.12572228011E+03  0.18982173775E+03  0.47000000000E+01 0. -1.
          1    1    1    2  503    0  0.29075707335E+02  0.22460311460E+02 -0.26991760623E+03  0.27240663814E+03  0.00000000000E+00 0. -1.
         -4    1    1    2    0  501 -0.23677482622E+02  0.83624406539E+02  0.38206938454E+03  0.39182991100E+03  0.00000000000E+00 0.  1.
<mgrwt>
<rscale>  0 0.56552754E+02</rscale>
<asrwt>0</asrwt>
<pdfrwt beam="2">  1        2 0.11195070E+00 0.36740473E+02</pdfrwt>
<pdfrwt beam="1">  1       -3 0.13839357E+00 0.87048799E+02</pdfrwt>
<totfact> 0.11089692E+01</totfact>
</mgrwt>
</event>
<event>
13    1  0.1589573E-008  0.3364821E+02  0.7546771E-02  0.1576923E+00
          2   -1    0    0  503    0  0.00000000000E+00  0.00000000000E+00  0.93115443854E+03  0.93115443854E+03  0.00000000000E+00 0. -1.
          2   -1    0    0  502    0 -0.00000000000E+00 -0.00000000000E+00 -0.90281184355E+03  0.90281184355E+03  0.00000000000E+00 0. -1.
         24    2    1    2    0    0 -0.20276086136E+02 -0.71841651077E+02 -0.81103616456E+02  0.13660079158E+03  0.80682322467E+02 0.  0.
         25    2    1    2    0    0  0.42678097217E+02  0.62239832952E+01  0.15328948093E+03  0.20244120947E+03  0.12499848151E+03 0.  0.
         24    2    1    2    0    0 -0.20279487243E+02  0.34770858413E+02 -0.17667514017E+03  0.19803987512E+03  0.79908802931E+02 0.  0.
        -11    1    5    5    0    0 -0.11270795831E+02  0.75904211645E+01 -0.16738559844E+03  0.16793624950E+03  0.00000000000E+00 0.  1.
         12    1    5    5    0    0 -0.90086914119E+01  0.27180437248E+02 -0.92895417363E+01  0.30103625623E+02  0.00000000000E+00 0. -1.
        -11    1    3    3    0    0 -0.69234712363E+01  0.91696252936E+01 -0.45815541836E+02  0.47234313330E+02  0.00000000000E+00 0.  1.
         12    1    3    3    0    0 -0.13352614900E+02 -0.81011276371E+02 -0.35288074620E+02  0.89366478247E+02  0.00000000000E+00 0. -1.
          5    1    4    4  501    0 -0.35197133629E+02 -0.15816456390E+02  0.94840051373E+02  0.10249743340E+03  0.47000000000E+01 0.  1.
         -5    1    4    4    0  501  0.77875230846E+02  0.22040439685E+02  0.58449429559E+02  0.99943776077E+02  0.47000000000E+01 0.  1.
          1    1    1    2  502    0 -0.29162156355E+02  0.16859799538E+02 -0.58121427669E+03  0.58218959080E+03  0.00000000000E+00 0. -1.
          1    1    1    2  503    0  0.27039632517E+02  0.13987009832E+02  0.71404614738E+03  0.71469481512E+03  0.00000000000E+00 0. -1.
<mgrwt>
<rscale>  0 0.32005525E+02</rscale>
<asrwt>0</asrwt>
<pdfrwt beam="1">  1        2 0.13693448E+00 0.30443032E+02</pdfrwt>
<pdfrwt beam="2">  1        2 0.13276645E+00 0.33648213E+02</pdfrwt>
<totfact> 0.18586558E+02</totfact>
</mgrwt>
</event>
<event>
13    1  0.1589573E-008  0.1448288E+03  0.7546771E-02  0.1255159E+00
         -3   -1    0    0    0  502 -0.00000000000E+00  0.00000000000E+00  0.42394364204E+03  0.42394364204E+03  0.00000000000E+00 0.  1.
         -1   -1    0    0    0  501  0.00000000000E+00 -0.00000000000E+00 -0.59611889487E+03  0.59611889487E+03  0.00000000000E+00 0.  1.
         24    2    1    2    0    0  0.13840214361E+02  0.45781373244E+02  0.45336010735E+02  0.10406795217E+03  0.80543771512E+02 0.  0.
         25    2    1    2    0    0 -0.14664601563E+03  0.16621344743E+03  0.48488873978E+02  0.25905719887E+03  0.12500998913E+03 0.  0.
         24    2    1    2    0    0  0.10606320115E+02 -0.36758327652E+02 -0.96487599132E+02  0.13151120068E+03  0.80756860017E+02 0.  0.
        -11    1    5    5    0    0 -0.15477980812E+02 -0.35388716145E+02 -0.82607066682E+01  0.39498967013E+02  0.00000000000E+00 0.  1.
         12    1    5    5    0    0  0.26084300927E+02 -0.13696115070E+01 -0.88226892464E+02  0.92012233667E+02  0.00000000000E+00 0. -1.
        -13    1    3    3    0    0  0.43247411931E+02  0.26137262890E+02  0.55493959459E+01  0.50835921802E+02  0.00000000000E+00 0.  1.
         14    1    3    3    0    0 -0.29407197570E+02  0.19644110354E+02  0.39786614789E+02  0.53232030366E+02  0.00000000000E+00 0. -1.
          5    1    4    4  503    0 -0.76864352487E+02  0.93301646769E+02  0.89017441609E+02  0.15019827191E+03  0.47000000000E+01 0.  1.
         -5    1    4    4    0  503 -0.69781663142E+02  0.72911800659E+02 -0.40528567631E+02  0.10885892697E+03  0.47000000000E+01 0.  1.
         -2    1    1    2    0  501  0.18950726323E+03 -0.11835159444E+03 -0.29625174182E+03  0.37105956025E+03  0.00000000000E+00 0.  1.
         -4    1    1    2    0  502 -0.67307782075E+02 -0.56884898584E+02  0.12673920340E+03  0.15436662493E+03  0.00000000000E+00 0.  1.
<mgrwt>
<rscale>  0 0.11297439E+03</rscale>
<asrwt>0</asrwt>
<pdfrwt beam="2">  1       -1 0.87664543E-01 0.14482879E+03</pdfrwt>
<pdfrwt beam="1">  1       -3 0.62344654E-01 0.88126212E+02</pdfrwt>
<totfact> 0.15530378E+01</totfact>
</mgrwt>
</event>
<event>
13    1  0.1589573E-008  0.8819045E+02  0.7546771E-02  0.1331299E+00
         -3   -1    0    0    0  501 -0.00000000000E+00  0.00000000000E+00  0.65894226832E+03  0.65894226832E+03  0.00000000000E+00 0.  1.
          2   -1    0    0  503    0  0.00000000000E+00 -0.00000000000E+00 -0.23990789738E+04  0.23990789738E+04  0.00000000000E+00 0. -1.
         24    2    1    2    0    0 -0.88285456160E+02 -0.39246617568E+02  0.13101009158E+03  0.18154438418E+03  0.80374750847E+02 0.  0.
         25    2    1    2    0    0 -0.31381394306E+02  0.11036397481E+02 -0.98889629594E+03  0.99731865465E+03  0.12498808269E+03 0.  0.
         24    2    1    2    0    0 -0.89600091405E+01  0.68570912574E+02 -0.12299896132E+03  0.16257511194E+03  0.80744477972E+02 0.  0.
        -11    1    5    5    0    0 -0.40111553629E+02  0.33536298929E+02 -0.93675103421E+02  0.10727835327E+03  0.00000000000E+00 0.  1.
         12    1    5    5    0    0  0.31151544488E+02  0.35034613646E+02 -0.29323857897E+02  0.55296758669E+02  0.00000000000E+00 0. -1.
        -13    1    3    3    0    0 -0.59165469348E+01  0.10149276911E+02  0.62436143088E+02  0.63531766173E+02  0.00000000000E+00 0.  1.
         14    1    3    3    0    0 -0.82368909225E+02 -0.49395894479E+02  0.68573948491E+02  0.11801261801E+03  0.00000000000E+00 0. -1.
          5    1    4    4  502    0 -0.55672292075E+02 -0.39590996846E+02 -0.40917571127E+03  0.41486588656E+03  0.47000000000E+01 0.  1.
         -5    1    4    4    0  502  0.24290897769E+02  0.50627394326E+02 -0.57972058466E+03  0.58245276809E+03  0.47000000000E+01 0.  1.
          1    1    1    2  503    0  0.10790570732E+03 -0.10842609617E+03 -0.12305110828E+04  0.12399828163E+04  0.00000000000E+00 0. -1.
         -4    1    1    2    0  501  0.20721152283E+02  0.68065403688E+02  0.47125954294E+03  0.47660027502E+03  0.00000000000E+00 0.  1.
<mgrwt>
<rscale>  0 0.79213101E+02</rscale>
<asrwt>0</asrwt>
<pdfrwt beam="2">  1        2 0.35280573E+00 0.88190455E+02</pdfrwt>
<pdfrwt beam="1">  1       -3 0.96903276E-01 0.71149598E+02</pdfrwt>
<totfact> 0.35190025E+00</totfact>
</mgrwt>
</event>
<event>
13    1  0.1589573E-008  0.6626976E+02  0.7546771E-02  0.1408257E+00
          2   -1    0    0  502    0  0.00000000000E+00  0.00000000000E+00  0.89692291079E+03  0.89692291079E+03  0.00000000000E+00 0. -1.
          2   -1    0    0  503    0 -0.00000000000E+00 -0.00000000000E+00 -0.23356539839E+04  0.23356539839E+04  0.00000000000E+00 0. -1.
         24    2    1    2    0    0 -0.70691598834E+00 -0.20237128483E+01 -0.40055655750E+02  0.84873433786E+02  0.74796049770E+02 0.  0.
         25    2    1    2    0    0  0.96303207318E+02  0.10870491847E+03  0.19215164692E+03  0.27136445498E+03  0.12500137989E+03 0.  0.
         24    2    1    2    0    0 -0.15685567283E+02 -0.22478930266E+02  0.22190236680E+03  0.23808495316E+03  0.81807366413E+02 0.  0.
        -11    1    5    5    0    0  0.27277276403E+02 -0.16519827453E+02  0.15574796127E+03  0.15897918715E+03  0.00000000000E+00 0.  1.
         12    1    5    5    0    0 -0.42962843687E+02 -0.59591028135E+01  0.66154405534E+02  0.79105766007E+02  0.00000000000E+00 0. -1.
        -13    1    3    3    0    0  0.38140215314E+01 -0.33275142956E+02  0.47229446793E+00  0.33496342503E+02  0.00000000000E+00 0.  1.
         14    1    3    3    0    0 -0.45209375198E+01  0.31251430108E+02 -0.40527950218E+02  0.51377091283E+02  0.00000000000E+00 0. -1.
          5    1    4    4  501    0  0.42242078451E+02  0.73330173979E+02  0.18827273764E+03  0.20647135721E+03  0.47000000000E+01 0.  1.
         -5    1    4    4    0  501  0.54061128867E+02  0.35374744487E+02  0.38789092831E+01  0.64893097777E+02  0.47000000000E+01 0.  1.
          1    1    1    2  502    0 -0.36647355622E+02 -0.34069848426E+02  0.41075109592E+03  0.41378768232E+03  0.00000000000E+00 0. -1.
          1    1    1    2  503    0 -0.43263368424E+02 -0.50132426926E+02 -0.22234805270E+04  0.22244663704E+04  0.00000000000E+00 0. -1.
<mgrwt>
<rscale>  0 0.57584670E+02</rscale>
<asrwt>0</asrwt>
<pdfrwt beam="1">  1        2 0.13190043E+00 0.50037818E+02</pdfrwt>
<pdfrwt beam="2">  1        2 0.34347853E+00 0.66269761E+02</pdfrwt>
<totfact> 0.35926634E+01</totfact>
</mgrwt>
</event>
<event>
13    1  0.1589573E-008  0.4523155E+02  0.7546771E-02  0.1515624E+00
          2   -1    0    0  503    0  0.00000000000E+00  0.00000000000E+00  0.20829847394E+04  0.20829847394E+04  0.00000000000E+00 0. -1.
          2   -1    0    0  502    0 -0.00000000000E+00 -0.00000000000E+00 -0.21694770363E+04  0.21694770363E+04  0.00000000000E+00 0. -1.
         24    2    1    2    0    0  0.14416382429E+03  0.50869249604E+02 -0.25975206588E+03  0.31195043583E+03  0.80442836196E+02 0.  0.
         25    2    1    2    0    0 -0.12950461499E+03  0.82318796931E+02 -0.26714434473E+03  0.33247377292E+03  0.12499951650E+03 0.  0.
         24    2    1    2    0    0 -0.45411518674E+02 -0.94315812675E+02 -0.69133723273E+00  0.12713851947E+03  0.72152939211E+02 0.  0.
        -11    1    5    5    0    0  0.14736972860E+02 -0.18309088968E+02 -0.16788998653E+02  0.28883759861E+02  0.00000000000E+00 0.  1.
         12    1    5    5    0    0 -0.60148491534E+02 -0.76006723707E+02  0.16097661420E+02  0.98254759609E+02  0.00000000000E+00 0. -1.
        -11    1    3    3    0    0  0.19395333383E+02  0.39627041671E+02 -0.97053046777E+02  0.10661039010E+03  0.00000000000E+00 0.  1.
         12    1    3    3    0    0  0.12476849091E+03  0.11242207933E+02 -0.16269901911E+03  0.20534004573E+03  0.00000000000E+00 0. -1.
          5    1    4    4  501    0 -0.20900893430E+01 -0.27330849874E+02 -0.23389978740E+02  0.36339027694E+02  0.47000000000E+01 0. -1.
         -5    1    4    4    0  501 -0.12741452565E+03  0.10964964680E+03 -0.24375436599E+03  0.29613474522E+03  0.47000000000E+01 0. -1.
          1    1    1    2  502    0  0.44510036039E+02 -0.81690022999E+01 -0.15194205884E+04  0.15200943393E+04  0.00000000000E+00 0. -1.
          1    1    1    2  503    0 -0.13757726665E+02 -0.30703231560E+02  0.19605160393E+04  0.19608047082E+04  0.00000000000E+00 0. -1.
<mgrwt>
<rscale>  0 0.39010260E+02</rscale>
<asrwt>0</asrwt>
<pdfrwt beam="1">  1        2 0.30632129E+00 0.33644665E+02</pdfrwt>
<pdfrwt beam="2">  1        2 0.31904074E+00 0.45231550E+02</pdfrwt>
<totfact> 0.12305448E+01</totfact>
</mgrwt>
</event>
<event>
13    1  0.1589573E-008  0.1779733E+03  0.7546771E-02  0.1238257E+00
          2   -1    0    0  503    0  0.00000000000E+00  0.00000000000E+00  0.77259064175E+03  0.77259064175E+03  0.00000000000E+00 0. -1.
          2   -1    0    0  502    0 -0.00000000000E+00 -0.00000000000E+00 -0.21269545964E+04  0.21269545964E+04  0.00000000000E+00 0. -1.
         24    2    1    2    0    0  0.19546501140E+02 -0.13980584085E+03 -0.35290701294E+03  0.38865110374E+03  0.81108457102E+02 0.  0.
         25    2    1    2    0    0  0.17198718147E+03  0.35532860879E+03  0.96428107040E+02  0.42516064001E+03  0.12500071671E+03 0.  0.
         24    2    1    2    0    0 -0.92727915395E+02  0.77281539812E+02 -0.41529917289E+03  0.44018570659E+03  0.81970425114E+02 0.  0.
        -11    1    5    5    0    0 -0.85030727344E+02  0.55569092294E+02 -0.39959986299E+03  0.41230837866E+03  0.00000000000E+00 0.  1.
         12    1    5    5    0    0 -0.76971880510E+01  0.21712447518E+02 -0.15699309896E+02  0.27877327926E+02  0.00000000000E+00 0. -1.
        -13    1    3    3    0    0 -0.27050842466E+02 -0.27805604051E+02 -0.58086254464E+02  0.69849213685E+02  0.00000000000E+00 0.  1.
         14    1    3    3    0    0  0.46597343606E+02 -0.11200023680E+03 -0.29482075847E+03  0.31880189005E+03  0.00000000000E+00 0. -1.
          5    1    4    4  501    0  0.17181681454E+03  0.22317399163E+03  0.70980665262E+02  0.29049611554E+03  0.47000000000E+01 0.  1.
         -5    1    4    4    0  501  0.17036692774E+00  0.13215461715E+03  0.25447441777E+02  0.13466452448E+03  0.47000000000E+01 0.  1.
          1    1    1    2  502    0 -0.54836717625E+02 -0.22008014966E+03 -0.11491440102E+04  0.11713130640E+04  0.00000000000E+00 0. -1.
          1    1    1    2  503    0 -0.43969049587E+02 -0.72724158094E+02  0.46655813433E+03  0.47423472374E+03  0.00000000000E+00 0. -1.
<mgrwt>
<rscale>  0 0.12298242E+03</rscale>
<asrwt>0</asrwt>
<pdfrwt beam="1">  1        2 0.11361627E+00 0.84982825E+02</pdfrwt>
<pdfrwt beam="2">  1        2 0.31278744E+00 0.17797331E+03</pdfrwt>
<totfact> 0.47544475E+01</totfact>
</mgrwt>
</event>
<event>
13    1  0.1589573E-008  0.2077760E+03  0.7546771E-02  0.1260820E+00
          2   -1    0    0  503    0  0.00000000000E+00  0.00000000000E+00  0.22549477796E+04  0.22549477796E+04  0.00000000000E+00 0. -1.
          2   -1    0    0  502    0 -0.00000000000E+00 -0.00000000000E+00 -0.44290403490E+03  0.44290403490E+03  0.00000000000E+00 0. -1.
         24    2    1    2    0    0  0.46921454961E+02 -0.11015985386E+02 -0.21212022626E+03  0.23174872205E+03  0.79934378804E+02 0.  0.
         25    2    1    2    0    0 -0.27428944872E+03  0.14124350842E+03  0.48774427022E+03  0.59050809085E+03  0.12498360642E+03 0.  0.
         24    2    1    2    0    0  0.28192799501E+03  0.17774820407E+02  0.63218548346E+03  0.69712436029E+03  0.80774684117E+02 0.  0.
        -13    1    5    5    0    0  0.17215743691E+03 -0.22596975836E+02  0.42686374418E+03  0.46082693335E+03  0.00000000000E+00 0.  1.
         14    1    5    5    0    0  0.10977055810E+03  0.40371796243E+02  0.20532173928E+03  0.23629742694E+03  0.00000000000E+00 0. -1.
        -13    1    3    3    0    0 -0.95204876188E+01  0.12455547776E+02 -0.12107848420E+03  0.12208922840E+03  0.00000000000E+00 0.  1.
         14    1    3    3    0    0  0.56441942580E+02 -0.23471533162E+02 -0.91041742062E+02  0.10965949366E+03  0.00000000000E+00 0. -1.
          5    1    4    4  501    0 -0.81572262852E+02 -0.11558664905E+02  0.84168935445E+02  0.11787339180E+03  0.47000000000E+01 0.  1.
         -5    1    4    4    0  501 -0.19271718587E+03  0.15280217332E+03  0.40357533478E+03  0.47263469905E+03  0.47000000000E+01 0.  1.
          1    1    1    2  502    0  0.27606294811E+02  0.51114763123E+02 -0.11920593461E+03  0.13260799889E+03  0.00000000000E+00 0. -1.
          1    1    1    2  503    0 -0.82166296056E+02 -0.19911710656E+03  0.10234401519E+04  0.10458626424E+04  0.00000000000E+00 0. -1.
<mgrwt>
<rscale>  0 0.10986530E+03</rscale>
<asrwt>0</asrwt>
<pdfrwt beam="1">  1        2 0.33160996E+00 0.20777601E+03</pdfrwt>
<pdfrwt beam="2">  1        2 0.65132947E-01 0.58093257E+02</pdfrwt>
<totfact> 0.74861008E+01</totfact>
</mgrwt>
</event>
<event>
13    1  0.1589573E-008  0.1039709E+03  0.7546771E-02  0.1282031E+00
         -3   -1    0    0    0  501 -0.00000000000E+00  0.00000000000E+00  0.34781923816E+03  0.34781923816E+03  0.00000000000E+00 0.  1.
          2   -1    0    0  503    0  0.00000000000E+00 -0.00000000000E+00 -0.27342904480E+04  0.27342904480E+04  0.00000000000E+00 0. -1.
         24    2    1    2    0    0  0.22577565769E+02  0.87258246040E+01  0.44968158023E+02  0.96101929960E+02  0.81409822595E+02 0.  0.
         25    2    1    2    0    0  0.10151497540E+03 -0.25419436793E+03 -0.66115281241E+03  0.72640648021E+03  0.12499306469E+03 0.  0.
         24    2    1    2    0    0  0.40549993830E+02  0.91047770960E+02 -0.56609353749E+03  0.58038912948E+03  0.80347058666E+02 0.  0.
        -13    1    3    3    0    0  0.48070671296E+02  0.22010875042E+02  0.15875447744E+02  0.55202336002E+02  0.00000000000E+00 0.  1.
         14    1    3    3    0    0 -0.25493105527E+02 -0.13285050438E+02  0.29092710279E+02  0.40899593958E+02  0.00000000000E+00 0. -1.
        -13    1    5    5    0    0  0.23284409494E+02  0.25636214969E+02 -0.56104248946E+02  0.65932283392E+02  0.00000000000E+00 0.  1.
         14    1    5    5    0    0  0.17265584336E+02  0.65411555991E+02 -0.50998928854E+03  0.51445684609E+03  0.00000000000E+00 0. -1.
          5    1    4    4  502    0  0.44377334938E+02 -0.11603387467E+03 -0.45515674671E+03  0.47182937806E+03  0.47000000000E+01 0. -1.
         -5    1    4    4    0  502  0.57137640466E+02 -0.13816049326E+03 -0.20599606570E+03  0.25457710215E+03  0.47000000000E+01 0. -1.
          1    1    1    2  503    0 -0.52918620373E+02  0.78461891932E+02 -0.14207882958E+04  0.14239368070E+04  0.00000000000E+00 0. -1.
         -4    1    1    2    0  501 -0.11172391463E+03  0.75958880438E+02  0.21659527779E+03  0.25527533954E+03  0.00000000000E+00 0.  1.
<mgrwt>
<rscale>  0 0.99179605E+02</rscale>
<asrwt>0</asrwt>
<pdfrwt beam="2">  1        2 0.40210154E+00 0.94609066E+02</pdfrwt>
<pdfrwt beam="1">  1       -3 0.51149887E-01 0.10397095E+03</pdfrwt>
<totfact> 0.91997693E+00</totfact>
</mgrwt>
</event>
<event>
13    1  0.1589573E-008  0.1672478E+03  0.7546771E-02  0.1245920E+00
          2   -1    0    0  503    0  0.00000000000E+00  0.00000000000E+00  0.19023365038E+04  0.19023365038E+04  0.00000000000E+00 0. -1.
         -3   -1    0    0    0  501 -0.00000000000E+00 -0.00000000000E+00 -0.70164349689E+03  0.70164349689E+03  0.00000000000E+00 0.  1.
         24    2    1    2    0    0 -0.55099241547E+02 -0.14770560430E+03  0.35106015670E+03  0.39275659788E+03  0.78496111995E+02 0.  0.
         25    2    1    2    0    0  0.48428508426E+02  0.32738169763E+03  0.41239278928E+03  0.54333618895E+03  0.12498922034E+03 0.  0.
         24    2    1    2    0    0  0.12681894615E+02  0.39012034901E+02  0.21994683146E+03  0.23787981372E+03  0.80792498336E+02 0.  0.
        -11    1    3    3    0    0 -0.78002322547E+01 -0.28601525609E+02  0.15279330161E+02  0.33351893808E+02  0.00000000000E+00 0.  1.
         12    1    3    3    0    0 -0.47299009293E+02 -0.11910407869E+03  0.33578082654E+03  0.35940470407E+03  0.00000000000E+00 0. -1.
        -13    1    5    5    0    0  0.46817480139E+02  0.23183404338E+02  0.14254030759E+03  0.15181266736E+03  0.00000000000E+00 0.  1.
         14    1    5    5    0    0 -0.34135585524E+02  0.15828630563E+02  0.77406523866E+02  0.86067146355E+02  0.00000000000E+00 0. -1.
          5    1    4    4  502    0  0.38289715313E+02  0.26117029972E+02  0.26337816487E+02  0.53516092258E+02  0.47000000000E+01 0.  1.
         -5    1    4    4    0  502  0.10138793113E+02  0.30126466766E+03  0.38605497280E+03  0.48982009669E+03  0.47000000000E+01 0.  1.
          1    1    1    2  503    0  0.55109611929E+02 -0.62976143645E+02  0.80991630525E+03  0.81422815323E+03  0.00000000000E+00 0. -1.
         -4    1    1    2    0  501 -0.61120773422E+02 -0.15571198459E+03 -0.59262307574E+03  0.61577924696E+03  0.00000000000E+00 0.  1.
<mgrwt>
<rscale>  0 0.11830477E+03</rscale>
<asrwt>0</asrwt>
<pdfrwt beam="1">  1        2 0.27975537E+00 0.83684312E+02</pdfrwt>
<pdfrwt beam="2">  1       -3 0.10318287E+00 0.16724781E+03</pdfrwt>
<totfact> 0.53945950E+00</totfact>
</mgrwt>
</event>
<event>
13    1  0.1589573E-008  0.1274353E+03  0.7546771E-02  0.1330004E+00
         -3   -1    0    0    0  501 -0.00000000000E+00  0.00000000000E+00  0.10036149282E+04  0.10036149282E+04  0.00000000000E+00 0.  1.
          2   -1    0    0  503    0  0.00000000000E+00 -0.00000000000E+00 -0.15116526676E+04  0.15116526676E+04  0.00000000000E+00 0. -1.
         24    2    1    2    0    0  0.79639298305E+01 -0.47725864753E+02  0.21673811014E+03  0.23615453876E+03  0.80326679544E+02 0.  0.
         25    2    1    2    0    0 -0.14857810857E+03  0.10135308971E+03 -0.97214009580E+01  0.21923439054E+03  0.12498523602E+03 0.  0.
         24    2    1    2    0    0  0.25815267392E+02 -0.53433631878E+02 -0.18775214090E+03  0.21146138870E+03  0.77093913195E+02 0.  0.
        -11    1    5    5    0    0 -0.21977473192E+02 -0.45114839082E+01 -0.85868797850E+02  0.88751412716E+02  0.00000000000E+00 0.  1.
         12    1    5    5    0    0  0.47792740584E+02 -0.48922147970E+02 -0.10188334305E+03  0.12270997598E+03  0.00000000000E+00 0. -1.
        -11    1    3    3    0    0  0.27646613543E+02 -0.45640300727E+02  0.69651897191E+02  0.87742572752E+02  0.00000000000E+00 0.  1.
         12    1    3    3    0    0 -0.19682683713E+02 -0.20855640252E+01  0.14708621295E+03  0.14841196601E+03  0.00000000000E+00 0. -1.
          5    1    4    4  502    0 -0.64472300618E+02  0.11328196466E+03  0.13279180985E+02  0.13110266097E+03  0.47000000000E+01 0. -1.
         -5    1    4    4    0  502 -0.84105807949E+02 -0.11928874956E+02 -0.23000581943E+02  0.88131729576E+02  0.47000000000E+01 0. -1.
          1    1    1    2  503    0 -0.49500785624E+02 -0.54716889810E+01 -0.11770980321E+04  0.11781511127E+04  0.00000000000E+00 0. -1.
         -4    1    1    2    0  501  0.16429969697E+03  0.52780959054E+01  0.64979572438E+03  0.67026616515E+03  0.00000000000E+00 0.  1.
<mgrwt>
<rscale>  0 0.79665363E+02</rscale>
<asrwt>0</asrwt>
<pdfrwt beam="2">  1        2 0.22230186E+00 0.49802281E+02</pdfrwt>
<pdfrwt beam="1">  1       -3 0.14759043E+00 0.12743533E+03</pdfrwt>
<totfact> 0.37044927E+00</totfact>
</mgrwt>
</event>
<event>
13    1  0.1589573E-008  0.9473600E+02  0.7546771E-02  0.1325456E+00
          2   -1    0    0  502    0  0.00000000000E+00  0.00000000000E+00  0.25519944955E+04  0.25519944955E+04  0.00000000000E+00 0. -1.
          2   -1    0    0  503    0 -0.00000000000E+00 -0.00000000000E+00 -0.58948702984E+03  0.58948702984E+03  0.00000000000E+00 0. -1.
         24    2    1    2    0    0  0.26774274638E+02 -0.10047081476E+03  0.23177300860E+02  0.13207660105E+03  0.78075571526E+02 0.  0.
         25    2    1    2    0    0  0.41680950472E+02  0.15921679747E+03  0.67495709205E+03  0.70588760065E+03  0.12499175336E+03 0.  0.
         24    2    1    2    0    0  0.46610151646E+02 -0.71585945245E+01  0.26270428051E+02  0.95268992788E+02  0.78500279521E+02 0.  0.
        -11    1    3    3    0    0 -0.74477405667E+01 -0.90626090432E+02  0.26422381684E+01  0.90969986969E+02  0.00000000000E+00 0.  1.
         12    1    3    3    0    0  0.34222015204E+02 -0.98447243319E+01  0.20535062691E+02  0.41106614085E+02  0.00000000000E+00 0. -1.
        -13    1    5    5    0    0  0.52605562032E+02  0.21441511016E+02  0.12851663310E+01  0.56821960577E+02  0.00000000000E+00 0.  1.
         14    1    5    5    0    0 -0.59954103856E+01 -0.28600105541E+02  0.24985261720E+02  0.38447032211E+02  0.00000000000E+00 0. -1.
          5    1    4    4  501    0  0.62627725352E+02  0.20254502269E+02  0.20742858647E+03  0.21767219697E+03  0.47000000000E+01 0.  1.
         -5    1    4    4    0  501 -0.20946774880E+02  0.13896229520E+03  0.46752850558E+03  0.48821540368E+03  0.47000000000E+01 0.  1.
          1    1    1    2  502    0 -0.21274770772E+02 -0.66412109687E+02  0.17178142774E+04  0.17192292098E+04  0.00000000000E+00 0. -1.
          1    1    1    2  503    0 -0.93790605983E+02  0.14824721510E+02 -0.47971163273E+03  0.48901912101E+03  0.00000000000E+00 0. -1.
<mgrwt>
<rscale>  0 0.81280750E+02</rscale>
<asrwt>0</asrwt>
<pdfrwt beam="1">  1        2 0.37529330E+00 0.69736534E+02</pdfrwt>
<pdfrwt beam="2">  1        2 0.86689270E-01 0.94736001E+02</pdfrwt>
<totfact> 0.44594683E+01</totfact>
</mgrwt>
</event>
<event>
13    1  0.1589573E-008  0.1034637E+03  0.7546771E-02  0.1280106E+00
          2   -1    0    0  503    0  0.00000000000E+00  0.00000000000E+00  0.23018335562E+04  0.23018335562E+04  0.00000000000E+00 0. -1.
          2   -1    0    0  502    0 -0.00000000000E+00 -0.00000000000E+00 -0.32229266763E+04  0.32229266763E+04  0.00000000000E+00 0. -1.
         24    2    1    2    0    0 -0.11335369719E+02  0.81049999254E+02 -0.12492393266E+04  0.12544596724E+04  0.79828450749E+02 0.  0.
         25    2    1    2    0    0  0.77513548534E+02  0.16937911008E+03 -0.47471652243E+03  0.52505077137E+03  0.12499961083E+03 0.  0.
         24    2    1    2    0    0 -0.12183199943E+02  0.38124319625E+01  0.27911784840E+02  0.85593408667E+02  0.79901181943E+02 0.  0.
        -11    1    3    3    0    0  0.33073734865E+01  0.85129055619E+02 -0.72317431865E+03  0.72817510942E+03  0.00000000000E+00 0.  1.
         12    1    3    3    0    0 -0.14642743205E+02 -0.40790563646E+01 -0.52606500792E+03  0.52628456294E+03  0.00000000000E+00 0. -1.
        -13    1    5    5    0    0 -0.38721859950E+02  0.20571953457E+02  0.39073273556E+00  0.43849063605E+02  0.00000000000E+00 0.  1.
         14    1    5    5    0    0  0.26538660007E+02 -0.16759521494E+02  0.27521052104E+02  0.41744345061E+02  0.00000000000E+00 0. -1.
          5    1    4    4  501    0 -0.19721988629E+02  0.70087723792E+02 -0.89293361226E+02  0.11531105854E+03  0.47000000000E+01 0. -1.
         -5    1    4    4    0  501  0.97235537163E+02  0.99291386283E+02 -0.38542316121E+03  0.40973971283E+03  0.47000000000E+01 0. -1.
          1    1    1    2  502    0 -0.43002158812E+02 -0.12320851358E+03 -0.14374449279E+04  0.14433563122E+04  0.00000000000E+00 0. -1.
          1    1    1    2  503    0 -0.10992820061E+02 -0.13103302772E+03  0.22123958719E+04  0.22163000678E+04  0.00000000000E+00 0. -1.
<mgrwt>
<rscale>  0 0.10009037E+03</rscale>
<asrwt>0</asrwt>
<pdfrwt beam="1">  1        2 0.33850494E+00 0.10346370E+03</pdfrwt>
<pdfrwt beam="2">  1        2 0.47395980E+00 0.96827029E+02</pdfrwt>
<totfact> 0.22338730E+00</totfact>
</mgrwt>
</event>
<event>
13    1  0.1589573E-008  0.1136654E+03  0.7546771E-02  0.1444257E+00
          4   -1    0    0  503    0  0.00000000000E+00  0.00000000000E+00  0.14698194376E+03  0.14698194376E+03  0.00000000000E+00 0. -1.
         -1   -1    0    0    0  501 -0.00000000000E+00 -0.00000000000E+00 -0.16103762469E+04  0.16103762469E+04  0.00000000000E+00 0.  1.
         24    2    1    2    0    0  0.11469254024E+02 -0.79937959905E+02 -0.14458361539E+03  0.18321268530E+03  0.78363543783E+02 0.  0.
         25    2    1    2    0    0 -0.68328061549E+02  0.13790279937E+03 -0.53786457208E+03  0.57324134032E+03  0.12498572032E+03 0.  0.
         24    2    1    2    0    0 -0.37712169909E+02  0.29179170511E+02 -0.11676365494E+02  0.10296777742E+03  0.90511844113E+02 0.  0.
        -11    1    5    5    0    0 -0.48572669543E+02  0.42708483705E+02  0.19271618439E+02  0.67488621887E+02  0.00000000000E+00 0.  1.
         12    1    5    5    0    0  0.10860499633E+02 -0.13529313195E+02 -0.30947983933E+02  0.35479155533E+02  0.00000000000E+00 0. -1.
        -13    1    3    3    0    0  0.80538845866E+01  0.13642864453E+02 -0.38945372125E+02  0.42044438602E+02  0.00000000000E+00 0.  1.
         14    1    3    3    0    0  0.34153694375E+01 -0.93580824358E+02 -0.10563824327E+03  0.14116824670E+03  0.00000000000E+00 0. -1.
          5    1    4    4  502    0  0.26443277437E+02  0.25436205729E+01 -0.36914248291E+02  0.45721643169E+02  0.47000000000E+01 0. -1.
         -5    1    4    4    0  502 -0.94771338986E+02  0.13535917880E+03 -0.50095032379E+03  0.52751969715E+03  0.47000000000E+01 0. -1.
          3    1    1    2  503    0  0.11144026671E+03 -0.10153260925E+03 -0.24379181013E+02  0.15271590701E+03  0.00000000000E+00 0. -1.
         -2    1    1    2    0  501 -0.16869289278E+02  0.14388599275E+02 -0.74489056914E+03  0.74522048059E+03  0.00000000000E+00 0.  1.
<mgrwt>
<rscale>  0 0.50201669E+02</rscale>
<asrwt>0</asrwt>
<pdfrwt beam="1">  1        4 0.21614993E-01 0.11366540E+03</pdfrwt>
<pdfrwt beam="2">  1       -1 0.23682002E+00 0.22172161E+02</pdfrwt>
<totfact> 0.90328887E+00</totfact>
</mgrwt>
</event>
<event>
13    1  0.1589573E-008  0.3217166E+03  0.7546771E-02  0.1311846E+00
          2   -1    0    0  503    0  0.00000000000E+00  0.00000000000E+00  0.19125835047E+04  0.19125835047E+04  0.00000000000E+00 0. -1.
          2   -1    0    0  502    0 -0.00000000000E+00 -0.00000000000E+00 -0.11725443158E+04  0.11725443158E+04  0.00000000000E+00 0. -1.
         24    2    1    2    0    0  0.80381203078E+02  0.23528534570E+03 -0.26194714025E+03  0.37016468792E+03  0.81149616065E+02 0.  0.
         25    2    1    2    0    0 -0.32082570500E+02 -0.34833948743E+03  0.11765593467E+04  0.12338100440E+04  0.12500255440E+03 0.  0.
         24    2    1    2    0    0 -0.27428435257E+03 -0.64679585680E+02 -0.37534594116E+03  0.47622982872E+03  0.80591062481E+02 0.  0.
        -11    1    5    5    0    0 -0.52114633714E+02 -0.59074209319E+01 -0.12939793928E+03  0.13962327657E+03  0.00000000000E+00 0.  1.
         12    1    5    5    0    0 -0.22216971886E+03 -0.58772164748E+02 -0.24594800188E+03  0.33660655216E+03  0.00000000000E+00 0. -1.
        -13    1    3    3    0    0  0.93178671009E+02  0.22637227587E+03 -0.23689647081E+03  0.34065614613E+03  0.00000000000E+00 0.  1.
         14    1    3    3    0    0 -0.12797467931E+02  0.89130698344E+01 -0.25050669439E+02  0.29508541792E+02  0.00000000000E+00 0. -1.
          5    1    4    4  501    0  0.23973524461E+02 -0.10324041853E+03  0.21275721091E+03  0.23774152916E+03  0.47000000000E+01 0. -1.
         -5    1    4    4    0  501 -0.56056094961E+02 -0.24509906890E+03  0.96380213580E+03  0.99606851487E+03  0.47000000000E+01 0. -1.
          1    1    1    2  502    0  0.24773475567E+03  0.18579863318E+03 -0.34216658043E+03  0.46148847225E+03  0.00000000000E+00 0. -1.
          1    1    1    2  503    0 -0.21749035674E+02 -0.80649057725E+01  0.54293950409E+03  0.54343478759E+03  0.00000000000E+00 0. -1.
<mgrwt>
<rscale>  0 0.86386335E+02</rscale>
<asrwt>0</asrwt>
<pdfrwt beam="1">  1        2 0.28126228E+00 0.23196191E+02</pdfrwt>
<pdfrwt beam="2">  1        2 0.17243299E+00 0.32171657E+03</pdfrwt>
<totfact> 0.40665996E+01</totfact>
</mgrwt>
</event>
<event>
13    1  0.1589573E-008  0.3142771E+03  0.7546771E-02  0.1174718E+00
          2   -1    0    0  503    0  0.00000000000E+00  0.00000000000E+00  0.33977887576E+04  0.33977887576E+04  0.00000000000E+00 0. -1.
          2   -1    0    0  502    0 -0.00000000000E+00 -0.00000000000E+00 -0.56186111683E+03  0.56186111683E+03  0.00000000000E+00 0. -1.
         24    2    1    2    0    0 -0.36239942694E+03 -0.88466695557E+02  0.14937030106E+03  0.40925634891E+03  0.77585896987E+02 0.  0.
         25    2    1    2    0    0  0.16548658032E+03  0.25815522377E+01  0.94353475332E+03  0.96606242759E+03  0.12500524226E+03 0.  0.
         24    2    1    2    0    0  0.54024409663E+02 -0.82245089777E+02  0.12961964899E+03  0.18156233827E+03  0.80503028775E+02 0.  0.
        -13    1    3    3    0    0 -0.15531665189E+03 -0.52135459797E+02  0.10435521957E+03  0.19424567016E+03  0.00000000000E+00 0.  1.
         14    1    3    3    0    0 -0.20708277505E+03 -0.36331235760E+02  0.45015081489E+02  0.21501067875E+03  0.00000000000E+00 0. -1.
        -13    1    5    5    0    0  0.83131189055E+01 -0.77144898356E+02  0.10110089940E+03  0.12744345863E+03  0.00000000000E+00 0.  1.
         14    1    5    5    0    0  0.45711290758E+02 -0.51001914209E+01  0.28518749591E+02  0.54118879640E+02  0.00000000000E+00 0. -1.
          5    1    4    4  501    0  0.10481769954E+03 -0.37087136030E+02  0.76907353217E+03  0.77708326046E+03  0.47000000000E+01 0.  1.
         -5    1    4    4    0  501  0.60668880781E+02  0.39668688267E+02  0.17446122115E+03  0.18897916713E+03  0.47000000000E+01 0.  1.
          1    1    1    2  502    0  0.19511424413E+03  0.24781098459E+03 -0.33031685157E+03  0.45671552938E+03  0.00000000000E+00 0. -1.
          1    1    1    2  503    0 -0.52225807173E+02 -0.79680751494E+02  0.19437197889E+04  0.19460532302E+04  0.00000000000E+00 0. -1.
<mgrwt>
<rscale>  0 0.17303608E+03</rscale>
<asrwt>0</asrwt>
<pdfrwt beam="1">  1        2 0.49967481E+00 0.95270967E+02</pdfrwt>
<pdfrwt beam="2">  1        2 0.82626636E-01 0.31427712E+03</pdfrwt>
<totfact> 0.15644827E+01</totfact>
</mgrwt>
</event>
<event>
13    1  0.1589573E-008  0.2134284E+03  0.7546771E-02  0.1306594E+00
          2   -1    0    0  502    0  0.00000000000E+00  0.00000000000E+00  0.73038848267E+03  0.73038848267E+03  0.00000000000E+00 0. -1.
          2   -1    0    0  503    0 -0.00000000000E+00 -0.00000000000E+00 -0.20075488822E+04  0.20075488822E+04  0.00000000000E+00 0. -1.
         24    2    1    2    0    0  0.96808576530E+02  0.11951400469E+03 -0.93763760166E+03  0.95358886923E+03  0.80696726526E+02 0.  0.
         25    2    1    2    0    0  0.13651637387E+03 -0.24001272594E+03 -0.39916579350E+02  0.30571326969E+03  0.12499776401E+03 0.  0.
         24    2    1    2    0    0  0.50320497584E+02  0.16551089393E+02 -0.67300661866E+01  0.10104154868E+03  0.85778841978E+02 0.  0.
        -11    1    3    3    0    0 -0.10098085898E+02 -0.34029585722E+01 -0.49363537243E+02  0.50500596779E+02  0.00000000000E+00 0.  1.
         12    1    3    3    0    0  0.10690666243E+03  0.12291696327E+03 -0.88827406442E+03  0.90308827246E+03  0.00000000000E+00 0. -1.
        -13    1    5    5    0    0 -0.17074229272E+02  0.24959876856E+02  0.85501818651E+01  0.31426586958E+02  0.00000000000E+00 0.  1.
         14    1    5    5    0    0  0.67394726857E+02 -0.84087874628E+01 -0.15280248052E+02  0.69614961719E+02  0.00000000000E+00 0. -1.
          5    1    4    4  501    0  0.44158023440E+02 -0.17361160674E+03  0.13993888423E+02  0.17974659925E+03  0.47000000000E+01 0.  1.
         -5    1    4    4    0  501  0.92358350432E+02 -0.66401119202E+02 -0.53910467774E+02  0.12596667044E+03  0.47000000000E+01 0.  1.
          1    1    1    2  502    0 -0.36554128143E+02  0.29660867594E+01  0.52037014327E+03  0.52166089365E+03  0.00000000000E+00 0. -1.
          1    1    1    2  503    0 -0.24709131984E+03  0.10098154509E+03 -0.81324629563E+03  0.85593278366E+03  0.00000000000E+00 0. -1.
<mgrwt>
<rscale>  0 0.88472210E+02</rscale>
<asrwt>0</asrwt>
<pdfrwt beam="1">  1        2 0.10741007E+00 0.36674268E+02</pdfrwt>
<pdfrwt beam="2">  1        2 0.29522777E+00 0.21342844E+03</pdfrwt>
<totfact> 0.58610288E+01</totfact>
</mgrwt>
</event>
<event>
13    1  0.1589573E-008  0.7583234E+02  0.7546771E-02  0.1457539E+00
         -1   -1    0    0    0  501 -0.00000000000E+00  0.00000000000E+00  0.81049755056E+03  0.81049755056E+03  0.00000000000E+00 0.  1.
          2   -1    0    0  503    0  0.00000000000E+00 -0.00000000000E+00 -0.22931883543E+04  0.22931883543E+04  0.00000000000E+00 0. -1.
         24    2    1    2    0    0  0.39188794383E+02  0.29909374495E+02  0.13198301508E+02  0.95246316808E+02  0.80419732745E+02 0.  0.
         25    2    1    2    0    0  0.10756357763E+03  0.31816298980E+02 -0.12487341871E+04  0.12599715056E+04  0.12493568232E+03 0.  0.
         24    2    1    2    0    0 -0.45368779776E+02 -0.40009101806E+02 -0.58922131119E+02  0.11748857041E+03  0.81686548676E+02 0.  0.
        -13    1    3    3    0    0  0.18488083825E+02 -0.27559461698E+02  0.30582591633E+01  0.33326957882E+02  0.00000000000E+00 0.  1.
         14    1    3    3    0    0  0.20700710559E+02  0.57468836193E+02  0.10140042345E+02  0.61919358926E+02  0.00000000000E+00 0. -1.
        -13    1    5    5    0    0 -0.52310275379E+02 -0.21742929884E+02 -0.13224195866E+01  0.56664527737E+02  0.00000000000E+00 0.  1.
         14    1    5    5    0    0  0.69414956026E+01 -0.18266171923E+02 -0.57599711532E+02  0.60824042668E+02  0.00000000000E+00 0. -1.
          5    1    4    4  502    0  0.18804672726E+02  0.58853522534E+02 -0.27903832091E+03  0.28583531512E+03  0.47000000000E+01 0. -1.
         -5    1    4    4    0  502  0.88758904905E+02 -0.27037223554E+02 -0.96969586623E+03  0.97413619050E+03  0.47000000000E+01 0. -1.
          1    1    1    2  503    0 -0.29928824659E+02  0.35592873609E+01 -0.90736436788E+03  0.90786480226E+03  0.00000000000E+00 0. -1.
         -2    1    1    2    0  501 -0.71454767579E+02 -0.25275859030E+02  0.71913158089E+03  0.72311470978E+03  0.00000000000E+00 0.  1.
<mgrwt>
<rscale>  0 0.47807593E+02</rscale>
<asrwt>0</asrwt>
<pdfrwt beam="2">  1        2 0.33723357E+00 0.30139726E+02</pdfrwt>
<pdfrwt beam="1">  1       -1 0.11919082E+00 0.75832340E+02</pdfrwt>
<totfact> 0.63900157E+00</totfact>
</mgrwt>
</event>
<event>
13    1  0.1589573E-008  0.8877068E+02  0.7546771E-02  0.1324306E+00
          2   -1    0    0  502    0  0.00000000000E+00  0.00000000000E+00  0.98086665490E+03  0.98086665490E+03  0.00000000000E+00 0. -1.
          2   -1    0    0  503    0 -0.00000000000E+00 -0.00000000000E+00 -0.12176044659E+04  0.12176044659E+04  0.00000000000E+00 0. -1.
         24    2    1    2    0    0  0.10009856196E+03  0.18587007345E+02 -0.91356194173E+03  0.92360824336E+03  0.89953137089E+02 0.  0.
         25    2    1    2    0    0 -0.86267913610E+02  0.53690067232E+02  0.53226922919E+02  0.16965546920E+03  0.12500038667E+03 0.  0.
         24    2    1    2    0    0 -0.70568933955E+01 -0.55940254723E+02 -0.10233092017E+03  0.14282535604E+03  0.82148361292E+02 0.  0.
        -11    1    3    3    0    0  0.35973654326E+02  0.50024538696E+02 -0.51792219331E+03  0.52157449765E+03  0.00000000000E+00 0.  1.
         12    1    3    3    0    0  0.64124907638E+02 -0.31437531352E+02 -0.39563974842E+03  0.40203374571E+03  0.00000000000E+00 0. -1.
        -13    1    5    5    0    0  0.13775109395E+02  0.99551148836E+01 -0.58662922529E+02  0.61075334062E+02  0.00000000000E+00 0.  1.
         14    1    5    5    0    0 -0.20832002790E+02 -0.65895369607E+02 -0.43667997642E+02  0.81750021981E+02  0.00000000000E+00 0. -1.
          5    1    4    4  501    0 -0.11584459399E+03  0.56934204606E+02  0.32815034072E+02  0.13326811349E+03  0.47000000000E+01 0.  1.
         -5    1    4    4    0  501  0.29576680380E+02 -0.32441373742E+01  0.20411888847E+02  0.36387355715E+02  0.47000000000E+01 0.  1.
          1    1    1    2  502    0 -0.75231120851E+02 -0.47424306529E+02  0.82957994483E+03  0.83433306974E+03  0.00000000000E+00 0. -1.
          1    1    1    2  503    0  0.68457365893E+02  0.31087486676E+02 -0.10365181685E+03  0.12804898246E+03  0.00000000000E+00 0. -1.
<mgrwt>
<rscale>  0 0.81696134E+02</rscale>
<asrwt>0</asrwt>
<pdfrwt beam="1">  1        2 0.14424510E+00 0.88770682E+02</pdfrwt>
<pdfrwt beam="2">  1        2 0.17905948E+00 0.75185389E+02</pdfrwt>
<totfact> 0.10708027E+02</totfact>
</mgrwt>
</event>
<event>
13    1  0.1589573E-008  0.1606624E+03  0.7546771E-02  0.1262780E+00
          2   -1    0    0  502    0  0.00000000000E+00  0.00000000000E+00  0.66997413172E+03  0.66997413172E+03  0.00000000000E+00 0. -1.
          2   -1    0    0  503    0 -0.00000000000E+00 -0.00000000000E+00 -0.75421415751E+03  0.75421415751E+03  0.00000000000E+00 0. -1.
         24    2    1    2    0    0  0.36977368508E+02  0.15168383694E+03 -0.18859108919E+02  0.17662287586E+03  0.80403122570E+02 0.  0.
         25    2    1    2    0    0  0.25833584741E+03  0.45694736855E+02 -0.66101144838E+02  0.29802675318E+03  0.12500066090E+03 0.  0.
         24    2    1    2    0    0 -0.88850624661E+02 -0.18134983145E+03 -0.20301607185E+03  0.30337059570E+03  0.10017982850E+03 0.  0.
        -11    1    5    5    0    0  0.73660262513E+01 -0.56899795102E+02 -0.10013666279E+03  0.11540882228E+03  0.00000000000E+00 0.  1.
         12    1    5    5    0    0 -0.96216650912E+02 -0.12445003635E+03 -0.10287940906E+03  0.18796177342E+03  0.00000000000E+00 0. -1.
        -11    1    3    3    0    0  0.32089079527E+02  0.11479435102E+02  0.45858368572E+01  0.34387735530E+02  0.00000000000E+00 0.  1.
         12    1    3    3    0    0  0.48882889801E+01  0.14020440183E+03 -0.23444945776E+02  0.14223514033E+03  0.00000000000E+00 0. -1.
          5    1    4    4  501    0  0.23366882129E+03  0.18651836597E+02 -0.93135685672E+02  0.25228031036E+03  0.47000000000E+01 0. -1.
         -5    1    4    4    0  501  0.24667026124E+02  0.27042900257E+02  0.27034540834E+02  0.45746442815E+02  0.47000000000E+01 0. -1.
          1    1    1    2  502    0 -0.14769774845E+03 -0.60506342403E+02  0.40313672615E+03  0.43358374316E+03  0.00000000000E+00 0. -1.
          1    1    1    2  503    0 -0.58764842813E+02  0.44477600059E+02 -0.19940042633E+03  0.21258432134E+03  0.00000000000E+00 0. -1.
<mgrwt>
<rscale>  0 0.10881489E+03</rscale>
<asrwt>0</asrwt>
<pdfrwt beam="1">  1        2 0.98525608E-01 0.16066240E+03</pdfrwt>
<pdfrwt beam="2">  1        2 0.11091385E+00 0.73699143E+02</pdfrwt>
<totfact> 0.31081321E+02</totfact>
</mgrwt>
</event>
<event>
13    1  0.1589573E-008  0.1152190E+03  0.7546771E-02  0.1321219E+00
         -3   -1    0    0    0  501 -0.00000000000E+00  0.00000000000E+00  0.22220183169E+04  0.22220183169E+04  0.00000000000E+00 0.  1.
          2   -1    0    0  503    0  0.00000000000E+00 -0.00000000000E+00 -0.20606490504E+04  0.20606490504E+04  0.00000000000E+00 0. -1.
         24    2    1    2    0    0  0.20876265737E+03 -0.17799652872E+03  0.73597431936E+03  0.78953275924E+03  0.80244425455E+02 0.  0.
         25    2    1    2    0    0 -0.58904430971E+02 -0.12994710965E+03 -0.94974477406E+03  0.96849866174E+03  0.12497415190E+03 0.  0.
         24    2    1    2    0    0 -0.91282601976E+02  0.15012782738E+03 -0.18439593081E+03  0.26675739447E+03  0.79289155821E+02 0.  0.
        -13    1    3    3    0    0  0.18177758262E+03 -0.11139533075E+03  0.52405156912E+03  0.56575794856E+03  0.00000000000E+00 0.  1.
         14    1    3    3    0    0  0.26985074750E+02 -0.66601197974E+02  0.21192275023E+03  0.22377481069E+03  0.00000000000E+00 0. -1.
        -13    1    5    5    0    0 -0.21728580868E+02 -0.14603251565E+01 -0.42603489983E+02  0.47846850835E+02  0.00000000000E+00 0.  1.
         14    1    5    5    0    0 -0.69554021108E+02  0.15158815253E+03 -0.14179244083E+03  0.21891054364E+03  0.00000000000E+00 0. -1.
          5    1    4    4  502    0 -0.19464698654E+02 -0.18802154535E+02 -0.27984420561E+02  0.39212412613E+02  0.47000000000E+01 0. -1.
         -5    1    4    4    0  502 -0.39439732317E+02 -0.11114495512E+03 -0.92176035350E+03  0.92928624913E+03  0.47000000000E+01 0. -1.
          1    1    1    2  503    0 -0.39862989468E+02  0.44225050053E+02 -0.84577117818E+03  0.84786425731E+03  0.00000000000E+00 0. -1.
         -4    1    1    2    0  501 -0.18712634956E+02  0.11359076094E+03  0.14053068302E+04  0.14100142945E+04  0.00000000000E+00 0.  1.
<mgrwt>
<rscale>  0 0.82825373E+02</rscale>
<asrwt>0</asrwt>
<pdfrwt beam="2">  1        2 0.30303662E+00 0.59539172E+02</pdfrwt>
<pdfrwt beam="1">  1       -3 0.32676740E+00 0.11521897E+03</pdfrwt>
<totfact> 0.18947424E-01</totfact>
</mgrwt>
</event>
<event>
13    1  0.1589573E-008  0.8004938E+02  0.7546771E-02  0.1486840E+00
          2   -1    0    0  503    0  0.00000000000E+00  0.00000000000E+00  0.11865253192E+04  0.11865253192E+04  0.00000000000E+00 0. -1.
         -1   -1    0    0    0  501 -0.00000000000E+00 -0.00000000000E+00 -0.62699157034E+03  0.62699157034E+03  0.00000000000E+00 0.  1.
         24    2    1    2    0    0 -0.23254256128E+02 -0.28924095904E+02 -0.10130299017E+03  0.13477167903E+03  0.80769709047E+02 0.  0.
         25    2    1    2    0    0 -0.35186967000E+02 -0.67412661136E+02  0.85891395662E+03  0.87128786301E+03  0.12500706315E+03 0.  0.
         24    2    1    2    0    0  0.42285453069E+02  0.19615711657E+02 -0.35819925092E+02  0.98588547599E+02  0.79144165919E+02 0.  0.
        -11    1    3    3    0    0 -0.32880595830E+02  0.13564814467E+02 -0.77159826358E+02  0.84963383745E+02  0.00000000000E+00 0.  1.
         12    1    3    3    0    0  0.96263397026E+01 -0.42488910371E+02 -0.24143163816E+02  0.49808295290E+02  0.00000000000E+00 0. -1.
        -11    1    5    5    0    0  0.62803935921E+02 -0.26435986597E+00 -0.19894986015E+02  0.65880306024E+02  0.00000000000E+00 0.  1.
         12    1    5    5    0    0 -0.20518482852E+02  0.19880071523E+02 -0.15924939077E+02  0.32708241575E+02  0.00000000000E+00 0. -1.
          5    1    4    4  502    0 -0.57011380629E+02  0.15664062648E+02  0.40118692619E+03  0.40554740799E+03  0.47000000000E+01 0.  1.
         -5    1    4    4    0  502  0.21824413629E+02 -0.83076723784E+02  0.45772703043E+03  0.46574045503E+03  0.47000000000E+01 0.  1.
          1    1    1    2  503    0  0.14343317476E+02 -0.18185169928E+02  0.26762790529E+03  0.26862823167E+03  0.00000000000E+00 0. -1.
         -2    1    1    2    0  501  0.18124525838E+01  0.94906215311E+02 -0.42988519775E+03  0.44024056825E+03  0.00000000000E+00 0.  1.
<mgrwt>
<rscale>  0 0.43058360E+02</rscale>
<asrwt>0</asrwt>
<pdfrwt beam="1">  1        2 0.17448902E+00 0.23160984E+02</pdfrwt>
<pdfrwt beam="2">  1       -1 0.92204643E-01 0.80049378E+02</pdfrwt>
<totfact> 0.36993633E+01</totfact>
</mgrwt>
</event>
<event>
13    1  0.1589573E-008  0.1128253E+03  0.7546771E-02  0.1406487E+00
          2   -1    0    0  503    0  0.00000000000E+00  0.00000000000E+00  0.23119574122E+04  0.23119574122E+04  0.00000000000E+00 0. -1.
          2   -1    0    0  502    0 -0.00000000000E+00 -0.00000000000E+00 -0.10767176764E+04  0.10767176764E+04  0.00000000000E+00 0. -1.
         24    2    1    2    0    0 -0.16053541953E+03 -0.27843462875E+03 -0.48352091733E+03  0.58633506272E+03  0.81846593543E+02 0.  0.
         25    2    1    2    0    0  0.11676891233E+03  0.35440310373E+03 -0.27047167441E+02  0.39445329008E+03  0.12500123986E+03 0.  0.
         24    2    1    2    0    0 -0.48938699435E+02  0.84681287978E+01 -0.41671683364E+02  0.10300603287E+03  0.80043788680E+02 0.  0.
        -11    1    5    5    0    0 -0.34602792105E+02  0.43940326678E+02 -0.25528883503E+02  0.61480317362E+02  0.00000000000E+00 0.  1.
         12    1    5    5    0    0 -0.14335907330E+02 -0.35472197880E+02 -0.16142799861E+02  0.41525715511E+02  0.00000000000E+00 0. -1.
        -13    1    3    3    0    0 -0.67186819852E+01 -0.24457954980E+02 -0.89120898663E+02  0.92659952665E+02  0.00000000000E+00 0.  1.
         14    1    3    3    0    0 -0.15381673755E+03 -0.25397667377E+03 -0.39440001867E+03  0.49367511006E+03  0.00000000000E+00 0. -1.
          5    1    4    4  501    0  0.26663096635E+02  0.30161298071E+02  0.33384006004E+02  0.52509108547E+02  0.47000000000E+01 0. -1.
         -5    1    4    4    0  501  0.90105815697E+02  0.32424180566E+03 -0.60431173445E+02  0.34194418154E+03  0.47000000000E+01 0. -1.
          1    1    1    2  502    0  0.28575851178E+02  0.84556851271E+01 -0.25627978587E+03  0.25800660171E+03  0.00000000000E+00 0. -1.
          1    1    1    2  503    0  0.64129355457E+02 -0.92892288908E+02  0.20437592898E+04  0.20468741012E+04  0.00000000000E+00 0. -1.
<mgrwt>
<rscale>  0 0.57985058E+02</rscale>
<asrwt>0</asrwt>
<pdfrwt beam="1">  1        2 0.33999374E+00 0.11282534E+03</pdfrwt>
<pdfrwt beam="2">  1        2 0.15834083E+00 0.29800636E+02</pdfrwt>
<totfact> 0.28209592E+01</totfact>
</mgrwt>
</event>
<event>
13    1  0.1589573E-008  0.1224292E+03  0.7546771E-02  0.1393185E+00
          2   -1    0    0  502    0  0.00000000000E+00  0.00000000000E+00  0.28038992060E+03  0.28038992060E+03  0.00000000000E+00 0. -1.
          2   -1    0    0  503    0 -0.00000000000E+00 -0.00000000000E+00 -0.28596554663E+04  0.28596554663E+04  0.00000000000E+00 0. -1.
         24    2    1    2    0    0 -0.18062171048E+01 -0.97604350890E+02 -0.12030740389E+03  0.17454661256E+03  0.80391397495E+02 0.  0.
         25    2    1    2    0    0  0.17907292076E+03  0.20168798113E+03 -0.61276844210E+03  0.68106935202E+03  0.12500058380E+03 0.  0.
         24    2    1    2    0    0 -0.17614849586E+02 -0.13694765445E+02 -0.39919019730E+02  0.91634692544E+02  0.79407551372E+02 0.  0.
        -11    1    5    5    0    0 -0.26805465581E+02 -0.42896753288E+02 -0.32533657793E+02  0.60142358758E+02  0.00000000000E+00 0.  1.
         12    1    5    5    0    0  0.91906159948E+01  0.29201987843E+02 -0.73853619377E+01  0.31492333786E+02  0.00000000000E+00 0. -1.
        -13    1    3    3    0    0  0.23739114274E+02 -0.16869054957E+02 -0.70562831290E+02  0.76336254305E+02  0.00000000000E+00 0.  1.
         14    1    3    3    0    0 -0.25545331379E+02 -0.80735295933E+02 -0.49744572600E+02  0.98210358251E+02  0.00000000000E+00 0. -1.
          5    1    4    4  501    0  0.78079615622E+02  0.32048884327E+02 -0.96328202729E+02  0.12815915887E+03  0.47000000000E+01 0.  1.
         -5    1    4    4    0  501  0.10099330514E+03  0.16963909680E+03 -0.51644023937E+03  0.55291019315E+03  0.47000000000E+01 0.  1.
          1    1    1    2  502    0 -0.13325695843E+03 -0.75077841481E+02  0.16286314472E+03  0.22342449096E+03  0.00000000000E+00 0. -1.
          1    1    1    2  503    0 -0.26394895645E+02 -0.15311023316E+02 -0.19691338247E+04  0.19693702388E+04  0.00000000000E+00 0. -1.
<mgrwt>
<rscale>  0 0.61121456E+02</rscale>
<asrwt>0</asrwt>
<pdfrwt beam="1">  1        2 0.41233809E-01 0.12242921E+03</pdfrwt>
<pdfrwt beam="2">  1        2 0.42053760E+00 0.30514225E+02</pdfrwt>
<totfact> 0.78928415E+01</totfact>
</mgrwt>
</event>
<event>
13    1  0.1589573E-008  0.1132003E+03  0.7546771E-02  0.1328345E+00
          2   -1    0    0  502    0  0.00000000000E+00  0.00000000000E+00  0.16457035935E+04  0.16457035935E+04  0.00000000000E+00 0. -1.
          2   -1    0    0  503    0 -0.00000000000E+00 -0.00000000000E+00 -0.32348338682E+03  0.32348338682E+03  0.00000000000E+00 0. -1.
         24    2    1    2    0    0  0.39984615692E+02 -0.13659189231E+02 -0.33114680514E+02  0.95850958533E+02  0.79407060414E+02 0.  0.
         25    2    1    2    0    0 -0.13403652917E+03  0.11609257499E+03  0.62744615199E+03  0.66389845489E+03  0.12501682944E+03 0.  0.
         24    2    1    2    0    0 -0.14824441122E+02 -0.81778750903E+01  0.43134456752E+02  0.96739253564E+02  0.84919138745E+02 0.  0.
        -11    1    5    5    0    0 -0.18306254202E+02 -0.40895598280E+02  0.45364463901E+02  0.63761300854E+02  0.00000000000E+00 0.  1.
         12    1    5    5    0    0  0.34818130808E+01  0.32717723190E+02 -0.22300071489E+01  0.32977952710E+02  0.00000000000E+00 0. -1.
        -13    1    3    3    0    0 -0.55553372231E+01  0.23951334568E+02  0.56175970276E+01  0.25220737412E+02  0.00000000000E+00 0.  1.
         14    1    3    3    0    0  0.45539952915E+02 -0.37610523799E+02 -0.38732277542E+02  0.70630221121E+02  0.00000000000E+00 0. -1.
          5    1    4    4  501    0 -0.13344550230E+03  0.13761577375E+03  0.52028707852E+03  0.55449665224E+03  0.47000000000E+01 0.  1.
         -5    1    4    4    0  501 -0.59102686738E+00 -0.21523198754E+02  0.10715907347E+03  0.10940180265E+03  0.47000000000E+01 0.  1.
          1    1    1    2  502    0  0.10854783789E+02 -0.55844990284E+02  0.88480743342E+03  0.88663447006E+03  0.00000000000E+00 0. -1.
          1    1    1    2  503    0  0.98021570809E+02 -0.38410520389E+02 -0.20005315497E+03  0.22606384327E+03  0.00000000000E+00 0. -1.
<mgrwt>
<rscale>  0 0.80249504E+02</rscale>
<asrwt>0</asrwt>
<pdfrwt beam="1">  1        2 0.24201523E+00 0.56890151E+02</pdfrwt>
<pdfrwt beam="2">  1        2 0.47571087E-01 0.11320031E+03</pdfrwt>
<totfact> 0.23347023E+02</totfact>
</mgrwt>
</event>
<event>
13    1  0.1589573E-008  0.1376071E+03  0.7546771E-02  0.1424904E+00
          2   -1    0    0  502    0  0.00000000000E+00  0.00000000000E+00  0.18320690281E+04  0.18320690281E+04  0.00000000000E+00 0. -1.
          2   -1    0    0  503    0 -0.00000000000E+00 -0.00000000000E+00 -0.75903078405E+03  0.75903078405E+03  0.00000000000E+00 0. -1.
         24    2    1    2    0    0  0.30733370828E+02 -0.42127912862E+02 -0.15305601633E+03  0.17981684959E+03  0.78667999444E+02 0.  0.
         25    2    1    2    0    0  0.10253135280E+02 -0.18677608031E+03  0.89581704737E+03  0.92363607200E+03  0.12499992071E+03 0.  0.
         24    2    1    2    0    0  0.64280210496E+02 -0.20366991318E+02  0.13960085623E+03  0.17320347578E+03  0.77228784564E+02 0.  0.
        -13    1    3    3    0    0  0.40349606649E+02 -0.60969377773E+02 -0.12233331905E+03  0.14251595256E+03  0.00000000000E+00 0.  1.
         14    1    3    3    0    0 -0.96162358210E+01  0.18841464911E+02 -0.30722697274E+02  0.37300897028E+02  0.00000000000E+00 0. -1.
        -13    1    5    5    0    0  0.51048380781E+02  0.23867111333E+02  0.76492317728E+02  0.95008688314E+02  0.00000000000E+00 0.  1.
         14    1    5    5    0    0  0.13231829715E+02 -0.44234102651E+02  0.63108538507E+02  0.78194787469E+02  0.00000000000E+00 0. -1.
          5    1    4    4  501    0 -0.18178605098E+01  0.14074830857E+02  0.19883552541E+02  0.24876718878E+02  0.47000000000E+01 0.  1.
         -5    1    4    4    0  501  0.12070995790E+02 -0.20085091117E+03  0.87593349483E+03  0.89875935312E+03  0.47000000000E+01 0.  1.
          1    1    1    2  502    0 -0.56744910371E+01  0.20414270533E+02  0.72468080152E+03  0.72499048710E+03  0.00000000000E+00 0. -1.
          1    1    1    2  503    0 -0.99592225567E+02  0.22885671396E+03 -0.53400444476E+03  0.58945292767E+03  0.00000000000E+00 0. -1.
<mgrwt>
<rscale>  0 0.53996800E+02</rscale>
<asrwt>0</asrwt>
<pdfrwt beam="1">  1        2 0.26942192E+00 0.21188258E+02</pdfrwt>
<pdfrwt beam="2">  1        2 0.11162217E+00 0.13760708E+03</pdfrwt>
<totfact> 0.82904797E+01</totfact>
</mgrwt>
</event>
<event>
13    1  0.1589573E-008  0.1733721E+03  0.7546771E-02  0.1248221E+00
          2   -1    0    0  503    0  0.00000000000E+00  0.00000000000E+00  0.16416319356E+04  0.16416319356E+04  0.00000000000E+00 0. -1.
          2   -1    0    0  502    0 -0.00000000000E+00 -0.00000000000E+00 -0.17572045207E+04  0.17572045207E+04  0.00000000000E+00 0. -1.
         24    2    1    2    0    0  0.14913403755E+03 -0.12618178910E+01 -0.15639040105E+03  0.22994078151E+03  0.78563681932E+02 0.  0.
         25    2    1    2    0    0  0.37175852820E+02  0.83083675766E+02 -0.24324192116E+03  0.28823147769E+03  0.12500324520E+03 0.  0.
         24    2    1    2    0    0 -0.50655234134E+02 -0.81511647793E+02  0.56730261610E+01  0.12482886181E+03  0.79623866043E+02 0.  0.
        -11    1    5    5    0    0  0.20096898633E+02 -0.22472199706E+02  0.12032519677E+02  0.32460231423E+02  0.00000000000E+00 0.  1.
         12    1    5    5    0    0 -0.70752132767E+02 -0.59039448087E+02 -0.63594935165E+01  0.92368630385E+02  0.00000000000E+00 0. -1.
        -13    1    3    3    0    0  0.27205069045E+02  0.21665677023E+02 -0.71805463090E+02  0.79784346035E+02  0.00000000000E+00 0.  1.
         14    1    3    3    0    0  0.12192896851E+03 -0.22927494914E+02 -0.84584937963E+02  0.15015643548E+03  0.00000000000E+00 0. -1.
          5    1    4    4  501    0  0.73023137541E+01  0.10177120300E+03 -0.10906614836E+03  0.14942629041E+03  0.47000000000E+01 0.  1.
         -5    1    4    4    0  501  0.29873539066E+02 -0.18687527235E+02 -0.13417577280E+03  0.13880518728E+03  0.47000000000E+01 0.  1.
          1    1    1    2  502    0  0.21165071151E+02  0.75992989703E+02 -0.12324472005E+04  0.12349692291E+04  0.00000000000E+00 0. -1.
          1    1    1    2  503    0 -0.15681972739E+03 -0.76303199786E+02  0.15108339114E+04  0.15208661062E+04  0.00000000000E+00 0. -1.
<mgrwt>
<rscale>  0 0.11694663E+03</rscale>
<asrwt>0</asrwt>
<pdfrwt beam="1">  1        2 0.24141646E+00 0.17337210E+03</pdfrwt>
<pdfrwt beam="2">  1        2 0.25841243E+00 0.78885326E+02</pdfrwt>
<totfact> 0.24899668E+01</totfact>
</mgrwt>
</event>
<event>
13    1  0.1589573E-008  0.1920220E+03  0.7546771E-02  0.1332408E+00
          2   -1    0    0  502    0  0.00000000000E+00  0.00000000000E+00  0.10778508337E+04  0.10778508337E+04  0.00000000000E+00 0. -1.
          2   -1    0    0  503    0 -0.00000000000E+00 -0.00000000000E+00 -0.22684262499E+04  0.22684262499E+04  0.00000000000E+00 0. -1.
         24    2    1    2    0    0  0.31909807818E+03  0.10214448128E+03 -0.56220984114E+03  0.66230388739E+03  0.10153548752E+03 0.  0.
         25    2    1    2    0    0 -0.29844592587E+03 -0.30397289861E+03  0.99854287918E+02  0.45504404860E+03  0.12499885436E+03 0.  0.
         24    2    1    2    0    0 -0.15711155852E+03 -0.51389345215E+02  0.21428141887E+03  0.28353005508E+03  0.84545011925E+02 0.  0.
        -11    1    5    5    0    0 -0.51989976453E+02 -0.28659059539E+02  0.14210072264E+03  0.15400296984E+03  0.00000000000E+00 0.  1.
         12    1    5    5    0    0 -0.10512158207E+03 -0.22730285677E+02  0.72180696226E+02  0.12952708524E+03  0.00000000000E+00 0. -1.
        -13    1    3    3    0    0  0.67426015242E+02  0.26401324368E+01 -0.19354596312E+03  0.20497140696E+03  0.00000000000E+00 0.  1.
         14    1    3    3    0    0  0.25167206294E+03  0.99504348846E+02 -0.36866387802E+03  0.45733248043E+03  0.00000000000E+00 0. -1.
          5    1    4    4  501    0 -0.78682974755E+02 -0.15453857300E+03  0.71867115169E+02  0.18777687105E+03  0.47000000000E+01 0.  1.
         -5    1    4    4    0  501 -0.21976295112E+03 -0.14943432561E+03  0.27987172750E+02  0.26726717755E+03  0.47000000000E+01 0.  1.
          1    1    1    2  502    0  0.11597144122E+03  0.22816845322E+03  0.46859084293E+03  0.53393594775E+03  0.00000000000E+00 0. -1.
          1    1    1    2  503    0  0.20487964993E+02  0.25049309325E+02 -0.14110921247E+04  0.14114631448E+04  0.00000000000E+00 0. -1.
<mgrwt>
<rscale>  0 0.78828901E+02</rscale>
<asrwt>0</asrwt>
<pdfrwt beam="1">  1        2 0.15850748E+00 0.19202202E+03</pdfrwt>
<pdfrwt beam="2">  1        2 0.33359209E+00 0.32360850E+02</pdfrwt>
<totfact> 0.31316346E+01</totfact>
</mgrwt>
</event>
<event>
13    1  0.1589573E-008  0.1606074E+03  0.7546771E-02  0.1315037E+00
          4   -1    0    0  503    0 -0.00000000000E+00  0.00000000000E+00  0.62419511647E+03  0.62419511647E+03  0.00000000000E+00 0. -1.
          2   -1    0    0  502    0  0.00000000000E+00 -0.00000000000E+00 -0.10328237831E+04  0.10328237831E+04  0.00000000000E+00 0. -1.
         24    2    1    2    0    0  0.20117098189E+03  0.11374586295E+02  0.17162907983E+03  0.27647971412E+03  0.79908360705E+02 0.  0.
         25    2    1    2    0    0 -0.31813762223E+03  0.21175653001E+03 -0.32269270669E+02  0.40338297848E+03  0.12499658720E+03 0.  0.
         24    2    1    2    0    0  0.23771372620E+02 -0.83169169760E+02 -0.50232017111E+03  0.51593191959E+03  0.79862396567E+02 0.  0.
        -11    1    5    5    0    0  0.34744949683E+02 -0.26427501923E+01 -0.11436364650E+03  0.11955433617E+03  0.00000000000E+00 0.  1.
         12    1    5    5    0    0 -0.10973577063E+02 -0.80526419568E+02 -0.38795652462E+03  0.39637758342E+03  0.00000000000E+00 0. -1.
        -11    1    3    3    0    0  0.15006066602E+02 -0.18475525470E+02  0.38828106723E+01  0.24116452786E+02  0.00000000000E+00 0.  1.
         12    1    3    3    0    0  0.18616491528E+03  0.29850111766E+02  0.16774626916E+03  0.25236326133E+03  0.00000000000E+00 0. -1.
          5    1    4    4  501    0 -0.14210216117E+03  0.15958531529E+03 -0.47961500640E+02  0.21904997742E+03  0.47000000000E+01 0. -1.
         -5    1    4    4    0  501 -0.17603546106E+03  0.52171214727E+02  0.15692229971E+02  0.18433300106E+03  0.47000000000E+01 0. -1.
          1    1    1    2  502    0 -0.21703776212E+02 -0.39586733835E+02 -0.22286752288E+03  0.22739414274E+03  0.00000000000E+00 0. -1.
          3    1    1    2  503    0  0.11489904394E+03 -0.10037521271E+03  0.17719921819E+03  0.23383014466E+03  0.00000000000E+00 0. -1.
<mgrwt>
<rscale>  0 0.85151534E+02</rscale>
<asrwt>0</asrwt>
<pdfrwt beam="2">  1        2 0.15188585E+00 0.45146023E+02</pdfrwt>
<pdfrwt beam="1">  1        4 0.91793401E-01 0.16060737E+03</pdfrwt>
<totfact> 0.15927053E+01</totfact>
</mgrwt>
</event>
<event>
13    1  0.1589573E-008  0.7244918E+02  0.7546771E-02  0.1388052E+00
          2   -1    0    0  502    0  0.00000000000E+00  0.00000000000E+00  0.86036391130E+03  0.86036391130E+03  0.00000000000E+00 0. -1.
          2   -1    0    0  503    0 -0.00000000000E+00 -0.00000000000E+00 -0.17381653040E+04  0.17381653040E+04  0.00000000000E+00 0. -1.
         24    2    1    2    0    0 -0.19711907369E+02 -0.71614410871E+01 -0.60502659030E+03  0.61034353236E+03  0.77602880011E+02 0.  0.
         25    2    1    2    0    0  0.49753269107E+02 -0.73747883824E+02  0.27710954074E+03  0.31675312943E+03  0.12501483624E+03 0.  0.
         24    2    1    2    0    0  0.11129240169E+01  0.14695016687E+02  0.76916556342E+02  0.11250685257E+03  0.80774086939E+02 0.  0.
        -11    1    3    3    0    0  0.80763289165E+01  0.23115085068E+02 -0.42419302622E+03  0.42489911478E+03  0.00000000000E+00 0.  1.
         12    1    3    3    0    0 -0.27788236286E+02 -0.30276526155E+02 -0.18083356408E+03  0.18544441758E+03  0.00000000000E+00 0. -1.
        -13    1    5    5    0    0  0.32136824414E+02  0.32891118681E+02  0.46585142128E+02  0.65458205281E+02  0.00000000000E+00 0.  1.
         14    1    5    5    0    0 -0.31023900398E+02 -0.18196101994E+02  0.30331414213E+02  0.47048647290E+02  0.00000000000E+00 0. -1.
          5    1    4    4  501    0  0.75169559759E+02 -0.22430462493E+02  0.22801203786E+03  0.24117455871E+03  0.47000000000E+01 0.  1.
         -5    1    4    4    0  501 -0.25416290652E+02 -0.51317421331E+02  0.49097502882E+02  0.75578570718E+02  0.47000000000E+01 0.  1.
          1    1    1    2  502    0  0.36299718096E+02  0.39619030497E+02  0.46330522832E+03  0.46641084003E+03  0.00000000000E+00 0. -1.
          1    1    1    2  503    0 -0.67454003851E+02  0.26595277727E+02 -0.10901061278E+04  0.10925148609E+04  0.00000000000E+00 0. -1.
<mgrwt>
<rscale>  0 0.62393751E+02</rscale>
<asrwt>0</asrwt>
<pdfrwt beam="1">  1        2 0.12652411E+00 0.53733947E+02</pdfrwt>
<pdfrwt beam="2">  1        2 0.25561254E+00 0.72449175E+02</pdfrwt>
<totfact> 0.71701827E+01</totfact>
</mgrwt>
</event>
<event>
13    1  0.1589573E-008  0.5037131E+02  0.7546771E-02  0.1488905E+00
          2   -1    0    0  502    0  0.00000000000E+00  0.00000000000E+00  0.35998473529E+04  0.35998473529E+04  0.00000000000E+00 0. -1.
          2   -1    0    0  503    0 -0.00000000000E+00 -0.00000000000E+00 -0.45151627401E+03  0.45151627401E+03  0.00000000000E+00 0. -1.
         24    2    1    2    0    0 -0.47117583946E+02  0.83247622616E+02 -0.19664366261E+03  0.23341314063E+03  0.81625552291E+02 0.  0.
         25    2    1    2    0    0  0.59913866182E+02 -0.29937427927E+02  0.26171298562E+03  0.29766088310E+03  0.12498957370E+03 0.  0.
         24    2    1    2    0    0  0.22118727028E+02 -0.42538361185E+02 -0.17696666393E+03  0.20206221622E+03  0.84930494093E+02 0.  0.
        -13    1    5    5    0    0  0.30043776206E+02 -0.22349712731E+02 -0.17863954648E+02  0.41488058807E+02  0.00000000000E+00 0.  1.
         14    1    5    5    0    0 -0.79250491781E+01 -0.20188648454E+02 -0.15910270928E+03  0.16057415742E+03  0.00000000000E+00 0. -1.
        -13    1    3    3    0    0 -0.89744021706E+01 -0.14825665003E+02 -0.50016169033E+02  0.52933518699E+02  0.00000000000E+00 0.  1.
         14    1    3    3    0    0 -0.38143181775E+02  0.98073287619E+02 -0.14662749358E+03  0.18047962193E+03  0.00000000000E+00 0. -1.
          5    1    4    4  501    0  0.76260839644E+02 -0.22653561468E+02  0.73097166989E+02  0.10813965661E+03  0.47000000000E+01 0. -1.
         -5    1    4    4    0  501 -0.16346973462E+02 -0.72838664591E+01  0.18861581863E+03  0.18952122648E+03  0.47000000000E+01 0. -1.
          1    1    1    2  502    0 -0.22752907276E+02 -0.44952500951E+02  0.32776109785E+04  0.32779981923E+04  0.00000000000E+00 0. -1.
          1    1    1    2  503    0 -0.12162101988E+02  0.34180667447E+02 -0.17382558756E+02  0.40229194633E+02  0.00000000000E+00 0. -1.
<mgrwt>
<rscale>  0 0.42748900E+02</rscale>
<asrwt>0</asrwt>
<pdfrwt beam="1">  1        2 0.52938930E+00 0.50371305E+02</pdfrwt>
<pdfrwt beam="2">  1        2 0.66399454E-01 0.36279950E+02</pdfrwt>
<totfact> 0.17517036E+01</totfact>
</mgrwt>
</event>
<event>
13    1  0.1589573E-008  0.1529573E+03  0.7546771E-02  0.1294941E+00
          2   -1    0    0  502    0  0.00000000000E+00  0.00000000000E+00  0.62378536136E+03  0.62378536136E+03  0.00000000000E+00 0. -1.
          2   -1    0    0  503    0 -0.00000000000E+00 -0.00000000000E+00 -0.34510369090E+04  0.34510369090E+04  0.00000000000E+00 0. -1.
         24    2    1    2    0    0 -0.56861243823E+02  0.60890530347E+02 -0.87185814378E+03  0.87948213996E+03  0.80070930415E+02 0.  0.
         25    2    1    2    0    0  0.36768692409E+02 -0.10791638767E+03  0.77184857761E+02  0.18594451002E+03  0.12497989867E+03 0.  0.
         24    2    1    2    0    0  0.11265103129E+03 -0.11755708409E+03 -0.12933716358E+04  0.13060122630E+04  0.79673834915E+02 0.  0.
        -11    1    5    5    0    0  0.10506593004E+03 -0.55646408555E+02 -0.84583265832E+03  0.85414767946E+03  0.00000000000E+00 0.  1.
         12    1    5    5    0    0  0.75851012512E+01 -0.61910675537E+02 -0.44753897743E+03  0.45186458351E+03  0.00000000000E+00 0. -1.
        -13    1    3    3    0    0 -0.40196379961E+02  0.23196552346E+02 -0.16441319337E+03  0.17083772170E+03  0.00000000000E+00 0.  1.
         14    1    3    3    0    0 -0.16664863863E+02  0.37693978001E+02 -0.70744495041E+03  0.70864441826E+03  0.00000000000E+00 0. -1.
          5    1    4    4  501    0 -0.12353114100E+02 -0.52382598978E+01  0.70401186722E+02  0.71822391262E+02  0.47000000000E+01 0.  1.
         -5    1    4    4    0  501  0.49121806510E+02 -0.10267812778E+03  0.67836710389E+01  0.11412211876E+03  0.47000000000E+01 0.  1.
          1    1    1    2  502    0  0.32120680379E+02  0.47050446914E+02  0.47436589429E+03  0.47777451201E+03  0.00000000000E+00 0. -1.
          1    1    1    2  503    0 -0.12467916025E+03  0.11753249450E+03 -0.12135725202E+04  0.12256088454E+04  0.00000000000E+00 0. -1.
<mgrwt>
<rscale>  0 0.93347979E+02</rscale>
<asrwt>0</asrwt>
<pdfrwt beam="1">  1        2 0.91733140E-01 0.56969138E+02</pdfrwt>
<pdfrwt beam="2">  1        2 0.50750543E+00 0.15295730E+03</pdfrwt>
<totfact> 0.12360724E+01</totfact>
</mgrwt>
</event>
<event>
13    1  0.1589573E-008  0.1017820E+03  0.7546771E-02  0.1357062E+00
         -1   -1    0    0    0  501  0.00000000000E+00  0.00000000000E+00  0.38117070985E+03  0.38117070985E+03  0.00000000000E+00 0.  1.
         -3   -1    0    0    0  502 -0.00000000000E+00 -0.00000000000E+00 -0.10403861010E+04  0.10403861010E+04  0.00000000000E+00 0.  1.
         24    2    1    2    0    0 -0.70469006008E+02  0.56615421070E+01 -0.53958093533E+02  0.12003186879E+03  0.80611660454E+02 0.  0.
         25    2    1    2    0    0  0.11455739735E+03 -0.21353269749E+02 -0.31619130172E+03  0.35941793345E+03  0.12499980873E+03 0.  0.
         24    2    1    2    0    0  0.60100033732E+02 -0.43078605045E+02 -0.11057024912E+03  0.15650651873E+03  0.82466539572E+02 0.  0.
        -11    1    3    3    0    0 -0.82329810309E+02 -0.11600069749E+02 -0.30440489169E+02  0.88540288370E+02  0.00000000000E+00 0.  1.
         12    1    3    3    0    0  0.11860804301E+02  0.17261611856E+02 -0.23517604363E+02  0.31491580422E+02  0.00000000000E+00 0. -1.
        -11    1    5    5    0    0 -0.12380228608E+02 -0.26246221126E+02 -0.59673468693E+02  0.66355535185E+02  0.00000000000E+00 0.  1.
         12    1    5    5    0    0  0.72480262340E+02 -0.16832383919E+02 -0.50896780425E+02  0.90150983549E+02  0.00000000000E+00 0. -1.
          5    1    4    4  503    0  0.60201713659E+02 -0.57315143636E+02 -0.26076402084E+03  0.27373205253E+03  0.47000000000E+01 0. -1.
         -5    1    4    4    0  503  0.54355683692E+02  0.35961873886E+02 -0.55427280886E+02  0.85685880922E+02  0.47000000000E+01 0. -1.
         -2    1    1    2    0  501 -0.60463938985E+02  0.81731275437E+02  0.29371589065E+03  0.31081331008E+03  0.00000000000E+00 0.  1.
         -4    1    1    2    0  502 -0.43724486089E+02 -0.22960942749E+02 -0.47221163742E+03  0.47478717978E+03  0.00000000000E+00 0.  1.
<mgrwt>
<rscale>  0 0.70898995E+02</rscale>
<asrwt>0</asrwt>
<pdfrwt beam="1">  1       -1 0.56054516E-01 0.10178203E+03</pdfrwt>
<pdfrwt beam="2">  1       -3 0.15299796E+00 0.49386593E+02</pdfrwt>
<totfact> 0.50588047E+00</totfact>
</mgrwt>
</event>
<event>
13    1  0.1589573E-008  0.9714977E+02  0.7546771E-02  0.1320832E+00
          2   -1    0    0  503    0  0.00000000000E+00  0.00000000000E+00  0.69003613387E+03  0.69003613387E+03  0.00000000000E+00 0. -1.
         -3   -1    0    0    0  501 -0.00000000000E+00 -0.00000000000E+00 -0.20034336476E+04  0.20034336476E+04  0.00000000000E+00 0.  1.
         24    2    1    2    0    0 -0.14791520958E+03  0.17661501977E+03 -0.72001668190E+03  0.76030822976E+03  0.81072853577E+02 0.  0.
         25    2    1    2    0    0  0.25714728402E+03 -0.20410788290E+03  0.22370539863E+03  0.41647520653E+03  0.12499095460E+03 0.  0.
         24    2    1    2    0    0 -0.38275192831E+02 -0.12292392769E+02 -0.53533406046E+02  0.10373632931E+03  0.79242079413E+02 0.  0.
        -11    1    5    5    0    0  0.17100450370E+02 -0.39286752760E+01 -0.43414198823E+02  0.46825768032E+02  0.00000000000E+00 0.  1.
         12    1    5    5    0    0 -0.55375643201E+02 -0.83637174931E+01 -0.10119207223E+02  0.56910561279E+02  0.00000000000E+00 0. -1.
        -13    1    3    3    0    0 -0.97846536501E+02  0.53961701076E+02 -0.32744003951E+03  0.34598090896E+03  0.00000000000E+00 0.  1.
         14    1    3    3    0    0 -0.50068673079E+02  0.12265331869E+03 -0.39257664239E+03  0.41432732080E+03  0.00000000000E+00 0. -1.
          5    1    4    4  502    0  0.16738369610E+03 -0.17889238162E+03  0.10793498893E+03  0.26775331512E+03  0.47000000000E+01 0. -1.
         -5    1    4    4    0  502  0.89763587924E+02 -0.25215501285E+02  0.11577040970E+03  0.14872189141E+03  0.47000000000E+01 0. -1.
          1    1    1    2  503    0  0.22220439056E+02  0.67283219582E+02  0.31863081807E+03  0.32641442641E+03  0.00000000000E+00 0. -1.
         -4    1    1    2    0  501 -0.93177320670E+02 -0.27497963681E+02 -0.10821836425E+04  0.10865355894E+04  0.00000000000E+00 0.  1.
<mgrwt>
<rscale>  0 0.82968584E+02</rscale>
<asrwt>0</asrwt>
<pdfrwt beam="1">  1        2 0.10147591E+00 0.70857459E+02</pdfrwt>
<pdfrwt beam="2">  1       -3 0.29462259E+00 0.97149770E+02</pdfrwt>
<totfact> 0.14542815E+00</totfact>
</mgrwt>
</event>
<event>
13    1  0.1589573E-008  0.1003717E+03  0.7546771E-02  0.1334105E+00
          2   -1    0    0  502    0  0.00000000000E+00  0.00000000000E+00  0.25396018356E+04  0.25396018356E+04  0.00000000000E+00 0. -1.
          2   -1    0    0  503    0 -0.00000000000E+00 -0.00000000000E+00 -0.18840512352E+04  0.18840512352E+04  0.00000000000E+00 0. -1.
         24    2    1    2    0    0  0.11511907254E+03 -0.86859760471E+02  0.63942786848E+02  0.17745061590E+03  0.81258982524E+02 0.  0.
         25    2    1    2    0    0 -0.25584693604E+03 -0.20775006362E+03  0.93295183484E+02  0.36462094137E+03  0.12500678387E+03 0.  0.
         24    2    1    2    0    0  0.14518414076E+03  0.45349200216E+03  0.14507973895E+04  0.15292737078E+04  0.84448665652E+02 0.  0.
        -13    1    5    5    0    0  0.42132282353E+02  0.83486239255E+02  0.19901517701E+03  0.21989115954E+03  0.00000000000E+00 0.  1.
         14    1    5    5    0    0  0.10305185840E+03  0.37000576291E+03  0.12517822125E+04  0.13093825483E+04  0.00000000000E+00 0. -1.
        -13    1    3    3    0    0  0.30766706091E+02 -0.40713995290E+01 -0.15847783164E+02  0.34847076334E+02  0.00000000000E+00 0.  1.
         14    1    3    3    0    0  0.84352366447E+02 -0.82788360942E+02  0.79790570012E+02  0.14260353956E+03  0.00000000000E+00 0. -1.
          5    1    4    4  501    0 -0.34539901006E+02  0.18765972002E+01  0.43405574211E+02  0.55701528266E+02  0.47000000000E+01 0.  1.
         -5    1    4    4    0  501 -0.22130703503E+03 -0.20962666082E+03  0.49889609272E+02  0.30891941311E+03  0.47000000000E+01 0.  1.
          1    1    1    2  502    0  0.79939836841E+01 -0.99169312278E+02  0.69580893820E+03  0.70288586182E+03  0.00000000000E+00 0. -1.
          1    1    1    2  503    0 -0.12450260944E+02 -0.59712865795E+02 -0.16482936976E+04  0.16494219439E+04  0.00000000000E+00 0. -1.
<mgrwt>
<rscale>  0 0.78245614E+02</rscale>
<asrwt>0</asrwt>
<pdfrwt beam="1">  1        2 0.37347086E+00 0.10037174E+03</pdfrwt>
<pdfrwt beam="2">  1        2 0.27706636E+00 0.60997011E+02</pdfrwt>
<totfact> 0.85138362E+00</totfact>
</mgrwt>
</event>
<event>
13    1  0.1589573E-008  0.1354400E+03  0.7546771E-02  0.1238644E+00
         -1   -1    0    0    0  501 -0.00000000000E+00  0.00000000000E+00  0.12662750657E+04  0.12662750657E+04  0.00000000000E+00 0.  1.
          2   -1    0    0  503    0  0.00000000000E+00 -0.00000000000E+00 -0.40441497360E+04  0.40441497360E+04  0.00000000000E+00 0. -1.
         24    2    1    2    0    0 -0.39571947239E+02 -0.15852857384E+03  0.98450838203E+03  0.10011647289E+04  0.79854946244E+02 0.  0.
         25    2    1    2    0    0 -0.12378997048E+03  0.10339354453E+03 -0.21839507749E+04  0.21934630783E+04  0.12500042692E+03 0.  0.
         24    2    1    2    0    0 -0.78713202780E+02  0.28734165917E+02 -0.19304094462E+03  0.22561272619E+03  0.81331883885E+02 0.  0.
        -11    1    3    3    0    0 -0.21338548631E+02 -0.16188107659E+03  0.87740541732E+03  0.89246909356E+03  0.00000000000E+00 0.  1.
         12    1    3    3    0    0 -0.18233398608E+02  0.33525027527E+01  0.10710296472E+03  0.10869563538E+03  0.00000000000E+00 0. -1.
        -13    1    5    5    0    0 -0.43672265862E+02 -0.24318220892E+02 -0.59511900524E+02  0.77719424707E+02  0.00000000000E+00 0.  1.
         14    1    5    5    0    0 -0.35040936918E+02  0.53052386809E+02 -0.13352904409E+03  0.14789330148E+03  0.00000000000E+00 0. -1.
          5    1    4    4  502    0 -0.12937332987E+03  0.12461564335E+03 -0.18297489504E+04  0.18385510134E+04  0.47000000000E+01 0.  1.
         -5    1    4    4    0  502  0.55833593848E+01 -0.21222098818E+02 -0.35420182450E+03  0.35491206497E+03  0.47000000000E+01 0.  1.
          1    1    1    2  503    0  0.11103362747E+03 -0.66190347574E+01 -0.16176512743E+04  0.16214709135E+04  0.00000000000E+00 0. -1.
         -2    1    1    2    0  501  0.13104149303E+03  0.33019898152E+02  0.23225994159E+03  0.26871335478E+03  0.00000000000E+00 0.  1.
<mgrwt>
<rscale>  0 0.12273995E+03</rscale>
<asrwt>0</asrwt>
<pdfrwt beam="2">  1        2 0.59472790E+00 0.11123074E+03</pdfrwt>
<pdfrwt beam="1">  1       -1 0.18621692E+00 0.13544003E+03</pdfrwt>
<totfact> 0.17048238E-01</totfact>
</mgrwt>
</event>
<event>
13    1  0.1589573E-008  0.1294775E+03  0.7546771E-02  0.1321580E+00
          2   -1    0    0  502    0  0.00000000000E+00  0.00000000000E+00  0.36437246059E+04  0.36437246059E+04  0.00000000000E+00 0. -1.
          2   -1    0    0  503    0 -0.00000000000E+00 -0.00000000000E+00 -0.11321097226E+03  0.11321097226E+03  0.00000000000E+00 0. -1.
         24    2    1    2    0    0 -0.35192239175E+02 -0.71040164946E+02  0.28450689637E+02  0.11664338585E+03  0.80691009344E+02 0.  0.
         25    2    1    2    0    0  0.77229698234E+02 -0.95942380570E+02  0.56495161082E+03  0.59157851248E+03  0.12500178871E+03 0.  0.
         24    2    1    2    0    0 -0.98016185101E+01  0.33540021152E+02  0.28327548709E+02  0.92687913455E+02  0.81040696816E+02 0.  0.
        -11    1    3    3    0    0 -0.28730501877E+02 -0.89237108583E+02  0.22124961243E+02  0.96323502824E+02  0.00000000000E+00 0.  1.
         12    1    3    3    0    0 -0.64617372980E+01  0.18196943637E+02  0.63257283941E+01  0.20319883030E+02  0.00000000000E+00 0. -1.
        -13    1    5    5    0    0 -0.38370426200E+02 -0.40366878584E+01  0.19893381162E+01  0.38633430106E+02  0.00000000000E+00 0.  1.
         14    1    5    5    0    0  0.28568807690E+02  0.37576709010E+02  0.26338210592E+02  0.54054483349E+02  0.00000000000E+00 0. -1.
          5    1    4    4  501    0  0.12000719065E+02  0.14859288839E+02  0.25804921614E+03  0.25879780461E+03  0.47000000000E+01 0.  1.
         -5    1    4    4    0  501  0.65228979168E+02 -0.11080166941E+03  0.30690239468E+03  0.33278070787E+03  0.47000000000E+01 0.  1.
          1    1    1    2  502    0 -0.76806399292E+02  0.10511186240E+03  0.28994787131E+04  0.29023997888E+04  0.00000000000E+00 0. -1.
          1    1    1    2  503    0  0.44570558743E+02  0.28330661960E+02  0.93050713965E+01  0.53625977543E+02  0.00000000000E+00 0. -1.
<mgrwt>
<rscale>  0 0.82692381E+02</rscale>
<asrwt>0</asrwt>
<pdfrwt beam="1">  1        2 0.53584178E+00 0.12947746E+03</pdfrwt>
<pdfrwt beam="2">  1        2 0.16648675E-01 0.52812509E+02</pdfrwt>
<totfact> 0.58910101E+01</totfact>
</mgrwt>
</event>
<event>
13    1  0.1589573E-008  0.6335932E+02  0.7546771E-02  0.1391969E+00
          2   -1    0    0  502    0  0.00000000000E+00  0.00000000000E+00  0.38810919621E+04  0.38810919621E+04  0.00000000000E+00 0. -1.
          2   -1    0    0  503    0 -0.00000000000E+00 -0.00000000000E+00 -0.42272176647E+04  0.42272176647E+04  0.00000000000E+00 0. -1.
         24    2    1    2    0    0 -0.12883055642E+03 -0.73989404773E+02 -0.86423080185E+03  0.87996144034E+03  0.73249664368E+02 0.  0.
         25    2    1    2    0    0 -0.37942632957E+03  0.27730910782E+03  0.86634721556E+02  0.49395762518E+03  0.12499551849E+03 0.  0.
         24    2    1    2    0    0  0.54841044533E+03 -0.29698938845E+03 -0.65677655817E+03  0.90908361511E+03  0.78235915693E+02 0.  0.
        -11    1    5    5    0    0  0.33295398649E+03 -0.17192117758E+03 -0.33911524772E+03  0.50538539715E+03  0.00000000000E+00 0.  1.
         12    1    5    5    0    0  0.21545645884E+03 -0.12506821087E+03 -0.31766131045E+03  0.40369821796E+03  0.00000000000E+00 0. -1.
        -13    1    3    3    0    0 -0.52092995962E+02  0.28944607913E+01 -0.38842748239E+03  0.39191576545E+03  0.00000000000E+00 0.  1.
         14    1    3    3    0    0 -0.76737560462E+02 -0.76883865564E+02 -0.47580331946E+03  0.48804567489E+03  0.00000000000E+00 0. -1.
          5    1    4    4  501    0 -0.32563489680E+03  0.17286254934E+03  0.67594177516E+02  0.37484744872E+03  0.47000000000E+01 0.  1.
         -5    1    4    4    0  501 -0.53791432768E+02  0.10444655849E+03  0.19040544040E+02  0.11911017646E+03  0.47000000000E+01 0.  1.
          1    1    1    2  502    0 -0.50699468330E+02  0.31216805669E+02  0.34560970638E+04  0.34566098767E+04  0.00000000000E+00 0. -1.
          1    1    1    2  503    0  0.10545908993E+02  0.62452879731E+02 -0.23678501280E+04  0.23686970695E+04  0.00000000000E+00 0. -1.
<mgrwt>
<rscale>  0 0.61419604E+02</rscale>
<asrwt>0</asrwt>
<pdfrwt beam="1">  1        2 0.57074882E+00 0.59539273E+02</pdfrwt>
<pdfrwt beam="2">  1        2 0.62164965E+00 0.63359319E+02</pdfrwt>
<totfact> 0.87378144E-02</totfact>
</mgrwt>
</event>
<event>
13    1  0.1589573E-008  0.7276620E+02  0.7546771E-02  0.1421684E+00
          2   -1    0    0  503    0  0.00000000000E+00  0.00000000000E+00  0.78784589867E+03  0.78784589867E+03  0.00000000000E+00 0. -1.
          2   -1    0    0  502    0 -0.00000000000E+00 -0.00000000000E+00 -0.10776620982E+04  0.10776620982E+04  0.00000000000E+00 0. -1.
         24    2    1    2    0    0 -0.11262914146E+02  0.11245893622E+03 -0.45070481361E+03  0.47155824518E+03  0.80364693866E+02 0.  0.
         25    2    1    2    0    0 -0.15764355466E+02 -0.21064471079E+03  0.13811766336E+03  0.28164141215E+03  0.12500274805E+03 0.  0.
         24    2    1    2    0    0  0.26425709683E+02 -0.16238722409E+01 -0.81544997859E+02  0.10597363561E+03  0.62288599885E+02 0.  0.
        -11    1    3    3    0    0 -0.39970236825E+02  0.37260061934E+02 -0.23646411741E+03  0.24269571663E+03  0.00000000000E+00 0.  1.
         12    1    3    3    0    0  0.28707322679E+02  0.75198874284E+02 -0.21424069619E+03  0.22886252855E+03  0.00000000000E+00 0. -1.
        -11    1    5    5    0    0 -0.61820863630E+01 -0.20852767254E+02 -0.56608936104E+02  0.60643447633E+02  0.00000000000E+00 0.  1.
         12    1    5    5    0    0  0.32607796046E+02  0.19228895013E+02 -0.24936061755E+02  0.45330187979E+02  0.00000000000E+00 0. -1.
          5    1    4    4  501    0  0.39237756883E+02 -0.12394023503E+03  0.32126575927E+02  0.13399623243E+03  0.47000000000E+01 0.  1.
         -5    1    4    4    0  501 -0.55002112349E+02 -0.86704475753E+02  0.10599108743E+03  0.14764517972E+03  0.47000000000E+01 0.  1.
          1    1    1    2  502    0  0.27185117358E+02  0.68505819163E+02 -0.44722976704E+03  0.45326211224E+03  0.00000000000E+00 0. -1.
          1    1    1    2  503    0 -0.26583557428E+02  0.31303827646E+02  0.55154571566E+03  0.55307259163E+03  0.00000000000E+00 0. -1.
<mgrwt>
<rscale>  0 0.54666195E+02</rscale>
<asrwt>0</asrwt>
<pdfrwt beam="1">  1        2 0.11585969E+00 0.41068420E+02</pdfrwt>
<pdfrwt beam="2">  1        2 0.15847972E+00 0.72766199E+02</pdfrwt>
<totfact> 0.17182026E+02</totfact>
</mgrwt>
</event>
<event>
13    1  0.1589573E-008  0.1276876E+03  0.7546771E-02  0.1236405E+00
         -3   -1    0    0    0  501 -0.00000000000E+00  0.00000000000E+00  0.57140401105E+03  0.57140401105E+03  0.00000000000E+00 0.  1.
          2   -1    0    0  503    0  0.00000000000E+00 -0.00000000000E+00 -0.12853131172E+04  0.12853131172E+04  0.00000000000E+00 0. -1.
         24    2    1    2    0    0  0.83179457375E+02  0.35504244490E+01  0.30220880977E+03  0.32299557483E+03  0.77875214354E+02 0.  0.
         25    2    1    2    0    0 -0.17199115030E+03 -0.29213693733E+01 -0.60762668334E+03  0.64375865917E+03  0.12500213903E+03 0.  0.
         24    2    1    2    0    0  0.15428304628E+02  0.46812382509E+01 -0.89177574282E+01  0.85276061558E+02  0.83261838210E+02 0.  0.
        -11    1    5    5    0    0 -0.31431237316E+02 -0.10907370822E+02  0.57416128112E+01  0.33761805863E+02  0.00000000000E+00 0.  1.
         12    1    5    5    0    0  0.46859541944E+02  0.15588609073E+02 -0.14659370239E+02  0.51514255695E+02  0.00000000000E+00 0. -1.
        -13    1    3    3    0    0  0.81370836396E+02  0.84139521156E+01  0.30588597656E+03  0.31663581330E+03  0.00000000000E+00 0.  1.
         14    1    3    3    0    0  0.18086209797E+01 -0.48635276665E+01 -0.36771667839E+01  0.63597615339E+01  0.00000000000E+00 0. -1.
          5    1    4    4  502    0  0.15603643771E+02 -0.64777140505E+01 -0.18648685576E+02  0.25598788096E+02  0.47000000000E+01 0. -1.
         -5    1    4    4    0  502 -0.18759479407E+03  0.35563446772E+01 -0.58897799777E+03  0.61815987107E+03  0.47000000000E+01 0. -1.
          1    1    1    2  503    0 -0.36134208603E+02 -0.13768967472E+03 -0.55502514309E+03  0.57298956101E+03  0.00000000000E+00 0. -1.
         -4    1    1    2    0  501  0.10951759690E+03  0.13237938139E+03  0.15545166793E+03  0.23169727169E+03  0.00000000000E+00 0.  1.
<mgrwt>
<rscale>  0 0.12414935E+03</rscale>
<asrwt>0</asrwt>
<pdfrwt beam="2">  1        2 0.18901663E+00 0.12768755E+03</pdfrwt>
<pdfrwt beam="1">  1       -3 0.84030003E-01 0.12070919E+03</pdfrwt>
<totfact> 0.16563799E+01</totfact>
</mgrwt>
</event>
<event>
13    1  0.1589573E-008  0.1873089E+03  0.7546771E-02  0.1257519E+00
          2   -1    0    0  503    0  0.00000000000E+00  0.00000000000E+00  0.63066273862E+03  0.63066273862E+03  0.00000000000E+00 0. -1.
         -1   -1    0    0    0  501 -0.00000000000E+00 -0.00000000000E+00 -0.59435861506E+03  0.59435861506E+03  0.00000000000E+00 0.  1.
         24    2    1    2    0    0 -0.13911500585E+02  0.35814276084E+01 -0.59851786196E+02  0.10087834488E+03  0.79924011925E+02 0.  0.
         25    2    1    2    0    0  0.29688304644E+02 -0.17866743969E+03  0.10743892235E+03  0.24489033939E+03  0.12499882740E+03 0.  0.
         24    2    1    2    0    0  0.67128548693E+01  0.41767831361E+02 -0.12101454551E+03  0.15119344916E+03  0.80158123027E+02 0.  0.
        -11    1    5    5    0    0 -0.12951520553E+02  0.16834151032E+02 -0.11731673347E+03  0.11922393416E+03  0.00000000000E+00 0.  1.
         12    1    5    5    0    0  0.19664375422E+02  0.24933680329E+02 -0.36978120449E+01  0.31969515002E+02  0.00000000000E+00 0. -1.
        -13    1    3    3    0    0  0.15947184429E+02 -0.18719906994E+02 -0.58643499715E+02  0.63590940140E+02  0.00000000000E+00 0.  1.
         14    1    3    3    0    0 -0.29858685014E+02  0.22301334603E+02 -0.12082864810E+01  0.37287404737E+02  0.00000000000E+00 0. -1.
          5    1    4    4  502    0 -0.44817378453E+02 -0.73266880436E+02  0.68586022670E+02  0.11001257058E+03  0.47000000000E+01 0.  1.
         -5    1    4    4    0  502  0.74505683097E+02 -0.10540055926E+03  0.38852899680E+02  0.13487776881E+03  0.47000000000E+01 0.  1.
          1    1    1    2  503    0  0.12355839026E+02  0.19003843626E+03  0.39319387652E+03  0.43688522354E+03  0.00000000000E+00 0. -1.
         -2    1    1    2    0  501 -0.34845497955E+02 -0.56720255540E+02 -0.28346234361E+03  0.29117399671E+03  0.00000000000E+00 0.  1.
<mgrwt>
<rscale>  0 0.11166429E+03</rscale>
<asrwt>0</asrwt>
<pdfrwt beam="1">  1        2 0.92744520E-01 0.18730887E+03</pdfrwt>
<pdfrwt beam="2">  1       -1 0.87405679E-01 0.66568732E+02</pdfrwt>
<totfact> 0.82915265E+01</totfact>
</mgrwt>
</event>
<event>
13    1  0.1589573E-008  0.7962874E+02  0.7546771E-02  0.1339661E+00
          2   -1    0    0  502    0  0.00000000000E+00  0.00000000000E+00  0.57499986419E+03  0.57499986419E+03  0.00000000000E+00 0. -1.
          2   -1    0    0  503    0 -0.00000000000E+00 -0.00000000000E+00 -0.20019278630E+04  0.20019278630E+04  0.00000000000E+00 0. -1.
         24    2    1    2    0    0 -0.65452796263E+02  0.40938246318E+02 -0.13168997896E+04  0.13215549999E+04  0.79514485458E+02 0.  0.
         25    2    1    2    0    0 -0.79516169163E+02  0.38460111242E+02  0.19076924400E+03  0.24458909372E+03  0.12501567499E+03 0.  0.
         24    2    1    2    0    0  0.21412132262E+02  0.73928917305E+01  0.60082842993E+02  0.10287058466E+03  0.80369614348E+02 0.  0.
        -11    1    5    5    0    0  0.51183904171E+02  0.13486459789E+02  0.41393917500E+02  0.67194739748E+02  0.00000000000E+00 0.  1.
         12    1    5    5    0    0 -0.29771771908E+02 -0.60935680583E+01  0.18688925493E+02  0.35675844914E+02  0.00000000000E+00 0. -1.
        -13    1    3    3    0    0 -0.76119837969E+02  0.42462839137E+02 -0.83542998816E+03  0.83996463471E+03  0.00000000000E+00 0.  1.
         14    1    3    3    0    0  0.10667041706E+02 -0.15245928182E+01 -0.48146980140E+03  0.48159036517E+03  0.00000000000E+00 0. -1.
          5    1    4    4  501    0 -0.89744563290E+02  0.65467151408E+02  0.18331076558E+03  0.21439440602E+03  0.47000000000E+01 0.  1.
         -5    1    4    4    0  501  0.10228394127E+02 -0.27007040166E+02  0.74584784234E+01  0.30194687701E+02  0.47000000000E+01 0.  1.
          1    1    1    2  502    0  0.70610892940E+02 -0.36162386409E+02  0.26558429894E+03  0.27717979045E+03  0.00000000000E+00 0. -1.
          1    1    1    2  503    0  0.52945940223E+02 -0.50628862881E+02 -0.62646459521E+03  0.63073325852E+03  0.00000000000E+00 0. -1.
<mgrwt>
<rscale>  0 0.76376334E+02</rscale>
<asrwt>0</asrwt>
<pdfrwt beam="1">  1        2 0.84558806E-01 0.79628742E+02</pdfrwt>
<pdfrwt beam="2">  1        2 0.29440115E+00 0.73256770E+02</pdfrwt>
<totfact> 0.84037052E+01</totfact>
</mgrwt>
</event>
<event>
13    1  0.1589573E-008  0.3063470E+03  0.7546771E-02  0.1151637E+00
          2   -1    0    0  503    0  0.00000000000E+00  0.00000000000E+00  0.12011839121E+04  0.12011839121E+04  0.00000000000E+00 0. -1.
          2   -1    0    0  502    0 -0.00000000000E+00 -0.00000000000E+00 -0.35625076580E+04  0.35625076580E+04  0.00000000000E+00 0. -1.
         24    2    1    2    0    0 -0.24870855606E+02 -0.20726824363E+02 -0.93069299217E+02  0.12721753546E+03  0.80462700458E+02 0.  0.
         25    2    1    2    0    0 -0.24125596346E+02  0.20024952165E+03 -0.35648839941E+02  0.23995425077E+03  0.12500114941E+03 0.  0.
         24    2    1    2    0    0 -0.63572685801E+01  0.80874974860E+03 -0.91745267897E+03  0.12257171972E+04  0.80911423982E+02 0.  0.
        -13    1    3    3    0    0  0.27408769830E+02 -0.20855219200E+02 -0.35971057025E+02  0.49800580066E+02  0.00000000000E+00 0.  1.
         14    1    3    3    0    0 -0.52279625436E+02  0.12839483696E+00 -0.57098242192E+02  0.77416955394E+02  0.00000000000E+00 0. -1.
        -13    1    5    5    0    0  0.27071100421E+02  0.57079303223E+03 -0.61646664807E+03  0.84057638458E+03  0.00000000000E+00 0.  1.
         14    1    5    5    0    0 -0.33428369001E+02  0.23795671637E+03 -0.30098603090E+03  0.38514081258E+03  0.00000000000E+00 0. -1.
          5    1    4    4  501    0  0.29392326581E+02  0.86565866975E+02 -0.63192950350E+02  0.11123397485E+03  0.47000000000E+01 0.  1.
         -5    1    4    4    0  501 -0.53517922927E+02  0.11368365467E+03  0.27544110409E+02  0.12872027592E+03  0.47000000000E+01 0.  1.
          1    1    1    2  502    0  0.40244319828E+02 -0.11150817056E+04 -0.20987184724E+04  0.23768984080E+04  0.00000000000E+00 0. -1.
          1    1    1    2  503    0  0.15109400704E+02  0.12680925968E+03  0.78356554466E+03  0.79390417880E+03  0.00000000000E+00 0. -1.
<mgrwt>
<rscale>  0 0.19776661E+03</rscale>
<asrwt>0</asrwt>
<pdfrwt beam="1">  1        2 0.17664470E+00 0.12767102E+03</pdfrwt>
<pdfrwt beam="2">  1        2 0.52389817E+00 0.30634700E+03</pdfrwt>
<totfact> 0.40266193E+00</totfact>
</mgrwt>
</event>
<event>
13    1  0.1589573E-008  0.1145888E+03  0.7546771E-02  0.1376134E+00
          2   -1    0    0  502    0  0.00000000000E+00  0.00000000000E+00  0.48228799903E+03  0.48228799903E+03  0.00000000000E+00 0. -1.
          2   -1    0    0  503    0 -0.00000000000E+00 -0.00000000000E+00 -0.35999467619E+04  0.35999467619E+04  0.00000000000E+00 0. -1.
         24    2    1    2    0    0  0.33128476619E+02  0.10385203463E+03 -0.13956602791E+04  0.14021451935E+04  0.79125141201E+02 0.  0.
         25    2    1    2    0    0 -0.23573945959E+03 -0.21250518330E+03 -0.81688040828E+03  0.88523970636E+03  0.12499676214E+03 0.  0.
         24    2    1    2    0    0  0.15369358237E+03  0.17097387886E+03  0.90667584196E+01  0.24349833049E+03  0.79721053251E+02 0.  0.
        -11    1    5    5    0    0  0.11358399585E+02  0.35952189860E+02 -0.23783010155E+02  0.44578074979E+02  0.00000000000E+00 0.  1.
         12    1    5    5    0    0  0.14233518278E+03  0.13502168900E+03  0.32849768575E+02  0.19892025551E+03  0.00000000000E+00 0. -1.
        -13    1    3    3    0    0  0.30230922272E+02  0.45295779788E+02 -0.29899113060E+03  0.30391004015E+03  0.00000000000E+00 0.  1.
         14    1    3    3    0    0  0.28975543476E+01  0.58556254847E+02 -0.10966691485E+04  0.10982351533E+04  0.00000000000E+00 0. -1.
          5    1    4    4  501    0 -0.18864923254E+03 -0.17992367514E+03 -0.76357763692E+03  0.80686675444E+03  0.47000000000E+01 0. -1.
         -5    1    4    4    0  501 -0.47090227053E+02 -0.32581508164E+02 -0.53302771354E+02  0.78372951917E+02  0.47000000000E+01 0. -1.
          1    1    1    2  502    0  0.81460096488E+02 -0.80813817113E+02  0.30795535990E+03  0.32863828756E+03  0.00000000000E+00 0. -1.
          1    1    1    2  503    0 -0.32542695884E+02  0.18493086925E+02 -0.12221401938E+04  0.12227132430E+04  0.00000000000E+00 0. -1.
<mgrwt>
<rscale>  0 0.65491087E+02</rscale>
<asrwt>0</asrwt>
<pdfrwt beam="1">  1        2 0.70924706E-01 0.11458876E+03</pdfrwt>
<pdfrwt beam="2">  1        2 0.52940394E+00 0.37430219E+02</pdfrwt>
<totfact> 0.17247274E+01</totfact>
</mgrwt>
</event>
<event>
13    1  0.1589573E-008  0.5897505E+02  0.7546771E-02  0.1434388E+00
          2   -1    0    0  502    0  0.00000000000E+00  0.00000000000E+00  0.61419900809E+03  0.61419900809E+03  0.00000000000E+00 0. -1.
          2   -1    0    0  503    0 -0.00000000000E+00 -0.00000000000E+00 -0.20303396406E+04  0.20303396406E+04  0.00000000000E+00 0. -1.
         24    2    1    2    0    0  0.56629471139E+01 -0.42794419878E+02 -0.27837825123E+03  0.29341575764E+03  0.82066587182E+02 0.  0.
         25    2    1    2    0    0 -0.86806397063E+02  0.18068905492E+02  0.23809987086E+02  0.15509089659E+03  0.12499773920E+03 0.  0.
         24    2    1    2    0    0  0.77861279944E+02  0.10165412737E+02 -0.74681852680E+02  0.13477217774E+03  0.80127687112E+02 0.  0.
        -11    1    3    3    0    0 -0.20713604050E+01  0.24561948782E+02 -0.84683470434E+02  0.88197902620E+02  0.00000000000E+00 0.  1.
         12    1    3    3    0    0  0.77343075188E+01 -0.67356368659E+02 -0.19369478080E+03  0.20521785502E+03  0.00000000000E+00 0. -1.
        -13    1    5    5    0    0 -0.51715223382E+01 -0.89690486654E+01  0.10175735500E+02  0.14516682480E+02  0.00000000000E+00 0.  1.
         14    1    5    5    0    0  0.83032802282E+02  0.19134461402E+02 -0.84857588180E+02  0.12025549526E+03  0.00000000000E+00 0. -1.
          5    1    4    4  501    0 -0.44540018917E+02 -0.72829750431E+01  0.72578465442E+02  0.85595435956E+02  0.47000000000E+01 0. -1.
         -5    1    4    4    0  501 -0.42266378146E+02  0.25351880535E+02 -0.48768478356E+02  0.69495460639E+02  0.47000000000E+01 0. -1.
          1    1    1    2  502    0 -0.32478846594E+02 -0.32585445392E+02  0.48554071229E+03  0.48771556262E+03  0.00000000000E+00 0. -1.
          1    1    1    2  503    0  0.35761016598E+02  0.47145547041E+02 -0.15724312280E+04  0.15735442541E+04  0.00000000000E+00 0. -1.
<mgrwt>
<rscale>  0 0.52089272E+02</rscale>
<asrwt>0</asrwt>
<pdfrwt beam="1">  1        2 0.90323384E-01 0.46007464E+02</pdfrwt>
<pdfrwt beam="2">  1        2 0.29857936E+00 0.58975046E+02</pdfrwt>
<totfact> 0.78493772E+01</totfact>
</mgrwt>
</event>
<event>
13    1  0.1589573E-008  0.1141920E+03  0.7546771E-02  0.1392125E+00
          2   -1    0    0  503    0  0.00000000000E+00  0.00000000000E+00  0.16334528494E+04  0.16334528494E+04  0.00000000000E+00 0. -1.
          2   -1    0    0  502    0 -0.00000000000E+00 -0.00000000000E+00 -0.83290847158E+03  0.83290847158E+03  0.00000000000E+00 0. -1.
         24    2    1    2    0    0 -0.49612611527E+00  0.47319050516E+02  0.25733524535E+03  0.26746680662E+03  0.55477251715E+02 0.  0.
         25    2    1    2    0    0  0.54944499563E+02 -0.18610231698E+03  0.30476646929E+02  0.23279505171E+03  0.12494694743E+03 0.  0.
         24    2    1    2    0    0 -0.30450180656E+02  0.12221508998E+01  0.96327172456E+02  0.12745541532E+03  0.77699752809E+02 0.  0.
        -11    1    3    3    0    0 -0.24970577512E+02  0.37155302071E+02  0.13277655186E+03  0.14012015892E+03  0.00000000000E+00 0.  1.
         12    1    3    3    0    0  0.24474451397E+02  0.10163748445E+02  0.12455869349E+03  0.12734664769E+03  0.00000000000E+00 0. -1.
        -11    1    5    5    0    0 -0.39363014729E+02 -0.29408040299E+02  0.72745919632E+02  0.87785241276E+02  0.00000000000E+00 0.  1.
         12    1    5    5    0    0  0.89128340725E+01  0.30630191199E+02  0.23581252824E+02  0.39670174046E+02  0.00000000000E+00 0. -1.
          5    1    4    4  501    0 -0.36214666249E+01 -0.74744558780E+02 -0.43578485020E+02  0.86723920832E+02  0.47000000000E+01 0. -1.
         -5    1    4    4    0  501  0.58565966188E+02 -0.11135775820E+03  0.74055131949E+02  0.14607113088E+03  0.47000000000E+01 0. -1.
          1    1    1    2  502    0 -0.32925312446E+02 -0.21280972602E+01 -0.70638862193E+03  0.70715874468E+03  0.00000000000E+00 0. -1.
          1    1    1    2  503    0  0.89271196545E+01  0.13968921283E+03  0.11227939350E+04  0.11314853026E+04  0.00000000000E+00 0. -1.
<mgrwt>
<rscale>  0 0.61381200E+02</rscale>
<asrwt>0</asrwt>
<pdfrwt beam="1">  1        2 0.24021365E+00 0.11419197E+03</pdfrwt>
<pdfrwt beam="2">  1        2 0.12248654E+00 0.32994015E+02</pdfrwt>
<totfact> 0.81947089E+01</totfact>
</mgrwt>
</event>
<event>
13    1  0.1589573E-008  0.1221817E+03  0.7546771E-02  0.1322489E+00
          2   -1    0    0  502    0  0.00000000000E+00  0.00000000000E+00  0.45732809675E+03  0.45732809675E+03  0.00000000000E+00 0. -1.
          2   -1    0    0  503    0 -0.00000000000E+00 -0.00000000000E+00 -0.39459947634E+04  0.39459947634E+04  0.00000000000E+00 0. -1.
         24    2    1    2    0    0  0.10722455557E+03  0.11036774342E+03 -0.29485693697E+04  0.29536580133E+04  0.79725701924E+02 0.  0.
         25    2    1    2    0    0 -0.27207714792E+02 -0.89844948878E+02  0.29245304105E+03  0.33161265142E+03  0.12500317905E+03 0.  0.
         24    2    1    2    0    0 -0.10876971889E+02 -0.37378589968E+02 -0.33231775474E+02  0.98001581646E+02  0.83573270837E+02 0.  0.
        -13    1    3    3    0    0  0.90412297945E+00 -0.50098546591E+01 -0.52048826650E+03  0.52051316184E+03  0.00000000000E+00 0.  1.
         14    1    3    3    0    0  0.10632043259E+03  0.11537759808E+03 -0.24280811032E+04  0.24331448515E+04  0.00000000000E+00 0. -1.
        -13    1    5    5    0    0  0.21345291333E+02  0.15555817653E+02 -0.23339172453E+02  0.35246587009E+02  0.00000000000E+00 0.  1.
         14    1    5    5    0    0 -0.32222263222E+02 -0.52934407621E+02 -0.98926030207E+01  0.62754994637E+02  0.00000000000E+00 0. -1.
          5    1    4    4  501    0 -0.69725081980E+02 -0.71071920592E+02  0.24735130724E+03  0.26667876583E+03  0.47000000000E+01 0.  1.
         -5    1    4    4    0  501  0.42517367188E+02 -0.18773028286E+02  0.45101733815E+02  0.64933885582E+02  0.47000000000E+01 0.  1.
          1    1    1    2  502    0  0.53583960298E+02  0.14513734273E+02  0.98936661181E+02  0.11344757472E+03  0.00000000000E+00 0. -1.
          1    1    1    2  503    0 -0.12272382919E+03  0.23420611497E+01 -0.89825522366E+03  0.90660303901E+03  0.00000000000E+00 0. -1.
<mgrwt>
<rscale>  0 0.82358285E+02</rscale>
<asrwt>0</asrwt>
<pdfrwt beam="1">  1        2 0.67254133E-01 0.55514766E+02</pdfrwt>
<pdfrwt beam="2">  1        2 0.58029334E+00 0.12218168E+03</pdfrwt>
<totfact> 0.87832424E+00</totfact>
</mgrwt>
</event>
<event>
13    1  0.1589573E-008  0.1082128E+03  0.7546771E-02  0.1417001E+00
          4   -1    0    0  503    0 -0.00000000000E+00  0.00000000000E+00  0.26538116640E+03  0.26538116640E+03  0.00000000000E+00 0. -1.
          2   -1    0    0  502    0  0.00000000000E+00 -0.00000000000E+00 -0.66121241840E+03  0.66121241840E+03  0.00000000000E+00 0. -1.
         24    2    1    2    0    0  0.26983646642E+02  0.53884441676E+02  0.44386290847E+02  0.10955021415E+03  0.79996602205E+02 0.  0.
         25    2    1    2    0    0 -0.11871218565E+03  0.82658525897E+02 -0.49365488976E+03  0.52938159963E+03  0.12499885164E+03 0.  0.
         24    2    1    2    0    0  0.43409122236E+02 -0.49887275251E+02  0.13217447254E+02  0.11528257008E+03  0.93500149343E+02 0.  0.
        -11    1    5    5    0    0  0.17456706110E+02  0.52488985831E+01 -0.33740819746E+02  0.38350103542E+02  0.00000000000E+00 0.  1.
         12    1    5    5    0    0  0.25952416126E+02 -0.55136173834E+02  0.46958267001E+02  0.76932466538E+02  0.00000000000E+00 0. -1.
        -11    1    3    3    0    0  0.24522174358E+01 -0.17771279673E+02  0.26039773572E+02  0.31621220079E+02  0.00000000000E+00 0.  1.
         12    1    3    3    0    0  0.24531429206E+02  0.71655721349E+02  0.18346517275E+02  0.77928994072E+02  0.00000000000E+00 0. -1.
          5    1    4    4  501    0 -0.11436914711E+02  0.25193743797E+02 -0.87208167834E+01  0.29388269598E+02  0.47000000000E+01 0. -1.
         -5    1    4    4    0  501 -0.10727527094E+03  0.57464782100E+02 -0.48493407298E+03  0.49999333003E+03  0.47000000000E+01 0. -1.
          1    1    1    2  502    0 -0.23919593762E+02  0.15732256853E+02 -0.18406561480E+02  0.34036045260E+02  0.00000000000E+00 0. -1.
          3    1    1    2  503    0  0.72239010532E+02 -0.10238794918E+03  0.58626461144E+02  0.13834315569E+03  0.00000000000E+00 0. -1.
<mgrwt>
<rscale>  0 0.55660419E+02</rscale>
<asrwt>0</asrwt>
<pdfrwt beam="2">  1        2 0.97237120E-01 0.28629545E+02</pdfrwt>
<pdfrwt beam="1">  1        4 0.39026642E-01 0.10821276E+03</pdfrwt>
<totfact> 0.16088745E+02</totfact>
</mgrwt>
</event>
<event>
13    1  0.1589573E-008  0.8597970E+02  0.7546771E-02  0.1449659E+00
          2   -1    0    0  502    0  0.00000000000E+00  0.00000000000E+00  0.23069490187E+04  0.23069490187E+04  0.00000000000E+00 0. -1.
          2   -1    0    0  503    0 -0.00000000000E+00 -0.00000000000E+00 -0.83055082021E+03  0.83055082021E+03  0.00000000000E+00 0. -1.
         24    2    1    2    0    0  0.14792889448E+03  0.62478535073E+02  0.39426135492E+02  0.18373630596E+03  0.80112950251E+02 0.  0.
         25    2    1    2    0    0 -0.27337490550E+03 -0.99953793063E+02  0.84023028109E+03  0.89796188342E+03  0.12499607637E+03 0.  0.
         24    2    1    2    0    0  0.13272627630E+02  0.24072501417E+02 -0.39226365347E+02  0.91546474565E+02  0.78015391419E+02 0.  0.
        -11    1    3    3    0    0  0.14730308652E+03  0.76108701568E+02  0.36903700382E+02  0.16986058063E+03  0.00000000000E+00 0.  1.
         12    1    3    3    0    0  0.62580796881E+00 -0.13630166495E+02  0.25224351099E+01  0.13875725321E+02  0.00000000000E+00 0. -1.
        -11    1    5    5    0    0 -0.31977507532E+02  0.12750448558E+02 -0.25759300963E+02  0.42996238353E+02  0.00000000000E+00 0.  1.
         12    1    5    5    0    0  0.45250135162E+02  0.11322052859E+02 -0.13467064383E+02  0.48550236212E+02  0.00000000000E+00 0. -1.
          5    1    4    4  501    0 -0.64994691609E+02 -0.69231492478E+02  0.38140980980E+03  0.39308121616E+03  0.47000000000E+01 0. -1.
         -5    1    4    4    0  501 -0.20838021390E+03 -0.30722300586E+02  0.45882047129E+03  0.50488066725E+03  0.47000000000E+01 0. -1.
          1    1    1    2  502    0  0.84051729473E+02  0.14931768693E+02  0.12984107891E+04  0.13012141362E+04  0.00000000000E+00 0. -1.
          1    1    1    2  503    0  0.28121653917E+02 -0.15290121196E+01 -0.66244264188E+03  0.66304103876E+03  0.00000000000E+00 0. -1.
<mgrwt>
<rscale>  0 0.49208360E+02</rscale>
<asrwt>0</asrwt>
<pdfrwt beam="1">  1        2 0.33925721E+00 0.85979702E+02</pdfrwt>
<pdfrwt beam="2">  1        2 0.12213983E+00 0.28163190E+02</pdfrwt>
<totfact> 0.40238577E+01</totfact>
</mgrwt>
</event>
<event>
13    1  0.1589573E-008  0.8401701E+02  0.7546771E-02  0.1319812E+00
          2   -1    0    0  502    0  0.00000000000E+00  0.00000000000E+00  0.77612053248E+03  0.77612053248E+03  0.00000000000E+00 0. -1.
          2   -1    0    0  503    0 -0.00000000000E+00 -0.00000000000E+00 -0.18593179549E+04  0.18593179549E+04  0.00000000000E+00 0. -1.
         24    2    1    2    0    0 -0.98572029721E+01  0.20102157458E+02 -0.13087350115E+03  0.15707776262E+03  0.83930262845E+02 0.  0.
         25    2    1    2    0    0  0.16087275931E+02 -0.29033354852E+02 -0.10190379165E+03  0.16466577497E+03  0.12501479333E+03 0.  0.
         24    2    1    2    0    0 -0.62507419193E+01 -0.11497210297E+02  0.61357848092E+02  0.99837992491E+02  0.77663257742E+02 0.  0.
        -11    1    5    5    0    0  0.25811943203E+02  0.18382725790E+02  0.12139467004E+02  0.33934461518E+02  0.00000000000E+00 0.  1.
         12    1    5    5    0    0 -0.32062685122E+02 -0.29879936087E+02  0.49218381088E+02  0.65903530973E+02  0.00000000000E+00 0. -1.
        -11    1    3    3    0    0  0.12179530114E+02  0.10923723363E+01 -0.12715089766E+03  0.12773756303E+03  0.00000000000E+00 0.  1.
         12    1    3    3    0    0 -0.22036733086E+02  0.19009785122E+02 -0.37226034871E+01  0.29340199594E+02  0.00000000000E+00 0. -1.
          5    1    4    4  501    0  0.30040599467E+02 -0.33773491378E+02 -0.12716721345E+03  0.13504323942E+03  0.47000000000E+01 0.  1.
         -5    1    4    4    0  501 -0.13953323536E+02  0.47401365260E+01  0.25263421793E+02  0.29622535554E+02  0.47000000000E+01 0.  1.
          1    1    1    2  502    0 -0.80543338918E+02  0.44283069561E+02  0.64665805326E+03  0.65315760544E+03  0.00000000000E+00 0. -1.
          1    1    1    2  503    0  0.80564007879E+02 -0.23854661870E+02 -0.15584360309E+04  0.15606993518E+04  0.00000000000E+00 0. -1.
<mgrwt>
<rscale>  0 0.83347424E+02</rscale>
<asrwt>0</asrwt>
<pdfrwt beam="1">  1        2 0.11413537E+00 0.82683172E+02</pdfrwt>
<pdfrwt beam="2">  1        2 0.27342911E+00 0.84017013E+02</pdfrwt>
<totfact> 0.68897453E+01</totfact>
</mgrwt>
</event>
<event>
13    1  0.1589573E-008  0.1389368E+03  0.7546771E-02  0.1228726E+00
          2   -1    0    0  502    0  0.00000000000E+00  0.00000000000E+00  0.14655026088E+04  0.14655026088E+04  0.00000000000E+00 0. -1.
          2   -1    0    0  503    0 -0.00000000000E+00 -0.00000000000E+00 -0.21739360628E+04  0.21739360628E+04  0.00000000000E+00 0. -1.
         24    2    1    2    0    0  0.36083035793E+02  0.34984945693E+02 -0.27198076114E+03  0.28838808865E+03  0.81659190241E+02 0.  0.
         25    2    1    2    0    0 -0.49042121011E+02 -0.57248823488E+02  0.23022392443E+03  0.27260570509E+03  0.12501302989E+03 0.  0.
         24    2    1    2    0    0  0.97116434294E+02  0.58121544483E+02 -0.27753344792E+03  0.31019959349E+03  0.79932830180E+02 0.  0.
        -13    1    3    3    0    0  0.35408679861E+02 -0.18347698723E+02 -0.83984765182E+02  0.92972326209E+02  0.00000000000E+00 0.  1.
         14    1    3    3    0    0  0.67435593198E+00  0.53332644417E+02 -0.18799599595E+03  0.19541576244E+03  0.00000000000E+00 0. -1.
        -13    1    5    5    0    0  0.83655294665E+02  0.78838536312E+01 -0.19892064587E+03  0.21593931284E+03  0.00000000000E+00 0.  1.
         14    1    5    5    0    0  0.13461139629E+02  0.50237690852E+02 -0.78612802047E+02  0.94260280649E+02  0.00000000000E+00 0. -1.
          5    1    4    4  501    0  0.39294999286E+02 -0.34402412245E+02  0.62257600816E+02  0.81398536820E+02  0.47000000000E+01 0.  1.
         -5    1    4    4    0  501 -0.88337120297E+02 -0.22846411244E+02  0.16796632361E+03  0.19120716827E+03  0.47000000000E+01 0.  1.
          1    1    1    2  502    0 -0.29981457573E+02  0.19371692326E+03  0.11725582794E+04  0.11888305400E+04  0.00000000000E+00 0. -1.
          1    1    1    2  503    0 -0.54175891503E+02 -0.22957458994E+03 -0.15617014488E+04  0.15794147444E+04  0.00000000000E+00 0. -1.
<mgrwt>
<rscale>  0 0.12914795E+03</rscale>
<asrwt>0</asrwt>
<pdfrwt beam="1">  1        2 0.21551509E+00 0.12004873E+03</pdfrwt>
<pdfrwt beam="2">  1        2 0.31969647E+00 0.13893685E+03</pdfrwt>
<totfact> 0.18638867E+01</totfact>
</mgrwt>
</event>
<event>
13    1  0.1589573E-008  0.5254193E+02  0.7546771E-02  0.1563017E+00
          2   -1    0    0  502    0  0.00000000000E+00  0.00000000000E+00  0.22371054920E+04  0.22371054920E+04  0.00000000000E+00 0. -1.
          2   -1    0    0  503    0 -0.00000000000E+00 -0.00000000000E+00 -0.23435157419E+04  0.23435157419E+04  0.00000000000E+00 0. -1.
         24    2    1    2    0    0 -0.29851594439E+03  0.10955133513E+03 -0.79153463306E+03  0.85715443008E+03  0.84103374430E+02 0.  0.
         25    2    1    2    0    0  0.38639291334E+03 -0.13002809036E+03  0.76374742666E+03  0.87472320560E+03  0.12499506762E+03 0.  0.
         24    2    1    2    0    0 -0.39983762671E+02 -0.29501850474E+02 -0.34984049427E+03  0.36334547387E+03  0.84631563213E+02 0.  0.
        -11    1    5    5    0    0 -0.34207003860E+02  0.95768679702E+01 -0.52475708382E+02  0.63368252961E+02  0.00000000000E+00 0.  1.
         12    1    5    5    0    0 -0.57767588106E+01 -0.39078718444E+02 -0.29736478589E+03  0.29997722091E+03  0.00000000000E+00 0. -1.
        -13    1    3    3    0    0 -0.72448722452E+02  0.67073810720E+02 -0.25025900952E+03  0.26903026840E+03  0.00000000000E+00 0.  1.
         14    1    3    3    0    0 -0.22606722194E+03  0.42477524413E+02 -0.54127562354E+03  0.58812416168E+03  0.00000000000E+00 0. -1.
          5    1    4    4  501    0  0.19152307845E+03  0.54696149688E+00  0.32952922898E+03  0.38117317783E+03  0.47000000000E+01 0.  1.
         -5    1    4    4    0  501  0.19486983489E+03 -0.13057505186E+03  0.43421819768E+03  0.49355002777E+03  0.47000000000E+01 0.  1.
          1    1    1    2  502    0 -0.43724728318E+02  0.29123244516E+02  0.13777049454E+04  0.13787062529E+04  0.00000000000E+00 0. -1.
          1    1    1    2  503    0 -0.41684779573E+01  0.20855361186E+02 -0.11064874947E+04  0.11066918714E+04  0.00000000000E+00 0. -1.
<mgrwt>
<rscale>  0 0.33428356E+02</rscale>
<asrwt>0</asrwt>
<pdfrwt beam="1">  1        2 0.32898610E+00 0.52541931E+02</pdfrwt>
<pdfrwt beam="2">  1        2 0.34463467E+00 0.21267870E+02</pdfrwt>
<totfact> 0.91097073E+00</totfact>
</mgrwt>
</event>
<event>
13    1  0.1589573E-008  0.1018702E+03  0.7546771E-02  0.1363335E+00
          2   -1    0    0  503    0  0.00000000000E+00  0.00000000000E+00  0.16395021412E+04  0.16395021412E+04  0.00000000000E+00 0. -1.
          2   -1    0    0  502    0 -0.00000000000E+00 -0.00000000000E+00 -0.15092924596E+04  0.15092924596E+04  0.00000000000E+00 0. -1.
         24    2    1    2    0    0 -0.17713415513E+01 -0.27568241036E+02 -0.27122257811E+03  0.28349686670E+03  0.77753720087E+02 0.  0.
         25    2    1    2    0    0  0.15182999691E+03  0.86364146334E+02  0.34307811783E+03  0.40477512073E+03  0.12501675765E+03 0.  0.
         24    2    1    2    0    0 -0.12938593183E+03  0.85781787223E+02  0.29502482170E+02  0.17646154692E+03  0.78543279229E+02 0.  0.
        -11    1    3    3    0    0  0.24475247208E+02 -0.43610696281E+02 -0.19477325442E+03  0.20109090281E+03  0.00000000000E+00 0.  1.
         12    1    3    3    0    0 -0.26246588759E+02  0.16042455245E+02 -0.76449323692E+02  0.82405963891E+02  0.00000000000E+00 0. -1.
        -11    1    5    5    0    0 -0.63785701904E+02  0.94994228234E+01 -0.15374484883E+02  0.66296527713E+02  0.00000000000E+00 0.  1.
         12    1    5    5    0    0 -0.65600229926E+02  0.76282364400E+02  0.44876967053E+02  0.11016501921E+03  0.00000000000E+00 0. -1.
          5    1    4    4  501    0 -0.13233631509E+01  0.43047138412E+02  0.27537020667E+02  0.51334052272E+02  0.47000000000E+01 0.  1.
         -5    1    4    4    0  501  0.15315336006E+03  0.43317007922E+02  0.31554109717E+03  0.35344106846E+03  0.47000000000E+01 0.  1.
          1    1    1    2  502    0 -0.11663441145E+02 -0.98641669255E+02 -0.11249417496E+04  0.11293184471E+04  0.00000000000E+00 0. -1.
          1    1    1    2  503    0 -0.90092823838E+01 -0.45936023266E+02  0.11537934094E+04  0.11547426193E+04  0.00000000000E+00 0. -1.
<mgrwt>
<rscale>  0 0.69055505E+02</rscale>
<asrwt>0</asrwt>
<pdfrwt beam="1">  1        2 0.24110326E+00 0.46811167E+02</pdfrwt>
<pdfrwt beam="2">  1        2 0.22195477E+00 0.10187019E+03</pdfrwt>
<totfact> 0.36051281E+01</totfact>
</mgrwt>
</event>
<event>
13    1  0.1589573E-008  0.1740031E+03  0.7546771E-02  0.1246301E+00
         -1   -1    0    0    0  501 -0.00000000000E+00  0.00000000000E+00  0.32797952461E+03  0.32797952461E+03  0.00000000000E+00 0.  1.
          2   -1    0    0  503    0  0.00000000000E+00 -0.00000000000E+00 -0.20776896987E+04  0.20776896987E+04  0.00000000000E+00 0. -1.
         24    2    1    2    0    0  0.38929985171E+02 -0.11407820489E+03  0.60967743655E+02  0.15918764907E+03  0.84227437764E+02 0.  0.
         25    2    1    2    0    0 -0.13203671034E+03 -0.51317109156E+02 -0.69878377632E+03  0.72387285441E+03  0.12500401886E+03 0.  0.
         24    2    1    2    0    0  0.21156933471E+02  0.58763737522E+02 -0.13996371068E+03  0.17733995456E+03  0.89212255294E+02 0.  0.
        -11    1    5    5    0    0  0.27171763251E+02  0.41468611572E+02 -0.14891999818E+03  0.15695577823E+03  0.00000000000E+00 0.  1.
         12    1    5    5    0    0 -0.60148297800E+01  0.17295125950E+02  0.89562874944E+01  0.20384176328E+02  0.00000000000E+00 0. -1.
        -13    1    3    3    0    0 -0.47929646728E+01 -0.99302154439E+02  0.51913364271E+02  0.11215564086E+03  0.00000000000E+00 0.  1.
         14    1    3    3    0    0  0.43722949843E+02 -0.14776050452E+02  0.90543793847E+01  0.47032008207E+02  0.00000000000E+00 0. -1.
          5    1    4    4  502    0 -0.50103436564E+02 -0.84404453923E+02 -0.31262588423E+03  0.32770642302E+03  0.47000000000E+01 0. -1.
         -5    1    4    4    0  502 -0.81933273780E+02  0.33087344767E+02 -0.38615789209E+03  0.39616643139E+03  0.47000000000E+01 0. -1.
          1    1    1    2  503    0  0.25487031666E+02  0.17191358069E+03 -0.11431193700E+04  0.11562550593E+04  0.00000000000E+00 0. -1.
         -2    1    1    2    0  501  0.46462760036E+02 -0.65282004164E+02  0.17118893926E+03  0.18901370602E+03  0.00000000000E+00 0.  1.
<mgrwt>
<rscale>  0 0.11807861E+03</rscale>
<asrwt>0</asrwt>
<pdfrwt beam="2">  1        2 0.30554261E+00 0.17400314E+03</pdfrwt>
<pdfrwt beam="1">  1       -1 0.48232282E-01 0.80128198E+02</pdfrwt>
<totfact> 0.40374260E+01</totfact>
</mgrwt>
</event>
<event>
13    1  0.1589573E-008  0.4779168E+02  0.7546771E-02  0.1502238E+00
          2   -1    0    0  503    0  0.00000000000E+00  0.00000000000E+00  0.25357401676E+04  0.25357401676E+04  0.00000000000E+00 0. -1.
          2   -1    0    0  502    0 -0.00000000000E+00 -0.00000000000E+00 -0.53665243453E+03  0.53665243453E+03  0.00000000000E+00 0. -1.
         24    2    1    2    0    0 -0.27689637281E+01  0.13634629055E+02 -0.11232789502E+03  0.14648094997E+03  0.92981409085E+02 0.  0.
         25    2    1    2    0    0  0.11711042121E+03  0.62623185414E+02  0.16724224493E+04  0.16823360751E+04  0.12498522468E+03 0.  0.
         24    2    1    2    0    0 -0.15683918410E+03 -0.71219949922E+01  0.18909733847E+03  0.25820049427E+03  0.79122938173E+02 0.  0.
        -11    1    5    5    0    0 -0.12495673225E+02 -0.23840509393E+01  0.69595807343E+02  0.70748865347E+02  0.00000000000E+00 0.  1.
         12    1    5    5    0    0 -0.14434351087E+03 -0.47379440529E+01  0.11950153112E+03  0.18745162892E+03  0.00000000000E+00 0. -1.
        -13    1    3    3    0    0  0.26294347401E+01  0.53104692176E+02 -0.53448174750E+02  0.75390514273E+02  0.00000000000E+00 0.  1.
         14    1    3    3    0    0 -0.53983984682E+01 -0.39470063121E+02 -0.58879720272E+02  0.71090435701E+02  0.00000000000E+00 0. -1.
          5    1    4    4  501    0  0.54673986553E+02  0.94110197700E+02  0.85449245017E+03  0.86140896879E+03  0.47000000000E+01 0. -1.
         -5    1    4    4    0  501  0.62436434656E+02 -0.31487012286E+02  0.81792999918E+03  0.82092710631E+03  0.47000000000E+01 0. -1.
          1    1    1    2  502    0  0.31242738239E+02 -0.36130826086E+02 -0.36569303460E+03  0.36879932327E+03  0.00000000000E+00 0. -1.
          1    1    1    2  503    0  0.11254988378E+02 -0.33004993390E+02  0.61558887488E+03  0.61657575952E+03  0.00000000000E+00 0. -1.
<mgrwt>
<rscale>  0 0.40823471E+02</rscale>
<asrwt>0</asrwt>
<pdfrwt beam="1">  1        2 0.37290296E+00 0.34871254E+02</pdfrwt>
<pdfrwt beam="2">  1        2 0.78919477E-01 0.47791680E+02</pdfrwt>
<totfact> 0.56156960E+01</totfact>
</mgrwt>
</event>
<event>
13    1  0.1589573E-008  0.1671387E+03  0.7546771E-02  0.1286197E+00
          2   -1    0    0  503    0  0.00000000000E+00  0.00000000000E+00  0.99646372481E+03  0.99646372481E+03  0.00000000000E+00 0. -1.
         -1   -1    0    0    0  501 -0.00000000000E+00 -0.00000000000E+00 -0.11901523131E+04  0.11901523131E+04  0.00000000000E+00 0.  1.
         24    2    1    2    0    0  0.33511158390E+02 -0.74815393384E+02  0.61033825774E+02  0.12841538532E+03  0.77749871216E+02 0.  0.
         25    2    1    2    0    0  0.25436277825E+03  0.11311956600E+03 -0.13833696780E+03  0.33504925172E+03  0.12499770096E+03 0.  0.
         24    2    1    2    0    0 -0.88610493186E+02  0.35334264059E+02  0.88157459077E+02  0.15243377098E+03  0.79774602636E+02 0.  0.
        -11    1    5    5    0    0  0.12910711314E+02  0.16438249781E+02  0.18072924386E+02  0.27632103039E+02  0.00000000000E+00 0.  1.
         12    1    5    5    0    0 -0.10152120450E+03  0.18896014278E+02  0.70084534691E+02  0.12480166794E+03  0.00000000000E+00 0. -1.
        -13    1    3    3    0    0  0.74333079749E+01  0.13197639766E+02 -0.42981210391E+01  0.15745018492E+02  0.00000000000E+00 0.  1.
         14    1    3    3    0    0  0.26077850415E+02 -0.88013033150E+02  0.65331946813E+02  0.11267036683E+03  0.00000000000E+00 0. -1.
          5    1    4    4  502    0  0.63656742023E+02  0.69272007923E+02 -0.96573979792E+02  0.13490520916E+03  0.47000000000E+01 0. -1.
         -5    1    4    4    0  502  0.19070603623E+03  0.43847558081E+02 -0.41762988006E+02  0.20014404256E+03  0.47000000000E+01 0. -1.
          1    1    1    2  503    0 -0.14270676334E+03 -0.75256882960E+02  0.67263703651E+03  0.69171482681E+03  0.00000000000E+00 0. -1.
         -2    1    1    2    0  501 -0.56556680117E+02  0.16184462801E+01 -0.87717994187E+03  0.87900280310E+03  0.00000000000E+00 0.  1.
<mgrwt>
<rscale>  0 0.97245447E+02</rscale>
<asrwt>0</asrwt>
<pdfrwt beam="1">  1        2 0.14653878E+00 0.16713865E+03</pdfrwt>
<pdfrwt beam="2">  1       -1 0.17502240E+00 0.56579832E+02</pdfrwt>
<totfact> 0.92922220E+00</totfact>
</mgrwt>
</event>
<event>
13    1  0.1589573E-008  0.7205847E+02  0.7546771E-02  0.1438924E+00
          4   -1    0    0  503    0  0.00000000000E+00  0.00000000000E+00  0.91493592706E+03  0.91493592706E+03  0.00000000000E+00 0. -1.
         -1   -1    0    0    0  501 -0.00000000000E+00 -0.00000000000E+00 -0.11567961525E+04  0.11567961525E+04  0.00000000000E+00 0.  1.
         24    2    1    2    0    0 -0.16722552333E+03  0.33352711720E+02 -0.17640859509E+03  0.25952517380E+03  0.84596361501E+02 0.  0.
         25    2    1    2    0    0  0.15647273895E+03 -0.92317038345E+01  0.41272554703E+03  0.45884290427E+03  0.12500196492E+03 0.  0.
         24    2    1    2    0    0  0.38607865693E+02 -0.46895195731E+02  0.13390528154E+03  0.16792041001E+03  0.81098168897E+02 0.  0.
        -11    1    5    5    0    0 -0.68827366589E+01  0.16004713746E+02  0.53034600435E+02  0.55822860633E+02  0.00000000000E+00 0.  1.
         12    1    5    5    0    0  0.45490602352E+02 -0.62899909476E+02  0.80870681108E+02  0.11209754938E+03  0.00000000000E+00 0. -1.
        -13    1    3    3    0    0 -0.89094721619E+02  0.59832679788E+02 -0.90051696468E+02  0.14009684874E+03  0.00000000000E+00 0.  1.
         14    1    3    3    0    0 -0.78130801715E+02 -0.26479968068E+02 -0.86356898625E+02  0.11942832506E+03  0.00000000000E+00 0. -1.
          5    1    4    4  502    0  0.73402939118E+02  0.55244797442E+02  0.15196590931E+03  0.17763926004E+03  0.47000000000E+01 0. -1.
         -5    1    4    4    0  502  0.83069799833E+02 -0.64476501276E+02  0.26075963772E+03  0.28120364423E+03  0.47000000000E+01 0. -1.
          3    1    1    2  503    0  0.31483411223E+02 -0.18255176954E+02  0.28407015634E+03  0.28639188255E+03  0.00000000000E+00 0. -1.
         -2    1    1    2    0  501 -0.59338492532E+02  0.41029364800E+02 -0.89615261525E+03  0.89905170891E+03  0.00000000000E+00 0.  1.
<mgrwt>
<rscale>  0 0.51209668E+02</rscale>
<asrwt>0</asrwt>
<pdfrwt beam="1">  1        4 0.13454940E+00 0.36393085E+02</pdfrwt>
<pdfrwt beam="2">  1       -1 0.17011708E+00 0.72058471E+02</pdfrwt>
<totfact> 0.45890448E-01</totfact>
</mgrwt>
</event>
<event>
13    1  0.1589573E-008  0.1996235E+03  0.7546771E-02  0.1223028E+00
          2   -1    0    0  503    0  0.00000000000E+00  0.00000000000E+00  0.12137265183E+04  0.12137265183E+04  0.00000000000E+00 0. -1.
          2   -1    0    0  502    0 -0.00000000000E+00 -0.00000000000E+00 -0.18701934233E+04  0.18701934233E+04  0.00000000000E+00 0. -1.
         24    2    1    2    0    0 -0.10801908651E+03  0.30395545766E+02 -0.62737595563E+03  0.64376626573E+03  0.90787680552E+02 0.  0.
         25    2    1    2    0    0  0.36380364329E+03 -0.13930605886E+00 -0.33765825536E+03  0.51184867704E+03  0.12499144167E+03 0.  0.
         24    2    1    2    0    0  0.12063465300E+02 -0.30281889866E+02  0.98589113544E+03  0.98968081748E+03  0.80151540835E+02 0.  0.
        -11    1    5    5    0    0 -0.30212214304E+02  0.59434628001E+01  0.36919093012E+03  0.37047273250E+03  0.00000000000E+00 0.  1.
         12    1    5    5    0    0  0.42275679604E+02 -0.36225352667E+02  0.61670020532E+03  0.61920808498E+03  0.00000000000E+00 0. -1.
        -13    1    3    3    0    0 -0.20629533918E+02 -0.29148208922E+02 -0.22050978123E+03  0.22338254043E+03  0.00000000000E+00 0.  1.
         14    1    3    3    0    0 -0.87389552589E+02  0.59543754688E+02 -0.40686617440E+03  0.42038372530E+03  0.00000000000E+00 0. -1.
          5    1    4    4  501    0  0.35286987058E+03  0.22227843988E+02 -0.33371230366E+03  0.48620696645E+03  0.47000000000E+01 0.  1.
         -5    1    4    4    0  501  0.10933772712E+02 -0.22367150047E+02 -0.39459517038E+01  0.25641710586E+02  0.47000000000E+01 0.  1.
          1    1    1    2  502    0 -0.17698717434E+03  0.17370799569E+02 -0.78023794890E+03  0.80024837486E+03  0.00000000000E+00 0. -1.
          1    1    1    2  503    0 -0.90860847745E+02 -0.17345149410E+02  0.10291411945E+03  0.13837580656E+03  0.00000000000E+00 0. -1.
<mgrwt>
<rscale>  0 0.13302969E+03</rscale>
<asrwt>0</asrwt>
<pdfrwt beam="1">  1        2 0.17848919E+00 0.88651394E+02</pdfrwt>
<pdfrwt beam="2">  1        2 0.27502844E+00 0.19962347E+03</pdfrwt>
<totfact> 0.34864246E+01</totfact>
</mgrwt>
</event>
<event>
13    1  0.1589573E-008  0.7283682E+02  0.7546771E-02  0.1405837E+00
          2   -1    0    0  503    0  0.00000000000E+00  0.00000000000E+00  0.27645778750E+04  0.27645778750E+04  0.00000000000E+00 0. -1.
         -1   -1    0    0    0  501 -0.00000000000E+00 -0.00000000000E+00 -0.51866270668E+03  0.51866270668E+03  0.00000000000E+00 0.  1.
         24    2    1    2    0    0 -0.66951741787E+01  0.75583602059E+01  0.11392873357E+04  0.11421995744E+04  0.80884363476E+02 0.  0.
         25    2    1    2    0    0  0.79919518354E+02 -0.76710102417E+01 -0.12448799396E+03  0.19382794673E+03  0.12500415386E+03 0.  0.
         24    2    1    2    0    0  0.92100816827E+01 -0.10598017310E+02  0.97508127245E+02  0.12660012409E+03  0.79514860034E+02 0.  0.
        -11    1    3    3    0    0  0.27079309544E+02  0.28002717734E+02  0.41066307631E+03  0.41250648898E+03  0.00000000000E+00 0.  1.
         12    1    3    3    0    0 -0.33774483723E+02 -0.20444357528E+02  0.72862425942E+03  0.72969308543E+03  0.00000000000E+00 0. -1.
        -11    1    5    5    0    0  0.34682170230E+02 -0.83824074473E+01  0.94308310186E+02  0.10083241075E+03  0.00000000000E+00 0.  1.
         12    1    5    5    0    0 -0.25472088547E+02 -0.22156098631E+01  0.31998170591E+01  0.25767713349E+02  0.00000000000E+00 0. -1.
          5    1    4    4  502    0  0.89068950157E+02  0.34969563178E+02 -0.11365530603E+03  0.14864644906E+03  0.47000000000E+01 0.  1.
         -5    1    4    4    0  502 -0.91494318034E+01 -0.42640573420E+02 -0.10832687934E+02  0.45181497671E+02  0.47000000000E+01 0.  1.
          1    1    1    2  503    0 -0.54815031099E+02  0.47992396993E+02  0.14746401102E+04  0.14764387601E+04  0.00000000000E+00 0. -1.
         -2    1    1    2    0  501 -0.27619394759E+02 -0.37281729646E+02 -0.34103241092E+03  0.34417417630E+03  0.00000000000E+00 0.  1.
<mgrwt>
<rscale>  0 0.58133209E+02</rscale>
<asrwt>0</asrwt>
<pdfrwt beam="1">  1        2 0.40655556E+00 0.72836815E+02</pdfrwt>
<pdfrwt beam="2">  1       -1 0.76273928E-01 0.46397827E+02</pdfrwt>
<totfact> 0.87668005E+00</totfact>
</mgrwt>
</event>
<event>
13    1  0.1589573E-008  0.6461383E+02  0.7546771E-02  0.1435643E+00
         -3   -1    0    0    0  502 -0.00000000000E+00  0.00000000000E+00  0.31305072989E+03  0.31305072989E+03  0.00000000000E+00 0.  1.
         -1   -1    0    0    0  501  0.00000000000E+00 -0.00000000000E+00 -0.18986001353E+04  0.18986001353E+04  0.00000000000E+00 0.  1.
         24    2    1    2    0    0  0.39036630423E+02 -0.22167578165E+02 -0.27139661937E+02  0.96048232914E+02  0.80457701677E+02 0.  0.
         25    2    1    2    0    0  0.42117980065E+02  0.28406031559E+02 -0.11436237348E+03  0.17688473726E+03  0.12501452289E+03 0.  0.
         24    2    1    2    0    0 -0.63055091661E+02  0.47206046751E+02 -0.10867373289E+03  0.15461227640E+03  0.76750376931E+02 0.  0.
        -13    1    5    5    0    0 -0.16675813009E+02  0.59199234803E+02 -0.68815457523E+02  0.92294091549E+02  0.00000000000E+00 0.  1.
         14    1    5    5    0    0 -0.46379278652E+02 -0.11993188051E+02 -0.39858275365E+02  0.62318184850E+02  0.00000000000E+00 0. -1.
        -13    1    3    3    0    0  0.45266011715E+02 -0.45225857702E+02 -0.32200824555E+02  0.71632975112E+02  0.00000000000E+00 0.  1.
         14    1    3    3    0    0 -0.62293812911E+01  0.23058279537E+02  0.50611626177E+01  0.24415257801E+02  0.00000000000E+00 0. -1.
          5    1    4    4  503    0  0.21180574479E+02  0.76995646650E+02 -0.82646422862E+02  0.11501942249E+03  0.47000000000E+01 0.  1.
         -5    1    4    4    0  503  0.20937405586E+02 -0.48589615091E+02 -0.31715950617E+02  0.61865314765E+02  0.47000000000E+01 0.  1.
         -2    1    1    2    0  501 -0.40951743350E+02  0.73019870853E+01 -0.15547619891E+04  0.15553183619E+04  0.00000000000E+00 0.  1.
         -4    1    1    2    0  502  0.22852224523E+02 -0.60746487230E+02  0.21938835193E+03  0.22878725672E+03  0.00000000000E+00 0.  1.
<mgrwt>
<rscale>  0 0.51843835E+02</rscale>
<asrwt>0</asrwt>
<pdfrwt beam="2">  1       -1 0.27920591E+00 0.41597648E+02</pdfrwt>
<pdfrwt beam="1">  1       -3 0.46036871E-01 0.64613827E+02</pdfrwt>
<totfact> 0.13225654E+00</totfact>
</mgrwt>
</event>
<event>
13    1  0.1589573E-008  0.2525060E+03  0.7546771E-02  0.1227751E+00
          2   -1    0    0  502    0  0.00000000000E+00  0.00000000000E+00  0.13501588343E+04  0.13501588343E+04  0.00000000000E+00 0. -1.
          2   -1    0    0  503    0 -0.00000000000E+00 -0.00000000000E+00 -0.56552930254E+03  0.56552930254E+03  0.00000000000E+00 0. -1.
         24    2    1    2    0    0  0.37890008064E+03 -0.15641250772E+02  0.92630679267E+02  0.39901371488E+03  0.82592869470E+02 0.  0.
         25    2    1    2    0    0 -0.58116890414E+02 -0.15644427873E+03  0.60553335557E+03  0.64042796083E+03  0.12499977202E+03 0.  0.
         24    2    1    2    0    0 -0.27066980432E+02  0.11184466903E+03  0.75288746495E+02  0.15946192652E+03  0.80733259814E+02 0.  0.
        -11    1    3    3    0    0  0.29954180965E+03 -0.45294298529E+02  0.64399673025E+02  0.30971630099E+03  0.00000000000E+00 0.  1.
         12    1    3    3    0    0  0.79358270988E+02  0.29653047757E+02  0.28231006242E+02  0.89297413898E+02  0.00000000000E+00 0. -1.
        -13    1    5    5    0    0 -0.57237059007E+01  0.80263370932E+02  0.88035923576E+02  0.11926983425E+03  0.00000000000E+00 0.  1.
         14    1    5    5    0    0 -0.21343274531E+02  0.31581298100E+02 -0.12747177081E+02  0.40192092269E+02  0.00000000000E+00 0. -1.
          5    1    4    4  501    0 -0.21545902706E+02 -0.61278069991E+02  0.44809856412E+03  0.45280640560E+03  0.47000000000E+01 0.  1.
         -5    1    4    4    0  501 -0.36570987708E+02 -0.95166208742E+02  0.15743479145E+03  0.18762155523E+03  0.47000000000E+01 0.  1.
          1    1    1    2  502    0 -0.65624631843E+02  0.12065329824E+02  0.32166896904E+03  0.32851649902E+03  0.00000000000E+00 0. -1.
          1    1    1    2  503    0 -0.22809157795E+03  0.48175530649E+02 -0.31049221857E+03  0.38826803561E+03  0.00000000000E+00 0. -1.
<mgrwt>
<rscale>  0 0.12980118E+03</rscale>
<asrwt>0</asrwt>
<pdfrwt beam="1">  1        2 0.19855277E+00 0.66724542E+02</pdfrwt>
<pdfrwt beam="2">  1        2 0.83166074E-01 0.25250597E+03</pdfrwt>
<totfact> 0.17373983E+02</totfact>
</mgrwt>
</event>
<event>
13    1  0.1589573E-008  0.1037621E+03  0.7546771E-02  0.1329301E+00
          2   -1    0    0  503    0  0.00000000000E+00  0.00000000000E+00  0.67485941543E+03  0.67485941543E+03  0.00000000000E+00 0. -1.
          2   -1    0    0  502    0 -0.00000000000E+00 -0.00000000000E+00 -0.97950868053E+03  0.97950868053E+03  0.00000000000E+00 0. -1.
         24    2    1    2    0    0 -0.30974678368E+02  0.28211076192E+02 -0.24539648871E+03  0.26839638803E+03  0.10030896730E+03 0.  0.
         25    2    1    2    0    0  0.99764299362E+02 -0.11168648343E+02 -0.15064610427E+03  0.21999102838E+03  0.12499659878E+03 0.  0.
         24    2    1    2    0    0 -0.25582041955E+02  0.51443025912E+02  0.58437279154E+02  0.11693132844E+03  0.83409796726E+02 0.  0.
        -11    1    3    3    0    0 -0.31095002043E+02  0.60963587416E+02 -0.11386551768E+03  0.13284883988E+03  0.00000000000E+00 0.  1.
         12    1    3    3    0    0  0.12032367569E+00 -0.32752511224E+02 -0.13153097103E+03  0.13554754815E+03  0.00000000000E+00 0. -1.
        -13    1    5    5    0    0  0.28621670918E+02  0.45987593287E+01  0.23001250764E+02  0.37005488380E+02  0.00000000000E+00 0.  1.
         14    1    5    5    0    0 -0.54203712873E+02  0.46844266583E+02  0.35436028390E+02  0.79925840058E+02  0.00000000000E+00 0. -1.
          5    1    4    4  501    0  0.53601785292E+02  0.48073492803E+02 -0.30744817353E+02  0.78431791328E+02  0.47000000000E+01 0. -1.
         -5    1    4    4    0  501  0.46162514069E+02 -0.59242141146E+02 -0.11990128691E+03  0.14155923706E+03  0.47000000000E+01 0. -1.
          1    1    1    2  502    0 -0.50345808303E+01 -0.11676047724E+03 -0.49952971703E+03  0.51301880496E+03  0.00000000000E+00 0. -1.
          1    1    1    2  503    0 -0.38172998209E+02  0.48275023484E+02  0.53248576575E+03  0.53603054615E+03  0.00000000000E+00 0. -1.
<mgrwt>
<rscale>  0 0.79911993E+02</rscale>
<asrwt>0</asrwt>
<pdfrwt beam="1">  1        2 0.99244033E-01 0.61543933E+02</pdfrwt>
<pdfrwt beam="2">  1        2 0.14404539E+00 0.10376208E+03</pdfrwt>
<totfact> 0.22576459E+02</totfact>
</mgrwt>
</event>
<event>
13    1  0.1589573E-008  0.2678797E+03  0.7546771E-02  0.1121281E+00
          2   -1    0    0  503    0  0.00000000000E+00  0.00000000000E+00  0.26860854106E+04  0.26860854106E+04  0.00000000000E+00 0. -1.
          2   -1    0    0  502    0 -0.00000000000E+00 -0.00000000000E+00 -0.20355432647E+04  0.20355432647E+04  0.00000000000E+00 0. -1.
         24    2    1    2    0    0  0.20341993098E+03  0.12008284513E+03 -0.29654178555E+03  0.38713596890E+03  0.78343281952E+02 0.  0.
         25    2    1    2    0    0  0.11532174278E+03 -0.70178072186E+03  0.20023452632E+04  0.21285709871E+04  0.12503042988E+03 0.  0.
         24    2    1    2    0    0 -0.74470654228E+02  0.55172994428E+02 -0.33870851774E+03  0.36068231047E+03  0.82330622730E+02 0.  0.
        -11    1    3    3    0    0  0.10632710707E+03  0.92677596165E+02 -0.12674137910E+03  0.18962586244E+03  0.00000000000E+00 0.  1.
         12    1    3    3    0    0  0.97092823909E+02  0.27405248962E+02 -0.16980040645E+03  0.19751010646E+03  0.00000000000E+00 0. -1.
        -11    1    5    5    0    0 -0.18685037304E+02  0.64105517282E+02 -0.16424965095E+03  0.17730368242E+03  0.00000000000E+00 0.  1.
         12    1    5    5    0    0 -0.55785616924E+02 -0.89325228541E+01 -0.17445886680E+03  0.18337862805E+03  0.00000000000E+00 0. -1.
          5    1    4    4  501    0  0.14182937117E+03 -0.60109103019E+03  0.17327356449E+04  0.18395164860E+04  0.47000000000E+01 0.  1.
         -5    1    4    4    0  501 -0.26507628384E+02 -0.10068969167E+03  0.26960961824E+03  0.28905450113E+03  0.47000000000E+01 0.  1.
          1    1    1    2  502    0 -0.34170757255E+02  0.52584543073E+03 -0.12040947941E+04  0.13143535790E+04  0.00000000000E+00 0. -1.
          1    1    1    2  503    0 -0.21010026228E+03  0.67945158078E+00  0.48754198009E+03  0.53088582974E+03  0.00000000000E+00 0. -1.
<mgrwt>
<rscale>  0 0.23777989E+03</rscale>
<asrwt>0</asrwt>
<pdfrwt beam="1">  1        2 0.39501256E+00 0.21106217E+03</pdfrwt>
<pdfrwt beam="2">  1        2 0.29934460E+00 0.26787972E+03</pdfrwt>
<totfact> 0.47442550E+00</totfact>
</mgrwt>
</event>
<event>
13    1  0.1589573E-008  0.1571707E+03  0.7546771E-02  0.1275079E+00
          2   -1    0    0  502    0  0.00000000000E+00  0.00000000000E+00  0.13078204613E+04  0.13078204613E+04  0.00000000000E+00 0. -1.
          2   -1    0    0  503    0 -0.00000000000E+00 -0.00000000000E+00 -0.16926600020E+04  0.16926600020E+04  0.00000000000E+00 0. -1.
         24    2    1    2    0    0  0.63681258848E+02  0.33477503113E+02 -0.46722124018E+03  0.47956181061E+03  0.80670917735E+02 0.  0.
         25    2    1    2    0    0 -0.67935083641E+02 -0.22294686915E+03 -0.13301373777E+02  0.26481291518E+03  0.12501388503E+03 0.  0.
         24    2    1    2    0    0  0.44706398795E+02  0.56732492687E+02  0.55238091524E+02  0.12096433874E+03  0.79773972401E+02 0.  0.
        -11    1    5    5    0    0  0.18237406144E+02  0.41132748344E+02 -0.12402837498E+02  0.46672650955E+02  0.00000000000E+00 0.  1.
         12    1    5    5    0    0  0.26468992651E+02  0.15599744344E+02  0.67640929022E+02  0.74291687788E+02  0.00000000000E+00 0. -1.
        -13    1    3    3    0    0  0.76958024700E+02  0.46143235368E+02 -0.38528065942E+03  0.39559186324E+03  0.00000000000E+00 0.  1.
         14    1    3    3    0    0 -0.13276765852E+02 -0.12665732254E+02 -0.81940580763E+02  0.83969947367E+02  0.00000000000E+00 0. -1.
          5    1    4    4  501    0 -0.67886177157E+02 -0.35832672552E+02 -0.10490028524E+02  0.77618581343E+02  0.47000000000E+01 0.  1.
         -5    1    4    4    0  501 -0.48906483600E-01 -0.18711419660E+03 -0.28113452530E+01  0.18719433384E+03  0.47000000000E+01 0.  1.
          1    1    1    2  502    0  0.16333666808E+02 -0.64850082511E+02  0.10766570710E+04  0.10787320197E+04  0.00000000000E+00 0. -1.
          1    1    1    2  503    0 -0.56786240810E+02  0.19758695586E+03 -0.10362120893E+04  0.10564093791E+04  0.00000000000E+00 0. -1.
<mgrwt>
<rscale>  0 0.10252247E+03</rscale>
<asrwt>0</asrwt>
<pdfrwt beam="1">  1        2 0.19232654E+00 0.66875421E+02</pdfrwt>
<pdfrwt beam="2">  1        2 0.24892059E+00 0.15717071E+03</pdfrwt>
<totfact> 0.39717217E+01</totfact>
</mgrwt>
</event>
<event>
13    1  0.1589573E-008  0.7680461E+02  0.7546771E-02  0.1339415E+00
          2   -1    0    0  502    0  0.00000000000E+00  0.00000000000E+00  0.22872591659E+04  0.22872591659E+04  0.00000000000E+00 0. -1.
          2   -1    0    0  503    0 -0.00000000000E+00 -0.00000000000E+00 -0.15686473955E+04  0.15686473955E+04  0.00000000000E+00 0. -1.
         24    2    1    2    0    0 -0.25577661887E+02 -0.65962072278E+02 -0.56213765087E+03  0.57216758733E+03  0.79823541028E+02 0.  0.
         25    2    1    2    0    0  0.11060426160E+03  0.90773519495E+02  0.64013788291E+02  0.20048912022E+03  0.12499995085E+03 0.  0.
         24    2    1    2    0    0  0.62478694328E+02  0.42118215518E+01 -0.82450634354E+02  0.13133093960E+03  0.80798402857E+02 0.  0.
        -11    1    3    3    0    0 -0.12648388576E+02  0.12774112580E+02 -0.22497976650E+03  0.22569682103E+03  0.00000000000E+00 0.  1.
         12    1    3    3    0    0 -0.12929273312E+02 -0.78736184858E+02 -0.33715788437E+03  0.34647076631E+03  0.00000000000E+00 0. -1.
        -13    1    5    5    0    0  0.25844116542E+02  0.38128352272E+02 -0.62333914036E+02  0.77506170373E+02  0.00000000000E+00 0.  1.
         14    1    5    5    0    0  0.36634577786E+02 -0.33916530720E+02 -0.20116720317E+02  0.53824769223E+02  0.00000000000E+00 0. -1.
          5    1    4    4  501    0  0.71216912697E+02  0.10579385959E+03  0.48729977855E+01  0.12771071016E+03  0.47000000000E+01 0.  1.
         -5    1    4    4    0  501  0.39387348900E+02 -0.15020340098E+02  0.59140790505E+02  0.72778410066E+02  0.47000000000E+01 0.  1.
          1    1    1    2  502    0 -0.71397626237E+02 -0.28127120010E+02  0.21231053261E+04  0.21244916996E+04  0.00000000000E+00 0. -1.
          1    1    1    2  503    0 -0.76107667801E+02 -0.89614875908E+00 -0.82391905879E+03  0.82742721469E+03  0.00000000000E+00 0. -1.
<mgrwt>
<rscale>  0 0.76457993E+02</rscale>
<asrwt>0</asrwt>
<pdfrwt beam="1">  1        2 0.33636164E+00 0.76804606E+02</pdfrwt>
<pdfrwt beam="2">  1        2 0.23068344E+00 0.76112944E+02</pdfrwt>
<totfact> 0.16202427E+01</totfact>
</mgrwt>
</event>
<event>
13    1  0.1589573E-008  0.9211396E+02  0.7546771E-02  0.1307882E+00
          2   -1    0    0  503    0  0.00000000000E+00  0.00000000000E+00  0.18257834809E+04  0.18257834809E+04  0.00000000000E+00 0. -1.
          2   -1    0    0  502    0 -0.00000000000E+00 -0.00000000000E+00 -0.23478487997E+04  0.23478487997E+04  0.00000000000E+00 0. -1.
         24    2    1    2    0    0  0.93706705607E+01  0.60653557691E+02 -0.53364715555E+03  0.54332709276E+03  0.81598894420E+02 0.  0.
         25    2    1    2    0    0  0.11319388698E+03 -0.80411867856E+02  0.10144230307E+04  0.10314838096E+04  0.12500335847E+03 0.  0.
         24    2    1    2    0    0  0.29416464576E+02 -0.39000319354E+02 -0.43171042568E+02  0.10410657361E+03  0.81167028129E+02 0.  0.
        -11    1    5    5    0    0 -0.21555813729E+02  0.10235268093E+02 -0.11224273889E+02  0.26370402780E+02  0.00000000000E+00 0.  1.
         12    1    5    5    0    0  0.50972278305E+02 -0.49235587447E+02 -0.31946768679E+02  0.77736170834E+02  0.00000000000E+00 0. -1.
        -13    1    3    3    0    0  0.14762297671E+02 -0.18964302894E+01 -0.15868809633E+02  0.21756401346E+02  0.00000000000E+00 0.  1.
         14    1    3    3    0    0 -0.53916271099E+01  0.62549987980E+02 -0.51777834592E+03  0.52157069141E+03  0.00000000000E+00 0. -1.
          5    1    4    4  501    0 -0.13013891906E+02 -0.16477130138E+02  0.29903576836E+02  0.36839803307E+02  0.47000000000E+01 0. -1.
         -5    1    4    4    0  501  0.12620777888E+03 -0.63934737718E+02  0.98451945387E+03  0.99464400626E+03  0.47000000000E+01 0. -1.
          1    1    1    2  502    0 -0.68059546934E+02  0.61968473357E+02 -0.17236634998E+04  0.17261193626E+04  0.00000000000E+00 0. -1.
          1    1    1    2  503    0 -0.83921475181E+02 -0.32098438382E+01  0.76399334840E+03  0.76859544202E+03  0.00000000000E+00 0. -1.
<mgrwt>
<rscale>  0 0.87954487E+02</rscale>
<asrwt>0</asrwt>
<pdfrwt beam="1">  1        2 0.26849757E+00 0.83982838E+02</pdfrwt>
<pdfrwt beam="2">  1        2 0.34527188E+00 0.92113959E+02</pdfrwt>
<totfact> 0.11046455E+01</totfact>
</mgrwt>
</event>
<event>
13    1  0.1589573E-008  0.1760685E+03  0.7546771E-02  0.1397588E+00
         -1   -1    0    0    0  501 -0.00000000000E+00  0.00000000000E+00  0.17627317593E+04  0.17627317593E+04  0.00000000000E+00 0.  1.
          2   -1    0    0  503    0  0.00000000000E+00 -0.00000000000E+00 -0.27911297232E+04  0.27911297232E+04  0.00000000000E+00 0. -1.
         24    2    1    2    0    0 -0.16791920550E+03 -0.13957829790E+03  0.23431758176E+03  0.32909303151E+03  0.75620985488E+02 0.  0.
         25    2    1    2    0    0  0.73972429940E+03 -0.43237698759E+03 -0.23359269430E+03  0.89684624299E+03  0.12500295285E+03 0.  0.
         24    2    1    2    0    0 -0.68644849446E+03  0.42142956471E+03 -0.14115472387E+04  0.16268188118E+04  0.72521899533E+02 0.  0.
        -13    1    5    5    0    0 -0.32549205691E+03  0.24184271938E+03 -0.69628687691E+03  0.80575951436E+03  0.00000000000E+00 0.  1.
         14    1    5    5    0    0 -0.36095643754E+03  0.17958684533E+03 -0.71526036177E+03  0.82105929746E+03  0.00000000000E+00 0. -1.
        -13    1    3    3    0    0 -0.61743326615E+02 -0.27136572227E+02  0.11674442951E+03  0.13482541954E+03  0.00000000000E+00 0.  1.
         14    1    3    3    0    0 -0.10617587888E+03 -0.11244172567E+03  0.11757315226E+03  0.19426761197E+03  0.00000000000E+00 0. -1.
          5    1    4    4  502    0  0.49487944001E+03 -0.22007273920E+03 -0.13781220293E+03  0.55888457123E+03  0.47000000000E+01 0.  1.
         -5    1    4    4    0  502  0.24484485939E+03 -0.21230424838E+03 -0.95780491372E+02  0.33796167176E+03  0.47000000000E+01 0.  1.
          1    1    1    2  503    0  0.20402214104E+02  0.18535023089E+01 -0.65174174387E+03  0.65206363685E+03  0.00000000000E+00 0. -1.
         -2    1    1    2    0  501  0.94241186458E+02  0.14867221847E+03  0.10341661312E+04  0.10490397593E+04  0.00000000000E+00 0.  1.
<mgrwt>
<rscale>  0 0.60058145E+02</rscale>
<asrwt>0</asrwt>
<pdfrwt beam="2">  1        2 0.41046025E+00 0.20486235E+02</pdfrwt>
<pdfrwt beam="1">  1       -1 0.25922526E+00 0.17606851E+03</pdfrwt>
<totfact> 0.40343945E-01</totfact>
</mgrwt>
</event>
<event>
13    1  0.1589573E-008  0.7481624E+02  0.7546771E-02  0.1346335E+00
          2   -1    0    0  503    0  0.00000000000E+00  0.00000000000E+00  0.29246488105E+04  0.29246488105E+04  0.00000000000E+00 0. -1.
          2   -1    0    0  502    0 -0.00000000000E+00 -0.00000000000E+00 -0.17974984899E+04  0.17974984899E+04  0.00000000000E+00 0. -1.
         24    2    1    2    0    0  0.31623898627E+02 -0.13087307760E+03 -0.33825849785E+03  0.37190338857E+03  0.75930795183E+02 0.  0.
         25    2    1    2    0    0 -0.91801015058E+02  0.30257979709E+02 -0.18829333670E+03  0.24581112368E+03  0.12500302468E+03 0.  0.
         24    2    1    2    0    0 -0.43562174361E+02  0.12961712200E+02  0.17780547338E+03  0.20622952749E+03  0.94075302960E+02 0.  0.
        -11    1    5    5    0    0 -0.83121721929E+01  0.47279600773E+02  0.12576842218E+03  0.13461853094E+03  0.00000000000E+00 0.  1.
         12    1    5    5    0    0 -0.35250002168E+02 -0.34317888573E+02  0.52037051202E+02  0.71610996549E+02  0.00000000000E+00 0. -1.
        -13    1    3    3    0    0  0.33684214183E+02 -0.26404990229E+02 -0.15654419068E+03  0.16228965904E+03  0.00000000000E+00 0.  1.
         14    1    3    3    0    0 -0.20603155554E+01 -0.10446808737E+03 -0.18171430717E+03  0.20961372953E+03  0.00000000000E+00 0. -1.
          5    1    4    4  501    0 -0.77274150313E+02 -0.11511594465E+02 -0.18540077465E+03  0.20124449894E+03  0.47000000000E+01 0. -1.
         -5    1    4    4    0  501 -0.14526864744E+02  0.41769574174E+02 -0.28925620537E+01  0.44566624745E+02  0.47000000000E+01 0. -1.
          1    1    1    2  502    0  0.33144889940E+02  0.66804567059E+02 -0.12095005263E+04  0.12117974075E+04  0.00000000000E+00 0. -1.
          1    1    1    2  503    0  0.70594400851E+02  0.20848818629E+02  0.26853972080E+04  0.26864058531E+04  0.00000000000E+00 0. -1.
<mgrwt>
<rscale>  0 0.74210019E+02</rscale>
<asrwt>0</asrwt>
<pdfrwt beam="1">  1        2 0.43009541E+00 0.73608713E+02</pdfrwt>
<pdfrwt beam="2">  1        2 0.26433801E+00 0.74816237E+02</pdfrwt>
<totfact> 0.61039443E+00</totfact>
</mgrwt>
</event>
<event>
13    1  0.1589573E-008  0.1841968E+03  0.7546771E-02  0.1366836E+00
          2   -1    0    0  502    0  0.00000000000E+00  0.00000000000E+00  0.15916731821E+04  0.15916731821E+04  0.00000000000E+00 0. -1.
          2   -1    0    0  503    0 -0.00000000000E+00 -0.00000000000E+00 -0.11690448813E+04  0.11690448813E+04  0.00000000000E+00 0. -1.
         24    2    1    2    0    0 -0.28964141769E+02 -0.29436483185E+03 -0.41808445159E+03  0.51828854784E+03  0.79616797428E+02 0.  0.
         25    2    1    2    0    0 -0.13021956094E+03  0.14056305572E+03  0.75993910162E+02  0.24106855776E+03  0.12499547381E+03 0.  0.
         24    2    1    2    0    0  0.11311859950E+03 -0.86303214291E+02 -0.37376184950E+03  0.40775871184E+03  0.79531029128E+02 0.  0.
        -13    1    5    5    0    0 -0.76440442995E+01  0.52742866554E+01 -0.42047989534E+02  0.43061385682E+02  0.00000000000E+00 0.  1.
         14    1    5    5    0    0  0.12076264380E+03 -0.91577500947E+02 -0.33171385996E+03  0.36469732616E+03  0.00000000000E+00 0. -1.
        -13    1    3    3    0    0 -0.44147589904E+02 -0.98777930679E+02 -0.17730404205E+03  0.20770847987E+03  0.00000000000E+00 0.  1.
         14    1    3    3    0    0  0.15183448135E+02 -0.19558690117E+03 -0.24078040954E+03  0.31058006797E+03  0.00000000000E+00 0. -1.
          5    1    4    4  501    0 -0.13113018350E+03  0.95422098458E+02  0.99118438162E+02  0.19012379305E+03  0.47000000000E+01 0. -1.
         -5    1    4    4    0  501  0.91062256706E+00  0.45140957259E+02 -0.23124528000E+02  0.50944764706E+02  0.47000000000E+01 0. -1.
          1    1    1    2  502    0  0.47355014115E+01  0.24693981834E+02  0.13130390822E+04  0.13132798061E+04  0.00000000000E+00 0. -1.
          1    1    1    2  503    0  0.41329601791E+02  0.21541100859E+03 -0.17455839052E+03  0.28032243989E+03  0.00000000000E+00 0. -1.
<mgrwt>
<rscale>  0 0.68054641E+02</rscale>
<asrwt>0</asrwt>
<pdfrwt beam="1">  1        2 0.23406958E+00 0.25143940E+02</pdfrwt>
<pdfrwt beam="2">  1        2 0.17191837E+00 0.18419683E+03</pdfrwt>
<totfact> 0.58075581E+01</totfact>
</mgrwt>
</event>
<event>
13    1  0.1589573E-008  0.1034350E+03  0.7546771E-02  0.1410552E+00
          2   -1    0    0  503    0  0.00000000000E+00  0.00000000000E+00  0.10097457418E+04  0.10097457418E+04  0.00000000000E+00 0. -1.
          2   -1    0    0  502    0 -0.00000000000E+00 -0.00000000000E+00 -0.18482933817E+04  0.18482933817E+04  0.00000000000E+00 0. -1.
         24    2    1    2    0    0 -0.40570164371E+02  0.11877707503E+02 -0.11994353591E+04  0.12028576002E+04  0.80213512283E+02 0.  0.
         25    2    1    2    0    0  0.17362911118E+01  0.32755627543E+02  0.12584857630E+03  0.18038431309E+03  0.12499876163E+03 0.  0.
         24    2    1    2    0    0 -0.87759184171E+02 -0.12257268465E+02 -0.23159795222E+02  0.11978542318E+03  0.77202697202E+02 0.  0.
        -11    1    3    3    0    0  0.12640990204E+02 -0.23560045030E+02 -0.35755128442E+03  0.35854956609E+03  0.00000000000E+00 0.  1.
         12    1    3    3    0    0 -0.53211154575E+02  0.35437752533E+02 -0.84188407468E+03  0.84430803412E+03  0.00000000000E+00 0. -1.
        -13    1    5    5    0    0 -0.10115758045E+03 -0.29739712391E+01 -0.20775353858E+02  0.10331174142E+03  0.00000000000E+00 0.  1.
         14    1    5    5    0    0  0.13398396277E+02 -0.92832972262E+01 -0.23844413635E+01  0.16473681762E+02  0.00000000000E+00 0. -1.
          5    1    4    4  501    0 -0.36487048881E+02 -0.26207588808E+02  0.91471943388E+02  0.10201641473E+03  0.47000000000E+01 0. -1.
         -5    1    4    4    0  501  0.38223339992E+02  0.58963216351E+02  0.34376632915E+02  0.78367898359E+02  0.47000000000E+01 0. -1.
          1    1    1    2  502    0  0.14246593457E+03 -0.59572115951E+02 -0.53721841145E+03  0.55897137772E+03  0.00000000000E+00 0. -1.
          1    1    1    2  503    0 -0.15872877140E+02  0.27196049371E+02  0.79541734950E+03  0.79604040928E+03  0.00000000000E+00 0. -1.
<mgrwt>
<rscale>  0 0.57070927E+02</rscale>
<asrwt>0</asrwt>
<pdfrwt beam="1">  1        2 0.14849202E+00 0.31489257E+02</pdfrwt>
<pdfrwt beam="2">  1        2 0.27180785E+00 0.10343498E+03</pdfrwt>
<totfact> 0.51698655E+01</totfact>
</mgrwt>
</event>
<event>
13    1  0.1589573E-008  0.1938972E+03  0.7546771E-02  0.1338933E+00
          2   -1    0    0  502    0  0.00000000000E+00  0.00000000000E+00  0.10245503277E+04  0.10245503277E+04  0.00000000000E+00 0. -1.
          2   -1    0    0  503    0 -0.00000000000E+00 -0.00000000000E+00 -0.12924625069E+04  0.12924625069E+04  0.00000000000E+00 0. -1.
         24    2    1    2    0    0 -0.75033514825E+02  0.12828229783E+03 -0.45505837317E+03  0.48749317415E+03  0.92114578503E+02 0.  0.
         25    2    1    2    0    0  0.33541242224E+03 -0.17002657637E+03 -0.12408739827E+03  0.41524945612E+03  0.12499559487E+03 0.  0.
         24    2    1    2    0    0  0.18482709819E+02  0.13314530179E+03  0.18585535948E+03  0.23800564127E+03  0.63523134985E+02 0.  0.
        -13    1    3    3    0    0 -0.53501130443E+02  0.20325682458E+02 -0.94256955483E+02  0.11027183676E+03  0.00000000000E+00 0.  1.
         14    1    3    3    0    0 -0.21532384382E+02  0.10795661537E+03 -0.36080141768E+03  0.37722133739E+03  0.00000000000E+00 0. -1.
        -13    1    5    5    0    0 -0.85824131913E+01  0.16834653015E+02  0.66635968773E+02  0.69263379160E+02  0.00000000000E+00 0.  1.
         14    1    5    5    0    0  0.27065123011E+02  0.11631064877E+03  0.11921939071E+03  0.16874226211E+03  0.00000000000E+00 0. -1.
          5    1    4    4  501    0  0.12378139262E+03 -0.37193659877E+02  0.13385225825E+02  0.13002482749E+03  0.47000000000E+01 0.  1.
         -5    1    4    4    0  501  0.21163102962E+03 -0.13283291649E+03 -0.13747262410E+03  0.28522462863E+03  0.47000000000E+01 0.  1.
          1    1    1    2  502    0 -0.24978558885E+03 -0.99837403652E+02  0.62254546103E+03  0.67817637722E+03  0.00000000000E+00 0. -1.
          1    1    1    2  503    0 -0.29076028385E+02  0.84363804011E+01 -0.49716722834E+03  0.49808818585E+03  0.00000000000E+00 0. -1.
<mgrwt>
<rscale>  0 0.76617728E+02</rscale>
<asrwt>0</asrwt>
<pdfrwt beam="1">  1        2 0.15066917E+00 0.19389717E+03</pdfrwt>
<pdfrwt beam="2">  1        2 0.19006802E+00 0.30275203E+02</pdfrwt>
<totfact> 0.94924429E+01</totfact>
</mgrwt>
</event>
<event>
13    1  0.1589573E-008  0.1053009E+03  0.7546771E-02  0.1367523E+00
          2   -1    0    0  503    0  0.00000000000E+00  0.00000000000E+00  0.50580653770E+03  0.50580653770E+03  0.00000000000E+00 0. -1.
          2   -1    0    0  502    0 -0.00000000000E+00 -0.00000000000E+00 -0.74958204081E+03  0.74958204081E+03  0.00000000000E+00 0. -1.
         24    2    1    2    0    0  0.15074360744E+02  0.22571094708E+00 -0.47709344914E+03  0.48404839526E+03  0.80357964422E+02 0.  0.
         25    2    1    2    0    0 -0.88812104477E+02 -0.43588759327E+02  0.29133840504E+02  0.16205508254E+03  0.12500199708E+03 0.  0.
         24    2    1    2    0    0 -0.82990356560E+02  0.67835941526E+02  0.40116920209E+02  0.14014260043E+03  0.80879335585E+02 0.  0.
        -11    1    5    5    0    0 -0.82093920245E+02  0.84298148339E+02  0.37139130552E+02  0.12338924010E+03  0.00000000000E+00 0.  1.
         12    1    5    5    0    0 -0.89643631485E+00 -0.16462206813E+02  0.29777896564E+01  0.16753360333E+02  0.00000000000E+00 0. -1.
        -11    1    3    3    0    0 -0.20729896881E+02  0.21563028295E+02 -0.92804283963E+02  0.97505527719E+02  0.00000000000E+00 0.  1.
         12    1    3    3    0    0  0.35804257624E+02 -0.21337317348E+02 -0.38428916518E+03  0.38654286754E+03  0.00000000000E+00 0. -1.
          5    1    4    4  501    0 -0.69399208443E+02 -0.72806966734E+02  0.58158980040E+02  0.11628267926E+03  0.47000000000E+01 0. -1.
         -5    1    4    4    0  501 -0.19412896034E+02  0.29218207407E+02 -0.29025139536E+02  0.45772403276E+02  0.47000000000E+01 0. -1.
          1    1    1    2  502    0  0.14907123845E+03 -0.67529696516E+02 -0.10637486479E+03  0.19518736102E+03  0.00000000000E+00 0. -1.
          1    1    1    2  503    0  0.76568618417E+01  0.43056803370E+02  0.27044205011E+03  0.27395513924E+03  0.00000000000E+00 0. -1.
<mgrwt>
<rscale>  0 0.67860552E+02</rscale>
<asrwt>0</asrwt>
<pdfrwt beam="1">  1        2 0.74383315E-01 0.43732320E+02</pdfrwt>
<pdfrwt beam="2">  1        2 0.11023265E+00 0.10530094E+03</pdfrwt>
<totfact> 0.43174129E+02</totfact>
</mgrwt>
</event>
<event>
13    1  0.1589573E-008  0.9638455E+02  0.7546771E-02  0.1302773E+00
          4   -1    0    0  503    0 -0.00000000000E+00  0.00000000000E+00  0.30152481232E+04  0.30152481232E+04  0.00000000000E+00 0. -1.
          2   -1    0    0  502    0  0.00000000000E+00 -0.00000000000E+00 -0.20110908155E+04  0.20110908155E+04  0.00000000000E+00 0. -1.
         24    2    1    2    0    0  0.22245171659E+02 -0.43828034523E+02  0.75587523595E+03  0.76181120524E+03  0.81198496522E+02 0.  0.
         25    2    1    2    0    0 -0.21266333662E+02  0.10435963599E+02 -0.33393866678E+03  0.35735883853E+03  0.12501655898E+03 0.  0.
         24    2    1    2    0    0  0.44439774442E+02  0.10616651956E+03  0.10591274591E+03  0.17881099519E+03  0.86658172315E+02 0.  0.
        -11    1    5    5    0    0 -0.16230288183E+02  0.24188621039E+02  0.60547348537E+02  0.67189977356E+02  0.00000000000E+00 0.  1.
         12    1    5    5    0    0  0.60670062625E+02  0.81977898518E+02  0.45365397370E+02  0.11162101784E+03  0.00000000000E+00 0. -1.
        -13    1    3    3    0    0  0.90860015360E+01 -0.88896059211E+00  0.67817426242E+01  0.11372673734E+02  0.00000000000E+00 0.  1.
         14    1    3    3    0    0  0.13159170123E+02 -0.42939073931E+02  0.74909349332E+03  0.75043853151E+03  0.00000000000E+00 0. -1.
          5    1    4    4  501    0  0.28463233620E+02 -0.26996382923E+02 -0.24808776744E+03  0.25121423271E+03  0.47000000000E+01 0.  1.
         -5    1    4    4    0  501 -0.49729567282E+02  0.37432346522E+02 -0.85850899336E+02  0.10614460582E+03  0.47000000000E+01 0.  1.
          1    1    1    2  502    0  0.57741624527E+02 -0.61143566674E+02 -0.16236544309E+04  0.16258309697E+04  0.00000000000E+00 0. -1.
          3    1    1    2  503    0 -0.10316023697E+03 -0.11630881958E+02  0.20999624234E+04  0.21025269301E+04  0.00000000000E+00 0. -1.
<mgrwt>
<rscale>  0 0.90032429E+02</rscale>
<asrwt>0</asrwt>
<pdfrwt beam="2">  1        2 0.29574865E+00 0.84098935E+02</pdfrwt>
<pdfrwt beam="1">  1        4 0.44341885E+00 0.96384553E+02</pdfrwt>
<totfact> 0.24026578E-02</totfact>
</mgrwt>
</event>
<event>
13    1  0.1589573E-008  0.2546564E+03  0.7546771E-02  0.1297694E+00
          2   -1    0    0  503    0  0.00000000000E+00  0.00000000000E+00  0.23001518267E+04  0.23001518267E+04  0.00000000000E+00 0. -1.
          2   -1    0    0  502    0 -0.00000000000E+00 -0.00000000000E+00 -0.12440387027E+04  0.12440387027E+04  0.00000000000E+00 0. -1.
         24    2    1    2    0    0 -0.88878284716E+02  0.40555399161E+03 -0.10539678152E+03  0.43590449809E+03  0.80813738321E+02 0.  0.
         25    2    1    2    0    0 -0.22300010787E+03 -0.12187633793E+03  0.48919113251E+03  0.56525771212E+03  0.12500170851E+03 0.  0.
         24    2    1    2    0    0  0.45844961657E+02 -0.30373536538E+03 -0.17246122443E+03  0.36280901964E+03  0.86778903575E+02 0.  0.
        -11    1    5    5    0    0  0.66540096856E+02 -0.16562798812E+03 -0.11131419248E+03  0.21035936961E+03  0.00000000000E+00 0.  1.
         12    1    5    5    0    0 -0.20695135199E+02 -0.13810737726E+03 -0.61147031953E+02  0.15244965002E+03  0.00000000000E+00 0. -1.
        -13    1    3    3    0    0 -0.68495424725E+02  0.23088929252E+03 -0.23683814588E+02  0.24199671833E+03  0.00000000000E+00 0.  1.
         14    1    3    3    0    0 -0.20382859991E+02  0.17466469909E+03 -0.81712966930E+02  0.19390777976E+03  0.00000000000E+00 0. -1.
          5    1    4    4  501    0 -0.64170975476E+02 -0.28195416126E+02  0.42809854243E+02  0.82265844701E+02  0.47000000000E+01 0.  1.
         -5    1    4    4    0  501 -0.15882913239E+03 -0.93680921804E+02  0.44638127827E+03  0.48299186742E+03  0.47000000000E+01 0.  1.
          1    1    1    2  502    0  0.25409750031E+03 -0.11089379027E+02 -0.64330603624E+03  0.69175947428E+03  0.00000000000E+00 0. -1.
          1    1    1    2  503    0  0.11935930617E+02  0.31147090733E+02  0.14880860337E+04  0.14884598252E+04  0.00000000000E+00 0. -1.
<mgrwt>
<rscale>  0 0.92164323E+02</rscale>
<asrwt>0</asrwt>
<pdfrwt beam="1">  1        2 0.33825762E+00 0.33355775E+02</pdfrwt>
<pdfrwt beam="2">  1        2 0.18294687E+00 0.25465643E+03</pdfrwt>
<totfact> 0.23992009E+01</totfact>
</mgrwt>
</event>
<event>
13    1  0.1589573E-008  0.1199952E+03  0.7546771E-02  0.1373976E+00
         -1   -1    0    0    0  501 -0.00000000000E+00  0.00000000000E+00  0.20781333359E+04  0.20781333359E+04  0.00000000000E+00 0.  1.
          2   -1    0    0  503    0  0.00000000000E+00 -0.00000000000E+00 -0.28947031134E+04  0.28947031134E+04  0.00000000000E+00 0. -1.
         24    2    1    2    0    0 -0.24458733407E+03  0.68652085094E+01  0.40230834049E+03  0.47775565344E+03  0.80798319860E+02 0.  0.
         25    2    1    2    0    0 -0.51096803109E+03  0.43834683152E+03 -0.69841785209E+03  0.97808427151E+03  0.12500029025E+03 0.  0.
         24    2    1    2    0    0  0.67623583304E+03 -0.41849828418E+03 -0.71444241999E+03  0.10709019474E+04  0.62986456361E+02 0.  0.
        -11    1    5    5    0    0  0.58414615645E+03 -0.35974198021E+03 -0.64383543429E+03  0.94083212683E+03  0.00000000000E+00 0.  1.
         12    1    5    5    0    0  0.92089676585E+02 -0.58756303969E+02 -0.70606985692E+02  0.13006982055E+03  0.00000000000E+00 0. -1.
        -11    1    3    3    0    0 -0.16114382092E+03 -0.96869094673E+01  0.19172392772E+03  0.25063765020E+03  0.00000000000E+00 0.  1.
         12    1    3    3    0    0 -0.83443513152E+02  0.16552117977E+02  0.21058441277E+03  0.22711800325E+03  0.00000000000E+00 0. -1.
          5    1    4    4  502    0 -0.96527979518E+02  0.15494434602E+03 -0.19007496312E+03  0.26358297137E+03  0.47000000000E+01 0.  1.
         -5    1    4    4    0  502 -0.41444005157E+03  0.28340248550E+03 -0.50834288897E+03  0.71450130014E+03  0.47000000000E+01 0.  1.
          1    1    1    2  503    0 -0.34995680184E+02  0.99515268337E+01 -0.11230314765E+04  0.11236206779E+04  0.00000000000E+00 0. -1.
         -2    1    1    2    0  501  0.11431521231E+03 -0.36665282683E+02  0.13170136306E+04  0.13224738991E+04  0.00000000000E+00 0.  1.
<mgrwt>
<rscale>  0 0.66074198E+02</rscale>
<asrwt>0</asrwt>
<pdfrwt beam="2">  1        2 0.42569163E+00 0.36383108E+02</pdfrwt>
<pdfrwt beam="1">  1       -1 0.30560784E+00 0.11999524E+03</pdfrwt>
<totfact> 0.17589538E-01</totfact>
</mgrwt>
</event>
<event>
13    1  0.1589573E-008  0.4420944E+02  0.7546771E-02  0.1479816E+00
          2   -1    0    0  503    0  0.00000000000E+00  0.00000000000E+00  0.81135464939E+03  0.81135464939E+03  0.00000000000E+00 0. -1.
          2   -1    0    0  502    0 -0.00000000000E+00 -0.00000000000E+00 -0.25320683345E+04  0.25320683345E+04  0.00000000000E+00 0. -1.
         24    2    1    2    0    0 -0.18718301429E+03 -0.27914731488E+02 -0.17472737573E+02  0.20643006940E+03  0.80569000987E+02 0.  0.
         25    2    1    2    0    0  0.24053558142E+03  0.24068873027E+02 -0.35363869865E+02  0.27443268503E+03  0.12500407491E+03 0.  0.
         24    2    1    2    0    0  0.64124416719E+01 -0.51544577560E+02 -0.84975808580E+02  0.12572519601E+03  0.76733134854E+02 0.  0.
        -11    1    5    5    0    0 -0.18302941463E+02 -0.56913983084E+02 -0.33891981687E+02  0.68723107899E+02  0.00000000000E+00 0.  1.
         12    1    5    5    0    0  0.24715383135E+02  0.53694055243E+01 -0.51083826893E+02  0.57002088113E+02  0.00000000000E+00 0. -1.
        -11    1    3    3    0    0 -0.16402973293E+03 -0.25050815987E+02  0.14819527699E+02  0.16659206184E+03  0.00000000000E+00 0.  1.
         12    1    3    3    0    0 -0.23153281360E+02 -0.28639155011E+01 -0.32292265272E+02  0.39838007557E+02  0.00000000000E+00 0. -1.
          5    1    4    4  501    0  0.27270863442E+02 -0.29226638749E+02  0.23772835762E+02  0.46745418232E+02  0.47000000000E+01 0. -1.
         -5    1    4    4    0  501  0.21326471797E+03  0.53295511776E+02 -0.59136705627E+02  0.22768726680E+03  0.47000000000E+01 0. -1.
          1    1    1    2  502    0 -0.18422538382E+02  0.40155155249E+02 -0.21588006420E+04  0.21592526573E+04  0.00000000000E+00 0. -1.
          1    1    1    2  503    0 -0.41342470414E+02  0.15235280772E+02  0.57589937283E+03  0.57758237617E+03  0.00000000000E+00 0. -1.
<mgrwt>
<rscale>  0 0.44134826E+02</rscale>
<asrwt>0</asrwt>
<pdfrwt beam="1">  1        2 0.11931686E+00 0.44060341E+02</pdfrwt>
<pdfrwt beam="2">  1        2 0.37236299E+00 0.44209436E+02</pdfrwt>
<totfact> 0.34603809E+01</totfact>
</mgrwt>
</event>
<event>
13    1  0.1589573E-008  0.6823423E+02  0.7546771E-02  0.1384621E+00
          2   -1    0    0  502    0  0.00000000000E+00  0.00000000000E+00  0.35805582480E+04  0.35805582480E+04  0.00000000000E+00 0. -1.
          2   -1    0    0  503    0 -0.00000000000E+00 -0.00000000000E+00 -0.61650551990E+03  0.61650551990E+03  0.00000000000E+00 0. -1.
         24    2    1    2    0    0 -0.42286681362E+03 -0.13729524468E+03  0.51208034415E+03  0.68293330520E+03  0.80655404106E+02 0.  0.
         25    2    1    2    0    0  0.27108977437E+03  0.14716369147E+03  0.14563342987E+04  0.14938807034E+04  0.12499259451E+03 0.  0.
         24    2    1    2    0    0  0.15649433872E+03  0.90180820730E+00  0.16486113398E+03  0.24109164249E+03  0.80341118195E+02 0.  0.
        -11    1    5    5    0    0  0.86951166833E+02 -0.39271620389E+02  0.83865724219E+02  0.12702844280E+03  0.00000000000E+00 0.  1.
         12    1    5    5    0    0  0.69543171884E+02  0.40173428597E+02  0.80995409765E+02  0.11406319969E+03  0.00000000000E+00 0. -1.
        -11    1    3    3    0    0 -0.22914026382E+03 -0.70906548874E+02  0.33615773915E+03  0.41295886570E+03  0.00000000000E+00 0.  1.
         12    1    3    3    0    0 -0.19372654980E+03 -0.66388695801E+02  0.17592260500E+03  0.26997443949E+03  0.00000000000E+00 0. -1.
          5    1    4    4  501    0 -0.17835034378E+01 -0.18410443117E+01  0.18487467089E+03  0.18495216751E+03  0.47000000000E+01 0.  1.
         -5    1    4    4    0  501  0.27287327781E+03  0.14900473578E+03  0.12714596278E+04  0.13089285359E+04  0.47000000000E+01 0.  1.
          1    1    1    2  502    0 -0.14622391040E+02  0.56804942466E+02  0.13018445199E+04  0.13031652888E+04  0.00000000000E+00 0. -1.
          1    1    1    2  503    0  0.99050915677E+01 -0.67575197470E+02 -0.47106756861E+03  0.47599282804E+03  0.00000000000E+00 0. -1.
<mgrwt>
<rscale>  0 0.63264515E+02</rscale>
<asrwt>0</asrwt>
<pdfrwt beam="1">  1        2 0.52655267E+00 0.58656763E+02</pdfrwt>
<pdfrwt beam="2">  1        2 0.90662578E-01 0.68234227E+02</pdfrwt>
<totfact> 0.12459121E+01</totfact>
</mgrwt>
</event>
<event>
13    1  0.1589573E-008  0.6138436E+02  0.7546771E-02  0.1405449E+00
          2   -1    0    0  502    0  0.00000000000E+00  0.00000000000E+00  0.29221826222E+04  0.29221826222E+04  0.00000000000E+00 0. -1.
          2   -1    0    0  503    0 -0.00000000000E+00 -0.00000000000E+00 -0.24666311624E+04  0.24666311624E+04  0.00000000000E+00 0. -1.
         24    2    1    2    0    0 -0.39237115584E+02  0.53138114525E+02 -0.72660013018E+03  0.73392875116E+03  0.79626956197E+02 0.  0.
         25    2    1    2    0    0 -0.91495846916E+02 -0.10126250364E+03  0.21372152188E+03  0.28271549350E+03  0.12500230678E+03 0.  0.
         24    2    1    2    0    0  0.36665548085E+02  0.28054638028E+02 -0.83600437147E+03  0.84109402203E+03  0.80027618006E+02 0.  0.
        -11    1    3    3    0    0  0.10565139542E+02 -0.85805036468E+01 -0.31441419705E+02  0.34260911976E+02  0.00000000000E+00 0.  1.
         12    1    3    3    0    0 -0.49802255127E+02  0.61718618171E+02 -0.69515871047E+03  0.69966783919E+03  0.00000000000E+00 0. -1.
        -13    1    5    5    0    0 -0.21847376492E+01  0.92400656783E+01 -0.65294666379E+03  0.65301569480E+03  0.00000000000E+00 0.  1.
         14    1    5    5    0    0  0.38850285734E+02  0.18814572350E+02 -0.18305770767E+03  0.18807832723E+03  0.00000000000E+00 0. -1.
          5    1    4    4  501    0 -0.12254690127E+03 -0.86945390118E+02  0.16820943779E+03  0.22559642913E+03  0.47000000000E+01 0.  1.
         -5    1    4    4    0  501  0.31051054353E+02 -0.14317113521E+02  0.45512084094E+02  0.57119064371E+02  0.47000000000E+01 0.  1.
          1    1    1    2  502    0  0.43821415819E+02  0.42978908709E+02  0.26665183711E+04  0.26672247236E+04  0.00000000000E+00 0. -1.
          1    1    1    2  503    0  0.50245998596E+02 -0.22909157623E+02 -0.86208393154E+03  0.86385079435E+03  0.00000000000E+00 0. -1.
<mgrwt>
<rscale>  0 0.58221804E+02</rscale>
<asrwt>0</asrwt>
<pdfrwt beam="1">  1        2 0.42973274E+00 0.61384358E+02</pdfrwt>
<pdfrwt beam="2">  1        2 0.36273988E+00 0.55222186E+02</pdfrwt>
<totfact> 0.31401882E+00</totfact>
</mgrwt>
</event>
<event>
13    1  0.1589573E-008  0.8183394E+02  0.7546771E-02  0.1364028E+00
          2   -1    0    0  503    0  0.00000000000E+00  0.00000000000E+00  0.12463444459E+04  0.12463444459E+04  0.00000000000E+00 0. -1.
          2   -1    0    0  502    0 -0.00000000000E+00 -0.00000000000E+00 -0.41337797636E+03  0.41337797636E+03  0.00000000000E+00 0. -1.
         24    2    1    2    0    0 -0.78711122597E+02  0.79090428652E+02  0.12488678216E+02  0.13769638161E+03  0.79709407845E+02 0.  0.
         25    2    1    2    0    0  0.20253556353E+03 -0.75204839545E+02  0.77866487108E+02  0.26146638615E+03  0.12500023554E+03 0.  0.
         24    2    1    2    0    0 -0.92482791533E+02 -0.62971942132E+01  0.42671939771E+03  0.44777466345E+03  0.99095829679E+02 0.  0.
        -11    1    5    5    0    0 -0.57568372358E+02 -0.42623339542E+02  0.34015186490E+03  0.34761207942E+03  0.00000000000E+00 0.  1.
         12    1    5    5    0    0 -0.34914419175E+02  0.36326145329E+02  0.86567532813E+02  0.10016258402E+03  0.00000000000E+00 0. -1.
        -13    1    3    3    0    0 -0.69341535268E+01 -0.14043089342E+02  0.12619442098E+02  0.20113208652E+02  0.00000000000E+00 0.  1.
         14    1    3    3    0    0 -0.71776969070E+02  0.93133517994E+02 -0.13076388216E+00  0.11758317295E+03  0.00000000000E+00 0. -1.
          5    1    4    4  501    0  0.21094098734E+03 -0.91927910401E+02  0.74267881072E+02  0.24183599610E+03  0.47000000000E+01 0.  1.
         -5    1    4    4    0  501 -0.84054238065E+01  0.16723070856E+02  0.35986060357E+01  0.19630390053E+02  0.47000000000E+01 0.  1.
          1    1    1    2  502    0  0.43162349576E+02  0.38646364504E+02 -0.24196773975E+03  0.24880698743E+03  0.00000000000E+00 0. -1.
          1    1    1    2  503    0 -0.74503998979E+02 -0.36234759398E+02  0.55785964628E+03  0.56397800365E+03  0.00000000000E+00 0. -1.
<mgrwt>
<rscale>  0 0.68855616E+02</rscale>
<asrwt>0</asrwt>
<pdfrwt beam="1">  1        2 0.18328595E+00 0.81833943E+02</pdfrwt>
<pdfrwt beam="2">  1        2 0.60790879E-01 0.57935567E+02</pdfrwt>
<totfact> 0.27600262E+02</totfact>
</mgrwt>
</event>
<event>
13    1  0.1589573E-008  0.5708316E+02  0.7546771E-02  0.1416652E+00
          2   -1    0    0  503    0  0.00000000000E+00  0.00000000000E+00  0.23035292500E+04  0.23035292500E+04  0.00000000000E+00 0. -1.
          2   -1    0    0  502    0 -0.00000000000E+00 -0.00000000000E+00 -0.62408130717E+03  0.62408130717E+03  0.00000000000E+00 0. -1.
         24    2    1    2    0    0  0.17215169581E+02 -0.43360333874E+02  0.21405987601E+01  0.95677170160E+02  0.83504838838E+02 0.  0.
         25    2    1    2    0    0 -0.45923728641E+02  0.12423010521E+02  0.37566040662E+03  0.39876176720E+03  0.12500754310E+03 0.  0.
         24    2    1    2    0    0  0.66340155536E+02  0.17797976395E+02 -0.92229997501E+02  0.14113396702E+03  0.81820779800E+02 0.  0.
        -13    1    3    3    0    0 -0.28862970771E+02 -0.21370572640E+01  0.14892812911E+02  0.32548947323E+02  0.00000000000E+00 0.  1.
         14    1    3    3    0    0  0.46078140352E+02 -0.41223276610E+02 -0.12752214151E+02  0.63128222837E+02  0.00000000000E+00 0. -1.
        -13    1    5    5    0    0  0.38578735850E+02  0.48984062063E+02 -0.39241900836E+02  0.73672817085E+02  0.00000000000E+00 0.  1.
         14    1    5    5    0    0  0.27761419686E+02 -0.31186085668E+02 -0.52988096665E+02  0.67461149934E+02  0.00000000000E+00 0. -1.
          5    1    4    4  501    0  0.11375572055E+02 -0.16707623744E+02  0.29399971492E+03  0.29473118380E+03  0.47000000000E+01 0.  1.
         -5    1    4    4    0  501 -0.57299300697E+02  0.29130634265E+02  0.81660691703E+02  0.10403058340E+03  0.47000000000E+01 0.  1.
          1    1    1    2  502    0 -0.54010620608E+01  0.56987966459E+02 -0.44685242007E+03  0.45050403452E+03  0.00000000000E+00 0. -1.
          1    1    1    2  503    0 -0.32230534415E+02 -0.43848619501E+02  0.18407293550E+04  0.18415336183E+04  0.00000000000E+00 0. -1.
<mgrwt>
<rscale>  0 0.55735545E+02</rscale>
<asrwt>0</asrwt>
<pdfrwt beam="1">  1        2 0.33875430E+00 0.54419746E+02</pdfrwt>
<pdfrwt beam="2">  1        2 0.91776664E-01 0.57083159E+02</pdfrwt>
<totfact> 0.57655529E+01</totfact>
</mgrwt>
</event>
<event>
13    1  0.1589573E-008  0.7227318E+02  0.7546771E-02  0.1410111E+00
          2   -1    0    0  502    0  0.00000000000E+00  0.00000000000E+00  0.10766781633E+04  0.10766781633E+04  0.00000000000E+00 0. -1.
          2   -1    0    0  503    0 -0.00000000000E+00 -0.00000000000E+00 -0.32838299016E+04  0.32838299016E+04  0.00000000000E+00 0. -1.
         24    2    1    2    0    0 -0.29811744722E+01 -0.32107262411E+01 -0.15750988446E+04  0.15771069490E+04  0.79440305329E+02 0.  0.
         25    2    1    2    0    0 -0.52261139541E+02  0.14671462327E+02  0.39492146218E+03  0.41776362115E+03  0.12496800932E+03 0.  0.
         24    2    1    2    0    0  0.41151869290E+02  0.12070350956E+02  0.55914350476E+01  0.92918336923E+02  0.82239792511E+02 0.  0.
        -11    1    5    5    0    0 -0.10788567264E+00  0.41850672631E+02  0.33442029099E+01  0.41984212891E+02  0.00000000000E+00 0.  1.
         12    1    5    5    0    0  0.41259754963E+02 -0.29780321674E+02  0.22472321377E+01  0.50934124032E+02  0.00000000000E+00 0. -1.
        -13    1    3    3    0    0 -0.28529490481E+02  0.22691735255E+02 -0.47088497450E+03  0.47229387661E+03  0.00000000000E+00 0.  1.
         14    1    3    3    0    0  0.25548316009E+02 -0.25902461496E+02 -0.11042138701E+04  0.11048130724E+04  0.00000000000E+00 0. -1.
          5    1    4    4  501    0 -0.43077232278E+02 -0.11608323994E+02  0.35427871634E+02  0.57163145603E+02  0.47000000000E+01 0.  1.
         -5    1    4    4    0  501 -0.91839072624E+01  0.26279786321E+02  0.35949359055E+03  0.36060047555E+03  0.47000000000E+01 0.  1.
          1    1    1    2  502    0 -0.30032294389E+02  0.33809092897E+02  0.61845887064E+03  0.62010996456E+03  0.00000000000E+00 0. -1.
          1    1    1    2  503    0  0.44122739112E+02 -0.57340179939E+02 -0.16510246616E+04  0.16526091932E+04  0.00000000000E+00 0. -1.
<mgrwt>
<rscale>  0 0.57169126E+02</rscale>
<asrwt>0</asrwt>
<pdfrwt beam="1">  1        2 0.15833502E+00 0.45221604E+02</pdfrwt>
<pdfrwt beam="2">  1        2 0.48291616E+00 0.72273177E+02</pdfrwt>
<totfact> 0.92479637E+00</totfact>
</mgrwt>
</event>
<event>
13    1  0.1589573E-008  0.7818247E+02  0.7546771E-02  0.1391714E+00
          2   -1    0    0  503    0  0.00000000000E+00  0.00000000000E+00  0.31952333201E+04  0.31952333201E+04  0.00000000000E+00 0. -1.
          2   -1    0    0  502    0 -0.00000000000E+00 -0.00000000000E+00 -0.10504336970E+04  0.10504336970E+04  0.00000000000E+00 0. -1.
         24    2    1    2    0    0 -0.18719795044E+02 -0.25482638452E+02 -0.40654476675E+03  0.41514239534E+03  0.77876603968E+02 0.  0.
         25    2    1    2    0    0 -0.26560686890E+03  0.12110257574E+03  0.76072262432E+03  0.82433918937E+03  0.12499338109E+03 0.  0.
         24    2    1    2    0    0  0.20978462780E+03 -0.33841179881E+02 -0.14288326658E+02  0.23196752284E+03  0.91923663210E+02 0.  0.
        -13    1    5    5    0    0  0.97933502289E+02  0.30334079542E+02 -0.87052309884E+01  0.10289270284E+03  0.00000000000E+00 0.  1.
         14    1    5    5    0    0  0.11185112551E+03 -0.64175259423E+02 -0.55830956700E+01  0.12907482000E+03  0.00000000000E+00 0. -1.
        -13    1    3    3    0    0 -0.10928057473E+02  0.25379421528E+02 -0.21645086059E+03  0.21820749878E+03  0.00000000000E+00 0.  1.
         14    1    3    3    0    0 -0.77917375710E+01 -0.50862059979E+02 -0.19009390616E+03  0.19693489655E+03  0.00000000000E+00 0. -1.
          5    1    4    4  501    0 -0.27655780451E+03  0.10808972951E+03  0.68525222224E+03  0.74683352024E+03  0.47000000000E+01 0. -1.
         -5    1    4    4    0  501  0.10950935609E+02  0.13012846230E+02  0.75470402076E+02  0.77505669129E+02  0.47000000000E+01 0. -1.
          1    1    1    2  502    0 -0.24603969679E+01 -0.48286855379E+02 -0.48277873491E+03  0.48519375598E+03  0.00000000000E+00 0. -1.
          1    1    1    2  503    0  0.77002433116E+02 -0.13491902024E+02  0.22876888271E+04  0.22890241536E+04  0.00000000000E+00 0. -1.
<mgrwt>
<rscale>  0 0.61482381E+02</rscale>
<asrwt>0</asrwt>
<pdfrwt beam="1">  1        2 0.46988725E+00 0.78182470E+02</pdfrwt>
<pdfrwt beam="2">  1        2 0.15447554E+00 0.48349498E+02</pdfrwt>
<totfact> 0.10505789E+01</totfact>
</mgrwt>
</event>
<event>
13    1  0.1589573E-008  0.8715532E+02  0.7546771E-02  0.1330806E+00
          2   -1    0    0  503    0  0.00000000000E+00  0.00000000000E+00  0.54710116729E+04  0.54710116729E+04  0.00000000000E+00 0. -1.
          2   -1    0    0  502    0 -0.00000000000E+00 -0.00000000000E+00 -0.43070888282E+03  0.43070888282E+03  0.00000000000E+00 0. -1.
         24    2    1    2    0    0  0.67827716508E+03  0.18431462822E+03  0.33693073705E+02  0.70819334980E+03  0.79817307911E+02 0.  0.
         25    2    1    2    0    0 -0.55459714793E+03 -0.23383025215E+03  0.35439213184E+04  0.35968400379E+04  0.12500145786E+03 0.  0.
         24    2    1    2    0    0  0.71741016651E+01 -0.36996680940E+02  0.21988767312E+03  0.23701439142E+03  0.80031311462E+02 0.  0.
        -11    1    3    3    0    0  0.14296800641E+03  0.70939745880E+02 -0.46493986298E+01  0.15966814119E+03  0.00000000000E+00 0.  1.
         12    1    3    3    0    0  0.53530915866E+03  0.11337488234E+03  0.38342472335E+02  0.54852520861E+03  0.00000000000E+00 0. -1.
        -13    1    5    5    0    0 -0.23413579778E+02  0.11416558157E+02  0.11066580724E+03  0.11369016849E+03  0.00000000000E+00 0.  1.
         14    1    5    5    0    0  0.30587681443E+02 -0.48413239097E+02  0.10922186588E+03  0.12332422294E+03  0.00000000000E+00 0. -1.
          5    1    4    4  501    0 -0.38263705479E+03 -0.18002826133E+03  0.21390547181E+04  0.21804583160E+04  0.47000000000E+01 0. -1.
         -5    1    4    4    0  501 -0.17196009314E+03 -0.53801990816E+02  0.14048666002E+04  0.14163817219E+04  0.47000000000E+01 0. -1.
          1    1    1    2  502    0 -0.78807774127E+02  0.36317605800E+02 -0.24614173079E+02  0.90196958209E+02  0.00000000000E+00 0. -1.
          1    1    1    2  503    0 -0.52046344688E+02  0.50194699064E+02  0.12674148980E+04  0.12694758184E+04  0.00000000000E+00 0. -1.
<mgrwt>
<rscale>  0 0.79384863E+02</rscale>
<asrwt>0</asrwt>
<pdfrwt beam="1">  1        2 0.80456050E+00 0.72307191E+02</pdfrwt>
<pdfrwt beam="2">  1        2 0.63339545E-01 0.87155322E+02</pdfrwt>
<totfact> 0.46014868E-01</totfact>
</mgrwt>
</event>
<event>
13    1  0.1589573E-008  0.7315279E+02  0.7546771E-02  0.1518775E+00
          2   -1    0    0  502    0  0.00000000000E+00  0.00000000000E+00  0.17380353964E+04  0.17380353964E+04  0.00000000000E+00 0. -1.
          2   -1    0    0  503    0 -0.00000000000E+00 -0.00000000000E+00 -0.35012814071E+04  0.35012814071E+04  0.00000000000E+00 0. -1.
         24    2    1    2    0    0  0.18652722148E+03 -0.74051677831E+03 -0.15751262335E+04  0.17528008884E+04  0.90170946558E+02 0.  0.
         25    2    1    2    0    0  0.58154716021E+02  0.66007855898E+03  0.35662236994E+03  0.76281751086E+03  0.12500146046E+03 0.  0.
         24    2    1    2    0    0 -0.26064664892E+03 -0.52807321042E+00  0.59374904729E+03  0.65350492902E+03  0.81202257637E+02 0.  0.
        -11    1    5    5    0    0 -0.50382312997E+02  0.35043427930E+01  0.20916648262E+03  0.21517731138E+03  0.00000000000E+00 0.  1.
         12    1    5    5    0    0 -0.21026433593E+03 -0.40324160034E+01  0.38458256467E+03  0.43832761764E+03  0.00000000000E+00 0. -1.
        -11    1    3    3    0    0  0.11259663031E+03 -0.45255272361E+03 -0.10597167692E+04  0.11577916910E+04  0.00000000000E+00 0.  1.
         12    1    3    3    0    0  0.73930591175E+02 -0.28796405470E+03 -0.51540946429E+03  0.59500919740E+03  0.00000000000E+00 0. -1.
          5    1    4    4  501    0  0.92728609343E+02  0.34375730423E+03  0.19009112936E+03  0.40363895583E+03  0.47000000000E+01 0.  1.
         -5    1    4    4    0  501 -0.34573893321E+02  0.31632125475E+03  0.16653124058E+03  0.35917855504E+03  0.47000000000E+01 0.  1.
          1    1    1    2  502    0  0.18784643419E+02  0.78725548027E+01  0.46479422488E+03  0.46524027279E+03  0.00000000000E+00 0. -1.
          1    1    1    2  503    0 -0.28199320011E+01  0.73093737739E+02 -0.16032854192E+04  0.16049532024E+04  0.00000000000E+00 0. -1.
<mgrwt>
<rscale>  0 0.38599848E+02</rscale>
<asrwt>0</asrwt>
<pdfrwt beam="1">  1        2 0.25559344E+00 0.20367620E+02</pdfrwt>
<pdfrwt beam="2">  1        2 0.51489433E+00 0.73152793E+02</pdfrwt>
<totfact> 0.35888737E+00</totfact>
</mgrwt>
</event>
<event>
13    1  0.1589573E-008  0.2694759E+03  0.7546771E-02  0.1209123E+00
          2   -1    0    0  502    0  0.00000000000E+00  0.00000000000E+00  0.20997340437E+04  0.20997340437E+04  0.00000000000E+00 0. -1.
          2   -1    0    0  503    0 -0.00000000000E+00 -0.00000000000E+00 -0.29011437127E+04  0.29011437127E+04  0.00000000000E+00 0. -1.
         24    2    1    2    0    0  0.33688682029E+03 -0.34911252549E+03 -0.79062078779E+03  0.93194939491E+03  0.89867454991E+02 0.  0.
         25    2    1    2    0    0  0.16929474176E+03  0.37537440046E+03 -0.10649988741E+04  0.11486571953E+04  0.12499640175E+03 0.  0.
         24    2    1    2    0    0 -0.23200753048E+03 -0.12424942944E+03  0.28178049789E+03  0.39491170844E+03  0.85379116621E+02 0.  0.
        -11    1    3    3    0    0  0.86234557573E+02 -0.10777672325E+03 -0.30253618990E+03  0.33253626448E+03  0.00000000000E+00 0.  1.
         12    1    3    3    0    0  0.25065226271E+03 -0.24133580224E+03 -0.48808459789E+03  0.59941313044E+03  0.00000000000E+00 0. -1.
        -11    1    5    5    0    0 -0.13971463845E+03 -0.74980101502E+02  0.10725664065E+03  0.19143192728E+03  0.00000000000E+00 0.  1.
         12    1    5    5    0    0 -0.92292892031E+02 -0.49269327936E+02  0.17452385724E+03  0.20347978116E+03  0.00000000000E+00 0. -1.
          5    1    4    4  501    0  0.98571165880E+02  0.30175686637E+03 -0.68229115831E+03  0.75254022872E+03  0.47000000000E+01 0.  1.
         -5    1    4    4    0  501  0.70723575884E+02  0.73617534093E+02 -0.38270771575E+03  0.39611696657E+03  0.47000000000E+01 0.  1.
          1    1    1    2  502    0 -0.52832043424E+02 -0.54726812531E+02  0.16273585351E+04  0.16291353690E+04  0.00000000000E+00 0. -1.
          1    1    1    2  503    0 -0.22134198815E+03  0.15271436700E+03 -0.85492904010E+03  0.89622408873E+03  0.00000000000E+00 0. -1.
<mgrwt>
<rscale>  0 0.14317238E+03</rscale>
<asrwt>0</asrwt>
<pdfrwt beam="1">  1        2 0.30878442E+00 0.76067397E+02</pdfrwt>
<pdfrwt beam="2">  1        2 0.42663878E+00 0.26947591E+03</pdfrwt>
<totfact> 0.37376576E+00</totfact>
</mgrwt>
</event>
<event>
13    1  0.1589573E-008  0.2714789E+03  0.7546771E-02  0.1219624E+00
          2   -1    0    0  502    0  0.00000000000E+00  0.00000000000E+00  0.16307770355E+04  0.16307770355E+04  0.00000000000E+00 0. -1.
          2   -1    0    0  503    0 -0.00000000000E+00 -0.00000000000E+00 -0.11496791122E+04  0.11496791122E+04  0.00000000000E+00 0. -1.
         24    2    1    2    0    0 -0.10980455272E+03 -0.13273424606E+03 -0.28677810661E+03  0.34382559578E+03  0.79365849128E+02 0.  0.
         25    2    1    2    0    0 -0.18458438461E+03  0.97354030109E+02  0.10252950104E+03  0.26398253389E+03  0.12500110957E+03 0.  0.
         24    2    1    2    0    0  0.97921276536E+01  0.18876515939E+02 -0.44525880980E+03  0.45324681893E+03  0.82006478680E+02 0.  0.
        -11    1    5    5    0    0  0.42574467842E+02  0.24728234139E+01 -0.15783784677E+03  0.16349766372E+03  0.00000000000E+00 0.  1.
         12    1    5    5    0    0 -0.32782340188E+02  0.16403692525E+02 -0.28742096303E+03  0.28974915521E+03  0.00000000000E+00 0. -1.
        -13    1    3    3    0    0 -0.71971082556E+02 -0.11113488428E+03 -0.14902121189E+03  0.19934422696E+03  0.00000000000E+00 0.  1.
         14    1    3    3    0    0 -0.37833470160E+02 -0.21599361779E+02 -0.13775689472E+03  0.14448136882E+03  0.00000000000E+00 0. -1.
          5    1    4    4  501    0 -0.15790564380E+03  0.52524807582E+02  0.12378484776E+03  0.20745560077E+03  0.47000000000E+01 0. -1.
         -5    1    4    4    0  501 -0.26678740806E+02  0.44829222527E+02 -0.21255346722E+02  0.56526933117E+02  0.47000000000E+01 0. -1.
          1    1    1    2  502    0  0.27953193275E+03 -0.50859322156E+02  0.13967685344E+04  0.14253726217E+04  0.00000000000E+00 0. -1.
          1    1    1    2  503    0  0.50648769152E+01  0.67363022167E+02 -0.28616319570E+03  0.29402857737E+03  0.00000000000E+00 0. -1.
<mgrwt>
<rscale>  0 0.13542251E+03</rscale>
<asrwt>0</asrwt>
<pdfrwt beam="1">  1        2 0.23982015E+00 0.27147888E+03</pdfrwt>
<pdfrwt beam="2">  1        2 0.16907046E+00 0.67553162E+02</pdfrwt>
<totfact> 0.49238896E+01</totfact>
</mgrwt>
</event>
<event>
13    1  0.1589573E-008  0.8420134E+02  0.7546771E-02  0.1369703E+00
          2   -1    0    0  502    0  0.00000000000E+00  0.00000000000E+00  0.11786926140E+04  0.11786926140E+04  0.00000000000E+00 0. -1.
          2   -1    0    0  503    0 -0.00000000000E+00 -0.00000000000E+00 -0.94621964615E+03  0.94621964615E+03  0.00000000000E+00 0. -1.
         24    2    1    2    0    0  0.11148562953E+03  0.48082326698E+02 -0.61409547764E+03  0.63107666309E+03  0.80022142569E+02 0.  0.
         25    2    1    2    0    0 -0.14488683689E+03 -0.87087165193E+02  0.73289923920E+03  0.76245816121E+03  0.12499913173E+03 0.  0.
         24    2    1    2    0    0  0.52451074336E+02 -0.60077890173E+02 -0.10693213641E+03  0.15525075712E+03  0.79421959812E+02 0.  0.
        -11    1    3    3    0    0 -0.25828376224E+01 -0.11872228540E+02 -0.22117137386E+02  0.25234671126E+02  0.00000000000E+00 0.  1.
         12    1    3    3    0    0  0.11406846715E+03  0.59954555238E+02 -0.59197834026E+03  0.60584199196E+03  0.00000000000E+00 0. -1.
        -13    1    5    5    0    0  0.14183452270E+02 -0.60972879985E+02 -0.30208174134E+02  0.69508245529E+02  0.00000000000E+00 0.  1.
         14    1    5    5    0    0  0.38267622066E+02  0.89498981239E+00 -0.76723962279E+02  0.85742511587E+02  0.00000000000E+00 0. -1.
          5    1    4    4  501    0 -0.13098716505E+03 -0.10313765343E+02  0.43124288564E+03  0.45083980256E+03  0.47000000000E+01 0. -1.
         -5    1    4    4    0  501 -0.13899671839E+02 -0.76773399850E+02  0.30165635356E+03  0.31161835865E+03  0.47000000000E+01 0. -1.
          1    1    1    2  502    0  0.30543487421E+02  0.78458011951E+02  0.38970601661E+03  0.39869705748E+03  0.00000000000E+00 0. -1.
          1    1    1    2  503    0 -0.49593354393E+02  0.20624716716E+02 -0.16910467394E+03  0.17742962122E+03  0.00000000000E+00 0. -1.
<mgrwt>
<rscale>  0 0.67249865E+02</rscale>
<asrwt>0</asrwt>
<pdfrwt beam="1">  1        2 0.17333715E+00 0.84201335E+02</pdfrwt>
<pdfrwt beam="2">  1        2 0.13914995E+00 0.53711077E+02</pdfrwt>
<totfact> 0.11946912E+02</totfact>
</mgrwt>
</event>
<event>
13    1  0.1589573E-008  0.8488773E+02  0.7546771E-02  0.1341163E+00
          2   -1    0    0  503    0  0.00000000000E+00  0.00000000000E+00  0.25061472150E+04  0.25061472150E+04  0.00000000000E+00 0. -1.
          2   -1    0    0  502    0 -0.00000000000E+00 -0.00000000000E+00 -0.24905258470E+04  0.24905258470E+04  0.00000000000E+00 0. -1.
         24    2    1    2    0    0  0.20866662881E+03  0.33396543177E+03 -0.45575653757E+03  0.60487440984E+03  0.55537001622E+02 0.  0.
         25    2    1    2    0    0 -0.20129888432E+03  0.40793862270E+03  0.10081631759E+03  0.48241684678E+03  0.12500769353E+03 0.  0.
         24    2    1    2    0    0 -0.72756328078E+02 -0.63306488674E+03  0.17923280420E+04  0.19038873701E+04  0.79263317870E+02 0.  0.
        -11    1    3    3    0    0  0.45187950734E+02  0.11978588086E+03 -0.13736800590E+03  0.18777799975E+03  0.00000000000E+00 0.  1.
         12    1    3    3    0    0  0.16347867808E+03  0.21417955090E+03 -0.31838853167E+03  0.41709641009E+03  0.00000000000E+00 0. -1.
        -11    1    5    5    0    0 -0.68063901451E+02 -0.60627861918E+03  0.17525329965E+04  0.18556881102E+04  0.00000000000E+00 0.  1.
         12    1    5    5    0    0 -0.46924266274E+01 -0.26786267553E+02  0.39795045565E+02  0.48199259835E+02  0.00000000000E+00 0. -1.
          5    1    4    4  501    0 -0.13787408823E+03  0.35975646727E+03  0.51779578293E+02  0.38876367459E+03  0.47000000000E+01 0.  1.
         -5    1    4    4    0  501 -0.63424796089E+02  0.48182155428E+02  0.49036739292E+02  0.93653172189E+02  0.47000000000E+01 0.  1.
          1    1    1    2  502    0  0.74005433036E+02 -0.41558024886E+02 -0.17086217211E+04  0.17107285172E+04  0.00000000000E+00 0. -1.
          1    1    1    2  503    0 -0.86168494538E+01 -0.67281142849E+02  0.28685526703E+03  0.29476591814E+03  0.00000000000E+00 0. -1.
<mgrwt>
<rscale>  0 0.75881443E+02</rscale>
<asrwt>0</asrwt>
<pdfrwt beam="1">  1        2 0.36855106E+00 0.67830688E+02</pdfrwt>
<pdfrwt beam="2">  1        2 0.36625380E+00 0.84887733E+02</pdfrwt>
<totfact> 0.45944159E+00</totfact>
</mgrwt>
</event>
<event>
13    1  0.1589573E-008  0.1194812E+03  0.7546771E-02  0.1263229E+00
          2   -1    0    0  503    0  0.00000000000E+00  0.00000000000E+00  0.15085541428E+04  0.15085541428E+04  0.00000000000E+00 0. -1.
         -3   -1    0    0    0  501 -0.00000000000E+00 -0.00000000000E+00 -0.10130634678E+04  0.10130634678E+04  0.00000000000E+00 0.  1.
         24    2    1    2    0    0  0.12797793939E+03 -0.40479701875E+02 -0.14478615475E+03  0.21357101625E+03  0.81440709354E+02 0.  0.
         25    2    1    2    0    0 -0.13939462966E+03  0.47966456764E+01  0.90210783978E+03  0.92134530062E+03  0.12499895118E+03 0.  0.
         24    2    1    2    0    0 -0.97309121364E+02  0.65452787988E+02  0.15064113277E+03  0.20714175152E+03  0.80385457542E+02 0.  0.
        -11    1    5    5    0    0 -0.24706822627E+01  0.35335976214E+02  0.72252710716E+02  0.80468563375E+02  0.00000000000E+00 0.  1.
         12    1    5    5    0    0 -0.94838439101E+02  0.30116811774E+02  0.78388422056E+02  0.12667318815E+03  0.00000000000E+00 0. -1.
        -13    1    3    3    0    0  0.39990132504E+02  0.82255382919E+01 -0.46621674061E+01  0.41092651202E+02  0.00000000000E+00 0.  1.
         14    1    3    3    0    0  0.87987806890E+02 -0.48705240167E+02 -0.14012398735E+03  0.17247836505E+03  0.00000000000E+00 0. -1.
          5    1    4    4  502    0 -0.62852076080E+02 -0.19005600709E+02  0.71117720272E+03  0.71421754389E+03  0.47000000000E+01 0. -1.
         -5    1    4    4    0  502 -0.76542553579E+02  0.23802246386E+02  0.19093063705E+03  0.20712775673E+03  0.47000000000E+01 0. -1.
          1    1    1    2  503    0  0.59001578445E+02  0.79081809265E+02  0.37258793628E+03  0.38543078377E+03  0.00000000000E+00 0. -1.
         -4    1    1    2    0  501  0.49724233184E+02 -0.10885154105E+03 -0.78506007899E+03  0.79412875843E+03  0.00000000000E+00 0.  1.
<mgrwt>
<rscale>  0 0.10857632E+03</rscale>
<asrwt>0</asrwt>
<pdfrwt beam="1">  1        2 0.22184620E+00 0.98666706E+02</pdfrwt>
<pdfrwt beam="2">  1       -3 0.14897992E+00 0.11948120E+03</pdfrwt>
<totfact> 0.34401653E+00</totfact>
</mgrwt>
</event>
<event>
13    1  0.1589573E-008  0.1900817E+03  0.7546771E-02  0.1350099E+00
          2   -1    0    0  502    0  0.00000000000E+00  0.00000000000E+00  0.18681056771E+04  0.18681056771E+04  0.00000000000E+00 0. -1.
          2   -1    0    0  503    0 -0.00000000000E+00 -0.00000000000E+00 -0.10443813784E+04  0.10443813784E+04  0.00000000000E+00 0. -1.
         24    2    1    2    0    0  0.86269940081E+02 -0.29782216307E+02  0.58238494052E+01  0.12203912568E+03  0.80809331177E+02 0.  0.
         25    2    1    2    0    0 -0.29596272758E+03 -0.14641651291E+03  0.68004517027E+03  0.76623708422E+03  0.12500441696E+03 0.  0.
         24    2    1    2    0    0  0.12991343993E+03 -0.33549725374E+01  0.27001561805E+03  0.30830367785E+03  0.72484247040E+02 0.  0.
        -11    1    5    5    0    0  0.13081687983E+03  0.93541046157E+01  0.21510255720E+03  0.25193186665E+03  0.00000000000E+00 0.  1.
         12    1    5    5    0    0 -0.90343989716E+00 -0.12709077153E+02  0.54913060843E+02  0.56371811191E+02  0.00000000000E+00 0. -1.
        -13    1    3    3    0    0  0.77961418036E+02 -0.23261550496E+02 -0.28439247396E+02  0.86185110235E+02  0.00000000000E+00 0.  1.
         14    1    3    3    0    0  0.83085220449E+01 -0.65206658106E+01  0.34263096802E+02  0.35854015446E+02  0.00000000000E+00 0. -1.
          5    1    4    4  501    0 -0.18361714199E+03 -0.21425426959E+02  0.35208623244E+03  0.39769474328E+03  0.47000000000E+01 0. -1.
         -5    1    4    4    0  501 -0.11234558559E+03 -0.12499108595E+03  0.32795893783E+03  0.36854234095E+03  0.47000000000E+01 0. -1.
          1    1    1    2  502    0  0.77606429945E+02  0.15158361619E+03  0.78250024315E+03  0.80081644663E+03  0.00000000000E+00 0. -1.
          1    1    1    2  503    0  0.21729176241E+01  0.27970085562E+02 -0.91466058217E+03  0.91509072110E+03  0.00000000000E+00 0. -1.
<mgrwt>
<rscale>  0 0.73024803E+02</rscale>
<asrwt>0</asrwt>
<pdfrwt beam="1">  1        2 0.27472142E+00 0.19008173E+03</pdfrwt>
<pdfrwt beam="2">  1        2 0.15358550E+00 0.28054363E+02</pdfrwt>
<totfact> 0.46073927E+01</totfact>
</mgrwt>
</event>
<event>
13    1  0.1589573E-008  0.4739904E+02  0.7546771E-02  0.1486215E+00
          2   -1    0    0  502    0  0.00000000000E+00  0.00000000000E+00  0.14714174404E+04  0.14714174404E+04  0.00000000000E+00 0. -1.
          2   -1    0    0  503    0 -0.00000000000E+00 -0.00000000000E+00 -0.22357444435E+04  0.22357444435E+04  0.00000000000E+00 0. -1.
         24    2    1    2    0    0 -0.49878185806E+02 -0.49841466148E+02 -0.87194592310E+03  0.87775742128E+03  0.72086008597E+02 0.  0.
         25    2    1    2    0    0  0.60592819574E+02  0.11142488887E+03 -0.17396699263E+03  0.24895233173E+03  0.12500301319E+03 0.  0.
         24    2    1    2    0    0 -0.45311120973E+02 -0.79024622305E+02  0.36668290720E+03  0.38625045298E+03  0.80218884177E+02 0.  0.
        -11    1    3    3    0    0  0.16888115885E+02  0.90326078695E+00 -0.13495615278E+03  0.13601171829E+03  0.00000000000E+00 0.  1.
         12    1    3    3    0    0 -0.66766301691E+02 -0.50744726935E+02 -0.73698977032E+03  0.74174570299E+03  0.00000000000E+00 0. -1.
        -13    1    5    5    0    0 -0.47171578607E+02 -0.57467631079E+02  0.13982124614E+03  0.15835929819E+03  0.00000000000E+00 0.  1.
         14    1    5    5    0    0  0.18604576335E+01 -0.21556991226E+02  0.22686166105E+03  0.22789115478E+03  0.00000000000E+00 0. -1.
          5    1    4    4  501    0 -0.25609881149E+02  0.86733906878E+01  0.21514203815E+01  0.27528391311E+02  0.47000000000E+01 0.  1.
         -5    1    4    4    0  501  0.86202700723E+02  0.10275149818E+03 -0.17611841301E+03  0.22142394042E+03  0.47000000000E+01 0.  1.
          1    1    1    2  502    0  0.83457658791E+01  0.46670444562E+02  0.10536805563E+04  0.10547466506E+04  0.00000000000E+00 0. -1.
          1    1    1    2  503    0  0.26250721327E+02 -0.29229244979E+02 -0.11387775508E+04  0.11394550273E+04  0.00000000000E+00 0. -1.
<mgrwt>
<rscale>  0 0.43152690E+02</rscale>
<asrwt>0</asrwt>
<pdfrwt beam="1">  1        2 0.21638492E+00 0.47399044E+02</pdfrwt>
<pdfrwt beam="2">  1        2 0.32878595E+00 0.39286755E+02</pdfrwt>
<totfact> 0.21604604E+01</totfact>
</mgrwt>
</event>
<event>
13    1  0.1589573E-008  0.6343054E+02  0.7546771E-02  0.1411282E+00
          4   -1    0    0  503    0  0.00000000000E+00  0.00000000000E+00  0.35659493511E+03  0.35659493511E+03  0.00000000000E+00 0. -1.
         -3   -1    0    0    0  501 -0.00000000000E+00 -0.00000000000E+00 -0.12798871640E+04  0.12798871640E+04  0.00000000000E+00 0.  1.
         24    2    1    2    0    0 -0.23907261929E+02  0.21565728824E+02 -0.50744365837E+03  0.51422085967E+03  0.76729318136E+02 0.  0.
         25    2    1    2    0    0 -0.43017558627E+02 -0.82165009893E+02  0.55443057677E+02  0.16522542529E+03  0.12499563719E+03 0.  0.
         24    2    1    2    0    0  0.36496645850E+02  0.20283552547E+02  0.55158594899E+02  0.98021534661E+02  0.69442947833E+02 0.  0.
        -11    1    3    3    0    0  0.21758843444E+02  0.23949810367E+02 -0.12778533830E+03  0.13181856230E+03  0.00000000000E+00 0.  1.
         12    1    3    3    0    0 -0.45666105374E+02 -0.23840815425E+01 -0.37965832008E+03  0.38240229736E+03  0.00000000000E+00 0. -1.
        -13    1    5    5    0    0  0.23653291338E+02 -0.24468801106E+02  0.18310142142E+02  0.38645332499E+02  0.00000000000E+00 0.  1.
         14    1    5    5    0    0  0.12843354512E+02  0.44752353653E+02  0.36848452757E+02  0.59376202162E+02  0.00000000000E+00 0. -1.
          5    1    4    4  502    0 -0.86209879023E+01 -0.10850292861E+03  0.24187861149E+02  0.11159905724E+03  0.47000000000E+01 0. -1.
         -5    1    4    4    0  502 -0.34396570725E+02  0.26337918719E+02  0.31255196528E+02  0.53626368049E+02  0.47000000000E+01 0. -1.
          3    1    1    2  503    0  0.46388881224E+02 -0.21329049908E+02  0.16085595331E+03  0.16876461236E+03  0.00000000000E+00 0. -1.
         -4    1    1    2    0  501 -0.15960706518E+02  0.61644778430E+02 -0.68730617637E+03  0.69024966710E+03  0.00000000000E+00 0.  1.
<mgrwt>
<rscale>  0 0.56908676E+02</rscale>
<asrwt>0</asrwt>
<pdfrwt beam="1">  1        4 0.52440432E-01 0.51057386E+02</pdfrwt>
<pdfrwt beam="2">  1       -3 0.18821870E+00 0.63430537E+02</pdfrwt>
<totfact> 0.12930045E+00</totfact>
</mgrwt>
</event>
<event>
13    1  0.1589573E-008  0.9746446E+02  0.7546771E-02  0.1378764E+00
          2   -1    0    0  503    0  0.00000000000E+00  0.00000000000E+00  0.30197391999E+04  0.30197391999E+04  0.00000000000E+00 0. -1.
          2   -1    0    0  502    0 -0.00000000000E+00 -0.00000000000E+00 -0.13350784201E+04  0.13350784201E+04  0.00000000000E+00 0. -1.
         24    2    1    2    0    0 -0.91148173709E+02  0.33941953620E+03 -0.30353139429E+03  0.47002974435E+03  0.72684538461E+02 0.  0.
         25    2    1    2    0    0  0.47298730771E+03 -0.36521207069E+03  0.56676153270E+03  0.83303021593E+03  0.12499542345E+03 0.  0.
         24    2    1    2    0    0 -0.30040866309E+03  0.54470120640E+02  0.58035336337E+02  0.32095792634E+03  0.80209296909E+02 0.  0.
        -11    1    3    3    0    0 -0.86050442776E+02  0.18395875352E+03 -0.18052137257E+03  0.27172314523E+03  0.00000000000E+00 0.  1.
         12    1    3    3    0    0 -0.50977309331E+01  0.15546078268E+03 -0.12301002172E+03  0.19830659912E+03  0.00000000000E+00 0. -1.
        -13    1    5    5    0    0 -0.17496659714E+03  0.58476758566E+02  0.64117449524E+02  0.19530460502E+03  0.00000000000E+00 0.  1.
         14    1    5    5    0    0 -0.12544206595E+03 -0.40066379255E+01 -0.60821131870E+01  0.12565332132E+03  0.00000000000E+00 0. -1.
          5    1    4    4  501    0  0.29895610952E+03 -0.19773503379E+03  0.26131294295E+03  0.44359941745E+03  0.47000000000E+01 0. -1.
         -5    1    4    4    0  501  0.17403119819E+03 -0.16747703690E+03  0.30544858974E+03  0.38943079849E+03  0.47000000000E+01 0. -1.
          1    1    1    2  502    0 -0.13219911603E+02  0.40990126537E+02 -0.68186145310E+03  0.68322031422E+03  0.00000000000E+00 0. -1.
          1    1    1    2  503    0 -0.68210559306E+02 -0.69667712686E+02  0.20452567582E+04  0.20475794191E+04  0.00000000000E+00 0. -1.
<mgrwt>
<rscale>  0 0.64789791E+02</rscale>
<asrwt>0</asrwt>
<pdfrwt beam="1">  1        2 0.44407929E+00 0.97464463E+02</pdfrwt>
<pdfrwt beam="2">  1        2 0.19633506E+00 0.43069206E+02</pdfrwt>
<totfact> 0.90835485E+00</totfact>
</mgrwt>
</event>
<event>
13    1  0.1589573E-008  0.5863099E+02  0.7546771E-02  0.1417030E+00
          2   -1    0    0  502    0  0.00000000000E+00  0.00000000000E+00  0.40821877048E+03  0.40821877048E+03  0.00000000000E+00 0. -1.
          2   -1    0    0  503    0 -0.00000000000E+00 -0.00000000000E+00 -0.21895113824E+04  0.21895113824E+04  0.00000000000E+00 0. -1.
         24    2    1    2    0    0  0.17137086951E+03 -0.29504408780E+02 -0.68401833965E+03  0.71027561981E+03  0.79824069481E+02 0.  0.
         25    2    1    2    0    0 -0.14568232108E+03  0.10526529356E+03  0.67330073429E+02  0.22904571796E+03  0.12499792567E+03 0.  0.
         24    2    1    2    0    0 -0.96795805965E+00 -0.39425573666E+02 -0.15008301195E+03  0.17513466441E+03  0.81190685415E+02 0.  0.
        -11    1    5    5    0    0 -0.98851964734E+01  0.81042160564E+01 -0.11420918899E+03  0.11492229669E+03  0.00000000000E+00 0.  1.
         12    1    5    5    0    0  0.89172384138E+01 -0.47529789723E+02 -0.35873822967E+02  0.60212367719E+02  0.00000000000E+00 0. -1.
        -13    1    3    3    0    0  0.61075878178E+02 -0.10028997898E+02 -0.11763207836E+03  0.13292159175E+03  0.00000000000E+00 0.  1.
         14    1    3    3    0    0  0.11029499133E+03 -0.19475410882E+02 -0.56638626129E+03  0.57735402806E+03  0.00000000000E+00 0. -1.
          5    1    4    4  501    0  0.84784372320E+01  0.67051234474E+01 -0.22315247915E+02  0.25236934597E+02  0.47000000000E+01 0. -1.
         -5    1    4    4    0  501 -0.15416075831E+03  0.98560170113E+02  0.89645321344E+02  0.20380878336E+03  0.47000000000E+01 0. -1.
          1    1    1    2  502    0 -0.50131195243E+02  0.16664542841E+02  0.23069749199E+03  0.23666891755E+03  0.00000000000E+00 0. -1.
          1    1    1    2  503    0  0.25410604869E+02 -0.52999853955E+02 -0.12452188257E+04  0.12466052331E+04  0.00000000000E+00 0. -1.
<mgrwt>
<rscale>  0 0.55654141E+02</rscale>
<asrwt>0</asrwt>
<pdfrwt beam="1">  1        2 0.60032171E-01 0.52828437E+02</pdfrwt>
<pdfrwt beam="2">  1        2 0.32198697E+00 0.58630988E+02</pdfrwt>
<totfact> 0.10128370E+02</totfact>
</mgrwt>
</event>
<event>
13    1  0.1589573E-008  0.1277573E+03  0.7546771E-02  0.1410484E+00
          2   -1    0    0  503    0  0.00000000000E+00  0.00000000000E+00  0.52415952839E+03  0.52415952839E+03  0.00000000000E+00 0. -1.
          2   -1    0    0  502    0 -0.00000000000E+00 -0.00000000000E+00 -0.22099966693E+04  0.22099966693E+04  0.00000000000E+00 0. -1.
         24    2    1    2    0    0  0.99818278311E+01 -0.26817862828E+02 -0.15528245008E+03  0.17493186123E+03  0.75297291575E+02 0.  0.
         25    2    1    2    0    0  0.10899862434E+03 -0.11174543970E+03  0.33190205360E+03  0.38749252411E+03  0.12499495854E+03 0.  0.
         24    2    1    2    0    0  0.39332191961E+02 -0.15368468552E+02 -0.25702124933E+03  0.27231535701E+03  0.79451368196E+02 0.  0.
        -11    1    5    5    0    0  0.57618988449E+02  0.78378245994E+01 -0.13944509447E+03  0.15108379694E+03  0.00000000000E+00 0.  1.
         12    1    5    5    0    0 -0.18286796488E+02 -0.23206293151E+02 -0.11757615485E+03  0.12123156007E+03  0.00000000000E+00 0. -1.
        -11    1    3    3    0    0  0.43303051733E+01 -0.43706843750E+02 -0.43772382977E+02  0.62008557836E+02  0.00000000000E+00 0.  1.
         12    1    3    3    0    0  0.56515226578E+01  0.16888980922E+02 -0.11151006710E+03  0.11292330340E+03  0.00000000000E+00 0. -1.
          5    1    4    4  501    0  0.19374586592E+02  0.42920961903E+00 -0.55796319817E+01  0.20707030680E+02  0.47000000000E+01 0. -1.
         -5    1    4    4    0  501  0.89624037751E+02 -0.11217464932E+03  0.33748168558E+03  0.36678549343E+03  0.47000000000E+01 0. -1.
          1    1    1    2  502    0 -0.17809158445E+03  0.13782466581E+03 -0.17440226527E+04  0.17585014257E+04  0.00000000000E+00 0. -1.
          1    1    1    2  503    0  0.19778940312E+02  0.16107105265E+02  0.13858715762E+03  0.14091502964E+03  0.00000000000E+00 0. -1.
<mgrwt>
<rscale>  0 0.57085920E+02</rscale>
<asrwt>0</asrwt>
<pdfrwt beam="1">  1        2 0.77082285E-01 0.25507750E+02</pdfrwt>
<pdfrwt beam="2">  1        2 0.32499951E+00 0.12775734E+03</pdfrwt>
<totfact> 0.70262880E+01</totfact>
</mgrwt>
</event>
<event>
13    1  0.1589573E-008  0.1332259E+03  0.7546771E-02  0.1303113E+00
          2   -1    0    0  503    0  0.00000000000E+00  0.00000000000E+00  0.20072988354E+04  0.20072988354E+04  0.00000000000E+00 0. -1.
          2   -1    0    0  502    0 -0.00000000000E+00 -0.00000000000E+00 -0.17220732954E+04  0.17220732954E+04  0.00000000000E+00 0. -1.
         24    2    1    2    0    0 -0.96141864361E+02 -0.12713770847E+02 -0.13485430709E+03  0.18432290267E+03  0.79902129233E+02 0.  0.
         25    2    1    2    0    0 -0.10430137965E+03 -0.13184773825E+03  0.50395134988E+03  0.54576018755E+03  0.12499846156E+03 0.  0.
         24    2    1    2    0    0 -0.62275958321E+02  0.10181929960E+03  0.14338277010E+02  0.14530973839E+03  0.81632524945E+02 0.  0.
        -11    1    3    3    0    0 -0.58282824432E+02 -0.46625542472E+02 -0.85172258456E+02  0.11324814544E+03  0.00000000000E+00 0.  1.
         12    1    3    3    0    0 -0.37859039929E+02  0.33911771625E+02 -0.49682048629E+02  0.71074757228E+02  0.00000000000E+00 0. -1.
        -13    1    5    5    0    0  0.16681500731E+02  0.14446476970E+02 -0.11292655677E+02  0.24789054756E+02  0.00000000000E+00 0.  1.
         14    1    5    5    0    0 -0.78957459051E+02  0.87372822629E+02  0.25630932688E+02  0.12052068364E+03  0.00000000000E+00 0. -1.
          5    1    4    4  501    0 -0.10643090119E+03 -0.56543517999E+02  0.39656359495E+03  0.41449907237E+03  0.47000000000E+01 0.  1.
         -5    1    4    4    0  501  0.21295215433E+01 -0.75304220252E+02  0.10738775493E+03  0.13126111518E+03  0.47000000000E+01 0.  1.
          1    1    1    2  502    0  0.23070693512E+03 -0.87749984621E+01 -0.14663908969E+04  0.14844544295E+04  0.00000000000E+00 0. -1.
          1    1    1    2  503    0  0.32012267207E+02  0.51517207962E+02  0.13681811171E+04  0.13695248727E+04  0.00000000000E+00 0. -1.
<mgrwt>
<rscale>  0 0.89892026E+02</rscale>
<asrwt>0</asrwt>
<pdfrwt beam="1">  1        2 0.29519101E+00 0.60653178E+02</pdfrwt>
<pdfrwt beam="2">  1        2 0.25324607E+00 0.13322594E+03</pdfrwt>
<totfact> 0.18163432E+01</totfact>
</mgrwt>
</event>
<event>
13    1  0.1589573E-008  0.1122177E+03  0.7546771E-02  0.1339066E+00
          2   -1    0    0  502    0  0.00000000000E+00  0.00000000000E+00  0.24935948204E+04  0.24935948204E+04  0.00000000000E+00 0. -1.
          2   -1    0    0  503    0 -0.00000000000E+00 -0.00000000000E+00 -0.38377204305E+04  0.38377204305E+04  0.00000000000E+00 0. -1.
         24    2    1    2    0    0  0.38273647393E+02  0.88782591360E+02 -0.31632680079E+03  0.34771143434E+03  0.10720716420E+03 0.  0.
         25    2    1    2    0    0 -0.29330277917E+03  0.27135103907E+03  0.14717649285E+03  0.44378309722E+03  0.12499844262E+03 0.  0.
         24    2    1    2    0    0  0.17960002663E+03 -0.35720980199E+03 -0.73152806647E+03  0.83714574423E+03  0.76319544286E+02 0.  0.
        -11    1    3    3    0    0  0.45478459022E+02 -0.63144535948E+01 -0.13868714759E+03  0.14608999783E+03  0.00000000000E+00 0.  1.
         12    1    3    3    0    0 -0.72048116290E+01  0.95097044955E+02 -0.17763965320E+03  0.20162143651E+03  0.00000000000E+00 0. -1.
        -13    1    5    5    0    0  0.91727146312E+02 -0.12887816585E+03 -0.34741968633E+03  0.38173798534E+03  0.00000000000E+00 0.  1.
         14    1    5    5    0    0  0.87872880323E+02 -0.22833163615E+03 -0.38410838014E+03  0.45540775889E+03  0.00000000000E+00 0. -1.
          5    1    4    4  501    0 -0.28254303810E+03  0.20731339397E+03  0.14306363793E+03  0.37854815571E+03  0.47000000000E+01 0. -1.
         -5    1    4    4    0  501 -0.10759741072E+02  0.64037645102E+02  0.41128549257E+01  0.65234941510E+02  0.47000000000E+01 0. -1.
          1    1    1    2  502    0  0.10478465192E+03  0.40301857700E+02  0.21278686458E+04  0.21308282514E+04  0.00000000000E+00 0. -1.
          1    1    1    2  503    0 -0.29355546773E+02 -0.43225686137E+02 -0.25713158815E+04  0.25718467237E+04  0.00000000000E+00 0. -1.
<mgrwt>
<rscale>  0 0.76573686E+02</rscale>
<asrwt>0</asrwt>
<pdfrwt beam="1">  1        2 0.36670512E+00 0.11221767E+03</pdfrwt>
<pdfrwt beam="2">  1        2 0.56437065E+00 0.52251393E+02</pdfrwt>
<totfact> 0.87166667E-01</totfact>
</mgrwt>
</event>
<event>
13    1  0.1589573E-008  0.6985789E+02  0.7546771E-02  0.1448328E+00
          2   -1    0    0  503    0  0.00000000000E+00  0.00000000000E+00  0.28147113601E+04  0.28147113601E+04  0.00000000000E+00 0. -1.
         -1   -1    0    0    0  501 -0.00000000000E+00 -0.00000000000E+00 -0.24647646017E+03  0.24647646017E+03  0.00000000000E+00 0.  1.
         24    2    1    2    0    0  0.67868054716E+02 -0.71129549255E+02 -0.58622638948E+02  0.14196392256E+03  0.83974138185E+02 0.  0.
         25    2    1    2    0    0  0.18118756886E+01  0.16996298394E+02  0.44744584735E+03  0.46488691673E+03  0.12497960626E+03 0.  0.
         24    2    1    2    0    0  0.26005187502E+02  0.94246651381E+02 -0.39195004305E+01  0.12482722312E+03  0.77509819215E+02 0.  0.
        -13    1    3    3    0    0  0.79545820541E+01 -0.68776689486E+02 -0.28628980056E+02  0.74920804129E+02  0.00000000000E+00 0.  1.
         14    1    3    3    0    0  0.59913472662E+02 -0.23528597685E+01 -0.29993658892E+02  0.67043118433E+02  0.00000000000E+00 0. -1.
        -13    1    5    5    0    0  0.76181186181E+01  0.10067118273E+03  0.91479934254E+01  0.10137262227E+03  0.00000000000E+00 0.  1.
         14    1    5    5    0    0  0.18387068884E+02 -0.64245313467E+01 -0.13067493856E+02  0.23454600846E+02  0.00000000000E+00 0. -1.
          5    1    4    4  502    0  0.59363273565E+02  0.29596550755E+02  0.21528198723E+03  0.22531839270E+03  0.47000000000E+01 0. -1.
         -5    1    4    4    0  502 -0.57551397877E+02 -0.12600252360E+02  0.23216386012E+03  0.23956852403E+03  0.47000000000E+01 0. -1.
          1    1    1    2  503    0 -0.33134671916E+02 -0.11288105785E+02  0.22400284490E+04  0.22403019395E+04  0.00000000000E+00 0. -1.
         -2    1    1    2    0  501 -0.62550445990E+02 -0.28825294735E+02 -0.56697257003E+02  0.89207818390E+02  0.00000000000E+00 0.  1.
<mgrwt>
<rscale>  0 0.49450515E+02</rscale>
<asrwt>0</asrwt>
<pdfrwt beam="1">  1        2 0.41392812E+00 0.35004683E+02</pdfrwt>
<pdfrwt beam="2">  1       -1 0.36246540E-01 0.69857894E+02</pdfrwt>
<totfact> 0.35633506E+01</totfact>
</mgrwt>
</event>
<event>
13    1  0.1589573E-008  0.6897106E+02  0.7546771E-02  0.1420747E+00
          2   -1    0    0  502    0  0.00000000000E+00  0.00000000000E+00  0.44696607762E+03  0.44696607762E+03  0.00000000000E+00 0. -1.
          2   -1    0    0  503    0 -0.00000000000E+00 -0.00000000000E+00 -0.18055181747E+04  0.18055181747E+04  0.00000000000E+00 0. -1.
         24    2    1    2    0    0  0.12994365655E+02  0.16505174874E+03 -0.25582684832E+02  0.18560960037E+03  0.79909428012E+02 0.  0.
         25    2    1    2    0    0  0.14320290475E+03 -0.16930783995E+03 -0.12407647078E+03  0.28318130925E+03  0.12499786682E+03 0.  0.
         24    2    1    2    0    0 -0.80074838787E+02 -0.56389417906E+02  0.15716915138E+03  0.20134973902E+03  0.79043209698E+02 0.  0.
        -13    1    5    5    0    0 -0.11699666981E+02  0.54568979806E+01  0.80245626147E+02  0.81277428963E+02  0.00000000000E+00 0.  1.
         14    1    5    5    0    0 -0.68375171807E+02 -0.61846315887E+02  0.76923525235E+02  0.12007231006E+03  0.00000000000E+00 0. -1.
        -13    1    3    3    0    0  0.15177017715E+01 -0.82664228663E+01 -0.69677140652E+01  0.10917243469E+02  0.00000000000E+00 0.  1.
         14    1    3    3    0    0  0.11476663884E+02  0.17331817160E+03 -0.18614970767E+02  0.17469235690E+03  0.00000000000E+00 0. -1.
          5    1    4    4  501    0  0.97493868552E+01 -0.94932727866E+02 -0.18261809221E+02  0.97277217477E+02  0.47000000000E+01 0. -1.
         -5    1    4    4    0  501  0.13345351790E+03 -0.74375112084E+02 -0.10581466156E+03  0.18590409177E+03  0.47000000000E+01 0. -1.
          1    1    1    2  502    0 -0.43640804897E+02 -0.14295670567E+00  0.10289668918E+03  0.11176881914E+03  0.00000000000E+00 0. -1.
          1    1    1    2  503    0 -0.32481626723E+02  0.60788465825E+02 -0.14689587821E+04  0.14705747846E+04  0.00000000000E+00 0. -1.
<mgrwt>
<rscale>  0 0.54863184E+02</rscale>
<asrwt>0</asrwt>
<pdfrwt beam="1">  1        2 0.65730306E-01 0.43641039E+02</pdfrwt>
<pdfrwt beam="2">  1        2 0.26551738E+00 0.68971065E+02</pdfrwt>
<totfact> 0.13760054E+02</totfact>
</mgrwt>
</event>
<event>
13    1  0.1589573E-008  0.1247504E+03  0.7546771E-02  0.1342873E+00
         -1   -1    0    0    0  501 -0.00000000000E+00  0.00000000000E+00  0.64252848199E+03  0.64252848199E+03  0.00000000000E+00 0.  1.
          2   -1    0    0  503    0  0.00000000000E+00 -0.00000000000E+00 -0.25896309851E+04  0.25896309851E+04  0.00000000000E+00 0. -1.
         24    2    1    2    0    0  0.34316990184E+02  0.23987387223E+02  0.13863535182E+03  0.16718874015E+03  0.83541986437E+02 0.  0.
         25    2    1    2    0    0 -0.92340071668E+02  0.18533184607E+03 -0.13520372827E+04  0.13735004275E+04  0.12499611469E+03 0.  0.
         24    2    1    2    0    0  0.12087072827E+03 -0.30498605214E+03 -0.10225809204E+04  0.10772074322E+04  0.84130185506E+02 0.  0.
        -11    1    3    3    0    0  0.59776383101E+02  0.15187748965E+02  0.69116803976E+02  0.92633775088E+02  0.00000000000E+00 0.  1.
         12    1    3    3    0    0 -0.25459392917E+02  0.87996382581E+01  0.69518547840E+02  0.74554965059E+02  0.00000000000E+00 0. -1.
        -13    1    5    5    0    0  0.20372482824E+02 -0.46377932726E+02 -0.27878154597E+03  0.28334625650E+03  0.00000000000E+00 0.  1.
         14    1    5    5    0    0  0.10049824544E+03 -0.25860811942E+03 -0.74379937448E+03  0.79386117567E+03  0.00000000000E+00 0. -1.
          5    1    4    4  502    0 -0.76028716779E+02  0.19753663261E+03 -0.10733986735E+04  0.10940785572E+04  0.47000000000E+01 0.  1.
         -5    1    4    4    0  502 -0.16311354888E+02 -0.12204786530E+02 -0.27863860916E+03  0.27942187034E+03  0.47000000000E+01 0.  1.
          1    1    1    2  503    0  0.90988544518E+01 -0.44560253606E+02 -0.14535831867E+03  0.15230707849E+03  0.00000000000E+00 0. -1.
         -2    1    1    2    0  501 -0.71946501234E+02  0.14022707245E+03  0.43423866690E+03  0.46195578870E+03  0.00000000000E+00 0.  1.
<mgrwt>
<rscale>  0 0.75323382E+02</rscale>
<asrwt>0</asrwt>
<pdfrwt beam="2">  1        2 0.38082808E+00 0.45479725E+02</pdfrwt>
<pdfrwt beam="1">  1       -1 0.94489483E-01 0.12475036E+03</pdfrwt>
<totfact> 0.71632390E+00</totfact>
</mgrwt>
</event>
<event>
13    1  0.1589573E-008  0.1246990E+03  0.7546771E-02  0.1265088E+00
          2   -1    0    0  503    0  0.00000000000E+00  0.00000000000E+00  0.15380342125E+04  0.15380342125E+04  0.00000000000E+00 0. -1.
          2   -1    0    0  502    0 -0.00000000000E+00 -0.00000000000E+00 -0.34023725997E+04  0.34023725997E+04  0.00000000000E+00 0. -1.
         24    2    1    2    0    0 -0.83535643622E+01 -0.18570163656E+02 -0.88880695650E+02  0.12230451006E+03  0.81510625721E+02 0.  0.
         25    2    1    2    0    0  0.32700487984E+03  0.18871679469E+03 -0.15115098271E+03  0.42546198849E+03  0.12500025618E+03 0.  0.
         24    2    1    2    0    0 -0.28048576420E+03 -0.19269788482E+03 -0.74683625056E+02  0.35732085139E+03  0.79346129439E+02 0.  0.
        -11    1    3    3    0    0 -0.31624888930E+02  0.78307670108E+01 -0.79448544800E+02  0.85869236533E+02  0.00000000000E+00 0.  1.
         12    1    3    3    0    0  0.23271324567E+02 -0.26400930667E+02 -0.94321508495E+01  0.36435273525E+02  0.00000000000E+00 0. -1.
        -13    1    5    5    0    0 -0.22574489157E+03 -0.17231678551E+03 -0.88177983368E+02  0.29737045480E+03  0.00000000000E+00 0.  1.
         14    1    5    5    0    0 -0.54740872623E+02 -0.20381099307E+02  0.13494358312E+02  0.59950396585E+02  0.00000000000E+00 0. -1.
          5    1    4    4  501    0  0.20390970032E+03  0.13792065577E+03 -0.15712431126E+03  0.29208117427E+03  0.47000000000E+01 0.  1.
         -5    1    4    4    0  501  0.12309517952E+03  0.50796138924E+02  0.59733285529E+01  0.13338081423E+03  0.47000000000E+01 0.  1.
          1    1    1    2  502    0  0.25924973890E+02 -0.85128528923E+02 -0.27886011298E+04  0.27900206508E+04  0.00000000000E+00 0. -1.
          1    1    1    2  503    0 -0.64090525170E+02  0.10767978271E+03  0.12389780461E+04  0.12452988114E+04  0.00000000000E+00 0. -1.
<mgrwt>
<rscale>  0 0.10759594E+03</rscale>
<asrwt>0</asrwt>
<pdfrwt beam="1">  1        2 0.22618150E+00 0.12469905E+03</pdfrwt>
<pdfrwt beam="2">  1        2 0.50034891E+00 0.92838612E+02</pdfrwt>
<totfact> 0.41212392E+00</totfact>
</mgrwt>
</event>
<event>
13    1  0.1589573E-008  0.2035588E+03  0.7546771E-02  0.1275309E+00
          2   -1    0    0  502    0  0.00000000000E+00  0.00000000000E+00  0.74950840312E+03  0.74950840312E+03  0.00000000000E+00 0. -1.
          2   -1    0    0  503    0 -0.00000000000E+00 -0.00000000000E+00 -0.19983369573E+04  0.19983369573E+04  0.00000000000E+00 0. -1.
         24    2    1    2    0    0  0.44024214819E+01 -0.26529898029E+02  0.13014082855E+03  0.15493354160E+03  0.79652685162E+02 0.  0.
         25    2    1    2    0    0  0.38990833936E+03 -0.10952752854E+02 -0.29279416908E+03  0.50348711227E+03  0.12498948309E+03 0.  0.
         24    2    1    2    0    0 -0.59136201363E+02 -0.49535545401E+02 -0.40068623906E+03  0.41596190854E+03  0.80771199170E+02 0.  0.
        -11    1    3    3    0    0  0.23260510168E+02  0.21928165283E+02  0.45831551329E+02  0.55878679862E+02  0.00000000000E+00 0.  1.
         12    1    3    3    0    0 -0.18858088686E+02 -0.48458063312E+02  0.84309277222E+02  0.99054861741E+02  0.00000000000E+00 0. -1.
        -11    1    5    5    0    0  0.74842818919E+01  0.15364258910E+02 -0.91791857028E+02  0.93369266592E+02  0.00000000000E+00 0.  1.
         12    1    5    5    0    0 -0.66620483254E+02 -0.64899804312E+02 -0.30889438203E+03  0.32259264195E+03  0.00000000000E+00 0. -1.
          5    1    4    4  501    0  0.35473186652E+03 -0.47061537825E+02 -0.24373232502E+03  0.43298616805E+03  0.47000000000E+01 0. -1.
         -5    1    4    4    0  501  0.35176472841E+02  0.36108784971E+02 -0.49061844056E+02  0.70500944220E+02  0.47000000000E+01 0. -1.
          1    1    1    2  502    0 -0.71634909188E+01  0.51021235392E+02  0.46947044141E+03  0.47228908247E+03  0.00000000000E+00 0. -1.
          1    1    1    2  503    0 -0.32801106856E+03  0.35996960892E+02 -0.11549594160E+04  0.12011737156E+04  0.00000000000E+00 0. -1.
<mgrwt>
<rscale>  0 0.10240942E+03</rscale>
<asrwt>0</asrwt>
<pdfrwt beam="1">  1        2 0.11022183E+00 0.51521666E+02</pdfrwt>
<pdfrwt beam="2">  1        2 0.29387308E+00 0.20355880E+03</pdfrwt>
<totfact> 0.57197719E+01</totfact>
</mgrwt>
</event>
<event>
13    1  0.1589573E-008  0.4344472E+02  0.7546771E-02  0.1498141E+00
          4   -1    0    0  503    0 -0.00000000000E+00  0.00000000000E+00  0.72051561039E+03  0.72051561039E+03  0.00000000000E+00 0. -1.
          2   -1    0    0  502    0  0.00000000000E+00 -0.00000000000E+00 -0.35240686957E+03  0.35240686957E+03  0.00000000000E+00 0. -1.
         24    2    1    2    0    0 -0.19389387267E+02 -0.12010815044E+02  0.12341103514E+03  0.15079400108E+03  0.83596286707E+02 0.  0.
         25    2    1    2    0    0 -0.92267323475E+02 -0.20513378724E+02 -0.66708688514E+01  0.15685712988E+03  0.12500240404E+03 0.  0.
         24    2    1    2    0    0  0.10118907219E+03  0.35618973554E+02  0.11831921601E+03  0.18047378410E+03  0.84044097135E+02 0.  0.
        -11    1    5    5    0    0  0.51079959736E+02 -0.25595109410E+02  0.47608495039E+02  0.74369622240E+02  0.00000000000E+00 0.  1.
         12    1    5    5    0    0  0.50109112450E+02  0.61214082964E+02  0.70710720976E+02  0.10610416186E+03  0.00000000000E+00 0. -1.
        -13    1    3    3    0    0  0.29017885179E+02 -0.16147615150E+02  0.26870112926E+02  0.42717515189E+02  0.00000000000E+00 0.  1.
         14    1    3    3    0    0 -0.48407272446E+02  0.41368001051E+01  0.96540922218E+02  0.10807648590E+03  0.00000000000E+00 0. -1.
          5    1    4    4  501    0 -0.29311597504E+02  0.27701377383E+02  0.46144609795E+02  0.61465039415E+02  0.47000000000E+01 0. -1.
         -5    1    4    4    0  501 -0.62955725971E+02 -0.48214756107E+02 -0.52815478647E+02  0.95392090467E+02  0.47000000000E+01 0. -1.
          1    1    1    2  502    0 -0.12224525399E+00  0.39455010625E+02 -0.22279512654E+03  0.22626175377E+03  0.00000000000E+00 0. -1.
          3    1    1    2  503    0  0.10589883810E+02 -0.42549790411E+02  0.35584448506E+03  0.35853581112E+03  0.00000000000E+00 0. -1.
<mgrwt>
<rscale>  0 0.41401932E+02</rscale>
<asrwt>0</asrwt>
<pdfrwt beam="2">  1        2 0.51824540E-01 0.39455200E+02</pdfrwt>
<pdfrwt beam="1">  1        4 0.10595818E+00 0.43444717E+02</pdfrwt>
<totfact> 0.35087731E+01</totfact>
</mgrwt>
</event>
<event>
13    1  0.1589573E-008  0.1316162E+03  0.7546771E-02  0.1393022E+00
          2   -1    0    0  503    0  0.00000000000E+00  0.00000000000E+00  0.79245144201E+03  0.79245144201E+03  0.00000000000E+00 0. -1.
          2   -1    0    0  502    0 -0.00000000000E+00 -0.00000000000E+00 -0.24396293364E+04  0.24396293364E+04  0.00000000000E+00 0. -1.
         24    2    1    2    0    0 -0.33839820347E+02  0.49560891070E+02 -0.16316838289E+04  0.16347916579E+04  0.80933503027E+02 0.  0.
         25    2    1    2    0    0 -0.11984418117E+03  0.10637413018E+03  0.71624238018E+02  0.21548356307E+03  0.12500020459E+03 0.  0.
         24    2    1    2    0    0  0.32591370344E+02  0.98724651587E+01 -0.26766917977E+02  0.93740110889E+02  0.83132890616E+02 0.  0.
        -11    1    5    5    0    0  0.56770417255E+02  0.24180502734E+02 -0.17150827069E+02  0.64044733249E+02  0.00000000000E+00 0.  1.
         12    1    5    5    0    0 -0.24179046911E+02 -0.14308037576E+02 -0.96160909083E+01  0.29695377640E+02  0.00000000000E+00 0. -1.
        -13    1    3    3    0    0 -0.66432883548E+01  0.61989407586E+02 -0.13676095580E+04  0.13690298474E+04  0.00000000000E+00 0.  1.
         14    1    3    3    0    0 -0.27196531992E+02 -0.12428516516E+02 -0.26407427092E+03  0.26576181053E+03  0.00000000000E+00 0. -1.
          5    1    4    4  501    0 -0.13112569609E+03  0.10767164318E+03  0.30358306580E+02  0.17242635442E+03  0.47000000000E+01 0.  1.
         -5    1    4    4    0  501  0.11281514923E+02 -0.12975129962E+01  0.41265931438E+02  0.43057208646E+02  0.47000000000E+01 0.  1.
          1    1    1    2  502    0 -0.23469166624E+02 -0.16030075191E+02 -0.65624480935E+03  0.65685996596E+03  0.00000000000E+00 0. -1.
          1    1    1    2  503    0  0.14456179780E+03 -0.14977741122E+03  0.59589342376E+03  0.63120548063E+03  0.00000000000E+00 0. -1.
<mgrwt>
<rscale>  0 0.61161190E+02</rscale>
<asrwt>0</asrwt>
<pdfrwt beam="1">  1        2 0.11653698E+00 0.13161619E+03</pdfrwt>
<pdfrwt beam="2">  1        2 0.35876902E+00 0.28421209E+02</pdfrwt>
<totfact> 0.40419813E+01</totfact>
</mgrwt>
</event>
<event>
13    1  0.1589573E-008  0.2465541E+03  0.7546771E-02  0.1144299E+00
          2   -1    0    0  502    0  0.00000000000E+00  0.00000000000E+00  0.13442758467E+04  0.13442758467E+04  0.00000000000E+00 0. -1.
          2   -1    0    0  503    0 -0.00000000000E+00 -0.00000000000E+00 -0.17652875784E+04  0.17652875784E+04  0.00000000000E+00 0. -1.
         24    2    1    2    0    0  0.14519255094E+03 -0.32624876352E+02 -0.73477993829E+01  0.16914223979E+03  0.80061524591E+02 0.  0.
         25    2    1    2    0    0 -0.44478618566E+03 -0.21412216749E+03  0.77981726647E+03  0.93135524743E+03  0.12499829707E+03 0.  0.
         24    2    1    2    0    0  0.10156709220E+03  0.14544465437E+03 -0.14130202830E+03  0.24058153441E+03  0.80269482345E+02 0.  0.
        -13    1    3    3    0    0  0.10351658061E+03 -0.97967670030E+01 -0.40085242810E+02  0.11143826002E+03  0.00000000000E+00 0.  1.
         14    1    3    3    0    0  0.41675970335E+02 -0.22828109349E+02  0.32737443427E+02  0.57703979775E+02  0.00000000000E+00 0. -1.
        -13    1    5    5    0    0  0.11500115172E+03  0.12627314675E+03 -0.12967706137E+03  0.21444419492E+03  0.00000000000E+00 0.  1.
         14    1    5    5    0    0 -0.13434059524E+02  0.19171507622E+02 -0.11624966921E+02  0.26137339492E+02  0.00000000000E+00 0. -1.
          5    1    4    4  501    0 -0.20998138901E+03 -0.57412552608E+02  0.25417577288E+03  0.33468761323E+03  0.47000000000E+01 0. -1.
         -5    1    4    4    0  501 -0.23480479665E+03 -0.15670961488E+03  0.52564149359E+03  0.59666763420E+03  0.47000000000E+01 0. -1.
          1    1    1    2  502    0  0.90210391696E+01  0.17936653083E+03  0.32761927287E+03  0.37361493478E+03  0.00000000000E+00 0. -1.
          1    1    1    2  503    0  0.18900550335E+03 -0.78064141366E+02 -0.13797984433E+04  0.13948694687E+04  0.00000000000E+00 0. -1.
<mgrwt>
<rscale>  0 0.20658507E+03</rscale>
<asrwt>0</asrwt>
<pdfrwt beam="1">  1        2 0.19768763E+00 0.17309548E+03</pdfrwt>
<pdfrwt beam="2">  1        2 0.25960111E+00 0.24655405E+03</pdfrwt>
<totfact> 0.31625107E+01</totfact>
</mgrwt>
</event>
<event>
13    1  0.1589573E-008  0.1189456E+03  0.7546771E-02  0.1415476E+00
          2   -1    0    0  503    0  0.00000000000E+00  0.00000000000E+00  0.15089097811E+04  0.15089097811E+04  0.00000000000E+00 0. -1.
          2   -1    0    0  502    0 -0.00000000000E+00 -0.00000000000E+00 -0.16320211161E+04  0.16320211161E+04  0.00000000000E+00 0. -1.
         24    2    1    2    0    0 -0.29408488870E+02 -0.49822619132E+00 -0.54226223442E+02  0.10111613378E+03  0.80117924058E+02 0.  0.
         25    2    1    2    0    0  0.11991455140E+03 -0.10467976741E+03  0.14968987223E+03  0.25173587129E+03  0.12500615066E+03 0.  0.
         24    2    1    2    0    0 -0.40662252942E+02 -0.25313720842E+02  0.12289332072E+03  0.15506826491E+03  0.81542597616E+02 0.  0.
        -11    1    3    3    0    0 -0.30946747041E+02 -0.36908604469E+02 -0.24235340420E+02  0.53919365367E+02  0.00000000000E+00 0.  1.
         12    1    3    3    0    0  0.15382581709E+01  0.36410378277E+02 -0.29990883022E+02  0.47196768416E+02  0.00000000000E+00 0. -1.
        -13    1    5    5    0    0 -0.28182800635E+02 -0.47795292701E+02  0.40331607601E+02  0.68595180791E+02  0.00000000000E+00 0.  1.
         14    1    5    5    0    0 -0.12479452306E+02  0.22481571859E+02  0.82561713121E+02  0.86473084116E+02  0.00000000000E+00 0. -1.
          5    1    4    4  501    0  0.39919531725E+02  0.26872523626E+02  0.36718090803E+02  0.60712517090E+02  0.47000000000E+01 0. -1.
         -5    1    4    4    0  501  0.79995019672E+02 -0.13155229104E+03  0.11297178143E+03  0.19102335420E+03  0.47000000000E+01 0. -1.
          1    1    1    2  502    0  0.34857028172E+01  0.26123775249E+02 -0.14841249022E+04  0.14843588943E+04  0.00000000000E+00 0. -1.
          1    1    1    2  503    0 -0.53329512403E+02  0.10436793919E+03  0.11426565976E+04  0.11486517330E+04  0.00000000000E+00 0. -1.
<mgrwt>
<rscale>  0 0.55989694E+02</rscale>
<asrwt>0</asrwt>
<pdfrwt beam="1">  1        2 0.22189850E+00 0.11894556E+03</pdfrwt>
<pdfrwt beam="2">  1        2 0.24000310E+00 0.26355298E+02</pdfrwt>
<totfact> 0.37937221E+01</totfact>
</mgrwt>
</event>
<event>
13    1  0.1589573E-008  0.5549685E+02  0.7546771E-02  0.1436065E+00
          2   -1    0    0  503    0  0.00000000000E+00  0.00000000000E+00  0.14979994355E+04  0.14979994355E+04  0.00000000000E+00 0. -1.
          2   -1    0    0  502    0 -0.00000000000E+00 -0.00000000000E+00 -0.22996685559E+04  0.22996685559E+04  0.00000000000E+00 0. -1.
         24    2    1    2    0    0 -0.58988066129E+01 -0.33983924227E+02  0.24592876113E+02  0.81713719217E+02  0.69875742052E+02 0.  0.
         25    2    1    2    0    0 -0.29563014289E+02  0.12046515409E+03  0.44578666948E+03  0.47930762404E+03  0.12499687441E+03 0.  0.
         24    2    1    2    0    0  0.13871487451E+02 -0.14530639316E+02 -0.13455416458E+02  0.82330558347E+02  0.78700158593E+02 0.  0.
        -11    1    3    3    0    0  0.16617127197E+02 -0.47388408041E+02  0.84136654323E+01  0.50917383073E+02  0.00000000000E+00 0.  1.
         12    1    3    3    0    0 -0.22515933810E+02  0.13404483814E+02  0.16179210681E+02  0.30796336144E+02  0.00000000000E+00 0. -1.
        -11    1    5    5    0    0  0.43434011359E+02 -0.18214834556E+02 -0.21046692654E+02  0.51587370667E+02  0.00000000000E+00 0.  1.
         12    1    5    5    0    0 -0.29562523909E+02  0.36841952404E+01  0.75912761967E+01  0.30743187680E+02  0.00000000000E+00 0. -1.
          5    1    4    4  501    0 -0.21473708061E+02 -0.18322222165E+01  0.61756490997E+01  0.22906457996E+02  0.47000000000E+01 0.  1.
         -5    1    4    4    0  501 -0.80893062282E+01  0.12229737631E+03  0.43961102038E+03  0.45640116604E+03  0.47000000000E+01 0.  1.
          1    1    1    2  502    0 -0.24750307679E+02 -0.41450670707E+02 -0.22053785162E+04  0.22059068737E+04  0.00000000000E+00 0. -1.
          1    1    1    2  503    0  0.46340641130E+02 -0.30499919842E+02  0.94678526665E+03  0.94840921615E+03  0.00000000000E+00 0. -1.
<mgrwt>
<rscale>  0 0.51761566E+02</rscale>
<asrwt>0</asrwt>
<pdfrwt beam="1">  1        2 0.22029403E+00 0.55496845E+02</pdfrwt>
<pdfrwt beam="2">  1        2 0.33818655E+00 0.48277695E+02</pdfrwt>
<totfact> 0.18820236E+01</totfact>
</mgrwt>
</event>
<event>
13    1  0.1589573E-008  0.1119657E+03  0.7546771E-02  0.1273049E+00
          2   -1    0    0  502    0  0.00000000000E+00  0.00000000000E+00  0.17970377539E+04  0.17970377539E+04  0.00000000000E+00 0. -1.
          2   -1    0    0  503    0 -0.00000000000E+00 -0.00000000000E+00 -0.20697675934E+04  0.20697675934E+04  0.00000000000E+00 0. -1.
         24    2    1    2    0    0  0.44222909425E+02 -0.34621314260E+02 -0.16725320288E+04  0.16754130916E+04  0.80568845754E+02 0.  0.
         25    2    1    2    0    0 -0.18458571155E+02  0.79962026118E+02  0.70950010979E+02  0.16551104313E+03  0.12500142747E+03 0.  0.
         24    2    1    2    0    0 -0.37365665258E+02  0.11215533812E+02  0.74139740196E+03  0.74676872181E+03  0.80445230371E+02 0.  0.
        -13    1    3    3    0    0  0.11481586671E+02  0.25770342221E+01 -0.31391031611E+02  0.33524092881E+02  0.00000000000E+00 0.  1.
         14    1    3    3    0    0  0.32741322754E+02 -0.37198348482E+02 -0.16411409972E+04  0.16418889987E+04  0.00000000000E+00 0. -1.
        -13    1    5    5    0    0 -0.46843921750E+02 -0.17445380875E+02  0.60545191494E+03  0.60751190574E+03  0.00000000000E+00 0.  1.
         14    1    5    5    0    0  0.94782564924E+01  0.28660914687E+02  0.13594548703E+03  0.13925681606E+03  0.00000000000E+00 0. -1.
          5    1    4    4  501    0  0.63315518588E+01 -0.30337798022E+02  0.34551860141E+02  0.46651812151E+02  0.47000000000E+01 0. -1.
         -5    1    4    4    0  501 -0.24790123014E+02  0.11029982414E+03  0.36398150838E+02  0.11885923098E+03  0.47000000000E+01 0. -1.
          1    1    1    2  502    0 -0.71924656678E+02 -0.10367035961E+03  0.92225629731E+03  0.93084766617E+03  0.00000000000E+00 0. -1.
          1    1    1    2  503    0  0.83525983666E+02  0.47114113940E+02 -0.33480152089E+03  0.34826482462E+03  0.00000000000E+00 0. -1.
<mgrwt>
<rscale>  0 0.10352726E+03</rscale>
<asrwt>0</asrwt>
<pdfrwt beam="1">  1        2 0.26427026E+00 0.11196567E+03</pdfrwt>
<pdfrwt beam="2">  1        2 0.30437759E+00 0.95724827E+02</pdfrwt>
<totfact> 0.15066904E+01</totfact>
</mgrwt>
</event>
<event>
13    1  0.1589573E-008  0.8736519E+02  0.7546771E-02  0.1390232E+00
         -1   -1    0    0    0  501 -0.00000000000E+00  0.00000000000E+00  0.43083974961E+03  0.43083974961E+03  0.00000000000E+00 0.  1.
          4   -1    0    0  503    0  0.00000000000E+00 -0.00000000000E+00 -0.33452394231E+04  0.33452394231E+04  0.00000000000E+00 0. -1.
         24    2    1    2    0    0 -0.19426818559E+03  0.15297284796E+03  0.35556938537E+02  0.25948274728E+03  0.70186751681E+02 0.  0.
         25    2    1    2    0    0  0.14209363717E+03 -0.95607777536E+02 -0.13811203240E+04  0.13973010503E+04  0.12500170783E+03 0.  0.
         24    2    1    2    0    0  0.90278114438E+02 -0.12030500560E+03 -0.13970598583E+03  0.22038960979E+03  0.80189683304E+02 0.  0.
        -11    1    3    3    0    0 -0.75560540275E+02  0.77957040362E+02  0.47600624148E+02  0.11854330351E+03  0.00000000000E+00 0.  1.
         12    1    3    3    0    0 -0.11870764531E+03  0.75015807603E+02 -0.12043685611E+02  0.14093944376E+03  0.00000000000E+00 0. -1.
        -13    1    5    5    0    0  0.95662379608E+02 -0.67870057772E+02 -0.88859460161E+02  0.14715175593E+03  0.00000000000E+00 0.  1.
         14    1    5    5    0    0 -0.53842651698E+01 -0.52434947826E+02 -0.50846525672E+02  0.73237853859E+02  0.00000000000E+00 0. -1.
          5    1    4    4  502    0 -0.22213958182E+02 -0.41804248240E+01 -0.11601763151E+03  0.11829250488E+03  0.47000000000E+01 0. -1.
         -5    1    4    4    0  502  0.16430759536E+03 -0.91427352712E+02 -0.12651026925E+04  0.12790085454E+04  0.47000000000E+01 0. -1.
          3    1    1    2  503    0 -0.76660374004E+02  0.42191375817E+02 -0.16608157177E+04  0.16631192901E+04  0.00000000000E+00 0. -1.
         -2    1    1    2    0  501  0.38556807979E+02  0.20748559353E+02  0.23168541547E+03  0.23578647522E+03  0.00000000000E+00 0.  1.
<mgrwt>
<rscale>  0 0.61848920E+02</rscale>
<asrwt>0</asrwt>
<pdfrwt beam="2">  1        4 0.49194697E+00 0.87365194E+02</pdfrwt>
<pdfrwt beam="1">  1       -1 0.63358787E-01 0.43785045E+02</pdfrwt>
<totfact> 0.23418468E-02</totfact>
</mgrwt>
</event>
<event>
13    1  0.1589573E-008  0.4281233E+02  0.7546771E-02  0.1494008E+00
          2   -1    0    0  502    0  0.00000000000E+00  0.00000000000E+00  0.18508029172E+04  0.18508029172E+04  0.00000000000E+00 0. -1.
          2   -1    0    0  503    0 -0.00000000000E+00 -0.00000000000E+00 -0.34696584127E+04  0.34696584127E+04  0.00000000000E+00 0. -1.
         24    2    1    2    0    0 -0.31542906778E+02 -0.73733128473E+02 -0.20077200875E+04  0.20111593568E+04  0.85967899085E+02 0.  0.
         25    2    1    2    0    0  0.64434980727E+02  0.22173051399E+03  0.45222857953E+03  0.52292387705E+03  0.12498962145E+03 0.  0.
         24    2    1    2    0    0 -0.10564700423E+03 -0.11971388000E+03 -0.70339436847E+03  0.72587993324E+03  0.81518938415E+02 0.  0.
        -11    1    3    3    0    0 -0.58472945590E+02 -0.28839227413E+02 -0.11307269528E+04  0.11326050627E+04  0.00000000000E+00 0.  1.
         12    1    3    3    0    0  0.26930038813E+02 -0.44893901060E+02 -0.87699313470E+03  0.87855429408E+03  0.00000000000E+00 0. -1.
        -11    1    5    5    0    0 -0.69036343444E+02 -0.63851868906E+02 -0.24117420988E+03  0.25885918449E+03  0.00000000000E+00 0.  1.
         12    1    5    5    0    0 -0.36610660787E+02 -0.55862011098E+02 -0.46222015858E+03  0.46702074876E+03  0.00000000000E+00 0. -1.
          5    1    4    4  501    0 -0.26201086662E+02  0.38622254723E+02  0.15703236779E+03  0.16388846828E+03  0.47000000000E+01 0.  1.
         -5    1    4    4    0  501  0.90636067389E+02  0.18310825926E+03  0.29519621174E+03  0.35903540877E+03  0.47000000000E+01 0.  1.
          1    1    1    2  502    0  0.29981188857E+02 -0.28255332602E+02  0.13493055842E+04  0.13499343670E+04  0.00000000000E+00 0. -1.
          1    1    1    2  503    0  0.42773741424E+02 -0.28172908563E-01 -0.70927520341E+03  0.71056379581E+03  0.00000000000E+00 0. -1.
<mgrwt>
<rscale>  0 0.41997165E+02</rscale>
<asrwt>0</asrwt>
<pdfrwt beam="1">  1        2 0.27217690E+00 0.41197518E+02</pdfrwt>
<pdfrwt beam="2">  1        2 0.51024388E+00 0.42812332E+02</pdfrwt>
<totfact> 0.34234777E+00</totfact>
</mgrwt>
</event>
<event>
13    1  0.1589573E-008  0.7568798E+02  0.7546771E-02  0.1442579E+00
          2   -1    0    0  502    0  0.00000000000E+00  0.00000000000E+00  0.38842925395E+04  0.38842925395E+04  0.00000000000E+00 0. -1.
          2   -1    0    0  503    0 -0.00000000000E+00 -0.00000000000E+00 -0.99323027468E+03  0.99323027468E+03  0.00000000000E+00 0. -1.
         24    2    1    2    0    0 -0.41984813361E+03  0.14234326009E+03  0.15068396698E+04  0.15722081414E+04  0.68837420467E+02 0.  0.
         25    2    1    2    0    0  0.49236975817E+03 -0.12778464363E+03  0.13153043770E+03  0.54007607498E+03  0.12500006729E+03 0.  0.
         24    2    1    2    0    0 -0.56428110627E+01  0.42529072067E+02  0.51120890621E+02  0.10015470749E+03  0.74679693943E+02 0.  0.
        -13    1    5    5    0    0 -0.19064917808E+02  0.46871976779E+02  0.37633937064E+01  0.50740678261E+02  0.00000000000E+00 0.  1.
         14    1    5    5    0    0  0.13422106745E+02 -0.43429047119E+01  0.47357496915E+02  0.49414029231E+02  0.00000000000E+00 0. -1.
        -13    1    3    3    0    0 -0.11241355228E+03  0.36226990415E+02  0.51649324293E+03  0.52982494426E+03  0.00000000000E+00 0.  1.
         14    1    3    3    0    0 -0.30743458134E+03  0.10611626968E+03  0.99034642683E+03  0.10423831971E+04  0.00000000000E+00 0. -1.
          5    1    4    4  501    0  0.35953214583E+03 -0.14787441953E+03  0.10897064919E+03  0.40376589780E+03  0.47000000000E+01 0. -1.
         -5    1    4    4    0  501  0.13283761234E+03  0.20089775906E+02  0.22559788512E+02  0.13631017719E+03  0.47000000000E+01 0. -1.
          1    1    1    2  502    0 -0.32149397442E+02  0.10155653868E+02  0.19312231787E+04  0.19315174570E+04  0.00000000000E+00 0. -1.
          1    1    1    2  503    0 -0.34729416051E+02 -0.67243342398E+02 -0.72965191193E+03  0.73356643327E+03  0.00000000000E+00 0. -1.
<mgrwt>
<rscale>  0 0.50515764E+02</rscale>
<asrwt>0</asrwt>
<pdfrwt beam="1">  1        2 0.57121949E+00 0.33715294E+02</pdfrwt>
<pdfrwt beam="2">  1        2 0.14606328E+00 0.75687976E+02</pdfrwt>
<totfact> 0.52117898E+00</totfact>
</mgrwt>
</event>
<event>
13    1  0.1589573E-008  0.8069102E+02  0.7546771E-02  0.1327887E+00
          2   -1    0    0  503    0  0.00000000000E+00  0.00000000000E+00  0.10209803634E+04  0.10209803634E+04  0.00000000000E+00 0. -1.
          2   -1    0    0  502    0 -0.00000000000E+00 -0.00000000000E+00 -0.13048483323E+04  0.13048483323E+04  0.00000000000E+00 0. -1.
         24    2    1    2    0    0 -0.56892516576E+02  0.35875777945E+02 -0.41099352596E+03  0.42418728062E+03  0.80593677001E+02 0.  0.
         25    2    1    2    0    0  0.96529403006E+02 -0.94301266984E+02 -0.98835304603E+02  0.20881474637E+03  0.12499810506E+03 0.  0.
         24    2    1    2    0    0 -0.90573124260E+01  0.33954039275E+02 -0.26054924768E+02  0.72486150177E+02  0.57796809353E+02 0.  0.
        -11    1    3    3    0    0  0.48524587647E+00  0.44448748473E+02 -0.13389668859E+03  0.14108242243E+03  0.00000000000E+00 0.  1.
         12    1    3    3    0    0 -0.57377762452E+02 -0.85729705283E+01 -0.27709683737E+03  0.28310485818E+03  0.00000000000E+00 0. -1.
        -13    1    5    5    0    0 -0.21998259625E+02  0.18417897698E+02 -0.39045458778E+02  0.48452969293E+02  0.00000000000E+00 0.  1.
         14    1    5    5    0    0  0.12940947199E+02  0.15536141577E+02  0.12990534010E+02  0.24033180884E+02  0.00000000000E+00 0. -1.
          5    1    4    4  501    0 -0.14097786352E+02 -0.52395283362E+02  0.20053370894E+00  0.54462312771E+02  0.47000000000E+01 0.  1.
         -5    1    4    4    0  501  0.11062718936E+03 -0.41905983622E+02 -0.99035838312E+02  0.15435243360E+03  0.47000000000E+01 0.  1.
          1    1    1    2  502    0 -0.10353163687E+03 -0.86667509415E+01 -0.67848648027E+03  0.68639479624E+03  0.00000000000E+00 0. -1.
          1    1    1    2  503    0  0.72952062867E+02  0.33138200705E+02  0.93050226670E+03  0.93394572228E+03  0.00000000000E+00 0. -1.
<mgrwt>
<rscale>  0 0.80411911E+02</rscale>
<asrwt>0</asrwt>
<pdfrwt beam="1">  1        2 0.15014417E+00 0.80133762E+02</pdfrwt>
<pdfrwt beam="2">  1        2 0.19188946E+00 0.80691025E+02</pdfrwt>
<totfact> 0.91647569E+01</totfact>
</mgrwt>
</event>
<event>
13    1  0.1589573E-008  0.2358982E+03  0.7546771E-02  0.1179359E+00
          2   -1    0    0  503    0  0.00000000000E+00  0.00000000000E+00  0.28380460787E+04  0.28380460787E+04  0.00000000000E+00 0. -1.
         -1   -1    0    0    0  501 -0.00000000000E+00 -0.00000000000E+00 -0.10437155889E+04  0.10437155889E+04  0.00000000000E+00 0.  1.
         24    2    1    2    0    0 -0.44723992745E+03 -0.23356149864E+03 -0.38846997925E+03  0.64199989345E+03  0.81733787780E+02 0.  0.
         25    2    1    2    0    0  0.27483791564E+03 -0.80609983425E+02  0.72586412416E+03  0.79027704171E+03  0.12500090644E+03 0.  0.
         24    2    1    2    0    0 -0.59022417830E+02  0.42242917858E+02  0.66500309014E+02  0.12810029337E+03  0.81971239751E+02 0.  0.
        -11    1    3    3    0    0 -0.31562617820E+03 -0.12154524403E+03 -0.26250342747E+03  0.42813687081E+03  0.00000000000E+00 0.  1.
         12    1    3    3    0    0 -0.13161374925E+03 -0.11201625461E+03 -0.12596655178E+03  0.21386302264E+03  0.00000000000E+00 0. -1.
        -13    1    5    5    0    0 -0.39826751280E+02  0.13675375707E+01 -0.83189389678E+01  0.40709274398E+02  0.00000000000E+00 0.  1.
         14    1    5    5    0    0 -0.19195666550E+02  0.40875380288E+02  0.74819247982E+02  0.87391018969E+02  0.00000000000E+00 0. -1.
          5    1    4    4  502    0  0.10694157547E+03 -0.69000829215E+02  0.44451964469E+03  0.46240395707E+03  0.47000000000E+01 0.  1.
         -5    1    4    4    0  502  0.16789634018E+03 -0.11609154210E+02  0.28134447947E+03  0.32787308464E+03  0.47000000000E+01 0.  1.
          1    1    1    2  503    0  0.76490745781E+02  0.99023455154E+02  0.18246844820E+04  0.18289696383E+04  0.00000000000E+00 0. -1.
         -2    1    1    2    0  501  0.15493368385E+03  0.17290510905E+03 -0.43424844609E+03  0.49241480081E+03  0.00000000000E+00 0.  1.
<mgrwt>
<rscale>  0 0.16855931E+03</rscale>
<asrwt>0</asrwt>
<pdfrwt beam="1">  1        2 0.41735972E+00 0.12044280E+03</pdfrwt>
<pdfrwt beam="2">  1       -1 0.15348759E+00 0.23589821E+03</pdfrwt>
<totfact> 0.14226978E+00</totfact>
</mgrwt>
</event>
<event>
13    1  0.1589573E-008  0.1823766E+03  0.7546771E-02  0.1318936E+00
          2   -1    0    0  503    0  0.00000000000E+00  0.00000000000E+00  0.12746773648E+04  0.12746773648E+04  0.00000000000E+00 0. -1.
          2   -1    0    0  502    0 -0.00000000000E+00 -0.00000000000E+00 -0.11951973132E+04  0.11951973132E+04  0.00000000000E+00 0. -1.
         24    2    1    2    0    0  0.80085588429E+01 -0.67430079704E+02 -0.35315956536E+03  0.36787271224E+03  0.77444826468E+02 0.  0.
         25    2    1    2    0    0 -0.21816438756E+03 -0.11368959063E+03  0.77184854236E+02  0.28653647775E+03  0.12499851335E+03 0.  0.
         24    2    1    2    0    0 -0.79164103532E+02  0.79344662230E+02  0.33836090870E+03  0.36567550680E+03  0.81657461561E+02 0.  0.
        -13    1    5    5    0    0 -0.87517292835E+01  0.62147008798E+02  0.19793695604E+03  0.20764845782E+03  0.00000000000E+00 0.  1.
         14    1    5    5    0    0 -0.70412374248E+02  0.17197653432E+02  0.14042395266E+03  0.15802704899E+03  0.00000000000E+00 0. -1.
        -13    1    3    3    0    0 -0.73640614250E+01  0.12125293752E+02 -0.17276973304E+02  0.22354998452E+02  0.00000000000E+00 0.  1.
         14    1    3    3    0    0  0.15372620268E+02 -0.79555373456E+02 -0.33588259205E+03  0.34551771379E+03  0.00000000000E+00 0. -1.
          5    1    4    4  501    0 -0.86512579858E+02 -0.61109382634E+02 -0.28342190721E+02  0.10974585593E+03  0.47000000000E+01 0.  1.
         -5    1    4    4    0  501 -0.13165180771E+03 -0.52580207995E+02  0.10552704496E+03  0.17679062182E+03  0.47000000000E+01 0.  1.
          1    1    1    2  502    0  0.37956155520E+02 -0.57535320155E+01 -0.69031834215E+03  0.69138497697E+03  0.00000000000E+00 0. -1.
          1    1    1    2  503    0  0.25136377673E+03  0.10752854012E+03  0.70741219618E+03  0.75840500426E+03  0.00000000000E+00 0. -1.
<mgrwt>
<rscale>  0 0.83674329E+02</rscale>
<asrwt>0</asrwt>
<pdfrwt beam="1">  1        2 0.18745256E+00 0.18237664E+03</pdfrwt>
<pdfrwt beam="2">  1        2 0.17576431E+00 0.38389750E+02</pdfrwt>
<totfact> 0.75950976E+01</totfact>
</mgrwt>
</event>
<event>
13    1  0.1589573E-008  0.1440846E+03  0.7546771E-02  0.1221126E+00
          2   -1    0    0  502    0  0.00000000000E+00  0.00000000000E+00  0.64258366808E+03  0.64258366808E+03  0.00000000000E+00 0. -1.
          2   -1    0    0  503    0 -0.00000000000E+00 -0.00000000000E+00 -0.26394247082E+04  0.26394247082E+04  0.00000000000E+00 0. -1.
         24    2    1    2    0    0  0.17319301477E+02 -0.25348189800E+01 -0.34475306326E+02  0.86654865704E+02  0.77550857461E+02 0.  0.
         25    2    1    2    0    0 -0.29217189765E+03  0.22967347479E+03 -0.46914117024E+02  0.39487824827E+03  0.12495428678E+03 0.  0.
         24    2    1    2    0    0 -0.15748904353E+02  0.51414322906E+02 -0.81815632836E+03  0.82375605405E+03  0.79390165368E+02 0.  0.
        -13    1    3    3    0    0  0.23740653264E+02 -0.23695649243E+02 -0.49590349367E+02  0.59869066811E+02  0.00000000000E+00 0.  1.
         14    1    3    3    0    0 -0.64213517875E+01  0.21160830263E+02  0.15115043041E+02  0.26785798893E+02  0.00000000000E+00 0. -1.
        -13    1    5    5    0    0 -0.44379039041E+02  0.32355226435E+02 -0.34427371383E+03  0.34862694936E+03  0.00000000000E+00 0.  1.
         14    1    5    5    0    0  0.28630134688E+02  0.19059096471E+02 -0.47388261453E+03  0.47512910469E+03  0.00000000000E+00 0. -1.
          5    1    4    4  501    0 -0.16919259747E+03  0.14111642578E+03 -0.88789112585E+02  0.23758277963E+03  0.47000000000E+01 0.  1.
         -5    1    4    4    0  501 -0.12297930018E+03  0.88557049016E+02  0.41874995561E+02  0.15729546864E+03  0.47000000000E+01 0.  1.
          1    1    1    2  502    0  0.12361612004E+03 -0.18053392822E+03  0.40589369272E+03  0.46111076127E+03  0.00000000000E+00 0. -1.
          1    1    1    2  503    0  0.16698538049E+03 -0.98019050492E+02 -0.15031889812E+04  0.15156084470E+04  0.00000000000E+00 0. -1.
<mgrwt>
<rscale>  0 0.13435980E+03</rscale>
<asrwt>0</asrwt>
<pdfrwt beam="1">  1        2 0.94497597E-01 0.14408464E+03</pdfrwt>
<pdfrwt beam="2">  1        2 0.38815070E+00 0.12529133E+03</pdfrwt>
<totfact> 0.33490972E+01</totfact>
</mgrwt>
</event>
<event>
13    1  0.1589573E-008  0.9558512E+02  0.7546771E-02  0.1389344E+00
          2   -1    0    0  503    0  0.00000000000E+00  0.00000000000E+00  0.32395376446E+04  0.32395376446E+04  0.00000000000E+00 0. -1.
          2   -1    0    0  502    0 -0.00000000000E+00 -0.00000000000E+00 -0.74238528813E+03  0.74238528813E+03  0.00000000000E+00 0. -1.
         24    2    1    2    0    0 -0.90729824807E+02  0.13893880379E+03 -0.39114008497E+03  0.43243894531E+03  0.80479705780E+02 0.  0.
         25    2    1    2    0    0  0.14639364293E+03 -0.35658459895E+02  0.15711086298E+03  0.25102099402E+03  0.12500036689E+03 0.  0.
         24    2    1    2    0    0 -0.36553941712E+02 -0.49433103295E+02  0.45800977006E+03  0.46925556495E+03  0.81535350682E+02 0.  0.
        -11    1    5    5    0    0 -0.47735855837E+02 -0.11736121190E+02  0.13151724557E+03  0.14040382600E+03  0.00000000000E+00 0.  1.
         12    1    5    5    0    0  0.11181914125E+02 -0.37696982106E+02  0.32649252448E+03  0.32885173895E+03  0.00000000000E+00 0. -1.
        -13    1    3    3    0    0 -0.15860064272E+02  0.50858385838E+02 -0.53262562138E+02  0.75332712511E+02  0.00000000000E+00 0.  1.
         14    1    3    3    0    0 -0.74869760535E+02  0.88080417956E+02 -0.33787752283E+03  0.35710623280E+03  0.00000000000E+00 0. -1.
          5    1    4    4  501    0  0.12225531810E+03 -0.10322094350E+02  0.17313096570E+03  0.21224827377E+03  0.47000000000E+01 0. -1.
         -5    1    4    4    0  501  0.24138324833E+02 -0.25336365545E+02 -0.16020102718E+02  0.38772720254E+02  0.47000000000E+01 0. -1.
          1    1    1    2  502    0 -0.48434073886E+02 -0.81500730114E+02 -0.26977103398E+03  0.28594516834E+03  0.00000000000E+00 0. -1.
          1    1    1    2  503    0  0.29324197470E+02  0.27653489510E+02  0.25429428423E+04  0.25432622601E+04  0.00000000000E+00 0. -1.
<mgrwt>
<rscale>  0 0.62070232E+02</rscale>
<asrwt>0</asrwt>
<pdfrwt beam="1">  1        2 0.47640259E+00 0.40306625E+02</pdfrwt>
<pdfrwt beam="2">  1        2 0.10917431E+00 0.95585121E+02</pdfrwt>
<totfact> 0.16703108E+01</totfact>
</mgrwt>
</event>
<event>
13    1  0.1589573E-008  0.2232180E+03  0.7546771E-02  0.1143660E+00
          2   -1    0    0  503    0  0.00000000000E+00  0.00000000000E+00  0.16305606807E+04  0.16305606807E+04  0.00000000000E+00 0. -1.
          2   -1    0    0  502    0 -0.00000000000E+00 -0.00000000000E+00 -0.11417308719E+04  0.11417308719E+04  0.00000000000E+00 0. -1.
         24    2    1    2    0    0 -0.21397782515E+03 -0.72178373945E+02 -0.74193493078E+03  0.77980452666E+03  0.81433598522E+02 0.  0.
         25    2    1    2    0    0  0.21484794396E+03  0.57031748780E+03  0.45246047119E+03  0.76926373846E+03  0.12499818159E+03 0.  0.
         24    2    1    2    0    0  0.13174950151E+03  0.32525924455E+01  0.43363909890E+03  0.46010149230E+03  0.79259097980E+02 0.  0.
        -13    1    5    5    0    0  0.13783025603E+03 -0.98072464635E+01  0.37291759587E+03  0.39769447427E+03  0.00000000000E+00 0.  1.
         14    1    5    5    0    0 -0.60807545198E+01  0.13059838909E+02  0.60721503036E+02  0.62407018025E+02  0.00000000000E+00 0. -1.
        -13    1    3    3    0    0 -0.14304045310E+03 -0.11159837128E+02 -0.38689038646E+03  0.41263698856E+03  0.00000000000E+00 0.  1.
         14    1    3    3    0    0 -0.70937372056E+02 -0.61018536817E+02 -0.35504454432E+03  0.36716753810E+03  0.00000000000E+00 0. -1.
          5    1    4    4  501    0 -0.25329902199E+00  0.12620250267E+02 -0.71369826987E+01  0.15243405107E+02  0.47000000000E+01 0. -1.
         -5    1    4    4    0  501  0.21510124298E+03  0.55769723753E+03  0.45959745389E+03  0.75402033335E+03  0.47000000000E+01 0. -1.
          1    1    1    2  502    0 -0.46491704350E+02 -0.18868062272E+03 -0.95367037003E+02  0.21646414879E+03  0.00000000000E+00 0. -1.
          1    1    1    2  503    0 -0.86127915971E+02 -0.31271108358E+03  0.44003220645E+03  0.54665764644E+03  0.00000000000E+00 0. -1.
<mgrwt>
<rscale>  0 0.20737691E+03</rscale>
<asrwt>0</asrwt>
<pdfrwt beam="1">  1        2 0.23978834E+00 0.22321802E+03</pdfrwt>
<pdfrwt beam="2">  1        2 0.16790160E+00 0.19266000E+03</pdfrwt>
<totfact> 0.47610067E+01</totfact>
</mgrwt>
</event>
<event>
13    1  0.1589573E-008  0.9203621E+02  0.7546771E-02  0.1323760E+00
          2   -1    0    0  503    0  0.00000000000E+00  0.00000000000E+00  0.20918648184E+04  0.20918648184E+04  0.00000000000E+00 0. -1.
          2   -1    0    0  502    0 -0.00000000000E+00 -0.00000000000E+00 -0.23339806659E+03  0.23339806659E+03  0.00000000000E+00 0. -1.
         24    2    1    2    0    0 -0.74901920815E+01  0.31292183051E+02  0.89360395643E+01  0.84001512736E+02  0.77078516082E+02 0.  0.
         25    2    1    2    0    0 -0.35305505152E+01 -0.90901696822E+02  0.71353475559E+03  0.73008896999E+03  0.12498989313E+03 0.  0.
         24    2    1    2    0    0  0.28131297930E+01  0.20089869103E+01  0.51116148802E+03  0.51689012415E+03  0.76664097730E+02 0.  0.
        -11    1    5    5    0    0 -0.31691266846E+02 -0.86328669978E+01  0.13248180700E+03  0.13649282755E+03  0.00000000000E+00 0.  1.
         12    1    5    5    0    0  0.34504396639E+02  0.10641853908E+02  0.37867968102E+03  0.38039729660E+03  0.00000000000E+00 0. -1.
        -13    1    3    3    0    0 -0.37077683607E+02  0.14269486786E+01 -0.91808767112E+01  0.38224067043E+02  0.00000000000E+00 0.  1.
         14    1    3    3    0    0  0.29587491525E+02  0.29865234372E+02  0.18116916275E+02  0.45777445693E+02  0.00000000000E+00 0. -1.
          5    1    4    4  501    0  0.23547475843E+02 -0.22120226168E+02  0.54523135757E+03  0.54620793778E+03  0.47000000000E+01 0. -1.
         -5    1    4    4    0  501 -0.27078026358E+02 -0.68781470653E+02  0.16830339803E+03  0.18388103220E+03  0.47000000000E+01 0. -1.
          1    1    1    2  502    0  0.79761981200E+02  0.43816589154E+02 -0.17175061682E+03  0.19437114371E+03  0.00000000000E+00 0. -1.
          1    1    1    2  503    0 -0.71554368396E+02  0.13783937706E+02  0.79658508546E+03  0.79991113441E+03  0.00000000000E+00 0. -1.
<mgrwt>
<rscale>  0 0.81894268E+02</rscale>
<asrwt>0</asrwt>
<pdfrwt beam="1">  1        2 0.30762717E+00 0.72869915E+02</pdfrwt>
<pdfrwt beam="2">  1        2 0.34323246E-01 0.92036214E+02</pdfrwt>
<totfact> 0.19723354E+02</totfact>
</mgrwt>
</event>
<event>
13    1  0.1589573E-008  0.1976744E+03  0.7546771E-02  0.1196044E+00
          2   -1    0    0  503    0  0.00000000000E+00  0.00000000000E+00  0.27229483895E+04  0.27229483895E+04  0.00000000000E+00 0. -1.
          2   -1    0    0  502    0 -0.00000000000E+00 -0.00000000000E+00 -0.21008860493E+04  0.21008860493E+04  0.00000000000E+00 0. -1.
         24    2    1    2    0    0 -0.14938556132E+02  0.99984392776E+02 -0.18446635279E+03  0.22378280289E+03  0.76360122431E+02 0.  0.
         25    2    1    2    0    0  0.87853103303E+02 -0.89800222048E+02  0.15116705036E+04  0.15220231298E+04  0.12499779422E+03 0.  0.
         24    2    1    2    0    0  0.14702556416E+03 -0.31344783795E+02 -0.43623528185E+03  0.46826189836E+03  0.79805841525E+02 0.  0.
        -11    1    5    5    0    0  0.10045034051E+03 -0.28240114044E+02 -0.18211113260E+03  0.20988625387E+03  0.00000000000E+00 0.  1.
         12    1    5    5    0    0  0.46575223651E+02 -0.31046697514E+01 -0.25412414925E+03  0.25837564449E+03  0.00000000000E+00 0. -1.
        -13    1    3    3    0    0  0.19420081191E+02  0.75515992486E+02 -0.15098091553E+03  0.16992657688E+03  0.00000000000E+00 0.  1.
         14    1    3    3    0    0 -0.34358637323E+02  0.24468400290E+02 -0.33485437257E+02  0.53856226007E+02  0.00000000000E+00 0. -1.
          5    1    4    4  501    0  0.16793926077E+02 -0.13208502209E+02  0.32601921968E+02  0.39261632667E+02  0.47000000000E+01 0.  1.
         -5    1    4    4    0  501  0.71059177226E+02 -0.76591719840E+02  0.14790685817E+04  0.14827614972E+04  0.47000000000E+01 0.  1.
          1    1    1    2  502    0 -0.21819559274E+03  0.14059684998E+03 -0.14245302769E+04  0.14479859463E+04  0.00000000000E+00 0. -1.
          1    1    1    2  503    0 -0.17445185875E+01 -0.11943623691E+03  0.11556237481E+04  0.11617806614E+04  0.00000000000E+00 0. -1.
<mgrwt>
<rscale>  0 0.15366197E+03</rscale>
<asrwt>0</asrwt>
<pdfrwt beam="1">  1        2 0.40043359E+00 0.11944898E+03</pdfrwt>
<pdfrwt beam="2">  1        2 0.30895383E+00 0.19767436E+03</pdfrwt>
<totfact> 0.46767316E+00</totfact>
</mgrwt>
</event>
<event>
13    1  0.1589573E-008  0.1043645E+03  0.7546771E-02  0.1306249E+00
          2   -1    0    0  503    0  0.00000000000E+00  0.00000000000E+00  0.18459909963E+04  0.18459909963E+04  0.00000000000E+00 0. -1.
          2   -1    0    0  502    0 -0.00000000000E+00 -0.00000000000E+00 -0.18468577742E+04  0.18468577742E+04  0.00000000000E+00 0. -1.
         24    2    1    2    0    0  0.20476122362E+02  0.25909080366E+02 -0.56704498244E+03  0.57289484390E+03  0.74685594488E+02 0.  0.
         25    2    1    2    0    0 -0.42877581378E+02  0.84533738435E+02 -0.27960641680E+03  0.32060859343E+03  0.12500272776E+03 0.  0.
         24    2    1    2    0    0  0.18614762146E+03 -0.41345768124E+02  0.42600566987E+03  0.47454676757E+03  0.85751934834E+02 0.  0.
        -11    1    5    5    0    0  0.23712588089E+02  0.57543677089E+01  0.14133610413E+03  0.14342696369E+03  0.00000000000E+00 0.  1.
         12    1    5    5    0    0  0.16243503338E+03 -0.47100135833E+02  0.28466956574E+03  0.33111980388E+03  0.00000000000E+00 0. -1.
        -13    1    3    3    0    0  0.11338600923E+00  0.48752089913E+02 -0.41067923896E+03  0.41356283252E+03  0.00000000000E+00 0.  1.
         14    1    3    3    0    0  0.20362736352E+02 -0.22843009548E+02 -0.15636574348E+03  0.15933201138E+03  0.00000000000E+00 0. -1.
          5    1    4    4  501    0 -0.79658865541E+02  0.20286047173E+02 -0.13621149599E+03  0.15916255906E+03  0.47000000000E+01 0. -1.
         -5    1    4    4    0  501  0.36781284163E+02  0.64247691263E+02 -0.14339492081E+03  0.16144603436E+03  0.47000000000E+01 0. -1.
          1    1    1    2  502    0 -0.63881649314E+02 -0.39745104616E+02 -0.94904509131E+03  0.95202264879E+03  0.00000000000E+00 0. -1.
          1    1    1    2  503    0 -0.99864513134E+02 -0.29351946061E+02  0.13688240428E+04  0.13727759168E+04  0.00000000000E+00 0. -1.
<mgrwt>
<rscale>  0 0.88611636E+02</rscale>
<asrwt>0</asrwt>
<pdfrwt beam="1">  1        2 0.27146926E+00 0.10436446E+03</pdfrwt>
<pdfrwt beam="2">  1        2 0.27159673E+00 0.75236550E+02</pdfrwt>
<totfact> 0.18815299E+01</totfact>
</mgrwt>
</event>
<event>
13    1  0.1589573E-008  0.1586881E+03  0.7546771E-02  0.1288393E+00
          2   -1    0    0  502    0  0.00000000000E+00  0.00000000000E+00  0.44504266935E+03  0.44504266935E+03  0.00000000000E+00 0. -1.
          2   -1    0    0  503    0 -0.00000000000E+00 -0.00000000000E+00 -0.10024203596E+04  0.10024203596E+04  0.00000000000E+00 0. -1.
         24    2    1    2    0    0  0.19002203655E+02 -0.37240547300E+02 -0.64453440449E+03  0.65074629387E+03  0.79361188901E+02 0.  0.
         25    2    1    2    0    0 -0.16207168727E+03  0.61578286973E+01 -0.15266290607E+02  0.20532943150E+03  0.12498785998E+03 0.  0.
         24    2    1    2    0    0 -0.46340699864E+02 -0.50096811752E+01 -0.58488637632E+02  0.11027603867E+03  0.81039043703E+02 0.  0.
        -11    1    5    5    0    0 -0.57173978037E+02 -0.15834775588E+02 -0.69526795019E+02  0.91397916323E+02  0.00000000000E+00 0.  1.
         12    1    5    5    0    0  0.10833278173E+02  0.10825094413E+02  0.11038157387E+02  0.18878122352E+02  0.00000000000E+00 0. -1.
        -13    1    3    3    0    0 -0.14597375266E+02  0.11549222385E+02 -0.33966787847E+03  0.34017750597E+03  0.00000000000E+00 0.  1.
         14    1    3    3    0    0  0.33599578921E+02 -0.48789769685E+02 -0.30486652602E+03  0.31056878790E+03  0.00000000000E+00 0. -1.
          5    1    4    4  501    0 -0.10713704463E+03 -0.44305804249E+02  0.27458928426E+02  0.11923687925E+03  0.47000000000E+01 0. -1.
         -5    1    4    4    0  501 -0.54934642635E+02  0.50463632946E+02 -0.42725219033E+02  0.86092552251E+02  0.47000000000E+01 0. -1.
          1    1    1    2  502    0  0.14393984566E+03  0.72699566102E+02  0.29425822364E+03  0.33554702839E+03  0.00000000000E+00 0. -1.
          1    1    1    2  503    0  0.45470337821E+02 -0.36607166324E+02 -0.13334658115E+03  0.14556423652E+03  0.00000000000E+00 0. -1.
<mgrwt>
<rscale>  0 0.96246610E+02</rscale>
<asrwt>0</asrwt>
<pdfrwt beam="1">  1        2 0.65447453E-01 0.15868807E+03</pdfrwt>
<pdfrwt beam="2">  1        2 0.14741476E+00 0.58374963E+02</pdfrwt>
<totfact> 0.34978551E+02</totfact>
</mgrwt>
</event>
<event>
13    1  0.1589573E-008  0.4804903E+02  0.7546771E-02  0.1544863E+00
         -1   -1    0    0    0  501 -0.00000000000E+00  0.00000000000E+00  0.69524688068E+03  0.69524688068E+03  0.00000000000E+00 0.  1.
          2   -1    0    0  503    0  0.00000000000E+00 -0.00000000000E+00 -0.89509936216E+03  0.89509936216E+03  0.00000000000E+00 0. -1.
         24    2    1    2    0    0  0.35605783230E+02  0.48198120192E+02  0.25561101994E+03  0.27463915093E+03  0.80615377671E+02 0.  0.
         25    2    1    2    0    0 -0.75473517689E+02 -0.64085437124E+01 -0.42050254895E+03  0.44517941048E+03  0.12499997016E+03 0.  0.
         24    2    1    2    0    0  0.79657364559E+01 -0.23031844056E+02 -0.59281537179E+02  0.10284406865E+03  0.80428123236E+02 0.  0.
        -11    1    3    3    0    0  0.49209519556E+01  0.30393905020E+02  0.20785322815E+02  0.37148820642E+02  0.00000000000E+00 0.  1.
         12    1    3    3    0    0  0.30684831274E+02  0.17804215172E+02  0.23482569713E+03  0.23749033029E+03  0.00000000000E+00 0. -1.
        -13    1    5    5    0    0 -0.95996303350E+00 -0.49837344562E+02 -0.18366898683E+02  0.53122739098E+02  0.00000000000E+00 0.  1.
         14    1    5    5    0    0  0.89256994894E+01  0.26805500506E+02 -0.40914638496E+02  0.49721329548E+02  0.00000000000E+00 0. -1.
          5    1    4    4  502    0 -0.98547735423E+02  0.27312906451E+02 -0.33511620546E+03  0.35040349910E+03  0.47000000000E+01 0. -1.
         -5    1    4    4    0  502  0.23074217734E+02 -0.33721450163E+02 -0.85386343489E+02  0.94775911388E+02  0.47000000000E+01 0. -1.
          1    1    1    2  503    0 -0.16161943289E+02 -0.20515603250E+02 -0.36975884299E+03  0.37068005120E+03  0.00000000000E+00 0. -1.
         -2    1    1    2    0  501  0.48063941292E+02  0.17578708266E+01  0.39407942771E+03  0.39700356157E+03  0.00000000000E+00 0.  1.
<mgrwt>
<rscale>  0 0.35424528E+02</rscale>
<asrwt>0</asrwt>
<pdfrwt beam="2">  1        2 0.13163226E+00 0.26117013E+02</pdfrwt>
<pdfrwt beam="1">  1       -1 0.10224219E+00 0.48049030E+02</pdfrwt>
<totfact> 0.42771262E+01</totfact>
</mgrwt>
</event>
<event>
13    1  0.1589573E-008  0.1929170E+03  0.7546771E-02  0.1262491E+00
         -1   -1    0    0    0  501 -0.00000000000E+00  0.00000000000E+00  0.13230052987E+04  0.13230052987E+04  0.00000000000E+00 0.  1.
          2   -1    0    0  503    0  0.00000000000E+00 -0.00000000000E+00 -0.11373982614E+04  0.11373982614E+04  0.00000000000E+00 0. -1.
         24    2    1    2    0    0  0.26648442302E+03 -0.17243459077E+02  0.15080010792E+03  0.31109645852E+03  0.52240304007E+02 0.  0.
         25    2    1    2    0    0 -0.45927264531E+02 -0.37950942533E+01 -0.82310812618E+02  0.15659694941E+03  0.12499527320E+03 0.  0.
         24    2    1    2    0    0 -0.20999629988E+03 -0.20035760570E+03 -0.31965719694E+03  0.43920628735E+03  0.80497348863E+02 0.  0.
        -11    1    3    3    0    0  0.18404918171E+03  0.52642011760E+01  0.12219598758E+03  0.22098342128E+03  0.00000000000E+00 0.  1.
         12    1    3    3    0    0  0.82435241309E+02 -0.22507660253E+02  0.28604120349E+02  0.90113037240E+02  0.00000000000E+00 0. -1.
        -13    1    5    5    0    0 -0.11920544924E+03 -0.73200808575E+02 -0.11122996034E+03  0.17871877792E+03  0.00000000000E+00 0.  1.
         14    1    5    5    0    0 -0.90790850634E+02 -0.12715679712E+03 -0.20842723660E+03  0.26048750943E+03  0.00000000000E+00 0. -1.
          5    1    4    4  502    0  0.38747524712E+02  0.21708215985E+02 -0.27338418868E+02  0.52365030876E+02  0.47000000000E+01 0.  1.
         -5    1    4    4    0  502 -0.84674789242E+02 -0.25503310238E+02 -0.54972393750E+02  0.10423191853E+03  0.47000000000E+01 0.  1.
          1    1    1    2  503    0 -0.58437067191E+02  0.18271305694E+03 -0.54089182522E+03  0.57390148857E+03  0.00000000000E+00 0. -1.
         -2    1    1    2    0  501  0.47876208582E+02  0.38683102093E+02  0.97766676417E+03  0.97960237623E+03  0.00000000000E+00 0.  1.
<mgrwt>
<rscale>  0 0.10896888E+03</rscale>
<asrwt>0</asrwt>
<pdfrwt beam="2">  1        2 0.16726445E+00 0.19291701E+03</pdfrwt>
<pdfrwt beam="1">  1       -1 0.19455960E+00 0.61550904E+02</pdfrwt>
<totfact> 0.56408315E+00</totfact>
</mgrwt>
</event>
<event>
13    1  0.1589573E-008  0.8109602E+02  0.7546771E-02  0.1494358E+00
          2   -1    0    0  503    0  0.00000000000E+00  0.00000000000E+00  0.67212964017E+03  0.67212964017E+03  0.00000000000E+00 0. -1.
          2   -1    0    0  502    0 -0.00000000000E+00 -0.00000000000E+00 -0.44728925351E+03  0.44728925351E+03  0.00000000000E+00 0. -1.
         24    2    1    2    0    0 -0.47092457090E+02  0.10061221313E+02 -0.17449068179E+03  0.19880798463E+03  0.82211246399E+02 0.  0.
         25    2    1    2    0    0  0.73473091455E+01 -0.68344712833E+02  0.18144027462E+03  0.23080316362E+03  0.12499817742E+03 0.  0.
         24    2    1    2    0    0  0.85232001119E+01 -0.16108299267E+02 -0.69786737769E+01  0.76657790731E+02  0.74132265220E+02 0.  0.
        -11    1    3    3    0    0 -0.76463232303E+00  0.13570844627E+02  0.41600531985E+01  0.14214729301E+02  0.00000000000E+00 0.  1.
         12    1    3    3    0    0 -0.46327824767E+02 -0.35096233142E+01 -0.17865073498E+03  0.18459325533E+03  0.00000000000E+00 0. -1.
        -11    1    5    5    0    0  0.27500108887E+02  0.15236870310E+02  0.14021920768E+02  0.34424300540E+02  0.00000000000E+00 0.  1.
         12    1    5    5    0    0 -0.18976908775E+02 -0.31345169577E+02 -0.21000594545E+02  0.42233490191E+02  0.00000000000E+00 0. -1.
          5    1    4    4  501    0  0.23432593832E+02  0.31413779822E+02  0.69514196192E+02  0.79938885961E+02  0.47000000000E+01 0. -1.
         -5    1    4    4    0  501 -0.16085284687E+02 -0.99758492655E+02  0.11192607843E+03  0.15086427765E+03  0.47000000000E+01 0. -1.
          1    1    1    2  502    0  0.20741630259E+02 -0.63657871660E+01 -0.18955885315E+03  0.19079648130E+03  0.00000000000E+00 0. -1.
          1    1    1    2  503    0  0.10480317574E+02  0.80757577953E+02  0.41442832075E+03  0.42235347340E+03  0.00000000000E+00 0. -1.
<mgrwt>
<rscale>  0 0.41946400E+02</rscale>
<asrwt>0</asrwt>
<pdfrwt beam="1">  1        2 0.98842594E-01 0.81096021E+02</pdfrwt>
<pdfrwt beam="2">  1        2 0.65777831E-01 0.21696508E+02</pdfrwt>
<totfact> 0.56062681E+02</totfact>
</mgrwt>
</event>
<event>
13    1  0.1589573E-008  0.3010876E+03  0.7546771E-02  0.1325501E+00
          2   -1    0    0  503    0  0.00000000000E+00  0.00000000000E+00  0.11533806344E+04  0.11533806344E+04  0.00000000000E+00 0. -1.
          2   -1    0    0  502    0 -0.00000000000E+00 -0.00000000000E+00 -0.97286439455E+03  0.97286439455E+03  0.00000000000E+00 0. -1.
         24    2    1    2    0    0 -0.66395866529E+02 -0.88166990076E+02 -0.11639802664E+03  0.17991310686E+03  0.81476353529E+02 0.  0.
         25    2    1    2    0    0 -0.24488232941E+03  0.12496772046E+03 -0.15575883687E+02  0.30240948823E+03  0.12499841602E+03 0.  0.
         24    2    1    2    0    0 -0.22630224466E+02  0.26956690445E+03  0.70067016640E+03  0.75541832531E+03  0.80868542062E+02 0.  0.
        -11    1    3    3    0    0 -0.30616042596E+02 -0.95306963637E+02 -0.77638120121E+02  0.12668242608E+03  0.00000000000E+00 0.  1.
         12    1    3    3    0    0 -0.35779823933E+02  0.71399735610E+01 -0.38759906521E+02  0.53230680783E+02  0.00000000000E+00 0. -1.
        -13    1    5    5    0    0  0.24959521928E+02  0.34939269328E+02  0.10670936099E+03  0.11502442349E+03  0.00000000000E+00 0.  1.
         14    1    5    5    0    0 -0.47589746395E+02  0.23462763512E+03  0.59396080541E+03  0.64039390182E+03  0.00000000000E+00 0. -1.
          5    1    4    4  501    0 -0.80758098310E+02  0.22730511696E+02 -0.60868210777E+02  0.10375729221E+03  0.47000000000E+01 0.  1.
         -5    1    4    4    0  501 -0.16412423110E+03  0.10223720876E+03  0.45292327090E+02  0.19865219602E+03  0.47000000000E+01 0.  1.
          1    1    1    2  502    0  0.14534083919E+02 -0.16426714920E+02 -0.45193301834E+03  0.45246494850E+03  0.00000000000E+00 0. -1.
          1    1    1    2  503    0  0.31937433649E+03 -0.28994091991E+03  0.63753002154E+02  0.43603916009E+03  0.00000000000E+00 0. -1.
<mgrwt>
<rscale>  0 0.81264329E+02</rscale>
<asrwt>0</asrwt>
<pdfrwt beam="1">  1        2 0.16961480E+00 0.30108756E+03</pdfrwt>
<pdfrwt beam="2">  1        2 0.14306829E+00 0.21933458E+02</pdfrwt>
<totfact> 0.11583837E+02</totfact>
</mgrwt>
</event>
<event>
13    1  0.1589573E-008  0.1445629E+03  0.7546771E-02  0.1255838E+00
          2   -1    0    0  502    0  0.00000000000E+00  0.00000000000E+00  0.31747670125E+04  0.31747670125E+04  0.00000000000E+00 0. -1.
          2   -1    0    0  503    0 -0.00000000000E+00 -0.00000000000E+00 -0.17961575703E+04  0.17961575703E+04  0.00000000000E+00 0. -1.
         24    2    1    2    0    0  0.53177145302E+02  0.59583783596E+02  0.23262378487E+03  0.25863674872E+03  0.80006915023E+02 0.  0.
         25    2    1    2    0    0 -0.59832998253E+02 -0.18402899393E+03  0.43470973425E+02  0.23444021849E+03  0.12500332887E+03 0.  0.
         24    2    1    2    0    0 -0.12447957698E+02 -0.78422674092E+02  0.56313117560E+03  0.57436757127E+03  0.80475577236E+02 0.  0.
        -11    1    5    5    0    0 -0.32846822701E+02 -0.81971805195E+02  0.38291625651E+03  0.39296711072E+03  0.00000000000E+00 0.  1.
         12    1    5    5    0    0  0.20398865002E+02  0.35491311031E+01  0.18021491909E+03  0.18140046055E+03  0.00000000000E+00 0. -1.
        -11    1    3    3    0    0  0.33142965867E+02  0.66176486729E+01  0.21513744805E+02  0.40063582915E+02  0.00000000000E+00 0.  1.
         12    1    3    3    0    0  0.20034179435E+02  0.52966134923E+02  0.21111004006E+03  0.21857316581E+03  0.00000000000E+00 0. -1.
          5    1    4    4  501    0 -0.53034772979E+02 -0.21148027726E+02 -0.18152229918E+02  0.60095920599E+02  0.47000000000E+01 0. -1.
         -5    1    4    4    0  501 -0.67982252745E+01 -0.16288096620E+03  0.61623203343E+02  0.17434429789E+03  0.47000000000E+01 0. -1.
          1    1    1    2  502    0  0.77720521180E+02  0.98468666445E+02  0.22175262297E+04  0.22210716191E+04  0.00000000000E+00 0. -1.
          1    1    1    2  503    0 -0.58616710530E+02  0.10439921798E+03 -0.16781427215E+04  0.16824084252E+04  0.00000000000E+00 0. -1.
<mgrwt>
<rscale>  0 0.11259516E+03</rscale>
<asrwt>0</asrwt>
<pdfrwt beam="1">  1        2 0.46687750E+00 0.14456286E+03</pdfrwt>
<pdfrwt beam="2">  1        2 0.26414082E+00 0.87696587E+02</pdfrwt>
<totfact> 0.39744783E+00</totfact>
</mgrwt>
</event>
<event>
13    1  0.1589573E-008  0.1462640E+03  0.7546771E-02  0.1292336E+00
         -3   -1    0    0    0  501 -0.00000000000E+00  0.00000000000E+00  0.18640601074E+04  0.18640601074E+04  0.00000000000E+00 0.  1.
          2   -1    0    0  503    0  0.00000000000E+00 -0.00000000000E+00 -0.25046268739E+04  0.25046268739E+04  0.00000000000E+00 0. -1.
         24    2    1    2    0    0 -0.13788086723E+03 -0.86306696839E+03 -0.98632432680E+03  0.13191062366E+04  0.57531386441E+02 0.  0.
         25    2    1    2    0    0  0.56706883637E+03  0.97871030821E+03 -0.48392226440E+03  0.12366271568E+04  0.12500013758E+03 0.  0.
         24    2    1    2    0    0 -0.23857346651E+03 -0.71421330498E+02  0.28503378655E+03  0.38664637486E+03  0.78948428390E+02 0.  0.
        -11    1    5    5    0    0 -0.16747305824E+03 -0.20018775540E+02  0.22109559905E+03  0.27808495200E+03  0.00000000000E+00 0.  1.
         12    1    5    5    0    0 -0.71100408275E+02 -0.51402554958E+02  0.63938187498E+02  0.10856142286E+03  0.00000000000E+00 0. -1.
        -13    1    3    3    0    0 -0.10684489472E+03 -0.72869026447E+03 -0.85782761849E+03  0.11306076048E+04  0.00000000000E+00 0.  1.
         14    1    3    3    0    0 -0.31035972518E+02 -0.13437670391E+03 -0.12849670831E+03  0.18849863180E+03  0.00000000000E+00 0. -1.
          5    1    4    4  502    0  0.50392753439E+03  0.92925181209E+03 -0.43958511684E+03  0.11448620245E+04  0.47000000000E+01 0.  1.
         -5    1    4    4    0  502  0.63141301978E+02  0.49458496116E+02 -0.44337147556E+02  0.91765132305E+02  0.47000000000E+01 0.  1.
          1    1    1    2  503    0 -0.58344777210E+02  0.17932732634E+02 -0.43326124963E+03  0.43753971975E+03  0.00000000000E+00 0. -1.
         -4    1    1    2    0  501 -0.13226972542E+03 -0.62154741955E+02  0.97790728780E+03  0.98876749327E+03  0.00000000000E+00 0.  1.
<mgrwt>
<rscale>  0 0.94486692E+02</rscale>
<asrwt>0</asrwt>
<pdfrwt beam="2">  1        2 0.36832748E+00 0.61038479E+02</pdfrwt>
<pdfrwt beam="1">  1       -3 0.27412649E+00 0.14626405E+03</pdfrwt>
<totfact> 0.21423754E-01</totfact>
</mgrwt>
</event>
<event>
13    1  0.1589573E-008  0.1815680E+03  0.7546771E-02  0.1385702E+00
          2   -1    0    0  502    0  0.00000000000E+00  0.00000000000E+00  0.10471518674E+04  0.10471518674E+04  0.00000000000E+00 0. -1.
          2   -1    0    0  503    0 -0.00000000000E+00 -0.00000000000E+00 -0.14433397335E+04  0.14433397335E+04  0.00000000000E+00 0. -1.
         24    2    1    2    0    0 -0.16557428529E+03  0.14822750677E+02 -0.74918186204E+03  0.77168204683E+03  0.81149005586E+02 0.  0.
         25    2    1    2    0    0 -0.19846226576E+03 -0.16531768785E+03  0.80523196175E+02  0.29803500338E+03  0.12499467695E+03 0.  0.
         24    2    1    2    0    0 -0.49319691777E+02 -0.60742789384E+00  0.11354841517E+03  0.14763677409E+03  0.80439875128E+02 0.  0.
        -11    1    5    5    0    0 -0.29050163694E+02 -0.38892881944E+02  0.43003740972E+02  0.64852833509E+02  0.00000000000E+00 0.  1.
         12    1    5    5    0    0 -0.20269528084E+02  0.38285454050E+02  0.70544674198E+02  0.82783940582E+02  0.00000000000E+00 0. -1.
        -11    1    3    3    0    0 -0.22492895851E+02 -0.23297284518E+02 -0.79841200643E+02  0.86158639437E+02  0.00000000000E+00 0.  1.
         12    1    3    3    0    0 -0.14308138944E+03  0.38120035195E+02 -0.66934066140E+03  0.68552340739E+03  0.00000000000E+00 0. -1.
          5    1    4    4  501    0 -0.87105494199E+02 -0.15100445552E+03  0.54251196972E+02  0.18263349933E+03  0.47000000000E+01 0.  1.
         -5    1    4    4    0  501 -0.11135677157E+03 -0.14313232339E+02  0.26271999203E+02  0.11540150404E+03  0.47000000000E+01 0.  1.
          1    1    1    2  502    0  0.41923514498E+03  0.13005649935E+03  0.64849227012E+03  0.78308047110E+03  0.00000000000E+00 0. -1.
          1    1    1    2  503    0 -0.58789021542E+01  0.21045865716E+02 -0.48956988546E+03  0.49005730553E+03  0.00000000000E+00 0. -1.
<mgrwt>
<rscale>  0 0.62988425E+02</rscale>
<asrwt>0</asrwt>
<pdfrwt beam="1">  1        2 0.15399292E+00 0.18156803E+03</pdfrwt>
<pdfrwt beam="2">  1        2 0.21225584E+00 0.21851544E+02</pdfrwt>
<totfact> 0.80544084E+01</totfact>
</mgrwt>
</event>
<event>
13    1  0.1589573E-008  0.1170001E+03  0.7546771E-02  0.1380017E+00
          2   -1    0    0  503    0  0.00000000000E+00  0.00000000000E+00  0.26028070896E+04  0.26028070896E+04  0.00000000000E+00 0. -1.
          2   -1    0    0  502    0 -0.00000000000E+00 -0.00000000000E+00 -0.13811576655E+04  0.13811576655E+04  0.00000000000E+00 0. -1.
         24    2    1    2    0    0  0.17458731427E+03  0.11924632077E+03 -0.82769553000E+03  0.85795795017E+03  0.79445192245E+02 0.  0.
         25    2    1    2    0    0 -0.14667925995E+03  0.62854339141E+02  0.35604268918E+03  0.40970378834E+03  0.12500129765E+03 0.  0.
         24    2    1    2    0    0  0.31187925020E+01 -0.53365724998E+02 -0.13821207077E+03  0.16785766288E+03  0.78841556367E+02 0.  0.
        -11    1    5    5    0    0  0.28582971255E+02 -0.55065699109E+01 -0.92414790035E+02  0.96890670217E+02  0.00000000000E+00 0.  1.
         12    1    5    5    0    0 -0.25464178753E+02 -0.47859155087E+02 -0.45797280738E+02  0.70966992667E+02  0.00000000000E+00 0. -1.
        -11    1    3    3    0    0  0.23601390078E+02  0.49988078279E+01 -0.32169995298E+02  0.40210972268E+02  0.00000000000E+00 0.  1.
         12    1    3    3    0    0  0.15098592419E+03  0.11424751294E+03 -0.79552553470E+03  0.81774697791E+03  0.00000000000E+00 0. -1.
          5    1    4    4  501    0  0.19626463842E+01  0.35000502888E+02  0.18753876550E+02  0.40033549292E+02  0.47000000000E+01 0.  1.
         -5    1    4    4    0  501 -0.14864190634E+03  0.27853836253E+02  0.33728881263E+03  0.36967023905E+03  0.47000000000E+01 0.  1.
          1    1    1    2  502    0 -0.63068874282E+02 -0.11342249606E+03 -0.34656987688E+03  0.37007164858E+03  0.00000000000E+00 0. -1.
          1    1    1    2  503    0  0.32042027468E+02 -0.15312438852E+02  0.21780842126E+04  0.21783737052E+04  0.00000000000E+00 0. -1.
<mgrwt>
<rscale>  0 0.64459334E+02</rscale>
<asrwt>0</asrwt>
<pdfrwt beam="1">  1        2 0.38276575E+00 0.35512847E+02</pdfrwt>
<pdfrwt beam="2">  1        2 0.20311142E+00 0.11700008E+03</pdfrwt>
<totfact> 0.15246320E+01</totfact>
</mgrwt>
</event>
<event>
13    1  0.1589573E-008  0.4801416E+03  0.7546771E-02  0.1085293E+00
          2   -1    0    0  502    0  0.00000000000E+00  0.00000000000E+00  0.45559516212E+04  0.45559516212E+04  0.00000000000E+00 0. -1.
          4   -1    0    0  503    0 -0.00000000000E+00 -0.00000000000E+00 -0.36381608652E+03  0.36381608652E+03  0.00000000000E+00 0. -1.
         24    2    1    2    0    0 -0.21163125480E+03  0.78831800417E+02  0.44300808527E+03  0.50530796696E+03  0.89876232078E+02 0.  0.
         25    2    1    2    0    0 -0.37811338645E+03 -0.96781079539E+02  0.13022104065E+04  0.13651837034E+04  0.12505315210E+03 0.  0.
         24    2    1    2    0    0 -0.83819459569E+02 -0.15987260169E+03  0.47798181207E+03  0.51727716263E+03  0.80771899387E+02 0.  0.
        -13    1    3    3    0    0 -0.21464229937E+03  0.85546074479E+02  0.44069279268E+03  0.49759379524E+03  0.00000000000E+00 0.  1.
         14    1    3    3    0    0  0.30110445722E+01 -0.67142740613E+01  0.23152925908E+01  0.77141717227E+01  0.00000000000E+00 0. -1.
        -13    1    5    5    0    0 -0.75572193754E+02 -0.16919541277E+03  0.44681702449E+03  0.48371861402E+03  0.00000000000E+00 0.  1.
         14    1    5    5    0    0 -0.82472658153E+01  0.93228110806E+01  0.31164787580E+02  0.33558548609E+02  0.00000000000E+00 0. -1.
          5    1    4    4  501    0 -0.21001771752E+03  0.10360950044E+02  0.65140431894E+03  0.68451768983E+03  0.47000000000E+01 0.  1.
         -5    1    4    4    0  501 -0.16809566893E+03 -0.10714202958E+03  0.65080608757E+03  0.68066601357E+03  0.47000000000E+01 0.  1.
          1    1    1    2  502    0  0.20635260684E+03  0.13340418334E+02  0.20231788170E+04  0.20337187344E+04  0.00000000000E+00 0. -1.
          3    1    1    2  503    0  0.46721149398E+03  0.16448146248E+03 -0.54243586167E+02  0.49828014033E+03  0.00000000000E+00 0. -1.
<mgrwt>
<rscale>  0 0.29989518E+03</rscale>
<asrwt>0</asrwt>
<pdfrwt beam="1">  1        2 0.66999285E+00 0.18731374E+03</pdfrwt>
<pdfrwt beam="2">  1        4 0.53502368E-01 0.48014161E+03</pdfrwt>
<totfact> 0.45960361E-01</totfact>
</mgrwt>
</event>
<event>
13    1  0.1589573E-008  0.5557986E+02  0.7546771E-02  0.1540939E+00
          2   -1    0    0  502    0  0.00000000000E+00  0.00000000000E+00  0.12839407696E+04  0.12839407696E+04  0.00000000000E+00 0. -1.
          2   -1    0    0  503    0 -0.00000000000E+00 -0.00000000000E+00 -0.10509340885E+04  0.10509340885E+04  0.00000000000E+00 0. -1.
         24    2    1    2    0    0  0.18994761692E+03 -0.59974384004E+03 -0.39118140668E+03  0.74805252697E+03  0.10386009495E+03 0.  0.
         25    2    1    2    0    0 -0.40143411699E+03  0.19677851356E+03  0.25918540729E+03  0.53167046336E+03  0.12500109030E+03 0.  0.
         24    2    1    2    0    0  0.16968732393E+03  0.44518780025E+03  0.27205066437E+03  0.55454235633E+03  0.80744631959E+02 0.  0.
        -11    1    3    3    0    0  0.11430105791E+03 -0.22511278240E+03 -0.19122403974E+03  0.31671300891E+03  0.00000000000E+00 0.  1.
         12    1    3    3    0    0  0.75646559016E+02 -0.37463105765E+03 -0.19995736694E+03  0.43133951806E+03  0.00000000000E+00 0. -1.
        -13    1    5    5    0    0  0.10656194173E+03  0.19360780728E+03  0.15525436939E+03  0.27008026525E+03  0.00000000000E+00 0.  1.
         14    1    5    5    0    0  0.63125382200E+02  0.25157999297E+03  0.11679629498E+03  0.28446209108E+03  0.00000000000E+00 0. -1.
          5    1    4    4  501    0 -0.32696062475E+03  0.13390177446E+03  0.14625181507E+03  0.38241942779E+03  0.47000000000E+01 0.  1.
         -5    1    4    4    0  501 -0.74473492235E+02  0.62876739099E+02  0.11293359223E+03  0.14925103557E+03  0.47000000000E+01 0.  1.
          1    1    1    2  502    0  0.20628289166E+02 -0.51612822845E+02  0.29350605781E+03  0.29872264020E+03  0.00000000000E+00 0. -1.
          1    1    1    2  503    0  0.21170886967E+02  0.93903490786E+01 -0.20055404175E+03  0.20188687122E+03  0.00000000000E+00 0. -1.
<mgrwt>
<rscale>  0 0.35877972E+02</rscale>
<asrwt>0</asrwt>
<pdfrwt beam="1">  1        2 0.18881482E+00 0.55579857E+02</pdfrwt>
<pdfrwt beam="2">  1        2 0.15454913E+00 0.23159989E+02</pdfrwt>
<totfact> 0.99080235E+01</totfact>
</mgrwt>
</event>
<event>
13    1  0.1589573E-008  0.1560358E+03  0.7546771E-02  0.1381690E+00
          2   -1    0    0  502    0  0.00000000000E+00  0.00000000000E+00  0.52547429527E+03  0.52547429527E+03  0.00000000000E+00 0. -1.
          2   -1    0    0  503    0 -0.00000000000E+00 -0.00000000000E+00 -0.10391367072E+04  0.10391367072E+04  0.00000000000E+00 0. -1.
         24    2    1    2    0    0  0.94544150566E+02  0.29197775300E+02 -0.55646893917E+03  0.57063113247E+03  0.78556365683E+02 0.  0.
         25    2    1    2    0    0 -0.34722045572E+02 -0.14799698823E+03 -0.17991415605E+02  0.19763245238E+03  0.12500466480E+03 0.  0.
         24    2    1    2    0    0  0.48617193796E+02  0.61834729516E+01 -0.22458206667E+02  0.96577241377E+02  0.80130678488E+02 0.  0.
        -11    1    5    5    0    0 -0.45836617690E+01 -0.44235026152E+00 -0.39926595024E+02  0.40191275411E+02  0.00000000000E+00 0.  1.
         12    1    5    5    0    0  0.53200855565E+02  0.66258232132E+01  0.17468388357E+02  0.56385965966E+02  0.00000000000E+00 0. -1.
        -13    1    3    3    0    0  0.38104927680E+01 -0.18872786404E+02 -0.44818435268E+02  0.48779033013E+02  0.00000000000E+00 0.  1.
         14    1    3    3    0    0  0.90733657798E+02  0.48070561705E+02 -0.51165050390E+03  0.52185209945E+03  0.00000000000E+00 0. -1.
          5    1    4    4  501    0 -0.46612709463E+02 -0.82426842102E+02 -0.65866112280E+02  0.11544420180E+03  0.47000000000E+01 0. -1.
         -5    1    4    4    0  501  0.11890663891E+02 -0.65570146128E+02  0.47874696675E+02  0.82188250576E+02  0.47000000000E+01 0. -1.
          1    1    1    2  502    0 -0.93707429715E+02  0.13436406270E+03  0.37375928248E+03  0.40808183612E+03  0.00000000000E+00 0. -1.
          1    1    1    2  503    0 -0.14731869075E+02 -0.21748322724E+02 -0.29050313301E+03  0.29168834018E+03  0.00000000000E+00 0. -1.
<mgrwt>
<rscale>  0 0.64021687E+02</rscale>
<asrwt>0</asrwt>
<pdfrwt beam="1">  1        2 0.77275633E-01 0.15603577E+03</pdfrwt>
<pdfrwt beam="2">  1        2 0.15281422E+00 0.26268184E+02</pdfrwt>
<totfact> 0.29057838E+02</totfact>
</mgrwt>
</event>
<event>
13    1  0.1589573E-008  0.1664662E+03  0.7546771E-02  0.1262528E+00
          2   -1    0    0  503    0  0.00000000000E+00  0.00000000000E+00  0.29378606024E+04  0.29378606024E+04  0.00000000000E+00 0. -1.
          2   -1    0    0  502    0 -0.00000000000E+00 -0.00000000000E+00 -0.14781983921E+04  0.14781983921E+04  0.00000000000E+00 0. -1.
         24    2    1    2    0    0 -0.26159486837E+03  0.13469368837E+03 -0.18013107165E+03  0.35440906219E+03  0.81143795468E+02 0.  0.
         25    2    1    2    0    0  0.24026687818E+03  0.22148013055E+03  0.62504084940E+03  0.71629580288E+03  0.12498797072E+03 0.  0.
         24    2    1    2    0    0  0.63038617104E+02 -0.15519944563E+03 -0.14443050742E+03  0.23668090212E+03  0.84243354543E+02 0.  0.
        -11    1    3    3    0    0 -0.49198138104E+02  0.64934112785E+02 -0.53730960430E+02  0.97590531840E+02  0.00000000000E+00 0.  1.
         12    1    3    3    0    0 -0.21239673026E+03  0.69759575580E+02 -0.12640011122E+03  0.25681853035E+03  0.00000000000E+00 0. -1.
        -13    1    5    5    0    0 -0.10979484320E+02 -0.11866496950E+02  0.48626862485E+01  0.16882196047E+02  0.00000000000E+00 0.  1.
         14    1    5    5    0    0  0.74018101425E+02 -0.14333294868E+03 -0.14929319367E+03  0.21979870608E+03  0.00000000000E+00 0. -1.
          5    1    4    4  501    0  0.63278166684E+02  0.15412778210E+02  0.21270931011E+03  0.22250622624E+03  0.47000000000E+01 0. -1.
         -5    1    4    4    0  501  0.17698871149E+03  0.20606735234E+03  0.41233153930E+03  0.49378957664E+03  0.47000000000E+01 0. -1.
          1    1    1    2  502    0  0.19869988408E+02 -0.16502559139E+03 -0.96705711616E+03  0.98123785504E+03  0.00000000000E+00 0. -1.
          1    1    1    2  503    0 -0.61580615322E+02 -0.35948781897E+02  0.21262400561E+04  0.21274353723E+04  0.00000000000E+00 0. -1.
<mgrwt>
<rscale>  0 0.10894938E+03</rscale>
<asrwt>0</asrwt>
<pdfrwt beam="1">  1        2 0.43203832E+00 0.71305590E+02</pdfrwt>
<pdfrwt beam="2">  1        2 0.21738212E+00 0.16646617E+03</pdfrwt>
<totfact> 0.80997563E+00</totfact>
</mgrwt>
</event>
<event>
13    1  0.1589573E-008  0.1819369E+03  0.7546771E-02  0.1193038E+00
          2   -1    0    0  503    0  0.00000000000E+00  0.00000000000E+00  0.24214734692E+04  0.24214734692E+04  0.00000000000E+00 0. -1.
          2   -1    0    0  502    0 -0.00000000000E+00 -0.00000000000E+00 -0.21446998311E+04  0.21446998311E+04  0.00000000000E+00 0. -1.
         24    2    1    2    0    0  0.64294334188E+02 -0.11450158243E+03  0.18265404354E+02  0.15482180991E+03  0.79948696307E+02 0.  0.
         25    2    1    2    0    0 -0.35961660563E+03 -0.18607975613E+03 -0.71467698505E+01  0.42382283405E+03  0.12499975861E+03 0.  0.
         24    2    1    2    0    0  0.93989170114E+02  0.16422107346E+03 -0.77862540926E+03  0.80519708132E+03  0.79260877848E+02 0.  0.
        -11    1    5    5    0    0 -0.72990307702E+01 -0.21336533643E+01 -0.65971982082E+02  0.66408815278E+02  0.00000000000E+00 0.  1.
         12    1    5    5    0    0  0.10128820088E+03  0.16635472683E+03 -0.71265342718E+03  0.73878826605E+03  0.00000000000E+00 0. -1.
        -13    1    3    3    0    0 -0.23483758850E+01 -0.71901425545E+02 -0.57286009386E+01  0.72167490834E+02  0.00000000000E+00 0.  1.
         14    1    3    3    0    0  0.66642710073E+02 -0.42600156887E+02  0.23994005293E+02  0.82654319080E+02  0.00000000000E+00 0. -1.
          5    1    4    4  501    0 -0.13614270334E+03 -0.62024857072E+02 -0.62589422847E+02  0.16223884991E+03  0.47000000000E+01 0. -1.
         -5    1    4    4    0  501 -0.22347390229E+03 -0.12405489906E+03  0.55442652997E+02  0.26158398414E+03  0.47000000000E+01 0. -1.
          1    1    1    2  502    0  0.17345394268E+03 -0.46408607267E+02 -0.10573991044E+04  0.10725357314E+04  0.00000000000E+00 0. -1.
          1    1    1    2  503    0  0.27879158651E+02  0.18276887237E+03  0.21016795173E+04  0.21097958436E+04  0.00000000000E+00 0. -1.
<mgrwt>
<rscale>  0 0.15621489E+03</rscale>
<asrwt>0</asrwt>
<pdfrwt beam="1">  1        2 0.35609904E+00 0.13412944E+03</pdfrwt>
<pdfrwt beam="2">  1        2 0.31539703E+00 0.18193688E+03</pdfrwt>
<totfact> 0.62816572E+00</totfact>
</mgrwt>
</event>
<event>
13    1  0.1589573E-008  0.6352645E+02  0.7546771E-02  0.1515788E+00
         -3   -1    0    0    0  501 -0.00000000000E+00  0.00000000000E+00  0.36521655399E+03  0.36521655399E+03  0.00000000000E+00 0.  1.
          2   -1    0    0  503    0  0.00000000000E+00 -0.00000000000E+00 -0.21408102343E+04  0.21408102343E+04  0.00000000000E+00 0. -1.
         24    2    1    2    0    0 -0.13765060559E+03  0.93437907674E+02 -0.45238344908E+02  0.19147594181E+03  0.83295838014E+02 0.  0.
         25    2    1    2    0    0 -0.54227508286E+02 -0.39626280056E+02 -0.15834202347E+03  0.21262634451E+03  0.12500760479E+03 0.  0.
         24    2    1    2    0    0  0.10849578007E+03 -0.56973917730E+02 -0.60075811938E+03  0.61773420930E+03  0.75285282349E+02 0.  0.
        -13    1    5    5    0    0  0.49089033827E+02 -0.47112869974E+02 -0.17539701105E+03  0.18813151582E+03  0.00000000000E+00 0.  1.
         14    1    5    5    0    0  0.59406746247E+02 -0.98610477561E+01 -0.42536110834E+03  0.42960269348E+03  0.00000000000E+00 0. -1.
        -13    1    3    3    0    0 -0.11543608070E+03  0.73454296804E+02  0.51983386821E+00  0.13682577488E+03  0.00000000000E+00 0.  1.
         14    1    3    3    0    0 -0.22214524896E+02  0.19983610870E+02 -0.45758178776E+02  0.54650166923E+02  0.00000000000E+00 0. -1.
          5    1    4    4  502    0  0.37416374103E+01 -0.61649234742E+02 -0.27529253344E+02  0.67783314941E+02  0.47000000000E+01 0.  1.
         -5    1    4    4    0  502 -0.57969145696E+02  0.22022954686E+02 -0.13081277013E+03  0.14484302957E+03  0.47000000000E+01 0.  1.
          1    1    1    2  503    0  0.61891533199E+02  0.13685574761E+02 -0.12263442755E+04  0.12279813267E+04  0.00000000000E+00 0. -1.
         -4    1    1    2    0  501  0.21490800604E+02 -0.10523284650E+02  0.25508908289E+03  0.25620896597E+03  0.00000000000E+00 0.  1.
<mgrwt>
<rscale>  0 0.38988722E+02</rscale>
<asrwt>0</asrwt>
<pdfrwt beam="2">  1        2 0.31482502E+00 0.63526452E+02</pdfrwt>
<pdfrwt beam="1">  1       -3 0.53708318E-01 0.23928937E+02</pdfrwt>
<totfact> 0.15460176E+01</totfact>
</mgrwt>
</event>
<event>
13    1  0.1589573E-008  0.1951361E+03  0.7546771E-02  0.1305278E+00
          2   -1    0    0  502    0  0.00000000000E+00  0.00000000000E+00  0.10043099975E+04  0.10043099975E+04  0.00000000000E+00 0. -1.
          2   -1    0    0  503    0 -0.00000000000E+00 -0.00000000000E+00 -0.31611674090E+04  0.31611674090E+04  0.00000000000E+00 0. -1.
         24    2    1    2    0    0 -0.76554003370E+01  0.11201119463E+03 -0.10919769973E+04  0.11006245150E+04  0.79721060188E+02 0.  0.
         25    2    1    2    0    0 -0.13059622984E+02 -0.26823562941E+03 -0.16159751419E+03  0.33743060421E+03  0.12499899772E+03 0.  0.
         24    2    1    2    0    0  0.32054084269E+02  0.73894673807E+01  0.49481891827E+03  0.50232475786E+03  0.80014573256E+02 0.  0.
        -13    1    3    3    0    0  0.23871200478E+02  0.61051198235E+01 -0.29442668445E+03  0.29545588370E+03  0.00000000000E+00 0.  1.
         14    1    3    3    0    0 -0.31526600815E+02  0.10590607480E+03 -0.79755031284E+03  0.80516863125E+03  0.00000000000E+00 0. -1.
        -13    1    5    5    0    0  0.57006612246E+02 -0.70367209849E+01  0.34703645629E+03  0.35175783044E+03  0.00000000000E+00 0.  1.
         14    1    5    5    0    0 -0.24952527977E+02  0.14426188366E+02  0.14778246198E+03  0.15056692741E+03  0.00000000000E+00 0. -1.
          5    1    4    4  501    0 -0.86727950594E+01 -0.27797519599E+03 -0.13668439512E+03  0.30991957155E+03  0.47000000000E+01 0.  1.
         -5    1    4    4    0  501 -0.43868279243E+01  0.97395665819E+01 -0.24913119072E+02  0.27511032666E+02  0.47000000000E+01 0.  1.
          1    1    1    2  502    0 -0.17968430566E+02 -0.36404376302E+02  0.40774585754E+03  0.40976191557E+03  0.00000000000E+00 0. -1.
          1    1    1    2  503    0  0.66293696181E+01  0.18523934370E+03 -0.18058476758E+04  0.18153356139E+04  0.00000000000E+00 0. -1.
<mgrwt>
<rscale>  0 0.89005640E+02</rscale>
<asrwt>0</asrwt>
<pdfrwt beam="1">  1        2 0.14769265E+00 0.40597329E+02</pdfrwt>
<pdfrwt beam="2">  1        2 0.46487756E+00 0.19513609E+03</pdfrwt>
<totfact> 0.10143724E+01</totfact>
</mgrwt>
</event>
<event>
13    1  0.1589573E-008  0.1264333E+03  0.7546771E-02  0.1266155E+00
          2   -1    0    0  503    0  0.00000000000E+00  0.00000000000E+00  0.23495296293E+04  0.23495296293E+04  0.00000000000E+00 0. -1.
          2   -1    0    0  502    0 -0.00000000000E+00 -0.00000000000E+00 -0.36165187697E+03  0.36165187697E+03  0.00000000000E+00 0. -1.
         24    2    1    2    0    0  0.84661765367E+02 -0.24907757462E+03  0.40579699965E+02  0.27811093102E+03  0.80571243049E+02 0.  0.
         25    2    1    2    0    0 -0.69320589815E+02  0.26762270950E+03  0.83221724591E+03  0.88578487226E+03  0.12490811315E+03 0.  0.
         24    2    1    2    0    0 -0.70955996279E+02 -0.92713952927E+01 -0.77982207533E+02  0.13352558917E+03  0.81407285255E+02 0.  0.
        -11    1    3    3    0    0  0.72852880432E+02 -0.12717611841E+03  0.51028008994E+02  0.15519395923E+03  0.00000000000E+00 0.  1.
         12    1    3    3    0    0  0.11808884935E+02 -0.12190145622E+03 -0.10448309029E+02  0.12291697178E+03  0.00000000000E+00 0. -1.
        -11    1    5    5    0    0 -0.20284095106E+02  0.23204728734E+02  0.47843612947E+01  0.31189646726E+02  0.00000000000E+00 0.  1.
         12    1    5    5    0    0 -0.50671901173E+02 -0.32476124026E+02 -0.82766568827E+02  0.10233594244E+03  0.00000000000E+00 0. -1.
          5    1    4    4  501    0  0.25308782352E+02  0.70217366863E+02  0.32192266839E+03  0.33049554838E+03  0.47000000000E+01 0.  1.
         -5    1    4    4    0  501 -0.94629372167E+02  0.19740534264E+03  0.51029457751E+03  0.55528932388E+03  0.47000000000E+01 0.  1.
          1    1    1    2  502    0 -0.33615310630E+02  0.84152583141E+02 -0.87931186447E+02  0.12626773106E+03  0.00000000000E+00 0. -1.
          1    1    1    2  503    0  0.89230131356E+02 -0.93426322723E+02  0.12809942004E+04  0.12874923828E+04  0.00000000000E+00 0. -1.
<mgrwt>
<rscale>  0 0.10703807E+03</rscale>
<asrwt>0</asrwt>
<pdfrwt beam="1">  1        2 0.34551906E+00 0.12643328E+03</pdfrwt>
<pdfrwt beam="2">  1        2 0.53184101E-01 0.90618135E+02</pdfrwt>
<totfact> 0.87670530E+01</totfact>
</mgrwt>
</event>
<event>
13    1  0.1589573E-008  0.1220733E+03  0.7546771E-02  0.1310052E+00
          2   -1    0    0  503    0  0.00000000000E+00  0.00000000000E+00  0.18186469346E+04  0.18186469346E+04  0.00000000000E+00 0. -1.
          2   -1    0    0  502    0 -0.00000000000E+00 -0.00000000000E+00 -0.83932638250E+03  0.83932638250E+03  0.00000000000E+00 0. -1.
         24    2    1    2    0    0 -0.22000669363E+03 -0.15619763951E+03 -0.63011100207E+02  0.28875456543E+03  0.81290543590E+02 0.  0.
         25    2    1    2    0    0  0.45420636516E+02  0.28266159767E+03  0.58847975287E+03  0.66625136703E+03  0.12498740540E+03 0.  0.
         24    2    1    2    0    0  0.28563490600E+02  0.43687610786E+01 -0.14497617435E+02  0.85797157663E+02  0.79473343223E+02 0.  0.
        -11    1    5    5    0    0 -0.11204392368E+01 -0.16134483493E+02  0.26587812491E+02  0.31120551324E+02  0.00000000000E+00 0.  1.
         12    1    5    5    0    0  0.29683929837E+02  0.20503244571E+02 -0.41085429926E+02  0.54676606339E+02  0.00000000000E+00 0. -1.
        -13    1    3    3    0    0 -0.10513332692E+03 -0.84653649557E+02 -0.72267937324E+02  0.15310751640E+03  0.00000000000E+00 0.  1.
         14    1    3    3    0    0 -0.11487336671E+03 -0.71543989953E+02  0.92568371165E+01  0.13564704903E+03  0.00000000000E+00 0. -1.
          5    1    4    4  501    0  0.43727457787E+02  0.28068528009E+03  0.48102359951E+03  0.55866099766E+03  0.47000000000E+01 0.  1.
         -5    1    4    4    0  501  0.16931787289E+01  0.19763175856E+01  0.10745615336E+03  0.10759036937E+03  0.47000000000E+01 0.  1.
          1    1    1    2  502    0  0.14128977523E+03 -0.68878882233E+02 -0.56270432171E+03  0.58424588546E+03  0.00000000000E+00 0. -1.
          1    1    1    2  503    0  0.47327912827E+01 -0.61953837008E+02  0.10310538386E+04  0.10329243415E+04  0.00000000000E+00 0. -1.
<mgrwt>
<rscale>  0 0.87091601E+02</rscale>
<asrwt>0</asrwt>
<pdfrwt beam="1">  1        2 0.26744808E+00 0.62134348E+02</pdfrwt>
<pdfrwt beam="2">  1        2 0.12343035E+00 0.12207333E+03</pdfrwt>
<totfact> 0.66569410E+01</totfact>
</mgrwt>
</event>
<event>
13    1  0.1589573E-008  0.8954495E+02  0.7546771E-02  0.1312273E+00
          2   -1    0    0  502    0  0.00000000000E+00  0.00000000000E+00  0.96425599407E+03  0.96425599407E+03  0.00000000000E+00 0. -1.
          2   -1    0    0  503    0 -0.00000000000E+00 -0.00000000000E+00 -0.17257902335E+04  0.17257902335E+04  0.00000000000E+00 0. -1.
         24    2    1    2    0    0  0.32681717870E+02 -0.23532175735E+02 -0.29259995458E+03  0.30628124178E+03  0.81065452998E+02 0.  0.
         25    2    1    2    0    0 -0.55330011291E+02  0.14935261770E+03  0.25704570434E+03  0.32720800847E+03  0.12499988850E+03 0.  0.
         24    2    1    2    0    0 -0.61229242138E+02 -0.83775657790E+02 -0.11448302555E+03  0.17405297745E+03  0.80129238664E+02 0.  0.
        -11    1    5    5    0    0 -0.15122947645E+02 -0.64320302974E+02 -0.10354164714E+03  0.12282783729E+03  0.00000000000E+00 0.  1.
         12    1    5    5    0    0 -0.46106294494E+02 -0.19455354816E+02 -0.10941378408E+02  0.51225140160E+02  0.00000000000E+00 0. -1.
        -13    1    3    3    0    0  0.70894645782E+01 -0.33349626932E+02 -0.41589876623E+02  0.53778954639E+02  0.00000000000E+00 0.  1.
         14    1    3    3    0    0  0.25592253292E+02  0.98174511976E+01 -0.25101007796E+03  0.25250228715E+03  0.00000000000E+00 0. -1.
          5    1    4    4  501    0 -0.88470893018E+01 -0.71202719436E+01  0.99647338396E+02  0.10040244674E+03  0.47000000000E+01 0. -1.
         -5    1    4    4    0  501 -0.46482921989E+02  0.15647288965E+03  0.15739836594E+03  0.22680556173E+03  0.47000000000E+01 0. -1.
          1    1    1    2  502    0  0.40192950716E+01 -0.82920608159E+02  0.63116834211E+03  0.63660463247E+03  0.00000000000E+00 0. -1.
          1    1    1    2  503    0  0.79858240487E+02  0.40875823980E+02 -0.12426653057E+04  0.12458993674E+04  0.00000000000E+00 0. -1.
<mgrwt>
<rscale>  0 0.86219717E+02</rscale>
<asrwt>0</asrwt>
<pdfrwt beam="1">  1        2 0.14180235E+00 0.83017962E+02</pdfrwt>
<pdfrwt beam="2">  1        2 0.25379268E+00 0.89544953E+02</pdfrwt>
<totfact> 0.60701276E+01</totfact>
</mgrwt>
</event>
<event>
13    1  0.1589573E-008  0.8279053E+02  0.7546771E-02  0.1352324E+00
          2   -1    0    0  503    0  0.00000000000E+00  0.00000000000E+00  0.15747847501E+04  0.15747847501E+04  0.00000000000E+00 0. -1.
          2   -1    0    0  502    0 -0.00000000000E+00 -0.00000000000E+00 -0.17662242336E+04  0.17662242336E+04  0.00000000000E+00 0. -1.
         24    2    1    2    0    0  0.42026595024E+03  0.19216056355E+03  0.52301370818E+01  0.47106902498E+03  0.91266208721E+02 0.  0.
         25    2    1    2    0    0 -0.94444904930E+02 -0.57996650182E+01 -0.81511787897E+03  0.83005780925E+03  0.12500133556E+03 0.  0.
         24    2    1    2    0    0 -0.24971721981E+03 -0.17041841615E+03  0.57932677895E+03  0.65999400270E+03  0.92582073649E+02 0.  0.
        -11    1    3    3    0    0  0.81343621066E+01  0.13613714279E+02 -0.14503160464E+02  0.21490526443E+02  0.00000000000E+00 0.  1.
         12    1    3    3    0    0  0.41213158813E+03  0.17854684927E+03  0.19733297546E+02  0.44957849854E+03  0.00000000000E+00 0. -1.
        -13    1    5    5    0    0 -0.20409574683E+03 -0.92519388892E+02  0.37948862503E+03  0.44071138824E+03  0.00000000000E+00 0.  1.
         14    1    5    5    0    0 -0.45621472984E+02 -0.77899027259E+02  0.19983815392E+03  0.21928261446E+03  0.00000000000E+00 0. -1.
          5    1    4    4  501    0 -0.10410365878E+03  0.38380247197E+02 -0.55621833611E+03  0.56719621170E+03  0.47000000000E+01 0. -1.
         -5    1    4    4    0  501  0.96587538464E+01 -0.44179912215E+02 -0.25889954286E+03  0.26286159755E+03  0.47000000000E+01 0. -1.
          1    1    1    2  502    0 -0.43875043570E+02 -0.70309781125E+02 -0.66640391763E+03  0.67153753894E+03  0.00000000000E+00 0. -1.
          1    1    1    2  503    0 -0.32228781927E+02  0.54367298748E+02  0.70552539711E+03  0.70835060777E+03  0.00000000000E+00 0. -1.
<mgrwt>
<rscale>  0 0.72336232E+02</rscale>
<asrwt>0</asrwt>
<pdfrwt beam="1">  1        2 0.23158600E+00 0.63202038E+02</pdfrwt>
<pdfrwt beam="2">  1        2 0.25973886E+00 0.82790534E+02</pdfrwt>
<totfact> 0.28766100E+01</totfact>
</mgrwt>
</event>
<event>
13    1  0.1589573E-008  0.1524744E+03  0.7546771E-02  0.1263895E+00
          2   -1    0    0  503    0  0.00000000000E+00  0.00000000000E+00  0.60283838116E+03  0.60283838116E+03  0.00000000000E+00 0. -1.
          2   -1    0    0  502    0 -0.00000000000E+00 -0.00000000000E+00 -0.13689989846E+04  0.13689989846E+04  0.00000000000E+00 0. -1.
         24    2    1    2    0    0  0.18776084742E+02 -0.46728023895E+01 -0.32633087451E+03  0.33816365811E+03  0.86535793554E+02 0.  0.
         25    2    1    2    0    0 -0.12737899766E+03  0.65468246923E+02  0.69909992491E+02  0.20254233941E+03  0.12499796720E+03 0.  0.
         24    2    1    2    0    0  0.13164416980E+01  0.13050347907E+02 -0.13320327851E+03  0.15541064484E+03  0.78976645446E+02 0.  0.
        -11    1    5    5    0    0 -0.21306943880E+02  0.38957343275E+02 -0.88423547591E+02  0.98946370430E+02  0.00000000000E+00 0.  1.
         12    1    5    5    0    0  0.22623385578E+02 -0.25906995368E+02 -0.44779730914E+02  0.56464274410E+02  0.00000000000E+00 0. -1.
        -11    1    3    3    0    0  0.17082722278E+01 -0.35526755916E+02 -0.61889839668E+02  0.71382216511E+02  0.00000000000E+00 0.  1.
         12    1    3    3    0    0  0.17067812514E+02  0.30853953526E+02 -0.26444103484E+03  0.26678144160E+03  0.00000000000E+00 0. -1.
          5    1    4    4  501    0 -0.14611497085E+03  0.79047258425E+02  0.64830273429E+02  0.17839032520E+03  0.47000000000E+01 0.  1.
         -5    1    4    4    0  501  0.18735973192E+02 -0.13579011502E+02  0.50797190620E+01  0.24152014214E+02  0.47000000000E+01 0.  1.
          1    1    1    2  502    0  0.35156073702E+02  0.68298493964E+02 -0.81012618802E+03  0.81375983822E+03  0.00000000000E+00 0. -1.
          1    1    1    2  503    0  0.72130397516E+02 -0.14214428641E+03  0.43358974509E+03  0.46196088519E+03  0.00000000000E+00 0. -1.
<mgrwt>
<rscale>  0 0.10822390E+03</rscale>
<asrwt>0</asrwt>
<pdfrwt beam="1">  1        2 0.88652703E-01 0.15247444E+03</pdfrwt>
<pdfrwt beam="2">  1        2 0.20132338E+00 0.76815583E+02</pdfrwt>
<totfact> 0.15811807E+02</totfact>
</mgrwt>
</event>
<event>
13    1  0.1589573E-008  0.1023659E+03  0.7546771E-02  0.1427059E+00
          2   -1    0    0  502    0  0.00000000000E+00  0.00000000000E+00  0.14861232063E+04  0.14861232063E+04  0.00000000000E+00 0. -1.
          2   -1    0    0  503    0 -0.00000000000E+00 -0.00000000000E+00 -0.14662395595E+04  0.14662395595E+04  0.00000000000E+00 0. -1.
         24    2    1    2    0    0 -0.77035526391E+02 -0.63268029889E+02 -0.35528308477E+03  0.37724333104E+03  0.78416481403E+02 0.  0.
         25    2    1    2    0    0 -0.66389441531E+02  0.17538524347E+03  0.63387055488E+03  0.67274496220E+03  0.12500544887E+03 0.  0.
         24    2    1    2    0    0  0.10366760466E+03 -0.11853778039E+02  0.29743692059E+02  0.13633726697E+03  0.82557124695E+02 0.  0.
        -11    1    5    5    0    0 -0.11369208855E+02 -0.10264698636E+02  0.12974294931E+02  0.20073745964E+02  0.00000000000E+00 0.  1.
         12    1    5    5    0    0  0.11503681351E+03 -0.15890794032E+01  0.16769397128E+02  0.11626352100E+03  0.00000000000E+00 0. -1.
        -13    1    3    3    0    0 -0.12687102733E+01 -0.26857208814E+02 -0.26008954899E+02  0.37408355029E+02  0.00000000000E+00 0.  1.
         14    1    3    3    0    0 -0.75766816117E+02 -0.36410821075E+02 -0.32927412988E+03  0.33983497601E+03  0.00000000000E+00 0. -1.
          5    1    4    4  501    0 -0.10091364378E+03  0.10121376740E+03  0.38277412059E+03  0.40861461991E+03  0.47000000000E+01 0. -1.
         -5    1    4    4    0  501  0.34524202250E+02  0.74171476078E+02  0.25109643428E+03  0.26413034228E+03  0.47000000000E+01 0. -1.
          1    1    1    2  502    0  0.61101136878E+02 -0.82112132879E+02  0.73505733301E+03  0.74214892987E+03  0.00000000000E+00 0. -1.
          1    1    1    2  503    0 -0.21343773613E+02 -0.18151302667E+02 -0.10235048484E+04  0.10238882757E+04  0.00000000000E+00 0. -1.
<mgrwt>
<rscale>  0 0.53554853E+02</rscale>
<asrwt>0</asrwt>
<pdfrwt beam="1">  1        2 0.21854753E+00 0.10236595E+03</pdfrwt>
<pdfrwt beam="2">  1        2 0.21562347E+00 0.28018324E+02</pdfrwt>
<totfact> 0.46638237E+01</totfact>
</mgrwt>
</event>
<event>
13    1  0.1589573E-008  0.1578150E+03  0.7546771E-02  0.1284292E+00
          2   -1    0    0  503    0  0.00000000000E+00  0.00000000000E+00  0.79807679914E+03  0.79807679914E+03  0.00000000000E+00 0. -1.
         -1   -1    0    0    0  501 -0.00000000000E+00 -0.00000000000E+00 -0.54853254761E+03  0.54853254761E+03  0.00000000000E+00 0.  1.
         24    2    1    2    0    0  0.18275612422E+03  0.56355345515E+02 -0.17661170386E+03  0.27232540974E+03  0.79960671231E+02 0.  0.
         25    2    1    2    0    0 -0.34901485792E+03 -0.49686237227E+02  0.16880741850E+03  0.41036515612E+03  0.12499409426E+03 0.  0.
         24    2    1    2    0    0  0.69773498595E+01 -0.34884712862E+02  0.23766014248E+03  0.25275130532E+03  0.78327852098E+02 0.  0.
        -11    1    5    5    0    0  0.38867034683E+02 -0.32593378841E+02  0.10973653764E+03  0.12089285513E+03  0.00000000000E+00 0.  1.
         12    1    5    5    0    0 -0.31889684823E+02 -0.22913340212E+01  0.12792360485E+03  0.13185845019E+03  0.00000000000E+00 0. -1.
        -13    1    3    3    0    0  0.11942236022E+03  0.75259634189E+02 -0.12268547528E+03  0.18702256148E+03  0.00000000000E+00 0.  1.
         14    1    3    3    0    0  0.63333764002E+02 -0.18904288673E+02 -0.53926228578E+02  0.85302848262E+02  0.00000000000E+00 0. -1.
          5    1    4    4  502    0 -0.64708896610E+02 -0.22158753874E+02  0.91648493079E+02  0.11445430511E+03  0.47000000000E+01 0. -1.
         -5    1    4    4    0  502 -0.28430596131E+03 -0.27527483353E+02  0.77158925420E+02  0.29591085102E+03  0.47000000000E+01 0. -1.
          1    1    1    2  503    0  0.54907251707E+01  0.60761998359E+02  0.17794121369E+03  0.18810965961E+03  0.00000000000E+00 0. -1.
         -2    1    1    2    0  501  0.15379065867E+03 -0.32546393786E+02 -0.15825281929E+03  0.22305781595E+03  0.00000000000E+00 0.  1.
<mgrwt>
<rscale>  0 0.98123529E+02</rscale>
<asrwt>0</asrwt>
<pdfrwt beam="1">  1        2 0.11736424E+00 0.61009577E+02</pdfrwt>
<pdfrwt beam="2">  1       -1 0.80666551E-01 0.15781501E+03</pdfrwt>
<totfact> 0.74694933E+01</totfact>
</mgrwt>
</event>
<event>
13    1  0.1589573E-008  0.1527335E+03  0.7546771E-02  0.1201779E+00
         -1   -1    0    0    0  501 -0.00000000000E+00  0.00000000000E+00  0.94425416095E+03  0.94425416095E+03  0.00000000000E+00 0.  1.
          2   -1    0    0  503    0  0.00000000000E+00 -0.00000000000E+00 -0.17013474644E+04  0.17013474644E+04  0.00000000000E+00 0. -1.
         24    2    1    2    0    0  0.26880505741E+02  0.51392504931E+02  0.11667789138E+03  0.15299751657E+03  0.80192010744E+02 0.  0.
         25    2    1    2    0    0  0.16384877293E+03  0.85654327287E+02 -0.53942806732E+03  0.58377958554E+03  0.12503151809E+03 0.  0.
         24    2    1    2    0    0  0.32553842127E+02 -0.13437216551E+03  0.77245820872E+02  0.17689437244E+03  0.78797656425E+02 0.  0.
        -11    1    5    5    0    0  0.84639555225E+01 -0.22525035501E+01  0.35043774818E+02  0.36121717412E+02  0.00000000000E+00 0.  1.
         12    1    5    5    0    0  0.24089886605E+02 -0.13211966196E+03  0.42202046055E+02  0.14077265503E+03  0.00000000000E+00 0. -1.
        -11    1    3    3    0    0  0.47518696720E+02  0.45478085002E+01  0.54078676924E+02  0.72133296043E+02  0.00000000000E+00 0.  1.
         12    1    3    3    0    0 -0.20638190980E+02  0.46844696430E+02  0.62599214460E+02  0.80864220528E+02  0.00000000000E+00 0. -1.
          5    1    4    4  502    0  0.12673346660E+03  0.13285929086E+02 -0.42210907747E+03  0.44094903419E+03  0.47000000000E+01 0.  1.
         -5    1    4    4    0  502  0.37115306331E+02  0.72368398201E+02 -0.11731898985E+03  0.14283055136E+03  0.47000000000E+01 0.  1.
          1    1    1    2  503    0 -0.32020179825E+02 -0.14202940843E+03 -0.10453439274E+04  0.10554343046E+04  0.00000000000E+00 0. -1.
         -2    1    1    2    0  501 -0.19126294097E+03  0.13935474172E+03  0.63375497896E+03  0.67649584624E+03  0.00000000000E+00 0.  1.
<mgrwt>
<rscale>  0 0.14894208E+03</rscale>
<asrwt>0</asrwt>
<pdfrwt beam="2">  1        2 0.25019816E+00 0.14524480E+03</pdfrwt>
<pdfrwt beam="1">  1       -1 0.13886091E+00 0.15273348E+03</pdfrwt>
<totfact> 0.68224533E+00</totfact>
</mgrwt>
</event>
<event>
13    1  0.1589573E-008  0.8143023E+02  0.7546771E-02  0.1364583E+00
          2   -1    0    0  503    0  0.00000000000E+00  0.00000000000E+00  0.72724783783E+03  0.72724783783E+03  0.00000000000E+00 0. -1.
          2   -1    0    0  502    0 -0.00000000000E+00 -0.00000000000E+00 -0.37649900957E+04  0.37649900957E+04  0.00000000000E+00 0. -1.
         24    2    1    2    0    0  0.43940396782E+02 -0.85863071042E+02 -0.21054626361E+03  0.24576776463E+03  0.82272957714E+02 0.  0.
         25    2    1    2    0    0  0.11357120996E+03  0.19003293074E+03  0.45359744049E+03  0.51999236335E+03  0.12502193976E+03 0.  0.
         24    2    1    2    0    0 -0.55727275187E+02 -0.71558230826E+02 -0.82407868804E+03  0.83312862388E+03  0.82289186704E+02 0.  0.
        -11    1    3    3    0    0 -0.12636927710E+02 -0.47172654708E+02 -0.13598991566E+03  0.14449293566E+03  0.00000000000E+00 0.  1.
         12    1    3    3    0    0  0.56577324492E+02 -0.38690416335E+02 -0.74556347953E+02  0.10127482897E+03  0.00000000000E+00 0. -1.
        -11    1    5    5    0    0  0.20454187127E+02 -0.26775032482E+02 -0.19852486657E+03  0.20136384676E+03  0.00000000000E+00 0.  1.
         12    1    5    5    0    0 -0.76181462313E+02 -0.44783198345E+02 -0.62555382146E+03  0.63176477711E+03  0.00000000000E+00 0. -1.
          5    1    4    4  501    0 -0.12545536441E+02  0.51122232359E+02  0.41586424616E+02  0.67248745998E+02  0.47000000000E+01 0.  1.
         -5    1    4    4    0  501  0.12611674640E+03  0.13891069838E+03  0.41201101587E+03  0.45274361735E+03  0.47000000000E+01 0.  1.
          1    1    1    2  502    0 -0.23056448897E+02 -0.53170134417E+02 -0.26671246833E+04  0.26677542502E+04  0.00000000000E+00 0. -1.
          1    1    1    2  503    0 -0.78727882661E+02  0.20558505543E+02  0.21040993664E+03  0.22559493145E+03  0.00000000000E+00 0. -1.
<mgrwt>
<rscale>  0 0.68696474E+02</rscale>
<asrwt>0</asrwt>
<pdfrwt beam="1">  1        2 0.10694821E+00 0.81430232E+02</pdfrwt>
<pdfrwt beam="2">  1        2 0.55367503E+00 0.57953973E+02</pdfrwt>
<totfact> 0.79967279E+00</totfact>
</mgrwt>
</event>
<event>
13    1  0.1589573E-008  0.8519593E+02  0.7546771E-02  0.1361063E+00
          2   -1    0    0  503    0  0.00000000000E+00  0.00000000000E+00  0.12522068435E+04  0.12522068435E+04  0.00000000000E+00 0. -1.
          2   -1    0    0  502    0 -0.00000000000E+00 -0.00000000000E+00 -0.10280310625E+04  0.10280310625E+04  0.00000000000E+00 0. -1.
         24    2    1    2    0    0  0.12149817340E+03  0.85546466444E+01 -0.67416581487E+03  0.68975175336E+03  0.80143291691E+02 0.  0.
         25    2    1    2    0    0 -0.23658283948E+03 -0.12168163423E+02  0.48407310331E+03  0.55323679848E+03  0.12499872684E+03 0.  0.
         24    2    1    2    0    0  0.63011257830E+02 -0.47821818698E+02 -0.21306487520E+02  0.97261508334E+02  0.52426039675E+02 0.  0.
        -11    1    5    5    0    0  0.55957248135E+02 -0.14678444913E+02 -0.12067281982E+01  0.57862998166E+02  0.00000000000E+00 0.  1.
         12    1    5    5    0    0  0.70540096953E+01 -0.33143373785E+02 -0.20099759322E+02  0.39398510167E+02  0.00000000000E+00 0. -1.
        -13    1    3    3    0    0 -0.71792342944E+01  0.11273031207E+02 -0.12465572157E+03  0.12537013822E+03  0.00000000000E+00 0.  1.
         14    1    3    3    0    0  0.12867740769E+03 -0.27183845628E+01 -0.54951009330E+03  0.56438161513E+03  0.00000000000E+00 0. -1.
          5    1    4    4  501    0 -0.17152735478E+03  0.41290149041E+02  0.26401858777E+03  0.31757584060E+03  0.47000000000E+01 0.  1.
         -5    1    4    4    0  501 -0.65055484706E+02 -0.53458312465E+02  0.22005451553E+03  0.23566095788E+03  0.47000000000E+01 0.  1.
          1    1    1    2  502    0  0.46065304492E+02 -0.33652085960E+02 -0.24628875722E+03  0.25280946798E+03  0.00000000000E+00 0. -1.
          1    1    1    2  503    0  0.60081037640E+01  0.85087421437E+02  0.68186373739E+03  0.68717837783E+03  0.00000000000E+00 0. -1.
<mgrwt>
<rscale>  0 0.69715550E+02</rscale>
<asrwt>0</asrwt>
<pdfrwt beam="1">  1        2 0.18414807E+00 0.85195927E+02</pdfrwt>
<pdfrwt beam="2">  1        2 0.15118104E+00 0.57048008E+02</pdfrwt>
<totfact> 0.97980688E+01</totfact>
</mgrwt>
</event>
<event>
13    1  0.1589573E-008  0.1292585E+03  0.7546771E-02  0.1404773E+00
          2   -1    0    0  503    0  0.00000000000E+00  0.00000000000E+00  0.16060214821E+04  0.16060214821E+04  0.00000000000E+00 0. -1.
          2   -1    0    0  502    0 -0.00000000000E+00 -0.00000000000E+00 -0.15034554196E+04  0.15034554196E+04  0.00000000000E+00 0. -1.
         24    2    1    2    0    0  0.48398860344E+02  0.12214390057E+03 -0.38203387725E+03  0.41112709213E+03  0.76249723848E+02 0.  0.
         25    2    1    2    0    0 -0.17797127873E+03  0.80793436924E+02  0.28991056045E+03  0.37131458642E+03  0.12500013408E+03 0.  0.
         24    2    1    2    0    0  0.60770671594E+02 -0.10212011750E+03 -0.15398619261E+03  0.20705117704E+03  0.70970764950E+02 0.  0.
        -13    1    3    3    0    0  0.59705540678E+02  0.12636134507E+03 -0.34783167822E+03  0.37485839659E+03  0.00000000000E+00 0.  1.
         14    1    3    3    0    0 -0.11306680335E+02 -0.42174444945E+01 -0.34202199023E+02  0.36268695541E+02  0.00000000000E+00 0. -1.
        -13    1    5    5    0    0  0.73479501172E+02 -0.99598430526E+02 -0.12822612472E+03  0.17821622686E+03  0.00000000000E+00 0.  1.
         14    1    5    5    0    0 -0.12708829578E+02 -0.25216869705E+01 -0.25760067888E+02  0.28834950183E+02  0.00000000000E+00 0. -1.
          5    1    4    4  501    0 -0.13874433200E+03  0.15044146138E+02  0.11707544383E+03  0.18222257144E+03  0.47000000000E+01 0.  1.
         -5    1    4    4    0  501 -0.39226946734E+02  0.65749290787E+02  0.17283511662E+03  0.18909201497E+03  0.47000000000E+01 0.  1.
          1    1    1    2  502    0  0.50020957682E+02 -0.11932060841E+03 -0.88078697799E+03  0.89023884683E+03  0.00000000000E+00 0. -1.
          1    1    1    2  503    0  0.18780789115E+02  0.18503388406E+02  0.12294625499E+04  0.12297451993E+04  0.00000000000E+00 0. -1.
<mgrwt>
<rscale>  0 0.58376812E+02</rscale>
<asrwt>0</asrwt>
<pdfrwt beam="1">  1        2 0.23617963E+00 0.26364624E+02</pdfrwt>
<pdfrwt beam="2">  1        2 0.22109638E+00 0.12925852E+03</pdfrwt>
<totfact> 0.38975832E+01</totfact>
</mgrwt>
</event>
<event>
13    1  0.1589573E-008  0.9615922E+02  0.7546771E-02  0.1372262E+00
          2   -1    0    0  503    0  0.00000000000E+00  0.00000000000E+00  0.11571675034E+04  0.11571675034E+04  0.00000000000E+00 0. -1.
          2   -1    0    0  502    0 -0.00000000000E+00 -0.00000000000E+00 -0.36691559380E+03  0.36691559380E+03  0.00000000000E+00 0. -1.
         24    2    1    2    0    0  0.20512656518E+02  0.48445315416E+02 -0.46178446630E+02  0.96719717379E+02  0.66742318911E+02 0.  0.
         25    2    1    2    0    0  0.60432743387E+02 -0.24055792678E+02  0.13056135905E+03  0.19211945656E+03  0.12503127400E+03 0.  0.
         24    2    1    2    0    0 -0.25539100159E+02 -0.72445083539E+02 -0.87712184738E+02  0.14284987348E+03  0.82535587688E+02 0.  0.
        -13    1    3    3    0    0 -0.18250403751E+02  0.13301715489E+01  0.27602933033E+01  0.18505831852E+02  0.00000000000E+00 0.  1.
         14    1    3    3    0    0  0.38763060269E+02  0.47115143867E+02 -0.48938739934E+02  0.78213885527E+02  0.00000000000E+00 0. -1.
        -13    1    5    5    0    0 -0.22726685415E+02  0.13549576048E+02 -0.16692502845E+02  0.31284707003E+02  0.00000000000E+00 0.  1.
         14    1    5    5    0    0 -0.28124147437E+01 -0.85994659587E+02 -0.71019681893E+02  0.11156516647E+03  0.00000000000E+00 0. -1.
          5    1    4    4  501    0  0.20557931406E+01  0.25993646612E+02  0.10892421055E+03  0.11210026581E+03  0.47000000000E+01 0.  1.
         -5    1    4    4    0  501  0.58376950247E+02 -0.50049439290E+02  0.21637148496E+02  0.80019190751E+02  0.47000000000E+01 0.  1.
          1    1    1    2  502    0 -0.60268825796E+02  0.93845492972E+02 -0.12793661260E+03  0.16972649987E+03  0.00000000000E+00 0. -1.
          1    1    1    2  503    0  0.48625260498E+01 -0.45789932171E+02  0.92151779449E+03  0.92266754988E+03  0.00000000000E+00 0. -1.
<mgrwt>
<rscale>  0 0.66542323E+02</rscale>
<asrwt>0</asrwt>
<pdfrwt beam="1">  1        2 0.17017169E+00 0.46047389E+02</pdfrwt>
<pdfrwt beam="2">  1        2 0.53958176E-01 0.96159215E+02</pdfrwt>
<totfact> 0.36014272E+02</totfact>
</mgrwt>
</event>
<event>
13    1  0.1589573E-008  0.1423328E+03  0.7546771E-02  0.1322174E+00
          2   -1    0    0  503    0  0.00000000000E+00  0.00000000000E+00  0.98042526037E+03  0.98042526037E+03  0.00000000000E+00 0. -1.
          2   -1    0    0  502    0 -0.00000000000E+00 -0.00000000000E+00 -0.18969526917E+04  0.18969526917E+04  0.00000000000E+00 0. -1.
         24    2    1    2    0    0  0.52008230443E+02 -0.20770602422E+01 -0.18144926989E+03  0.20545415456E+03  0.81107347811E+02 0.  0.
         25    2    1    2    0    0 -0.35083335842E+02  0.10489216774E+03  0.51706604797E+03  0.54333690485E+03  0.12499794758E+03 0.  0.
         24    2    1    2    0    0 -0.79019376640E+02  0.79300996625E+02 -0.32206987382E+03  0.35020457009E+03  0.79884462419E+02 0.  0.
        -13    1    3    3    0    0  0.16536188335E+02 -0.21013971821E+02 -0.15508050382E+03  0.15736897789E+03  0.00000000000E+00 0.  1.
         14    1    3    3    0    0  0.35472042108E+02  0.18936911578E+02 -0.26368766070E+02  0.48085176671E+02  0.00000000000E+00 0. -1.
        -13    1    5    5    0    0 -0.64943357442E+02  0.87238854291E+01 -0.15745642612E+03  0.17054697880E+03  0.00000000000E+00 0.  1.
         14    1    5    5    0    0 -0.14076019198E+02  0.70577111196E+02 -0.16461344770E+03  0.17965759129E+03  0.00000000000E+00 0. -1.
          5    1    4    4  501    0 -0.72778653716E+02  0.10458252716E+03  0.36618668977E+03  0.38774865466E+03  0.47000000000E+01 0.  1.
         -5    1    4    4    0  501  0.37695317874E+02  0.30964058508E+00  0.15087935820E+03  0.15558825019E+03  0.47000000000E+01 0.  1.
          1    1    1    2  502    0  0.18730929072E+02 -0.20220107152E+03 -0.13452374211E+04  0.13604777985E+04  0.00000000000E+00 0. -1.
          1    1    1    2  503    0  0.43363552966E+02  0.20084967392E+02  0.41516308553E+03  0.41790452406E+03  0.00000000000E+00 0. -1.
<mgrwt>
<rscale>  0 0.82474034E+02</rscale>
<asrwt>0</asrwt>
<pdfrwt beam="1">  1        2 0.14418019E+00 0.47789158E+02</pdfrwt>
<pdfrwt beam="2">  1        2 0.27896363E+00 0.14233283E+03</pdfrwt>
<totfact> 0.48268026E+01</totfact>
</mgrwt>
</event>
<event>
13    1  0.1589573E-008  0.8124568E+02  0.7546771E-02  0.1386278E+00
          2   -1    0    0  502    0  0.00000000000E+00  0.00000000000E+00  0.33935384960E+04  0.33935384960E+04  0.00000000000E+00 0. -1.
          2   -1    0    0  503    0 -0.00000000000E+00 -0.00000000000E+00 -0.14244570966E+04  0.14244570966E+04  0.00000000000E+00 0. -1.
         24    2    1    2    0    0  0.16448184591E+03 -0.87411940393E+02 -0.29236705646E+03  0.35635915270E+03  0.82572544186E+02 0.  0.
         25    2    1    2    0    0 -0.58979185599E+02 -0.83866829564E+02  0.91450180558E+03  0.92868220026E+03  0.12499954894E+03 0.  0.
         24    2    1    2    0    0 -0.87035514454E+02  0.73216310789E+02  0.16793620727E+03  0.21780439253E+03  0.79374900010E+02 0.  0.
        -11    1    5    5    0    0  0.14748831525E+02  0.33560517646E+01  0.15656183707E+02  0.21769409801E+02  0.00000000000E+00 0.  1.
         12    1    5    5    0    0 -0.10178434598E+03  0.69860259024E+02  0.15228002356E+03  0.19603498273E+03  0.00000000000E+00 0. -1.
        -13    1    3    3    0    0  0.85085495986E+02 -0.68991776660E+02 -0.10370793682E+03  0.15084675347E+03  0.00000000000E+00 0.  1.
         14    1    3    3    0    0  0.79396349928E+02 -0.18420163733E+02 -0.18865911964E+03  0.20551239923E+03  0.00000000000E+00 0. -1.
          5    1    4    4  501    0  0.22634617649E+02 -0.36563678836E+02  0.10317908387E+03  0.11188048031E+03  0.47000000000E+01 0.  1.
         -5    1    4    4    0  501 -0.81613803248E+02 -0.47303150729E+02  0.81132272172E+03  0.81680171996E+03  0.47000000000E+01 0.  1.
          1    1    1    2  502    0 -0.51737583823E+02  0.62626078823E+02  0.22457924099E+04  0.22472610777E+04  0.00000000000E+00 0. -1.
          1    1    1    2  503    0  0.33270437962E+02  0.35436380345E+02 -0.10667819668E+04  0.10678887694E+04  0.00000000000E+00 0. -1.
<mgrwt>
<rscale>  0 0.62842060E+02</rscale>
<asrwt>0</asrwt>
<pdfrwt beam="1">  1        2 0.49904978E+00 0.81245683E+02</pdfrwt>
<pdfrwt beam="2">  1        2 0.20947898E+00 0.48607192E+02</pdfrwt>
<totfact> 0.52244897E+00</totfact>
</mgrwt>
</event>
<event>
13    1  0.1589573E-008  0.1068520E+03  0.7546771E-02  0.1272907E+00
         -3   -1    0    0    0  501 -0.00000000000E+00  0.00000000000E+00  0.12609224441E+04  0.12609224441E+04  0.00000000000E+00 0.  1.
          2   -1    0    0  503    0  0.00000000000E+00 -0.00000000000E+00 -0.19657618311E+04  0.19657618311E+04  0.00000000000E+00 0. -1.
         24    2    1    2    0    0 -0.67455175741E+01 -0.82148887226E+02  0.14102198847E+03  0.18178093891E+03  0.79769460560E+02 0.  0.
         25    2    1    2    0    0 -0.27049445681E+02  0.13300743088E+03 -0.61773285489E+02  0.19458616326E+03  0.12500074780E+03 0.  0.
         24    2    1    2    0    0  0.72341023482E+02 -0.75943629968E+02 -0.86613309915E+03  0.87669843281E+03  0.86098420724E+02 0.  0.
        -11    1    3    3    0    0 -0.18239607101E+02  0.47360760134E+01  0.58282254156E+02  0.61253039375E+02  0.00000000000E+00 0.  1.
         12    1    3    3    0    0  0.11494089527E+02 -0.86884963239E+02  0.82739734317E+02  0.12052789953E+03  0.00000000000E+00 0. -1.
        -11    1    5    5    0    0  0.90946357551E+02 -0.72397367962E+02 -0.76896327766E+03  0.77769990435E+03  0.00000000000E+00 0.  1.
         12    1    5    5    0    0 -0.18605334069E+02 -0.35462620069E+01 -0.97169821489E+02  0.98998528465E+02  0.00000000000E+00 0. -1.
          5    1    4    4  502    0 -0.54431077958E+02  0.70247483087E+01 -0.24605874254E+02  0.60329332702E+02  0.47000000000E+01 0.  1.
         -5    1    4    4    0  502  0.27381632277E+02  0.12598268257E+03 -0.37167411235E+02  0.13425683056E+03  0.47000000000E+01 0.  1.
          1    1    1    2  503    0  0.48520626655E+02 -0.87945696349E+02 -0.93814176304E+03  0.94350339918E+03  0.00000000000E+00 0. -1.
         -4    1    1    2    0  501 -0.87066686883E+02  0.11303078267E+03  0.10201867722E+04  0.10301153411E+04  0.00000000000E+00 0.  1.
<mgrwt>
<rscale>  0 0.10359771E+03</rscale>
<asrwt>0</asrwt>
<pdfrwt beam="2">  1        2 0.28908262E+00 0.10044250E+03</pdfrwt>
<pdfrwt beam="1">  1       -3 0.18542977E+00 0.10685202E+03</pdfrwt>
<totfact> 0.11798425E+00</totfact>
</mgrwt>
</event>
<event>
13    1  0.1589573E-008  0.1008609E+03  0.7546771E-02  0.1415967E+00
         -1   -1    0    0    0  501 -0.00000000000E+00  0.00000000000E+00  0.28915169451E+03  0.28915169451E+03  0.00000000000E+00 0.  1.
          2   -1    0    0  503    0  0.00000000000E+00 -0.00000000000E+00 -0.13480655645E+04  0.13480655645E+04  0.00000000000E+00 0. -1.
         24    2    1    2    0    0  0.44298422661E+02 -0.30638265864E+01 -0.31389572631E+02  0.96660284745E+02  0.79913503825E+02 0.  0.
         25    2    1    2    0    0 -0.11946443234E+03  0.64706350347E+02  0.25175938950E+02  0.18632189712E+03  0.12499343613E+03 0.  0.
         24    2    1    2    0    0  0.99097859781E+02  0.51965482741E+01 -0.33033369500E+03  0.35478840802E+03  0.83108811090E+02 0.  0.
        -11    1    5    5    0    0 -0.14566481932E+02 -0.82698466906E+00 -0.25237954530E+02  0.29151683457E+02  0.00000000000E+00 0.  1.
         12    1    5    5    0    0  0.11366434171E+03  0.60235329431E+01 -0.30509574047E+03  0.32563672456E+03  0.00000000000E+00 0. -1.
        -13    1    3    3    0    0 -0.91887920456E+01  0.23619651455E+02  0.61456314778E+01  0.26078547129E+02  0.00000000000E+00 0.  1.
         14    1    3    3    0    0  0.53487214706E+02 -0.26683478041E+02 -0.37535204108E+02  0.70581737616E+02  0.00000000000E+00 0. -1.
          5    1    4    4  502    0  0.28884328995E+01 -0.89158978320E+01  0.41237458258E+02  0.42549432926E+02  0.47000000000E+01 0. -1.
         -5    1    4    4    0  502 -0.12235286524E+03  0.73622248179E+02 -0.16061519308E+02  0.14377246420E+03  0.47000000000E+01 0. -1.
          1    1    1    2  503    0 -0.35457679093E+02 -0.95576738445E+02 -0.85611399116E+03  0.86216200670E+03  0.00000000000E+00 0. -1.
         -2    1    1    2    0  501  0.11525828990E+02  0.28737666410E+02  0.13374744984E+03  0.13728466245E+03  0.00000000000E+00 0.  1.
<mgrwt>
<rscale>  0 0.55883294E+02</rscale>
<asrwt>0</asrwt>
<pdfrwt beam="2">  1        2 0.19824494E+00 0.10086095E+03</pdfrwt>
<pdfrwt beam="1">  1       -1 0.42522308E-01 0.30962852E+02</pdfrwt>
<totfact> 0.12036606E+02</totfact>
</mgrwt>
</event>
<event>
13    1  0.1589573E-008  0.7493235E+02  0.7546771E-02  0.1426111E+00
         -1   -1    0    0    0  501  0.00000000000E+00  0.00000000000E+00  0.61626090717E+03  0.61626090717E+03  0.00000000000E+00 0.  1.
         -1   -1    0    0    0  502 -0.00000000000E+00 -0.00000000000E+00 -0.84084440051E+03  0.84084440051E+03  0.00000000000E+00 0.  1.
         24    2    1    2    0    0 -0.37722007865E+01  0.25891478749E+02 -0.25414565226E+03  0.26807177017E+03  0.81165653026E+02 0.  0.
         25    2    1    2    0    0  0.46179012440E+02  0.11663564917E+03  0.24208240285E+03  0.29994301047E+03  0.12500217564E+03 0.  0.
         24    2    1    2    0    0 -0.38883049253E+02 -0.53457575618E+02  0.49705126991E+02  0.11603972884E+03  0.81394195799E+02 0.  0.
        -11    1    3    3    0    0  0.14205909018E+02 -0.25920591185E+02 -0.71462882086E+02  0.77334522785E+02  0.00000000000E+00 0.  1.
         12    1    3    3    0    0 -0.17978109805E+02  0.51812069935E+02 -0.18268277017E+03  0.19073724739E+03  0.00000000000E+00 0. -1.
        -11    1    5    5    0    0 -0.46641532790E+02  0.15282940695E+01  0.35739642433E+02  0.58780016204E+02  0.00000000000E+00 0.  1.
         12    1    5    5    0    0  0.77584835367E+01 -0.54985869688E+02  0.13965484558E+02  0.57259712635E+02  0.00000000000E+00 0. -1.
          5    1    4    4  503    0 -0.15080483173E+01 -0.10193923887E+02  0.11026749816E+03  0.11084764971E+03  0.47000000000E+01 0.  1.
         -5    1    4    4    0  503  0.47687060757E+02  0.12682957306E+03  0.13181490468E+03  0.18909536077E+03  0.47000000000E+01 0.  1.
         -2    1    1    2    0  501  0.31163979480E+02 -0.22698051338E+02  0.25122580515E+03  0.25416687496E+03  0.00000000000E+00 0.  1.
         -2    1    1    2    0  502 -0.34687741880E+02 -0.66371500968E+02 -0.51345117608E+03  0.51888392324E+03  0.00000000000E+00 0.  1.
<mgrwt>
<rscale>  0 0.53748734E+02</rscale>
<asrwt>0</asrwt>
<pdfrwt beam="1">  1       -1 0.90626605E-01 0.38553796E+02</pdfrwt>
<pdfrwt beam="2">  1       -1 0.12365359E+00 0.74932348E+02</pdfrwt>
<totfact> 0.75789659E+00</totfact>
</mgrwt>
</event>
<event>
13    1  0.1589573E-008  0.9209982E+02  0.7546771E-02  0.1404994E+00
          2   -1    0    0  503    0  0.00000000000E+00  0.00000000000E+00  0.25958195907E+04  0.25958195907E+04  0.00000000000E+00 0. -1.
          2   -1    0    0  502    0 -0.00000000000E+00 -0.00000000000E+00 -0.16582797970E+04  0.16582797970E+04  0.00000000000E+00 0. -1.
         24    2    1    2    0    0  0.40197252285E+02 -0.44592571290E+02 -0.21301412252E+03  0.23296928249E+03  0.72769180893E+02 0.  0.
         25    2    1    2    0    0  0.19136298182E+03  0.24528754369E+02  0.78676319703E+03  0.81966151709E+03  0.12500889484E+03 0.  0.
         24    2    1    2    0    0 -0.10694250057E+03  0.19674089570E+02  0.10463416921E+04  0.10552295605E+04  0.82793239939E+02 0.  0.
        -11    1    3    3    0    0  0.13382334141E+02 -0.34970980444E+02 -0.19650901789E+03  0.20004462115E+03  0.00000000000E+00 0.  1.
         12    1    3    3    0    0  0.26814918144E+02 -0.96215908460E+01 -0.16505104625E+02  0.32924661338E+02  0.00000000000E+00 0. -1.
        -13    1    5    5    0    0 -0.30213904567E+02 -0.28345548072E+02  0.21341211755E+03  0.21739614081E+03  0.00000000000E+00 0.  1.
         14    1    5    5    0    0 -0.76728596003E+02  0.48019637642E+02  0.83292957453E+03  0.83783341971E+03  0.00000000000E+00 0. -1.
          5    1    4    4  501    0  0.15758888546E+03  0.35675516492E+02  0.75381693215E+03  0.77095334262E+03  0.47000000000E+01 0. -1.
         -5    1    4    4    0  501  0.33774096357E+02 -0.11146762122E+02  0.32946264883E+02  0.48708174471E+02  0.47000000000E+01 0. -1.
          1    1    1    2  502    0 -0.90896471815E+02 -0.14684581574E+02 -0.14124289939E+04  0.14154269562E+04  0.00000000000E+00 0. -1.
          1    1    1    2  503    0 -0.33721261718E+02  0.15074308924E+02  0.72987802100E+03  0.73081207148E+03  0.00000000000E+00 0. -1.
<mgrwt>
<rscale>  0 0.58325906E+02</rscale>
<asrwt>0</asrwt>
<pdfrwt beam="1">  1        2 0.38173818E+00 0.36937221E+02</pdfrwt>
<pdfrwt beam="2">  1        2 0.24386467E+00 0.92099819E+02</pdfrwt>
<totfact> 0.11342424E+01</totfact>
</mgrwt>
</event>
<event>
13    1  0.1589573E-008  0.1365396E+03  0.7546771E-02  0.1262996E+00
          2   -1    0    0  502    0  0.00000000000E+00  0.00000000000E+00  0.18043938951E+04  0.18043938951E+04  0.00000000000E+00 0. -1.
          2   -1    0    0  503    0 -0.00000000000E+00 -0.00000000000E+00 -0.10420378048E+04  0.10420378048E+04  0.00000000000E+00 0. -1.
         24    2    1    2    0    0  0.39689242203E+02 -0.77216450552E+02 -0.98974775149E+02  0.15461606954E+03  0.81070997660E+02 0.  0.
         25    2    1    2    0    0  0.15257236959E+01 -0.18555877331E+03  0.28234638306E+03  0.36024782083E+03  0.12499850479E+03 0.  0.
         24    2    1    2    0    0 -0.31199746470E+02 -0.77962845361E+02  0.25613776049E+03  0.28191344035E+03  0.82565162533E+02 0.  0.
        -13    1    3    3    0    0  0.44347873033E+02 -0.15521546869E+02 -0.74503286434E+02  0.88081734481E+02  0.00000000000E+00 0.  1.
         14    1    3    3    0    0 -0.46586308306E+01 -0.61694903683E+02 -0.24471488715E+02  0.66534335058E+02  0.00000000000E+00 0. -1.
        -13    1    5    5    0    0  0.16493892146E+02 -0.66523530311E+02  0.15693884512E+03  0.17125194794E+03  0.00000000000E+00 0.  1.
         14    1    5    5    0    0 -0.47693638616E+02 -0.11439315050E+02  0.99198915368E+02  0.11066149241E+03  0.00000000000E+00 0. -1.
          5    1    4    4  501    0 -0.41136168267E+02 -0.94876518334E+01  0.51142085297E+02  0.66481597195E+02  0.47000000000E+01 0. -1.
         -5    1    4    4    0  501  0.42661891963E+02 -0.17607112147E+03  0.23120429777E+03  0.29376622363E+03  0.47000000000E+01 0. -1.
          1    1    1    2  502    0  0.54561172203E+02  0.11506515492E+03  0.11667679830E+04  0.11736969104E+04  0.00000000000E+00 0. -1.
          1    1    1    2  503    0 -0.64576391632E+02  0.22567291430E+03 -0.84392126113E+03  0.87595745879E+03  0.00000000000E+00 0. -1.
<mgrwt>
<rscale>  0 0.10870016E+03</rscale>
<asrwt>0</asrwt>
<pdfrwt beam="1">  1        2 0.26535204E+00 0.86536974E+02</pdfrwt>
<pdfrwt beam="2">  1        2 0.15324085E+00 0.13653960E+03</pdfrwt>
<totfact> 0.49164186E+01</totfact>
</mgrwt>
</event>
<event>
13    1  0.1589573E-008  0.9144993E+02  0.7546771E-02  0.1392601E+00
          2   -1    0    0  503    0  0.00000000000E+00  0.00000000000E+00  0.40400592476E+03  0.40400592476E+03  0.00000000000E+00 0. -1.
          2   -1    0    0  502    0 -0.00000000000E+00 -0.00000000000E+00 -0.16833334617E+04  0.16833334617E+04  0.00000000000E+00 0. -1.
         24    2    1    2    0    0 -0.39856740770E+02 -0.22961200936E+02 -0.17529385130E+03  0.20146919501E+03  0.88012077022E+02 0.  0.
         25    2    1    2    0    0 -0.61773911929E+02 -0.40979558038E+02  0.10666362414E+03  0.18027296915E+03  0.12500349723E+03 0.  0.
         24    2    1    2    0    0  0.69125006136E+02 -0.46576560630E+01 -0.92364974969E+02  0.14098947397E+03  0.80912192761E+02 0.  0.
        -11    1    3    3    0    0  0.70977459049E+01 -0.13791067742E+02 -0.14279131069E+03  0.14363122904E+03  0.00000000000E+00 0.  1.
         12    1    3    3    0    0 -0.46954486675E+02 -0.91701331945E+01 -0.32502540607E+02  0.57837965971E+02  0.00000000000E+00 0. -1.
        -13    1    5    5    0    0  0.33020694435E+02 -0.94563877545E+01 -0.98262935975E+02  0.10409319919E+03  0.00000000000E+00 0.  1.
         14    1    5    5    0    0  0.36104311700E+02  0.47987316915E+01  0.58979610065E+01  0.36896274788E+02  0.00000000000E+00 0. -1.
          5    1    4    4  501    0  0.11148454473E+01 -0.30986065113E+02 -0.20855077904E+02  0.37661696535E+02  0.47000000000E+01 0.  1.
         -5    1    4    4    0  501 -0.62888757376E+02 -0.99934929256E+01  0.12751870205E+03  0.14261127261E+03  0.47000000000E+01 0.  1.
          1    1    1    2  502    0  0.50751461524E+02  0.10536201069E+03 -0.13370084574E+04  0.13421134376E+04  0.00000000000E+00 0. -1.
          1    1    1    2  503    0 -0.18245814961E+02 -0.36763595656E+02  0.21867612258E+03  0.22249431075E+03  0.00000000000E+00 0. -1.
<mgrwt>
<rscale>  0 0.61264319E+02</rscale>
<asrwt>0</asrwt>
<pdfrwt beam="1">  1        2 0.59412636E-01 0.41042316E+02</pdfrwt>
<pdfrwt beam="2">  1        2 0.24754904E+00 0.91449925E+02</pdfrwt>
<totfact> 0.17000287E+02</totfact>
</mgrwt>
</event>
<event>
13    1  0.1589573E-008  0.5836172E+02  0.7546771E-02  0.1522273E+00
          2   -1    0    0  503    0  0.00000000000E+00  0.00000000000E+00  0.24362746398E+04  0.24362746398E+04  0.00000000000E+00 0. -1.
          2   -1    0    0  502    0 -0.00000000000E+00 -0.00000000000E+00 -0.23871572890E+03  0.23871572890E+03  0.00000000000E+00 0. -1.
         24    2    1    2    0    0  0.72031609109E+02 -0.10590362785E+03  0.41617197181E+03  0.44264077416E+03  0.79546299296E+02 0.  0.
         25    2    1    2    0    0 -0.26199498298E+02 -0.13840551435E+02 -0.52978565633E+00  0.12848184535E+03  0.12501731615E+03 0.  0.
         24    2    1    2    0    0 -0.75170559502E+02  0.98125361275E+02  0.21980032191E+03  0.26457398814E+03  0.80050072758E+02 0.  0.
        -11    1    3    3    0    0  0.22988134592E+02  0.69522379811E+01  0.38003841215E+02  0.44956422145E+02  0.00000000000E+00 0.  1.
         12    1    3    3    0    0  0.49043474517E+02 -0.11285586583E+03  0.37816813059E+03  0.39768435202E+03  0.00000000000E+00 0. -1.
        -13    1    5    5    0    0 -0.86176572007E+02  0.71731211175E+02  0.13734423264E+03  0.17729976441E+03  0.00000000000E+00 0.  1.
         14    1    5    5    0    0  0.11006012505E+02  0.26394150100E+02  0.82456089270E+02  0.87274223735E+02  0.00000000000E+00 0. -1.
          5    1    4    4  501    0  0.63263559350E+01  0.26620089746E+02  0.49166000902E+02  0.56462709838E+02  0.47000000000E+01 0.  1.
         -5    1    4    4    0  501 -0.32525854233E+02 -0.40460641181E+02 -0.49695786558E+02  0.72019135513E+02  0.47000000000E+01 0.  1.
          1    1    1    2  502    0 -0.24939468441E+02 -0.14229438453E+00 -0.13695955883E+03  0.13921177425E+03  0.00000000000E+00 0. -1.
          1    1    1    2  503    0  0.54277917132E+02  0.21761112389E+02  0.16990759617E+04  0.17000819868E+04  0.00000000000E+00 0. -1.
<mgrwt>
<rscale>  0 0.38151460E+02</rscale>
<asrwt>0</asrwt>
<pdfrwt beam="1">  1        2 0.35827567E+00 0.58361717E+02</pdfrwt>
<pdfrwt beam="2">  1        2 0.35105256E-01 0.24939874E+02</pdfrwt>
<totfact> 0.13137030E+02</totfact>
</mgrwt>
</event>
<event>
13    1  0.1589573E-008  0.9866901E+02  0.7546771E-02  0.1460299E+00
         -1   -1    0    0    0  501  0.00000000000E+00  0.00000000000E+00  0.51030532362E+03  0.51030532362E+03  0.00000000000E+00 0.  1.
         -3   -1    0    0    0  502 -0.00000000000E+00 -0.00000000000E+00 -0.60529920936E+03  0.60529920936E+03  0.00000000000E+00 0.  1.
         24    2    1    2    0    0 -0.15245660871E+03  0.10952144941E+03 -0.30268887812E+03  0.36508287506E+03  0.80168468277E+02 0.  0.
         25    2    1    2    0    0  0.24089119073E+03 -0.13514098271E+02 -0.83763029912E+02  0.28434286296E+03  0.12499368750E+03 0.  0.
         24    2    1    2    0    0  0.13234073359E+02 -0.62941059911E+01  0.56506481110E+02  0.99433542206E+02  0.80494039781E+02 0.  0.
        -11    1    3    3    0    0 -0.10763448314E+03  0.30379393436E+02 -0.14605703474E+03  0.18395854670E+03  0.00000000000E+00 0.  1.
         12    1    3    3    0    0 -0.44822125564E+02  0.79142055971E+02 -0.15663184338E+03  0.18112432836E+03  0.00000000000E+00 0. -1.
        -11    1    5    5    0    0  0.45259541216E+02  0.56988566728E+00  0.17570727414E+02  0.48553901003E+02  0.00000000000E+00 0.  1.
         12    1    5    5    0    0 -0.32025467857E+02 -0.68639916583E+01  0.38935753697E+02  0.50879641203E+02  0.00000000000E+00 0. -1.
          5    1    4    4  503    0  0.12536271046E+03  0.41889315784E+02 -0.82965572364E+02  0.15612783271E+03  0.47000000000E+01 0.  1.
         -5    1    4    4    0  503  0.11552848028E+03 -0.55403414055E+02 -0.79745754751E+00  0.12821503025E+03  0.47000000000E+01 0.  1.
         -2    1    1    2    0  501 -0.79035133954E+02 -0.91493008237E+02  0.28620194137E+03  0.31069128439E+03  0.00000000000E+00 0.  1.
         -4    1    1    2    0  502 -0.22633521433E+02  0.17797630921E+01 -0.51250400186E+02  0.56053968355E+02  0.00000000000E+00 0.  1.
<mgrwt>
<rscale>  0 0.47329915E+02</rscale>
<asrwt>0</asrwt>
<pdfrwt beam="1">  1       -1 0.75044901E-01 0.98669008E+02</pdfrwt>
<pdfrwt beam="2">  1       -3 0.89014589E-01 0.22703388E+02</pdfrwt>
<totfact> 0.95305745E+00</totfact>
</mgrwt>
</event>
<event>
13    1  0.1589573E-008  0.2085647E+03  0.7546771E-02  0.1272289E+00
          2   -1    0    0  502    0  0.00000000000E+00  0.00000000000E+00  0.21057274848E+04  0.21057274848E+04  0.00000000000E+00 0. -1.
          2   -1    0    0  503    0 -0.00000000000E+00 -0.00000000000E+00 -0.13178312772E+04  0.13178312772E+04  0.00000000000E+00 0. -1.
         24    2    1    2    0    0  0.46305753104E+02 -0.14378444485E+03 -0.13036095290E+03  0.21514239302E+03  0.80461679604E+02 0.  0.
         25    2    1    2    0    0  0.17806546711E+03 -0.16979442915E+03  0.57499302310E+03  0.63777774819E+03  0.12492405983E+03 0.  0.
         24    2    1    2    0    0  0.38479097923E+02  0.34134395362E+03 -0.40658751224E+03  0.53798217243E+03  0.78198958398E+02 0.  0.
        -13    1    3    3    0    0  0.54171036093E+02 -0.13144313780E+03 -0.13843018275E+03  0.19843063050E+03  0.00000000000E+00 0.  1.
         14    1    3    3    0    0 -0.78652829894E+01 -0.12341307048E+02  0.80692298508E+01  0.16711762521E+02  0.00000000000E+00 0. -1.
        -13    1    5    5    0    0  0.46131085393E+02  0.15886010466E+03 -0.15197695362E+03  0.22463660504E+03  0.00000000000E+00 0.  1.
         14    1    5    5    0    0 -0.76519874707E+01  0.18248384896E+03 -0.25461055862E+03  0.31334556739E+03  0.00000000000E+00 0. -1.
          5    1    4    4  501    0  0.23932994718E+02 -0.67065837240E+02  0.28377913337E+03  0.29261459515E+03  0.47000000000E+01 0. -1.
         -5    1    4    4    0  501  0.15413247239E+03 -0.10272859191E+03  0.29121388973E+03  0.34516315304E+03  0.47000000000E+01 0. -1.
          1    1    1    2  502    0  0.65177772175E+01 -0.51353884583E+02  0.13622422501E+04  0.13632254586E+04  0.00000000000E+00 0. -1.
          1    1    1    2  503    0 -0.26936809536E+03  0.23588804965E+02 -0.61239060049E+03  0.66943098978E+03  0.00000000000E+00 0. -1.
<mgrwt>
<rscale>  0 0.10390635E+03</rscale>
<asrwt>0</asrwt>
<pdfrwt beam="1">  1        2 0.30966581E+00 0.51765847E+02</pdfrwt>
<pdfrwt beam="2">  1        2 0.19379872E+00 0.20856472E+03</pdfrwt>
<totfact> 0.25791272E+01</totfact>
</mgrwt>
</event>
<event>
13    1  0.1589573E-008  0.1418268E+03  0.7546771E-02  0.1227906E+00
         -1   -1    0    0    0  501 -0.00000000000E+00  0.00000000000E+00  0.10168711054E+04  0.10168711054E+04  0.00000000000E+00 0.  1.
          2   -1    0    0  503    0  0.00000000000E+00 -0.00000000000E+00 -0.33141936072E+04  0.33141936072E+04  0.00000000000E+00 0. -1.
         24    2    1    2    0    0 -0.55380072245E+02  0.15420031647E+01 -0.92285425881E+02  0.13834163786E+03  0.86904998474E+02 0.  0.
         25    2    1    2    0    0  0.11724248977E+03 -0.14396366540E+03 -0.77946192655E+03  0.81096142524E+03  0.12500479964E+03 0.  0.
         24    2    1    2    0    0  0.59714782591E+02 -0.13141546243E+03 -0.11454205172E+03  0.20032959858E+03  0.78588723293E+02 0.  0.
        -11    1    3    3    0    0 -0.11474881163E+02 -0.40552134062E+02 -0.40685432277E+02  0.58578604236E+02  0.00000000000E+00 0.  1.
         12    1    3    3    0    0 -0.43905191082E+02  0.42094137226E+02 -0.51599993604E+02  0.79763033623E+02  0.00000000000E+00 0. -1.
        -13    1    5    5    0    0 -0.15760263367E+02 -0.52917473993E+01 -0.17861123755E+02  0.24400988376E+02  0.00000000000E+00 0.  1.
         14    1    5    5    0    0  0.75475045958E+02 -0.12612371503E+03 -0.96680927964E+02  0.17592861020E+03  0.00000000000E+00 0. -1.
          5    1    4    4  502    0  0.99313552346E+01 -0.10072815228E+03 -0.26696624401E+03  0.28554834603E+03  0.47000000000E+01 0. -1.
         -5    1    4    4    0  502  0.10731113454E+03 -0.43235513118E+02 -0.51249568254E+03  0.52541307922E+03  0.47000000000E+01 0. -1.
          1    1    1    2  503    0 -0.22428330288E+02  0.20884883383E+03 -0.22375369524E+04  0.22473745746E+04  0.00000000000E+00 0. -1.
         -2    1    1    2    0  501 -0.99148869831E+02  0.64988290835E+02  0.92650385470E+03  0.93405747634E+03  0.00000000000E+00 0.  1.
<mgrwt>
<rscale>  0 0.12969729E+03</rscale>
<asrwt>0</asrwt>
<pdfrwt beam="2">  1        2 0.48738141E+00 0.14182678E+03</pdfrwt>
<pdfrwt beam="1">  1       -1 0.14953987E+00 0.11860516E+03</pdfrwt>
<totfact> 0.85281027E-01</totfact>
</mgrwt>
</event>
<event>
13    1  0.1589573E-008  0.1071439E+03  0.7546771E-02  0.1266409E+00
          2   -1    0    0  503    0  0.00000000000E+00  0.00000000000E+00  0.38822373266E+04  0.38822373266E+04  0.00000000000E+00 0. -1.
          2   -1    0    0  502    0 -0.00000000000E+00 -0.00000000000E+00 -0.21341933983E+04  0.21341933983E+04  0.00000000000E+00 0. -1.
         24    2    1    2    0    0 -0.20163427274E+03 -0.43573847221E+02 -0.28212570265E+03  0.35869093372E+03  0.80679698394E+02 0.  0.
         25    2    1    2    0    0  0.29061345403E+03  0.70830303266E+01 -0.83544624139E+03  0.89336429995E+03  0.12499200449E+03 0.  0.
         24    2    1    2    0    0 -0.72610519941E+02 -0.11548291974E+01  0.35037127151E+03  0.36696612758E+03  0.81427818688E+02 0.  0.
        -11    1    5    5    0    0  0.76539827488E+01 -0.23196251194E+02  0.10706557579E+03  0.10981660640E+03  0.00000000000E+00 0.  1.
         12    1    5    5    0    0 -0.80264502690E+02  0.22041421996E+02  0.24330569572E+03  0.25714952119E+03  0.00000000000E+00 0. -1.
        -11    1    3    3    0    0 -0.67251954351E+02 -0.31693084187E+01 -0.15642319612E+03  0.17029705272E+03  0.00000000000E+00 0.  1.
         12    1    3    3    0    0 -0.13438231839E+03 -0.40404538802E+02 -0.12570250653E+03  0.18839388100E+03  0.00000000000E+00 0. -1.
          5    1    4    4  501    0  0.94117586511E+02 -0.14064233590E+02 -0.45228540942E+03  0.46221218540E+03  0.47000000000E+01 0. -1.
         -5    1    4    4    0  501  0.19649586752E+03  0.21147263916E+02 -0.38316083197E+03  0.43115211455E+03  0.47000000000E+01 0. -1.
          1    1    1    2  502    0  0.87086477420E+02  0.63631159611E+02 -0.93716561904E+03  0.94335167172E+03  0.00000000000E+00 0. -1.
          1    1    1    2  503    0 -0.10345513877E+03 -0.25985513519E+02  0.34524102199E+04  0.34540576919E+04  0.00000000000E+00 0. -1.
<mgrwt>
<rscale>  0 0.10690604E+03</rscale>
<asrwt>0</asrwt>
<pdfrwt beam="1">  1        2 0.57091726E+00 0.10666871E+03</pdfrwt>
<pdfrwt beam="2">  1        2 0.31385197E+00 0.10714389E+03</pdfrwt>
<totfact> 0.10636112E+00</totfact>
</mgrwt>
</event>
<event>
13    1  0.1589573E-008  0.9028681E+02  0.7546771E-02  0.1323671E+00
          2   -1    0    0  502    0  0.00000000000E+00  0.00000000000E+00  0.22064107339E+04  0.22064107339E+04  0.00000000000E+00 0. -1.
          2   -1    0    0  503    0 -0.00000000000E+00 -0.00000000000E+00 -0.15153394321E+04  0.15153394321E+04  0.00000000000E+00 0. -1.
         24    2    1    2    0    0  0.15116938818E+02  0.14721850951E+03 -0.52189015354E+03  0.54863754137E+03  0.82048815128E+02 0.  0.
         25    2    1    2    0    0  0.10079431828E+03  0.21098535210E+02  0.61978037488E+03  0.64059338299E+03  0.12501010547E+03 0.  0.
         24    2    1    2    0    0  0.79736953409E+01 -0.84792368877E+02  0.19194800692E+02  0.11943539536E+03  0.81504893443E+02 0.  0.
        -13    1    5    5    0    0 -0.33923546557E+02 -0.57031891785E+02  0.22511087279E+01  0.66396620261E+02  0.00000000000E+00 0.  1.
         14    1    5    5    0    0  0.41897241898E+02 -0.27760477092E+02  0.16943691965E+02  0.53038775103E+02  0.00000000000E+00 0. -1.
        -13    1    3    3    0    0 -0.32982731161E+01 -0.65614166883E+01 -0.81056015897E+02  0.81388012064E+02  0.00000000000E+00 0.  1.
         14    1    3    3    0    0  0.18415211934E+02  0.15377992619E+03 -0.44083413764E+03  0.46724952931E+03  0.00000000000E+00 0. -1.
          5    1    4    4  501    0  0.29291323220E+02 -0.23462255989E+02  0.41344309592E+02  0.56034819601E+02  0.47000000000E+01 0. -1.
         -5    1    4    4    0  501  0.71502995062E+02  0.44560791199E+02  0.57843606528E+03  0.58455856339E+03  0.47000000000E+01 0. -1.
          1    1    1    2  502    0 -0.50031533789E+02 -0.75025011989E+02  0.14906677533E+04  0.14933928678E+04  0.00000000000E+00 0. -1.
          1    1    1    2  503    0 -0.73853418652E+02 -0.84996638503E+01 -0.91668147361E+03  0.91969097842E+03  0.00000000000E+00 0. -1.
<mgrwt>
<rscale>  0 0.81926821E+02</rscale>
<asrwt>0</asrwt>
<pdfrwt beam="1">  1        2 0.32447217E+00 0.90286809E+02</pdfrwt>
<pdfrwt beam="2">  1        2 0.22284403E+00 0.74340916E+02</pdfrwt>
<totfact> 0.18489641E+01</totfact>
</mgrwt>
</event>
<event>
13    1  0.1589573E-008  0.8302708E+02  0.7546771E-02  0.1434380E+00
          2   -1    0    0  503    0  0.00000000000E+00  0.00000000000E+00  0.36459469790E+04  0.36459469790E+04  0.00000000000E+00 0. -1.
          2   -1    0    0  502    0 -0.00000000000E+00 -0.00000000000E+00 -0.14991630559E+04  0.14991630559E+04  0.00000000000E+00 0. -1.
         24    2    1    2    0    0  0.20526781334E+02  0.27742176756E+03 -0.11265623986E+04  0.11630312008E+04  0.78195590005E+02 0.  0.
         25    2    1    2    0    0  0.12873524824E+02 -0.11328106845E+03  0.14177640850E+04  0.14278234960E+04  0.12500642790E+03 0.  0.
         24    2    1    2    0    0  0.57447550412E+02 -0.14328222281E+03  0.57536832467E+02  0.18284796531E+03  0.79327642767E+02 0.  0.
        -11    1    5    5    0    0  0.31933229883E+02 -0.78152948115E+02 -0.10734059898E+02  0.85104844232E+02  0.00000000000E+00 0.  1.
         12    1    5    5    0    0  0.25514320529E+02 -0.65129274694E+02  0.68270892365E+02  0.97743121080E+02  0.00000000000E+00 0. -1.
        -11    1    3    3    0    0  0.84814870775E+01  0.25014192692E+02 -0.23086255196E+03  0.23236859374E+03  0.00000000000E+00 0.  1.
         12    1    3    3    0    0  0.12045294257E+02  0.25240757487E+03 -0.89569984662E+03  0.93066260708E+03  0.00000000000E+00 0. -1.
          5    1    4    4  501    0 -0.16465729232E+02  0.23507576611E+02  0.22366397300E+03  0.22554686701E+03  0.47000000000E+01 0.  1.
         -5    1    4    4    0  501  0.29339254056E+02 -0.13678864506E+03  0.11941001120E+04  0.12022766290E+04  0.47000000000E+01 0.  1.
          1    1    1    2  502    0 -0.69411421039E+02 -0.45527308831E+02 -0.28054082222E+03  0.29256423936E+03  0.00000000000E+00 0. -1.
          1    1    1    2  503    0 -0.21436435531E+02  0.24668832525E+02  0.20785862265E+04  0.20788431334E+04  0.00000000000E+00 0. -1.
<mgrwt>
<rscale>  0 0.52090679E+02</rscale>
<asrwt>0</asrwt>
<pdfrwt beam="1">  1        2 0.53616867E+00 0.32681372E+02</pdfrwt>
<pdfrwt beam="2">  1        2 0.22046516E+00 0.83027079E+02</pdfrwt>
<totfact> 0.39527294E+00</totfact>
</mgrwt>
</event>
<event>
13    1  0.1589573E-008  0.6336429E+02  0.7546771E-02  0.1458382E+00
          2   -1    0    0  502    0  0.00000000000E+00  0.00000000000E+00  0.16113375786E+04  0.16113375786E+04  0.00000000000E+00 0. -1.
          2   -1    0    0  503    0 -0.00000000000E+00 -0.00000000000E+00 -0.18123103708E+04  0.18123103708E+04  0.00000000000E+00 0. -1.
         24    2    1    2    0    0  0.72606258846E+03 -0.27007787859E+03 -0.57639274004E+03  0.96765898472E+03  0.63453739690E+02 0.  0.
         25    2    1    2    0    0  0.42922019938E+03  0.66479204290E+03  0.67576135627E+02  0.80397140528E+03  0.12500018618E+03 0.  0.
         24    2    1    2    0    0 -0.11802914679E+04 -0.29895028022E+03  0.20652997346E+03  0.12376121114E+04  0.81054852675E+02 0.  0.
        -11    1    5    5    0    0 -0.41548102377E+03 -0.14463327664E+03  0.66910148493E+02  0.44499464468E+03  0.00000000000E+00 0.  1.
         12    1    5    5    0    0 -0.76481044416E+03 -0.15431700358E+03  0.13961982496E+03  0.79261746676E+03  0.00000000000E+00 0. -1.
        -13    1    3    3    0    0  0.32163387065E+03 -0.12623417653E+03 -0.21874315414E+03  0.40894007086E+03  0.00000000000E+00 0.  1.
         14    1    3    3    0    0  0.40442871780E+03 -0.14384370206E+03 -0.35764958590E+03  0.55871891386E+03  0.00000000000E+00 0. -1.
          5    1    4    4  501    0  0.20990625974E+03  0.25671162585E+03 -0.20898619814E+02  0.33229555976E+03  0.47000000000E+01 0. -1.
         -5    1    4    4    0  501  0.21931393964E+03  0.40808041704E+03  0.88474755441E+02  0.47167584552E+03  0.47000000000E+01 0. -1.
          1    1    1    2  502    0  0.13406905223E+02 -0.61843771870E+02  0.25184031789E+03  0.25966891023E+03  0.00000000000E+00 0. -1.
          1    1    1    2  503    0  0.11601774867E+02 -0.33920112221E+02 -0.15052647908E+03  0.15473653770E+03  0.00000000000E+00 0. -1.
<mgrwt>
<rscale>  0 0.47660969E+02</rscale>
<asrwt>0</asrwt>
<pdfrwt beam="1">  1        2 0.23696141E+00 0.63364288E+02</pdfrwt>
<pdfrwt beam="2">  1        2 0.26651623E+00 0.35849340E+02</pdfrwt>
<totfact> 0.28568316E+01</totfact>
</mgrwt>
</event>
<event>
13    1  0.1589573E-008  0.5918716E+02  0.7546771E-02  0.1492322E+00
          2   -1    0    0  503    0  0.00000000000E+00  0.00000000000E+00  0.17926672895E+04  0.17926672895E+04  0.00000000000E+00 0. -1.
          2   -1    0    0  502    0 -0.00000000000E+00 -0.00000000000E+00 -0.10226155643E+04  0.10226155643E+04  0.00000000000E+00 0. -1.
         24    2    1    2    0    0  0.13081250098E+02  0.35384663258E+02 -0.73022735187E+02  0.11534834504E+03  0.80930385828E+02 0.  0.
         25    2    1    2    0    0 -0.14585680309E+03 -0.76495655993E+02  0.68208062850E+03  0.71272667011E+03  0.12497811854E+03 0.  0.
         24    2    1    2    0    0  0.10451953661E+03 -0.23850190991E+02  0.21443442228E+03  0.25310448173E+03  0.81157822008E+02 0.  0.
        -11    1    5    5    0    0  0.87138140174E+02 -0.31716890827E+02  0.21486453247E+03  0.23402090494E+03  0.00000000000E+00 0.  1.
         12    1    5    5    0    0  0.17381396434E+02  0.78666998353E+01 -0.43011019415E+00  0.19083576789E+02  0.00000000000E+00 0. -1.
        -13    1    3    3    0    0  0.37478743067E+02 -0.47879363831E+01 -0.50928004617E+02  0.63413264945E+02  0.00000000000E+00 0.  1.
         14    1    3    3    0    0 -0.24397492969E+02  0.40172599641E+02 -0.22094730570E+02  0.51935080091E+02  0.00000000000E+00 0. -1.
          5    1    4    4  501    0 -0.15297578298E+03 -0.71915296398E+02  0.45447961261E+03  0.48491979575E+03  0.47000000000E+01 0. -1.
         -5    1    4    4    0  501  0.71189798962E+01 -0.45803595957E+01  0.22760101589E+03  0.22780687435E+03  0.47000000000E+01 0. -1.
          1    1    1    2  502    0  0.44190920845E+02  0.39365686597E+02 -0.89252122223E+03  0.89448120545E+03  0.00000000000E+00 0. -1.
          1    1    1    2  503    0 -0.15934904465E+02  0.25595497130E+02  0.83908063178E+03  0.83962215150E+03  0.00000000000E+00 0. -1.
<mgrwt>
<rscale>  0 0.42243584E+02</rscale>
<asrwt>0</asrwt>
<pdfrwt beam="1">  1        2 0.26362755E+00 0.30150467E+02</pdfrwt>
<pdfrwt beam="2">  1        2 0.15038464E+00 0.59187157E+02</pdfrwt>
<totfact> 0.59217661E+01</totfact>
</mgrwt>
</event>
<event>
13    1  0.1589573E-008  0.6274381E+02  0.7546771E-02  0.1519101E+00
          2   -1    0    0  503    0  0.00000000000E+00  0.00000000000E+00  0.24208998066E+04  0.24208998066E+04  0.00000000000E+00 0. -1.
         -1   -1    0    0    0  501 -0.00000000000E+00 -0.00000000000E+00 -0.11995430761E+04  0.11995430761E+04  0.00000000000E+00 0.  1.
         24    2    1    2    0    0  0.90815791890E+01 -0.30692444284E+03 -0.45671956798E+03  0.55680358603E+03  0.84571750292E+02 0.  0.
         25    2    1    2    0    0 -0.19734701776E+03  0.13150920743E+03 -0.27973412223E+03  0.38745458312E+03  0.12501742992E+03 0.  0.
         24    2    1    2    0    0  0.12616565591E+03  0.18619705845E+03  0.95796275938E+03  0.98734528170E+03  0.81061332533E+02 0.  0.
        -11    1    5    5    0    0  0.71029428717E+02  0.10628117393E+03  0.70288324948E+03  0.71441285688E+03  0.00000000000E+00 0.  1.
         12    1    5    5    0    0  0.55136227195E+02  0.79915884524E+02  0.25507950990E+03  0.27293242482E+03  0.00000000000E+00 0. -1.
        -13    1    3    3    0    0 -0.15405984592E+02 -0.19597924980E+03 -0.34723780986E+03  0.39902294083E+03  0.00000000000E+00 0.  1.
         14    1    3    3    0    0  0.24487563781E+02 -0.11094519304E+03 -0.10948175812E+03  0.15778064520E+03  0.00000000000E+00 0. -1.
          5    1    4    4  502    0 -0.16472497006E+03  0.94990333448E+02 -0.13141753120E+03  0.23119285611E+03  0.47000000000E+01 0.  1.
         -5    1    4    4    0  502 -0.32622047699E+02  0.36518873982E+02 -0.14831659103E+03  0.15626172701E+03  0.47000000000E+01 0.  1.
          1    1    1    2  503    0  0.53463419702E+02 -0.32846593839E+02  0.13432028340E+04  0.13446676501E+04  0.00000000000E+00 0. -1.
         -2    1    1    2    0  501  0.86363629592E+01  0.22064770792E+02 -0.34335517262E+03  0.34417178188E+03  0.00000000000E+00 0.  1.
<mgrwt>
<rscale>  0 0.38557731E+02</rscale>
<asrwt>0</asrwt>
<pdfrwt beam="1">  1        2 0.35601468E+00 0.62743814E+02</pdfrwt>
<pdfrwt beam="2">  1       -1 0.17640339E+00 0.23694744E+02</pdfrwt>
<totfact> 0.20588653E+00</totfact>
</mgrwt>
</event>
<event>
13    1  0.1589573E-008  0.6279203E+02  0.7546771E-02  0.1415164E+00
         -1   -1    0    0    0  501 -0.00000000000E+00  0.00000000000E+00  0.96732256679E+03  0.96732256679E+03  0.00000000000E+00 0.  1.
          2   -1    0    0  503    0  0.00000000000E+00 -0.00000000000E+00 -0.17928833659E+04  0.17928833659E+04  0.00000000000E+00 0. -1.
         24    2    1    2    0    0  0.19481600476E+03 -0.54120378647E+02  0.37654779537E+02  0.21290081355E+03  0.55014388059E+02 0.  0.
         25    2    1    2    0    0 -0.76530877526E+02  0.96127619095E+02  0.14082730779E+03  0.22485739494E+03  0.12502408997E+03 0.  0.
         24    2    1    2    0    0 -0.24402893694E+02  0.27052220781E+01 -0.23157411077E+03  0.24675568044E+03  0.81602558792E+02 0.  0.
        -11    1    3    3    0    0  0.79843432407E+02 -0.34020610032E+02 -0.88957324094E+01  0.87243966328E+02  0.00000000000E+00 0.  1.
         12    1    3    3    0    0  0.11497257235E+03 -0.20099768614E+02  0.46550511946E+02  0.12565684722E+03  0.00000000000E+00 0. -1.
        -13    1    5    5    0    0  0.18206914221E+02 -0.26068441388E+02 -0.11564230124E+03  0.11993413691E+03  0.00000000000E+00 0.  1.
         14    1    5    5    0    0 -0.42609807915E+02  0.28773663466E+02 -0.11593180954E+03  0.12682154352E+03  0.00000000000E+00 0. -1.
          5    1    4    4  502    0 -0.30900527555E+02  0.66786690540E+02  0.15229743119E+03  0.16920963975E+03  0.47000000000E+01 0.  1.
         -5    1    4    4    0  502 -0.45630349971E+02  0.29340928555E+02 -0.11470123401E+02  0.55647755191E+02  0.47000000000E+01 0.  1.
          1    1    1    2  503    0 -0.62449765991E+02 -0.57704954380E+01 -0.14224275519E+04  0.14238094719E+04  0.00000000000E+00 0. -1.
         -2    1    1    2    0  501 -0.31432467547E+02 -0.38941967088E+02  0.64995877618E+03  0.65188257191E+03  0.00000000000E+00 0.  1.
<mgrwt>
<rscale>  0 0.56057214E+02</rscale>
<asrwt>0</asrwt>
<pdfrwt beam="2">  1        2 0.26365931E+00 0.62792027E+02</pdfrwt>
<pdfrwt beam="1">  1       -1 0.14225332E+00 0.50044748E+02</pdfrwt>
<totfact> 0.67131871E+00</totfact>
</mgrwt>
</event>
<event>
13    1  0.1589573E-008  0.1844262E+03  0.7546771E-02  0.1189348E+00
          2   -1    0    0  502    0  0.00000000000E+00  0.00000000000E+00  0.95343036091E+03  0.95343036091E+03  0.00000000000E+00 0. -1.
          2   -1    0    0  503    0 -0.00000000000E+00 -0.00000000000E+00 -0.83278890657E+03  0.83278890657E+03  0.00000000000E+00 0. -1.
         24    2    1    2    0    0 -0.40884256663E+02  0.20474811028E+02 -0.10232731865E+03  0.13824070465E+03  0.80925100872E+02 0.  0.
         25    2    1    2    0    0  0.10485539649E+03 -0.25848494335E+03  0.36912482742E+03  0.47925723948E+03  0.12500097306E+03 0.  0.
         24    2    1    2    0    0 -0.10001499579E+03  0.82989532945E+02 -0.24386695677E+03  0.28779729144E+03  0.80410984258E+02 0.  0.
        -13    1    5    5    0    0 -0.12541992819E+02 -0.12660393526E+02 -0.10056293647E+02  0.20462555803E+02  0.00000000000E+00 0.  1.
         14    1    5    5    0    0 -0.87473002975E+02  0.95649926472E+02 -0.23381066313E+03  0.26733473563E+03  0.00000000000E+00 0. -1.
        -13    1    3    3    0    0  0.10414713974E+02  0.30542202346E+02 -0.69191484254E+02  0.76346276167E+02  0.00000000000E+00 0.  1.
         14    1    3    3    0    0 -0.51298970637E+02 -0.10067391318E+02 -0.33135834397E+02  0.61894428486E+02  0.00000000000E+00 0. -1.
          5    1    4    4  501    0 -0.10148964571E+02 -0.21252964991E+01  0.61734048579E+02  0.62775003950E+02  0.47000000000E+01 0.  1.
         -5    1    4    4    0  501  0.11500436106E+03 -0.25635964685E+03  0.30739077884E+03  0.41648223553E+03  0.47000000000E+01 0.  1.
          1    1    1    2  502    0  0.21163530936E+03  0.13143381126E+03  0.43422821220E+03  0.50061810912E+03  0.00000000000E+00 0. -1.
          1    1    1    2  503    0 -0.17559145340E+03  0.23586788113E+02 -0.33651730985E+03  0.38030592279E+03  0.00000000000E+00 0. -1.
<mgrwt>
<rscale>  0 0.15942474E+03</rscale>
<asrwt>0</asrwt>
<pdfrwt beam="1">  1        2 0.14021035E+00 0.18442622E+03</pdfrwt>
<pdfrwt beam="2">  1        2 0.12246896E+00 0.13781256E+03</pdfrwt>
<totfact> 0.17356071E+02</totfact>
</mgrwt>
</event>
<event>
13    1  0.1589573E-008  0.9874539E+02  0.7546771E-02  0.1357281E+00
          2   -1    0    0  502    0  0.00000000000E+00  0.00000000000E+00  0.19445720713E+04  0.19445720713E+04  0.00000000000E+00 0. -1.
          2   -1    0    0  503    0 -0.00000000000E+00 -0.00000000000E+00 -0.44710854089E+04  0.44710854089E+04  0.00000000000E+00 0. -1.
         24    2    1    2    0    0  0.40926384964E+03 -0.66180235791E+02 -0.23042167777E+04  0.23427115214E+04  0.83699413155E+02 0.  0.
         25    2    1    2    0    0 -0.59264412524E+03  0.43479130406E+02  0.67353632290E+03  0.90685883685E+03  0.12499711095E+03 0.  0.
         24    2    1    2    0    0  0.10590888940E+03  0.20121359596E+02 -0.62886269044E+03  0.64284638924E+03  0.78496081225E+02 0.  0.
        -11    1    5    5    0    0  0.70727863585E+02 -0.18442521014E+02 -0.46941069516E+03  0.47506731944E+03  0.00000000000E+00 0.  1.
         12    1    5    5    0    0  0.35181025812E+02  0.38563880610E+02 -0.15945199528E+03  0.16777906981E+03  0.00000000000E+00 0. -1.
        -11    1    3    3    0    0  0.61019979590E+02 -0.12375506614E+02 -0.20925776037E+03  0.21832407414E+03  0.00000000000E+00 0.  1.
         12    1    3    3    0    0  0.34824387005E+03 -0.53804729177E+02 -0.20949590173E+04  0.21243874473E+04  0.00000000000E+00 0. -1.
          5    1    4    4  501    0 -0.23310149656E+03  0.20828926392E+02  0.35911594728E+03  0.42866829305E+03  0.47000000000E+01 0. -1.
         -5    1    4    4    0  501 -0.35954262867E+03  0.22650204014E+02  0.31442037563E+03  0.47819054381E+03  0.47000000000E+01 0. -1.
          1    1    1    2  502    0  0.83308464781E+02  0.53054652990E+02  0.11255092380E+04  0.11298345637E+04  0.00000000000E+00 0. -1.
          1    1    1    2  503    0 -0.58370785845E+01 -0.50474907201E+02 -0.13924794304E+04  0.13934061690E+04  0.00000000000E+00 0. -1.
<mgrwt>
<rscale>  0 0.70833474E+02</rscale>
<asrwt>0</asrwt>
<pdfrwt beam="1">  1        2 0.28596649E+00 0.98745387E+02</pdfrwt>
<pdfrwt beam="2">  1        2 0.65751255E+00 0.50811295E+02</pdfrwt>
<totfact> 0.60482000E-01</totfact>
</mgrwt>
</event>
<event>
13    1  0.1589573E-008  0.1369062E+03  0.7546771E-02  0.1241899E+00
          2   -1    0    0  503    0  0.00000000000E+00  0.00000000000E+00  0.33685256424E+04  0.33685256424E+04  0.00000000000E+00 0. -1.
         -1   -1    0    0    0  501 -0.00000000000E+00 -0.00000000000E+00 -0.62481473611E+03  0.62481473611E+03  0.00000000000E+00 0.  1.
         24    2    1    2    0    0  0.31939079261E+02  0.22993968791E+02 -0.89838883171E+02  0.12622022028E+03  0.79446155933E+02 0.  0.
         25    2    1    2    0    0  0.96061447108E+02  0.34025954036E+02  0.37002311550E+03  0.40364468377E+03  0.12500543015E+03 0.  0.
         24    2    1    2    0    0 -0.23959604813E+02 -0.24667524391E+02  0.22628497641E+03  0.24170562301E+03  0.77679908768E+02 0.  0.
        -11    1    5    5    0    0  0.60108360407E+01  0.18916380256E+02  0.13296034365E+03  0.13443367352E+03  0.00000000000E+00 0.  1.
         12    1    5    5    0    0 -0.29970440854E+02 -0.43583904647E+02  0.93324632757E+02  0.10727194950E+03  0.00000000000E+00 0. -1.
        -11    1    3    3    0    0  0.51402393302E+02  0.10508700296E+02 -0.26471240885E+02  0.58765341938E+02  0.00000000000E+00 0.  1.
         12    1    3    3    0    0 -0.19463314041E+02  0.12485268495E+02 -0.63367642286E+02  0.67454878339E+02  0.00000000000E+00 0. -1.
          5    1    4    4  502    0  0.28081645431E+02  0.58039035464E+02  0.28419703950E+03  0.29145695344E+03  0.47000000000E+01 0.  1.
         -5    1    4    4    0  502  0.67979801677E+02 -0.24013081428E+02  0.85826075992E+02  0.11218773033E+03  0.47000000000E+01 0.  1.
          1    1    1    2  503    0  0.10567663429E+03  0.12318644153E+03  0.26922665584E+04  0.26971543656E+04  0.00000000000E+00 0. -1.
         -2    1    1    2    0  501 -0.20971755585E+03 -0.15553883997E+03 -0.45502486086E+03  0.52461548583E+03  0.00000000000E+00 0.  1.
<mgrwt>
<rscale>  0 0.12072893E+03</rscale>
<asrwt>0</asrwt>
<pdfrwt beam="1">  1        2 0.49537141E+00 0.10646325E+03</pdfrwt>
<pdfrwt beam="2">  1       -1 0.91884521E-01 0.13690615E+03</pdfrwt>
<totfact> 0.25787232E+00</totfact>
</mgrwt>
</event>
<event>
13    1  0.1589573E-008  0.1323350E+03  0.7546771E-02  0.1321283E+00
          2   -1    0    0  503    0  0.00000000000E+00  0.00000000000E+00  0.34033777897E+03  0.34033777897E+03  0.00000000000E+00 0. -1.
          2   -1    0    0  502    0 -0.00000000000E+00 -0.00000000000E+00 -0.36696964317E+04  0.36696964317E+04  0.00000000000E+00 0. -1.
         24    2    1    2    0    0 -0.25176583551E+02 -0.13927542256E+02 -0.10578078023E+04  0.10612640024E+04  0.80598384287E+02 0.  0.
         25    2    1    2    0    0 -0.14762250877E+03  0.49228303226E+02 -0.28218000676E+03  0.34564031560E+03  0.12500336244E+03 0.  0.
         24    2    1    2    0    0  0.44337798318E+02  0.21118130629E+02  0.22205493435E+03  0.24176886964E+03  0.82048623731E+02 0.  0.
        -11    1    3    3    0    0  0.11773448932E+01 -0.27404163456E+02 -0.91548139863E+03  0.91589222377E+03  0.00000000000E+00 0.  1.
         12    1    3    3    0    0 -0.26353928445E+02  0.13476621199E+02 -0.14232640362E+03  0.14537177866E+03  0.00000000000E+00 0. -1.
        -13    1    5    5    0    0 -0.22351041731E+02  0.14423013751E+02  0.87353432622E+02  0.91313824709E+02  0.00000000000E+00 0.  1.
         14    1    5    5    0    0  0.66688840049E+02  0.66951168779E+01  0.13470150173E+03  0.15045504493E+03  0.00000000000E+00 0. -1.
          5    1    4    4  501    0 -0.25995732261E+02  0.38022652255E+02 -0.10132809716E+02  0.47394767781E+02  0.47000000000E+01 0.  1.
         -5    1    4    4    0  501 -0.12162677651E+03  0.11205650971E+02 -0.27204719704E+03  0.29824554782E+03  0.47000000000E+01 0.  1.
          1    1    1    2  502    0 -0.45453262943E+02 -0.24863397853E+02 -0.21814715813E+04  0.21820867186E+04  0.00000000000E+00 0. -1.
          1    1    1    2  503    0  0.17391455695E+03 -0.31555493746E+02 -0.29954196785E+02  0.17927430437E+03  0.00000000000E+00 0. -1.
<mgrwt>
<rscale>  0 0.82801946E+02</rscale>
<asrwt>0</asrwt>
<pdfrwt beam="1">  1        2 0.50049679E-01 0.13233498E+03</pdfrwt>
<pdfrwt beam="2">  1        2 0.53966118E+00 0.51809147E+02</pdfrwt>
<totfact> 0.21227391E+01</totfact>
</mgrwt>
</event>
<event>
13    1  0.1589573E-008  0.1263121E+03  0.7546771E-02  0.1282439E+00
          2   -1    0    0  503    0  0.00000000000E+00  0.00000000000E+00  0.19641172749E+04  0.19641172749E+04  0.00000000000E+00 0. -1.
          2   -1    0    0  502    0 -0.00000000000E+00 -0.00000000000E+00 -0.24066865544E+04  0.24066865544E+04  0.00000000000E+00 0. -1.
         24    2    1    2    0    0 -0.47839781931E+02 -0.61319517341E+01 -0.29675517964E+03  0.31159344850E+03  0.81857161798E+02 0.  0.
         25    2    1    2    0    0  0.25029511268E+03  0.81502552584E+02  0.22988863119E+03  0.37116698228E+03  0.12500334585E+03 0.  0.
         24    2    1    2    0    0 -0.76477136228E+02  0.73612424506E+02 -0.18201487870E+02  0.13365544923E+03  0.79151396332E+02 0.  0.
        -13    1    3    3    0    0 -0.50293852301E+02 -0.35614119142E+02 -0.23747756259E+03  0.24534349349E+03  0.00000000000E+00 0.  1.
         14    1    3    3    0    0  0.24540703706E+01  0.29482167408E+02 -0.59277617053E+02  0.66249955018E+02  0.00000000000E+00 0. -1.
        -13    1    5    5    0    0 -0.63167240117E+02  0.89242447351E+02 -0.24759441513E+02  0.11210416842E+03  0.00000000000E+00 0.  1.
         14    1    5    5    0    0 -0.13309896111E+02 -0.15630022845E+02  0.65579536434E+01  0.21551280811E+02  0.00000000000E+00 0. -1.
          5    1    4    4  501    0  0.15964197092E+03  0.10786936820E+03  0.18251351827E+03  0.26543291775E+03  0.47000000000E+01 0. -1.
         -5    1    4    4    0  501  0.90653141760E+02 -0.26366815619E+02  0.47375112917E+02  0.10573406452E+03  0.47000000000E+01 0. -1.
          1    1    1    2  502    0 -0.68132777630E+02 -0.37090944911E+02 -0.19526917870E+04  0.19542320815E+04  0.00000000000E+00 0. -1.
          1    1    1    2  503    0 -0.57845416894E+02 -0.11189208044E+03  0.15951905438E+04  0.16001558677E+04  0.00000000000E+00 0. -1.
<mgrwt>
<rscale>  0 0.98987925E+02</rscale>
<asrwt>0</asrwt>
<pdfrwt beam="1">  1        2 0.28884078E+00 0.12631214E+03</pdfrwt>
<pdfrwt beam="2">  1        2 0.35392449E+00 0.77574568E+02</pdfrwt>
<totfact> 0.87067017E+00</totfact>
</mgrwt>
</event>
<event>
13    1  0.1589573E-008  0.1074465E+03  0.7546771E-02  0.1314682E+00
          2   -1    0    0  503    0  0.00000000000E+00  0.00000000000E+00  0.30024322618E+04  0.30024322618E+04  0.00000000000E+00 0. -1.
          2   -1    0    0  502    0 -0.00000000000E+00 -0.00000000000E+00 -0.10158666468E+04  0.10158666468E+04  0.00000000000E+00 0. -1.
         24    2    1    2    0    0  0.12574471256E+03 -0.17585623905E+02 -0.27496081970E+03  0.31440899297E+03  0.84430892368E+02 0.  0.
         25    2    1    2    0    0 -0.81608135664E+02 -0.75130108631E+02  0.48548779280E+03  0.51344747521E+03  0.12500196723E+03 0.  0.
         24    2    1    2    0    0 -0.17109996090E+03  0.31663641762E+02 -0.62276176996E+02  0.20129166324E+03  0.79763579641E+02 0.  0.
        -13    1    3    3    0    0  0.12526637815E+03 -0.21477525789E+02 -0.28030976614E+03  0.30777672849E+03  0.00000000000E+00 0.  1.
         14    1    3    3    0    0  0.47833440983E+00  0.38919018833E+01  0.53489464401E+01  0.66322644772E+01  0.00000000000E+00 0. -1.
        -13    1    5    5    0    0 -0.17893913258E+03  0.31652625102E+02 -0.53296537704E+02  0.18937165251E+03  0.00000000000E+00 0.  1.
         14    1    5    5    0    0  0.78391716747E+01  0.11016659458E-01 -0.89796392916E+01  0.11920010726E+02  0.00000000000E+00 0. -1.
          5    1    4    4  501    0 -0.93510228376E+02 -0.37972936422E+02  0.44759117763E+03  0.45885298191E+03  0.47000000000E+01 0. -1.
         -5    1    4    4    0  501  0.11902092712E+02 -0.37157172210E+02  0.37896615166E+02  0.54594493299E+02  0.47000000000E+01 0. -1.
          1    1    1    2  502    0  0.64059786022E+02  0.86076298433E+02 -0.56993624412E+03  0.57994836641E+03  0.00000000000E+00 0. -1.
          1    1    1    2  503    0  0.62903597983E+02 -0.25024207659E+02  0.24082510630E+04  0.24092024108E+04  0.00000000000E+00 0. -1.
<mgrwt>
<rscale>  0 0.85287475E+02</rscale>
<asrwt>0</asrwt>
<pdfrwt beam="1">  1        2 0.44153415E+00 0.67698402E+02</pdfrwt>
<pdfrwt beam="2">  1        2 0.14939216E+00 0.10744646E+03</pdfrwt>
<totfact> 0.13697421E+01</totfact>
</mgrwt>
</event>
<event>
13    1  0.1589573E-008  0.1533073E+03  0.7546771E-02  0.1359917E+00
          2   -1    0    0  502    0  0.00000000000E+00  0.00000000000E+00  0.21577892914E+04  0.21577892914E+04  0.00000000000E+00 0. -1.
          2   -1    0    0  503    0 -0.00000000000E+00 -0.00000000000E+00 -0.28559020234E+04  0.28559020234E+04  0.00000000000E+00 0. -1.
         24    2    1    2    0    0  0.44066889597E+02 -0.13747710937E+02 -0.23015055828E+04  0.23033964749E+04  0.81095514209E+02 0.  0.
         25    2    1    2    0    0 -0.26677399276E+03 -0.12401113154E+03 -0.16009541431E+03  0.35749469108E+03  0.12499915404E+03 0.  0.
         24    2    1    2    0    0  0.31618821116E+02  0.46684373032E+02  0.56145542144E+03  0.56978184481E+03  0.78993543323E+02 0.  0.
        -11    1    3    3    0    0  0.19546424060E+02 -0.10179134093E+01 -0.11072221566E+03  0.11243890734E+03  0.00000000000E+00 0.  1.
         12    1    3    3    0    0  0.24520465537E+02 -0.12729797528E+02 -0.21907833672E+04  0.21909575675E+04  0.00000000000E+00 0. -1.
        -13    1    5    5    0    0  0.44371917030E+02  0.54844019524E+02  0.53206095113E+03  0.53671742026E+03  0.00000000000E+00 0.  1.
         14    1    5    5    0    0 -0.12753095914E+02 -0.81596464921E+01  0.29394470308E+02  0.33064424552E+02  0.00000000000E+00 0. -1.
          5    1    4    4  501    0 -0.15829982290E+03 -0.11393298685E+03 -0.15351993287E+03  0.24825394098E+03  0.47000000000E+01 0. -1.
         -5    1    4    4    0  501 -0.10847416986E+03 -0.10078144683E+02 -0.65754814410E+01  0.10924075010E+03  0.47000000000E+01 0. -1.
          1    1    1    2  502    0  0.18530029236E+03  0.59592945830E+02  0.14852740570E+04  0.14979741459E+04  0.00000000000E+00 0. -1.
          1    1    1    2  503    0  0.57879896842E+01  0.31481523612E+02 -0.28324121323E+03  0.28504415803E+03  0.00000000000E+00 0. -1.
<mgrwt>
<rscale>  0 0.70051700E+02</rscale>
<asrwt>0</asrwt>
<pdfrwt beam="1">  1        2 0.31732196E+00 0.15330733E+03</pdfrwt>
<pdfrwt beam="2">  1        2 0.41998559E+00 0.32009173E+02</pdfrwt>
<totfact> 0.47219154E+00</totfact>
</mgrwt>
</event>
<event>
13    1  0.1589573E-008  0.1843932E+03  0.7546771E-02  0.1174672E+00
          2   -1    0    0  503    0  0.00000000000E+00  0.00000000000E+00  0.25980602470E+04  0.25980602470E+04  0.00000000000E+00 0. -1.
          2   -1    0    0  502    0 -0.00000000000E+00 -0.00000000000E+00 -0.12992313928E+04  0.12992313928E+04  0.00000000000E+00 0. -1.
         24    2    1    2    0    0 -0.90736764197E+02  0.10328477878E+03 -0.37281151530E+02  0.16325883032E+03  0.79766255490E+02 0.  0.
         25    2    1    2    0    0 -0.75263338236E+01 -0.13200888671E+03  0.44033819714E+03  0.47644971383E+03  0.12499444021E+03 0.  0.
         24    2    1    2    0    0 -0.57065287488E+02  0.10745417147E+03 -0.45253193108E+02  0.15242384568E+03  0.79889493951E+02 0.  0.
        -11    1    5    5    0    0 -0.54307861280E+02  0.78885761400E+02  0.35151697176E+01  0.95836650435E+02  0.00000000000E+00 0.  1.
         12    1    5    5    0    0 -0.27574262083E+01  0.28568410067E+02 -0.48768362825E+02  0.56587195245E+02  0.00000000000E+00 0. -1.
        -11    1    3    3    0    0 -0.94774803067E+02  0.85199200695E+02 -0.68441232781E+01  0.12762448479E+03  0.00000000000E+00 0.  1.
         12    1    3    3    0    0  0.40380388699E+01  0.18085578085E+02 -0.30437028252E+02  0.35634345530E+02  0.00000000000E+00 0. -1.
          5    1    4    4  501    0  0.55014564147E+02 -0.46922785335E+02  0.22833300497E+03  0.23955458921E+03  0.47000000000E+01 0.  1.
         -5    1    4    4    0  501 -0.62540897971E+02 -0.85086101373E+02  0.21200519216E+03  0.23689512462E+03  0.47000000000E+01 0.  1.
          1    1    1    2  502    0  0.26818745943E+03  0.38277156562E+02 -0.10617660030E+04  0.10957813191E+04  0.00000000000E+00 0. -1.
          1    1    1    2  503    0 -0.11285907392E+03 -0.11700722010E+03  0.20027910048E+04  0.20093779308E+04  0.00000000000E+00 0. -1.
<mgrwt>
<rscale>  0 0.17308128E+03</rscale>
<asrwt>0</asrwt>
<pdfrwt beam="1">  1        2 0.38206768E+00 0.16246329E+03</pdfrwt>
<pdfrwt beam="2">  1        2 0.19106344E+00 0.18439322E+03</pdfrwt>
<totfact> 0.13270955E+01</totfact>
</mgrwt>
</event>
<event>
13    1  0.1589573E-008  0.1191879E+03  0.7546771E-02  0.1326014E+00
          2   -1    0    0  503    0  0.00000000000E+00  0.00000000000E+00  0.42574540267E+04  0.42574540267E+04  0.00000000000E+00 0. -1.
          2   -1    0    0  502    0 -0.00000000000E+00 -0.00000000000E+00 -0.81914116563E+03  0.81914116563E+03  0.00000000000E+00 0. -1.
         24    2    1    2    0    0 -0.85493722038E+01 -0.49663477852E+02  0.34179769049E+02  0.99783407975E+02  0.79050104981E+02 0.  0.
         25    2    1    2    0    0 -0.14703730197E+03 -0.28293182176E+02  0.23520482392E+03  0.30556028199E+03  0.12500121762E+03 0.  0.
         24    2    1    2    0    0  0.97753968233E+02 -0.11650506931E+02  0.44065818995E+03  0.45847879120E+03  0.79571282460E+02 0.  0.
        -11    1    5    5    0    0  0.33212242251E+02 -0.33325344765E+02  0.28097362583E+03  0.28488560871E+03  0.00000000000E+00 0.  1.
         12    1    5    5    0    0  0.64541725982E+02  0.21674837834E+02  0.15968456412E+03  0.17359318249E+03  0.00000000000E+00 0. -1.
        -13    1    3    3    0    0 -0.20867738023E+02 -0.21902293107E+02 -0.20980073565E+02  0.36814894002E+02  0.00000000000E+00 0.  1.
         14    1    3    3    0    0  0.12318365820E+02 -0.27761184744E+02  0.55159842614E+02  0.62968513974E+02  0.00000000000E+00 0. -1.
          5    1    4    4  501    0 -0.15908177362E+03 -0.16681554064E+02  0.23914067423E+03  0.28774231009E+03  0.47000000000E+01 0. -1.
         -5    1    4    4    0  501  0.12044471655E+02 -0.11611628112E+02 -0.39358503127E+01  0.17817971898E+02  0.47000000000E+01 0. -1.
          1    1    1    2  502    0  0.11260527574E+02  0.11915794104E+03 -0.73720544958E+03  0.74685827925E+03  0.00000000000E+00 0. -1.
          1    1    1    2  503    0  0.46572178362E+02 -0.29550774079E+02  0.34654755277E+04  0.34659144319E+04  0.00000000000E+00 0. -1.
<mgrwt>
<rscale>  0 0.81079962E+02</rscale>
<asrwt>0</asrwt>
<pdfrwt beam="1">  1        2 0.62609617E+00 0.55156287E+02</pdfrwt>
<pdfrwt beam="2">  1        2 0.12046194E+00 0.11918787E+03</pdfrwt>
<totfact> 0.32800336E+00</totfact>
</mgrwt>
</event>
<event>
13    1  0.1589573E-008  0.2535621E+03  0.7546771E-02  0.1299742E+00
          2   -1    0    0  503    0  0.00000000000E+00  0.00000000000E+00  0.33573209150E+04  0.33573209150E+04  0.00000000000E+00 0. -1.
          2   -1    0    0  502    0 -0.00000000000E+00 -0.00000000000E+00 -0.74487168774E+03  0.74487168774E+03  0.00000000000E+00 0. -1.
         24    2    1    2    0    0  0.18213181648E+02 -0.17413401097E+03 -0.76112026045E+02  0.21090596491E+03  0.89632091152E+02 0.  0.
         25    2    1    2    0    0  0.12751014615E+03  0.19514486507E+03  0.11226053899E+04  0.11533472900E+04  0.12500701584E+03 0.  0.
         24    2    1    2    0    0 -0.43827023640E+02  0.15560912001E+03  0.15489260496E+03  0.23844847453E+03  0.82042365285E+02 0.  0.
        -11    1    5    5    0    0 -0.67531486820E+02  0.10588973444E+03  0.11652344075E+03  0.17132089719E+03  0.00000000000E+00 0.  1.
         12    1    5    5    0    0  0.23704463180E+02  0.49719385571E+02  0.38369164214E+02  0.67127577334E+02  0.00000000000E+00 0. -1.
        -11    1    3    3    0    0 -0.17417649753E+02 -0.32106638268E+02 -0.50388425900E+02  0.62235072174E+02  0.00000000000E+00 0.  1.
         12    1    3    3    0    0  0.35630831401E+02 -0.14202737270E+03 -0.25723600145E+02  0.14867089274E+03  0.00000000000E+00 0. -1.
          5    1    4    4  501    0  0.11102863385E+03  0.18797006206E+03  0.77305116252E+03  0.80329962757E+03  0.47000000000E+01 0.  1.
         -5    1    4    4    0  501  0.16481512301E+02  0.71748030051E+01  0.34955422742E+03  0.35004766240E+03  0.47000000000E+01 0.  1.
          1    1    1    2  502    0 -0.13474007746E+03 -0.17525794975E+03 -0.52161834931E+03  0.56652973422E+03  0.00000000000E+00 0. -1.
          1    1    1    2  503    0  0.32843773299E+02 -0.13620243517E+01  0.19326816077E+04  0.19329611391E+04  0.00000000000E+00 0. -1.
<mgrwt>
<rscale>  0 0.91296728E+02</rscale>
<asrwt>0</asrwt>
<pdfrwt beam="1">  1        2 0.49372366E+00 0.32872003E+02</pdfrwt>
<pdfrwt beam="2">  1        2 0.10953996E+00 0.25356206E+03</pdfrwt>
<totfact> 0.14516219E+01</totfact>
</mgrwt>
</event>
<event>
13    1  0.1589573E-008  0.1679870E+03  0.7546771E-02  0.1360288E+00
         -1   -1    0    0    0  501 -0.00000000000E+00  0.00000000000E+00  0.39059973650E+03  0.39059973650E+03  0.00000000000E+00 0.  1.
          2   -1    0    0  503    0  0.00000000000E+00 -0.00000000000E+00 -0.92525790819E+03  0.92525790819E+03  0.00000000000E+00 0. -1.
         24    2    1    2    0    0  0.11539986929E+03  0.50068228763E+02 -0.28958886266E+03  0.32647544273E+03  0.83069536926E+02 0.  0.
         25    2    1    2    0    0 -0.47907311289E+02 -0.92313683950E+02  0.51954795322E+02  0.17069180197E+03  0.12497785317E+03 0.  0.
         24    2    1    2    0    0 -0.64780813245E+02 -0.11327222420E+03 -0.96747595327E+02  0.18035708346E+03  0.78367275128E+02 0.  0.
        -11    1    5    5    0    0 -0.34966879651E+02 -0.92043325913E+01 -0.51733191178E+02  0.63116760693E+02  0.00000000000E+00 0.  1.
         12    1    5    5    0    0 -0.29813933594E+02 -0.10406789161E+03 -0.45014404149E+02  0.11724032276E+03  0.00000000000E+00 0. -1.
        -13    1    3    3    0    0  0.11023554086E+03  0.20465023330E+02 -0.26466600305E+03  0.28743483577E+03  0.00000000000E+00 0.  1.
         14    1    3    3    0    0  0.51643284247E+01  0.29603205433E+02 -0.24922859618E+02  0.39040606957E+02  0.00000000000E+00 0. -1.
          5    1    4    4  502    0  0.45418827878E+00 -0.21731081289E+02 -0.39522012975E+02  0.45348932628E+02  0.47000000000E+01 0.  1.
         -5    1    4    4    0  502 -0.48361499568E+02 -0.70582602661E+02  0.91476808297E+02  0.12534286934E+03  0.47000000000E+01 0.  1.
          1    1    1    2  503    0 -0.16401678896E+02  0.18122045979E+03 -0.39844964259E+03  0.43803194837E+03  0.00000000000E+00 0. -1.
         -2    1    1    2    0  501  0.13689934143E+02 -0.25702780396E+02  0.19817313357E+03  0.20030136816E+03  0.00000000000E+00 0.  1.
<mgrwt>
<rscale>  0 0.69942774E+02</rscale>
<asrwt>0</asrwt>
<pdfrwt beam="2">  1        2 0.13606734E+00 0.16798700E+03</pdfrwt>
<pdfrwt beam="1">  1       -1 0.57441138E-01 0.29121250E+02</pdfrwt>
<totfact> 0.11867946E+02</totfact>
</mgrwt>
</event>
<event>
13    1  0.1589573E-008  0.8260660E+02  0.7546771E-02  0.1364222E+00
          2   -1    0    0  503    0  0.00000000000E+00  0.00000000000E+00  0.94985389866E+03  0.94985389866E+03  0.00000000000E+00 0. -1.
          2   -1    0    0  502    0 -0.00000000000E+00 -0.00000000000E+00 -0.30568084673E+04  0.30568084673E+04  0.00000000000E+00 0. -1.
         24    2    1    2    0    0 -0.15455166751E+02 -0.22327008987E+02 -0.15981952032E+03  0.17993320817E+03  0.78078952471E+02 0.  0.
         25    2    1    2    0    0  0.89147948443E+01 -0.53773181957E+02  0.43720724041E+03  0.45797995224E+03  0.12499774767E+03 0.  0.
         24    2    1    2    0    0  0.50251690856E+02 -0.38731754590E+01 -0.36974243556E+02  0.10183031067E+03  0.80387085798E+02 0.  0.
        -11    1    5    5    0    0  0.67204701227E+02 -0.21339102760E+02 -0.26385127608E+02  0.75286148344E+02  0.00000000000E+00 0.  1.
         12    1    5    5    0    0 -0.16953010371E+02  0.17465927301E+02 -0.10589115948E+02  0.26544162328E+02  0.00000000000E+00 0. -1.
        -11    1    3    3    0    0 -0.41947918917E+02  0.76630916264E+01 -0.81192974202E+02  0.91709595651E+02  0.00000000000E+00 0.  1.
         12    1    3    3    0    0  0.26492752166E+02 -0.29990100613E+02 -0.78626546114E+02  0.88223612519E+02  0.00000000000E+00 0. -1.
          5    1    4    4  501    0 -0.28937291981E+02 -0.13158093274E+02  0.36674555916E+03  0.36815064505E+03  0.47000000000E+01 0.  1.
         -5    1    4    4    0  501  0.37852086825E+02 -0.40615088683E+02  0.70461681246E+02  0.89829307187E+02  0.47000000000E+01 0.  1.
          1    1    1    2  502    0 -0.54789485900E+02 -0.16778943910E+02 -0.28016905057E+04  0.28022764158E+04  0.00000000000E+00 0. -1.
          1    1    1    2  503    0  0.11078166951E+02  0.96752310313E+02  0.45432246047E+03  0.46464247914E+03  0.00000000000E+00 0. -1.
<mgrwt>
<rscale>  0 0.68800089E+02</rscale>
<asrwt>0</asrwt>
<pdfrwt beam="1">  1        2 0.13968440E+00 0.82606597E+02</pdfrwt>
<pdfrwt beam="2">  1        2 0.44953065E+00 0.57301141E+02</pdfrwt>
<totfact> 0.14579132E+01</totfact>
</mgrwt>
</event>
<event>
13    1  0.1589573E-008  0.1097607E+03  0.7546771E-02  0.1290451E+00
          2   -1    0    0  502    0  0.00000000000E+00  0.00000000000E+00  0.38267133383E+04  0.38267133383E+04  0.00000000000E+00 0. -1.
          2   -1    0    0  503    0 -0.00000000000E+00 -0.00000000000E+00 -0.13182070952E+04  0.13182070952E+04  0.00000000000E+00 0. -1.
         24    2    1    2    0    0  0.27962442133E+02 -0.26863639979E+02  0.15034130788E+03  0.17509736316E+03  0.80950752977E+02 0.  0.
         25    2    1    2    0    0  0.94261695368E+02  0.37298510104E+02  0.10468525553E+04  0.10591511233E+04  0.12499753378E+03 0.  0.
         24    2    1    2    0    0 -0.37832517162E+02  0.13339964682E+02  0.15420208275E+02  0.90396159271E+02  0.79526277262E+02 0.  0.
        -11    1    5    5    0    0 -0.77600210699E+01  0.43472988139E+02  0.18132956017E+02  0.47738063625E+02  0.00000000000E+00 0.  1.
         12    1    5    5    0    0 -0.30072496092E+02 -0.30133023457E+02 -0.27127477417E+01  0.42658095646E+02  0.00000000000E+00 0. -1.
        -13    1    3    3    0    0 -0.48790291489E+01  0.16172220679E+02  0.99191280300E+02  0.10061936064E+03  0.00000000000E+00 0.  1.
         14    1    3    3    0    0  0.32841471282E+02 -0.43035860659E+02  0.51150027578E+02  0.74478002523E+02  0.00000000000E+00 0. -1.
          5    1    4    4  501    0  0.75296093760E+02 -0.23552555034E+02  0.80935049615E+03  0.81320018458E+03  0.47000000000E+01 0.  1.
         -5    1    4    4    0  501  0.18965601608E+02  0.60851065137E+02  0.23750205914E+03  0.24595093874E+03  0.47000000000E+01 0.  1.
          1    1    1    2  502    0 -0.32196484129E+02  0.94010268094E+02  0.25538277167E+04  0.25557602686E+04  0.00000000000E+00 0. -1.
          1    1    1    2  503    0 -0.52195136210E+02 -0.11778510290E+03 -0.12579355450E+04  0.12645155191E+04  0.00000000000E+00 0. -1.
<mgrwt>
<rscale>  0 0.95322701E+02</rscale>
<asrwt>0</asrwt>
<pdfrwt beam="1">  1        2 0.56275196E+00 0.82783909E+02</pdfrwt>
<pdfrwt beam="2">  1        2 0.19385399E+00 0.10976067E+03</pdfrwt>
<totfact> 0.30470601E+00</totfact>
</mgrwt>
</event>
<event>
13    1  0.1589573E-008  0.1338907E+03  0.7546771E-02  0.1266544E+00
         -1   -1    0    0    0  501 -0.00000000000E+00  0.00000000000E+00  0.56572587127E+03  0.56572587127E+03  0.00000000000E+00 0.  1.
          2   -1    0    0  503    0  0.00000000000E+00 -0.00000000000E+00 -0.52927544065E+04  0.52927544065E+04  0.00000000000E+00 0. -1.
         24    2    1    2    0    0  0.19848383462E+02 -0.10359325799E+02  0.14301630609E+02  0.84441380291E+02  0.80153203993E+02 0.  0.
         25    2    1    2    0    0 -0.55975971514E+02  0.20147810033E+03 -0.11614885307E+04  0.11867632238E+04  0.12499843194E+03 0.  0.
         24    2    1    2    0    0  0.19082828871E+03 -0.91597128851E+02 -0.12361851689E+04  0.12566481230E+04  0.78773493687E+02 0.  0.
        -13    1    3    3    0    0  0.18726153201E+02 -0.34050660416E+02  0.35497452734E+02  0.52632551136E+02  0.00000000000E+00 0.  1.
         14    1    3    3    0    0  0.11222302608E+01  0.23691334617E+02 -0.21195822124E+02  0.31808829155E+02  0.00000000000E+00 0. -1.
        -13    1    5    5    0    0  0.12898124831E+03 -0.72367717119E+02 -0.10290405639E+04  0.10396142223E+04  0.00000000000E+00 0.  1.
         14    1    5    5    0    0  0.61847040399E+02 -0.19229411731E+02 -0.20714460498E+03  0.21703390070E+03  0.00000000000E+00 0. -1.
          5    1    4    4  502    0 -0.65706552280E+02  0.43585861822E+02 -0.26923414691E+03  0.28058188506E+03  0.47000000000E+01 0. -1.
         -5    1    4    4    0  502  0.97305807658E+01  0.15789223851E+03 -0.89225438380E+03  0.90618133869E+03  0.47000000000E+01 0. -1.
          1    1    1    2  503    0 -0.27695241160E+02  0.80645422282E+02 -0.28118474420E+04  0.28131400157E+04  0.00000000000E+00 0. -1.
         -2    1    1    2    0  501 -0.12700545949E+03 -0.18016706796E+03  0.46819097582E+03  0.51748753508E+03  0.00000000000E+00 0.  1.
<mgrwt>
<rscale>  0 0.10683599E+03</rscale>
<asrwt>0</asrwt>
<pdfrwt beam="2">  1        2 0.77834622E+00 0.85248132E+02</pdfrwt>
<pdfrwt beam="1">  1       -1 0.83194983E-01 0.13389066E+03</pdfrwt>
<totfact> 0.10542578E-01</totfact>
</mgrwt>
</event>
<event>
13    1  0.1589573E-008  0.6483121E+02  0.7546771E-02  0.1415914E+00
          2   -1    0    0  503    0  0.00000000000E+00  0.00000000000E+00  0.12443338447E+04  0.12443338447E+04  0.00000000000E+00 0. -1.
         -1   -1    0    0    0  501 -0.00000000000E+00 -0.00000000000E+00 -0.62578845327E+03  0.62578845327E+03  0.00000000000E+00 0.  1.
         24    2    1    2    0    0 -0.51313990369E+02 -0.75589191420E+02 -0.11494724090E+03  0.16733790910E+03  0.80263666517E+02 0.  0.
         25    2    1    2    0    0  0.13326082707E+02  0.90992394027E+02  0.10129828234E+03  0.18531789797E+03  0.12499672416E+03 0.  0.
         24    2    1    2    0    0 -0.17600394326E+02  0.49686126286E+02 -0.12813914104E+03  0.15839808420E+03  0.76758247678E+02 0.  0.
        -13    1    5    5    0    0  0.31548212822E+01 -0.17733631786E+02 -0.49908889897E+02  0.53059701134E+02  0.00000000000E+00 0.  1.
         14    1    5    5    0    0 -0.20755215608E+02  0.67419758072E+02 -0.78230251139E+02  0.10533838307E+03  0.00000000000E+00 0. -1.
        -13    1    3    3    0    0  0.16122891987E+01 -0.22255881702E+02  0.76145184090E+01  0.23577630021E+02  0.00000000000E+00 0.  1.
         14    1    3    3    0    0 -0.52926279568E+02 -0.53333309718E+02 -0.12256175931E+03  0.14376027908E+03  0.00000000000E+00 0. -1.
          5    1    4    4  502    0 -0.11612861446E+01  0.20490751411E+02 -0.29326699424E+02  0.36102143676E+02  0.47000000000E+01 0.  1.
         -5    1    4    4    0  502  0.14487368852E+02  0.70501642615E+02  0.13062498177E+03  0.14921575429E+03  0.47000000000E+01 0.  1.
          1    1    1    2  503    0  0.48183334502E+02 -0.80691487175E+00  0.10556482455E+04  0.10567476061E+04  0.00000000000E+00 0. -1.
         -2    1    1    2    0  501  0.74049674849E+01 -0.64282414021E+02 -0.29531475444E+03  0.30232080061E+03  0.00000000000E+00 0.  1.
<mgrwt>
<rscale>  0 0.55894740E+02</rscale>
<asrwt>0</asrwt>
<pdfrwt beam="1">  1        2 0.18299027E+00 0.48190091E+02</pdfrwt>
<pdfrwt beam="2">  1       -1 0.92027713E-01 0.64831211E+02</pdfrwt>
<totfact> 0.33365733E+01</totfact>
</mgrwt>
</event>
<event>
13    1  0.1589573E-008  0.5292649E+02  0.7546771E-02  0.1458965E+00
          2   -1    0    0  503    0  0.00000000000E+00  0.00000000000E+00  0.26568371983E+04  0.26568371983E+04  0.00000000000E+00 0. -1.
          2   -1    0    0  502    0 -0.00000000000E+00 -0.00000000000E+00 -0.22592676458E+04  0.22592676458E+04  0.00000000000E+00 0. -1.
         24    2    1    2    0    0 -0.67826977893E+03 -0.27727005123E+03 -0.23024447099E+03  0.76969981502E+03  0.49967134257E+02 0.  0.
         25    2    1    2    0    0  0.52571618304E+03 -0.47802924253E+02 -0.34918147441E+03  0.64514809925E+03  0.12500297280E+03 0.  0.
         24    2    1    2    0    0  0.17352935357E+03  0.37363118944E+03 -0.17927947262E+03  0.45636492602E+03  0.80094407614E+02 0.  0.
        -11    1    5    5    0    0  0.43075308606E+02  0.16647295988E+03 -0.47775552745E+02  0.17846913465E+03  0.00000000000E+00 0.  1.
         12    1    5    5    0    0  0.13045404496E+03  0.20715822956E+03 -0.13150391987E+03  0.27789579137E+03  0.00000000000E+00 0. -1.
        -11    1    3    3    0    0 -0.30100499351E+03 -0.14703042747E+03 -0.11686828644E+03  0.35479592599E+03  0.00000000000E+00 0.  1.
         12    1    3    3    0    0 -0.37726478542E+03 -0.13023962375E+03 -0.11337618455E+03  0.41490388904E+03  0.00000000000E+00 0. -1.
          5    1    4    4  501    0  0.36681663424E+03  0.18699430302E+02 -0.26779204803E+03  0.45457538741E+03  0.47000000000E+01 0. -1.
         -5    1    4    4    0  501  0.15889954880E+03 -0.66502354555E+02 -0.81389426384E+02  0.19057271184E+03  0.47000000000E+01 0. -1.
          1    1    1    2  502    0 -0.50062393261E+02 -0.17245566164E+02 -0.94334863688E+03  0.94483347923E+03  0.00000000000E+00 0. -1.
          1    1    1    2  503    0  0.29086635585E+02 -0.31312647796E+02  0.20996236074E+04  0.21000585246E+04  0.00000000000E+00 0. -1.
<mgrwt>
<rscale>  0 0.47560053E+02</rscale>
<asrwt>0</asrwt>
<pdfrwt beam="1">  1        2 0.39071136E+00 0.42737738E+02</pdfrwt>
<pdfrwt beam="2">  1        2 0.33224524E+00 0.52926494E+02</pdfrwt>
<totfact> 0.56982712E+00</totfact>
</mgrwt>
</event>
<event>
13    1  0.1589573E-008  0.1249617E+03  0.7546771E-02  0.1311711E+00
          2   -1    0    0  502    0  0.00000000000E+00  0.00000000000E+00  0.15597281325E+04  0.15597281325E+04  0.00000000000E+00 0. -1.
          2   -1    0    0  503    0 -0.00000000000E+00 -0.00000000000E+00 -0.10568945235E+04  0.10568945235E+04  0.00000000000E+00 0. -1.
         24    2    1    2    0    0 -0.25683922655E+03 -0.61612771569E+02  0.20622856570E+03  0.34477028005E+03  0.81078990973E+02 0.  0.
         25    2    1    2    0    0  0.10571783673E+03  0.16852820854E+03  0.12329029819E+03  0.26533747506E+03  0.12500183986E+03 0.  0.
         24    2    1    2    0    0 -0.13470909885E+02 -0.74996292185E+02 -0.60096263762E+02  0.12645311554E+03  0.81073548437E+02 0.  0.
        -13    1    5    5    0    0 -0.16843526762E+01 -0.86462325050E+02 -0.28885081700E+02  0.91175208482E+02  0.00000000000E+00 0.  1.
         14    1    5    5    0    0 -0.11786557209E+02  0.11466032864E+02 -0.31211182062E+02  0.35277907055E+02  0.00000000000E+00 0. -1.
        -13    1    3    3    0    0 -0.10712458668E+03 -0.23570722813E+02  0.13698534802E+03  0.17548857974E+03  0.00000000000E+00 0.  1.
         14    1    3    3    0    0 -0.14971463987E+03 -0.38042048756E+02  0.69243217678E+02  0.16928170031E+03  0.00000000000E+00 0. -1.
          5    1    4    4  501    0  0.47956393464E+02 -0.54713394363E+01  0.44191061925E+02  0.65610145430E+02  0.47000000000E+01 0. -1.
         -5    1    4    4    0  501  0.57761443263E+02  0.17399954797E+03  0.79099236267E+02  0.19972732963E+03  0.47000000000E+01 0. -1.
          1    1    1    2  502    0  0.59452132219E+02  0.63710569374E+01  0.10520817807E+04  0.10537794929E+04  0.00000000000E+00 0. -1.
          1    1    1    2  503    0  0.10514016749E+03 -0.38290201721E+02 -0.81867077177E+03  0.82628229251E+03  0.00000000000E+00 0. -1.
<mgrwt>
<rscale>  0 0.86439433E+02</rscale>
<asrwt>0</asrwt>
<pdfrwt beam="1">  1        2 0.22937178E+00 0.59792528E+02</pdfrwt>
<pdfrwt beam="2">  1        2 0.15542567E+00 0.12496169E+03</pdfrwt>
<totfact> 0.65544605E+01</totfact>
</mgrwt>
</event>
<event>
13    1  0.1589573E-008  0.3361432E+03  0.7546771E-02  0.1214044E+00
          2   -1    0    0  503    0  0.00000000000E+00  0.00000000000E+00  0.31529810214E+04  0.31529810214E+04  0.00000000000E+00 0. -1.
         -1   -1    0    0    0  501 -0.00000000000E+00 -0.00000000000E+00 -0.21953718958E+03  0.21953718958E+03  0.00000000000E+00 0.  1.
         24    2    1    2    0    0  0.67108763065E+02  0.51667568230E+01  0.20077445361E+03  0.22605903070E+03  0.79132943090E+02 0.  0.
         25    2    1    2    0    0 -0.20961141075E+03  0.31145855369E+03  0.75896766236E+03  0.85592048410E+03  0.12499835367E+03 0.  0.
         24    2    1    2    0    0 -0.71133538012E+02 -0.14605353915E+03  0.32259087704E+03  0.36945446568E+03  0.77718155749E+02 0.  0.
        -13    1    5    5    0    0 -0.24345649195E+02 -0.76443146933E+02  0.23439717464E+03  0.24774644463E+03  0.00000000000E+00 0.  1.
         14    1    5    5    0    0 -0.46787888817E+02 -0.69610392220E+02  0.88193702398E+02  0.12170802105E+03  0.00000000000E+00 0. -1.
        -13    1    3    3    0    0  0.59997042390E+02  0.28189860350E+02  0.18677773318E+03  0.19819241896E+03  0.00000000000E+00 0.  1.
         14    1    3    3    0    0  0.71117206757E+01 -0.23023103527E+02  0.13996720432E+02  0.27866611739E+02  0.00000000000E+00 0. -1.
          5    1    4    4  502    0 -0.16939501026E+02  0.10238543804E+03  0.13610280235E+03  0.17121853704E+03  0.47000000000E+01 0. -1.
         -5    1    4    4    0  502 -0.19267190972E+03  0.20907311565E+03  0.62286486000E+03  0.68470194706E+03  0.47000000000E+01 0. -1.
          1    1    1    2  503    0  0.26729224293E+03 -0.19224371519E+03  0.17638741012E+04  0.17943396095E+04  0.00000000000E+00 0. -1.
         -2    1    1    2    0  501 -0.53656057239E+02  0.21671943825E+02 -0.11276326237E+03  0.12674462106E+03  0.00000000000E+00 0.  1.
<mgrwt>
<rscale>  0 0.13946957E+03</rscale>
<asrwt>0</asrwt>
<pdfrwt beam="1">  1        2 0.46367365E+00 0.33614322E+03</pdfrwt>
<pdfrwt beam="2">  1       -1 0.32284883E-01 0.57867483E+02</pdfrwt>
<totfact> 0.20156129E+01</totfact>
</mgrwt>
</event>
<event>
13    1  0.1589573E-008  0.1582430E+03  0.7546771E-02  0.1212427E+00
          2   -1    0    0  502    0  0.00000000000E+00  0.00000000000E+00  0.24349326538E+04  0.24349326538E+04  0.00000000000E+00 0. -1.
          2   -1    0    0  503    0 -0.00000000000E+00 -0.00000000000E+00 -0.89589723917E+03  0.89589723917E+03  0.00000000000E+00 0. -1.
         24    2    1    2    0    0  0.77196126388E+02  0.71532084689E+02 -0.21512154791E+03  0.25271011454E+03  0.80678625078E+02 0.  0.
         25    2    1    2    0    0 -0.39727735887E+01 -0.98451177588E+02  0.27756280573E+03  0.31998247550E+03  0.12505701181E+03 0.  0.
         24    2    1    2    0    0 -0.42877744389E+02  0.47192606126E+02  0.22854668995E+03  0.25060542594E+03  0.80646431951E+02 0.  0.
        -11    1    3    3    0    0 -0.93003073152E+00  0.27064269024E+02 -0.10198993720E+02  0.28937157564E+02  0.00000000000E+00 0.  1.
         12    1    3    3    0    0  0.78126157120E+02  0.44467815665E+02 -0.20492255419E+03  0.22377295697E+03  0.00000000000E+00 0. -1.
        -11    1    5    5    0    0 -0.64811480948E+02  0.37907555393E+02  0.13943432983E+03  0.15836490506E+03  0.00000000000E+00 0.  1.
         12    1    5    5    0    0  0.21933736559E+02  0.92850507335E+01  0.89112360118E+02  0.92240520881E+02  0.00000000000E+00 0. -1.
          5    1    4    4  501    0  0.13028271818E+02  0.26532377129E+02  0.31605732566E+02  0.43528326797E+02  0.47000000000E+01 0.  1.
         -5    1    4    4    0  501 -0.17001045407E+02 -0.12498355472E+03  0.24595707316E+03  0.27645414870E+03  0.47000000000E+01 0.  1.
          1    1    1    2  502    0 -0.14504669691E+03  0.74074820421E+02  0.18654351821E+04  0.18725314528E+04  0.00000000000E+00 0. -1.
          1    1    1    2  503    0  0.11470108850E+03 -0.94348333649E+02 -0.61738771522E+03  0.63500042415E+03  0.00000000000E+00 0. -1.
<mgrwt>
<rscale>  0 0.14067274E+03</rscale>
<asrwt>0</asrwt>
<pdfrwt beam="1">  1        2 0.35807833E+00 0.12505338E+03</pdfrwt>
<pdfrwt beam="2">  1        2 0.13174959E+00 0.15824299E+03</pdfrwt>
<totfact> 0.28329418E+01</totfact>
</mgrwt>
</event>
<event>
13    1  0.1589573E-008  0.1016589E+03  0.7546771E-02  0.1301419E+00
          2   -1    0    0  502    0  0.00000000000E+00  0.00000000000E+00  0.54079462575E+03  0.54079462575E+03  0.00000000000E+00 0. -1.
          2   -1    0    0  503    0 -0.00000000000E+00 -0.00000000000E+00 -0.18423493517E+04  0.18423493517E+04  0.00000000000E+00 0. -1.
         24    2    1    2    0    0  0.23564208389E+02  0.68594118368E+02 -0.12582389787E+03  0.16350066080E+03  0.75102515376E+02 0.  0.
         25    2    1    2    0    0  0.26021809715E+02 -0.20390177691E+02 -0.58891427699E+03  0.60294303933E+03  0.12500955603E+03 0.  0.
         24    2    1    2    0    0 -0.54373644253E+02  0.19709060493E+02  0.37109287090E+03  0.38440514107E+03  0.81929563602E+02 0.  0.
        -11    1    5    5    0    0  0.89945956204E+01  0.30770370887E+02  0.77898281873E+02  0.84236932480E+02  0.00000000000E+00 0.  1.
         12    1    5    5    0    0 -0.63368239873E+02 -0.11061310394E+02  0.29319458903E+03  0.30016820859E+03  0.00000000000E+00 0. -1.
        -13    1    3    3    0    0 -0.12602118297E+02  0.19798767714E+02 -0.89948032235E+02  0.92959416368E+02  0.00000000000E+00 0.  1.
         14    1    3    3    0    0  0.36166326685E+02  0.48795350654E+02 -0.35875865639E+02  0.70541244437E+02  0.00000000000E+00 0. -1.
          5    1    4    4  501    0  0.45927452077E+02  0.18162808755E+02 -0.51288033416E+03  0.51527424314E+03  0.47000000000E+01 0. -1.
         -5    1    4    4    0  501 -0.19905642362E+02 -0.38552986446E+02 -0.76033942834E+02  0.87668796186E+02  0.47000000000E+01 0. -1.
          1    1    1    2  502    0  0.10614663701E+03 -0.37969513949E+02  0.11097953804E+03  0.15819371164E+03  0.00000000000E+00 0. -1.
          1    1    1    2  503    0 -0.10135901086E+03 -0.29943487221E+02 -0.10688889600E+04  0.10741014246E+04  0.00000000000E+00 0. -1.
<mgrwt>
<rscale>  0 0.90594321E+02</rscale>
<asrwt>0</asrwt>
<pdfrwt beam="1">  1        2 0.79528621E-01 0.80733985E+02</pdfrwt>
<pdfrwt beam="2">  1        2 0.27093373E+00 0.10165894E+03</pdfrwt>
<totfact> 0.10355254E+02</totfact>
</mgrwt>
</event>
<event>
13    1  0.1589573E-008  0.9656790E+02  0.7546771E-02  0.1307364E+00
         -1   -1    0    0    0  501 -0.00000000000E+00  0.00000000000E+00  0.11552888185E+03  0.11552888185E+03  0.00000000000E+00 0.  1.
          2   -1    0    0  503    0  0.00000000000E+00 -0.00000000000E+00 -0.34500342708E+04  0.34500342708E+04  0.00000000000E+00 0. -1.
         24    2    1    2    0    0  0.45921267885E+02 -0.93598903380E+02  0.16170719391E+01  0.13132967782E+03  0.79845800111E+02 0.  0.
         25    2    1    2    0    0 -0.14322159385E+03  0.11532637752E+02 -0.67612585316E+03  0.70243634545E+03  0.12500089367E+03 0.  0.
         24    2    1    2    0    0 -0.30828430280E+02 -0.20970274396E+02 -0.56415642573E+03  0.57103115394E+03  0.80087212176E+02 0.  0.
        -13    1    5    5    0    0 -0.25805594946E+02 -0.36693757174E+02 -0.15044638335E+03  0.15699195779E+03  0.00000000000E+00 0.  1.
         14    1    5    5    0    0 -0.50228353346E+01  0.15723482779E+02 -0.41371004238E+03  0.41403919615E+03  0.00000000000E+00 0. -1.
        -13    1    3    3    0    0  0.60524911033E+02 -0.33337064806E+02 -0.28981054148E+01  0.69159408329E+02  0.00000000000E+00 0.  1.
         14    1    3    3    0    0 -0.14603643148E+02 -0.60261838574E+02  0.45151773539E+01  0.62170269486E+02  0.00000000000E+00 0. -1.
          5    1    4    4  502    0 -0.40543887408E+02 -0.38989417983E+02 -0.39283769506E+03  0.39687217865E+03  0.47000000000E+01 0. -1.
         -5    1    4    4    0  502 -0.10267770644E+03  0.50522055735E+02 -0.28328815809E+03  0.30556416680E+03  0.47000000000E+01 0. -1.
          1    1    1    2  503    0  0.34303193016E+02  0.87252388542E+02 -0.20551480916E+04  0.20572854363E+04  0.00000000000E+00 0. -1.
         -2    1    1    2    0  501  0.93825563228E+02  0.15784151481E+02 -0.40692090468E+02  0.10348053913E+03  0.00000000000E+00 0.  1.
<mgrwt>
<rscale>  0 0.88162302E+02</rscale>
<asrwt>0</asrwt>
<pdfrwt beam="2">  1        2 0.50735797E+00 0.80488358E+02</pdfrwt>
<pdfrwt beam="1">  1       -1 0.16989542E-01 0.96567897E+02</pdfrwt>
<totfact> 0.48803643E+01</totfact>
</mgrwt>
</event>
<event>
13    1  0.1589573E-008  0.6635471E+02  0.7546771E-02  0.1381361E+00
          2   -1    0    0  503    0  0.00000000000E+00  0.00000000000E+00  0.27821935491E+04  0.27821935491E+04  0.00000000000E+00 0. -1.
          2   -1    0    0  502    0 -0.00000000000E+00 -0.00000000000E+00 -0.22378754862E+04  0.22378754862E+04  0.00000000000E+00 0. -1.
         24    2    1    2    0    0  0.99156078766E+02 -0.47369889186E+03 -0.14648675558E+03  0.51192804610E+03  0.79933639443E+02 0.  0.
         25    2    1    2    0    0 -0.34463543294E+03  0.14708008615E+03  0.10968195749E+04  0.11657805305E+04  0.12499972788E+03 0.  0.
         24    2    1    2    0    0  0.31230823606E+03  0.28790091241E+03  0.31309667768E+03  0.53786119070E+03  0.10412377834E+03 0.  0.
        -11    1    5    5    0    0  0.29481657391E+02  0.54023862379E+02  0.11005650214E+02  0.62520957810E+02  0.00000000000E+00 0.  1.
         12    1    5    5    0    0  0.28282657867E+03  0.23387705003E+03  0.30209102747E+03  0.47534023289E+03  0.00000000000E+00 0. -1.
        -13    1    3    3    0    0  0.41991286028E+02 -0.33532455727E+03 -0.12667801376E+03  0.36090600713E+03  0.00000000000E+00 0.  1.
         14    1    3    3    0    0  0.57164792737E+02 -0.13837433460E+03 -0.19808741819E+02  0.15102203897E+03  0.00000000000E+00 0. -1.
          5    1    4    4  501    0 -0.47554751150E+02  0.55872990261E+02  0.12023696110E+03  0.14093353828E+03  0.47000000000E+01 0.  1.
         -5    1    4    4    0  501 -0.29708068179E+03  0.91207095894E+02  0.97658261383E+03  0.10248469922E+04  0.47000000000E+01 0.  1.
          1    1    1    2  502    0 -0.10958448307E+02  0.65449800267E+02 -0.17602598219E+04  0.17615102624E+04  0.00000000000E+00 0. -1.
          1    1    1    2  503    0 -0.55870433573E+02 -0.26731906962E+02  0.10411483878E+04  0.10429890055E+04  0.00000000000E+00 0. -1.
<mgrwt>
<rscale>  0 0.64107428E+02</rscale>
<asrwt>0</asrwt>
<pdfrwt beam="1">  1        2 0.40914611E+00 0.61936259E+02</pdfrwt>
<pdfrwt beam="2">  1        2 0.32909933E+00 0.66354707E+02</pdfrwt>
<totfact> 0.46441436E+00</totfact>
</mgrwt>
</event>
<event>
13    1  0.1589573E-008  0.1053751E+03  0.7546771E-02  0.1289536E+00
          2   -1    0    0  503    0  0.00000000000E+00  0.00000000000E+00  0.14210550133E+04  0.14210550133E+04  0.00000000000E+00 0. -1.
          2   -1    0    0  502    0 -0.00000000000E+00 -0.00000000000E+00 -0.24259143541E+04  0.24259143541E+04  0.00000000000E+00 0. -1.
         24    2    1    2    0    0 -0.18531025520E+03 -0.10264185729E+03 -0.83220612676E+02  0.24215716160E+03  0.82699328835E+02 0.  0.
         25    2    1    2    0    0  0.23007112545E+03  0.21413327314E+03  0.16949828329E+03  0.37833376831E+03  0.12498396206E+03 0.  0.
         24    2    1    2    0    0 -0.50288767181E+02 -0.86797212039E+02  0.46732622655E+03  0.48462109497E+03  0.80006796872E+02 0.  0.
        -11    1    3    3    0    0 -0.19280338623E+03 -0.10235213155E+03 -0.85322474793E+02  0.23436942906E+03  0.00000000000E+00 0.  1.
         12    1    3    3    0    0  0.74931310336E+01 -0.28972574445E+00  0.21018621167E+01  0.77877325359E+01  0.00000000000E+00 0. -1.
        -13    1    5    5    0    0  0.42876270166E+01 -0.32565359358E+02  0.28274282339E+03  0.28464432289E+03  0.00000000000E+00 0.  1.
         14    1    5    5    0    0 -0.54576394198E+02 -0.54231852681E+02  0.18458340316E+03  0.19997677208E+03  0.00000000000E+00 0. -1.
          5    1    4    4  501    0 -0.22241266989E+01  0.98370596344E+00  0.35242840239E+02  0.35637932110E+02  0.47000000000E+01 0. -1.
         -5    1    4    4    0  501  0.23229525215E+03  0.21314956717E+03  0.13425544305E+03  0.34269583620E+03  0.47000000000E+01 0. -1.
          1    1    1    2  502    0 -0.71874948568E+02  0.48969097902E+02 -0.21444476049E+04  0.21462105002E+04  0.00000000000E+00 0. -1.
          1    1    1    2  503    0  0.77402845496E+02 -0.73663301709E+02  0.58598436699E+03  0.59564684240E+03  0.00000000000E+00 0. -1.
<mgrwt>
<rscale>  0 0.95731902E+02</rscale>
<asrwt>0</asrwt>
<pdfrwt beam="1">  1        2 0.20897868E+00 0.10537514E+03</pdfrwt>
<pdfrwt beam="2">  1        2 0.35675210E+00 0.86971149E+02</pdfrwt>
<totfact> 0.15749611E+01</totfact>
</mgrwt>
</event>
<event>
13    1  0.1589573E-008  0.2922778E+02  0.7546771E-02  0.1643785E+00
          2   -1    0    0  502    0  0.00000000000E+00  0.00000000000E+00  0.17996400158E+04  0.17996400158E+04  0.00000000000E+00 0. -1.
          2   -1    0    0  503    0 -0.00000000000E+00 -0.00000000000E+00 -0.20802203897E+04  0.20802203897E+04  0.00000000000E+00 0. -1.
         24    2    1    2    0    0 -0.41746055128E+03  0.22012950947E+03 -0.92817805659E+03  0.10443182530E+04  0.79723246129E+02 0.  0.
         25    2    1    2    0    0  0.12258785268E+02 -0.13592754662E+03  0.10918605991E+04  0.11074346942E+04  0.12500183324E+03 0.  0.
         24    2    1    2    0    0  0.35444413853E+03 -0.92142410950E+02 -0.52150494615E+03  0.64227662433E+03  0.80193404104E+02 0.  0.
        -11    1    3    3    0    0 -0.17779380739E+03  0.64697429217E+02 -0.30719873754E+03  0.36078727755E+03  0.00000000000E+00 0.  1.
         12    1    3    3    0    0 -0.23966674389E+03  0.15543208026E+03 -0.62097931905E+03  0.68353097544E+03  0.00000000000E+00 0. -1.
        -11    1    5    5    0    0  0.18832645436E+03 -0.58969889409E+02 -0.21330665480E+03  0.29059255023E+03  0.00000000000E+00 0.  1.
         12    1    5    5    0    0  0.16611768417E+03 -0.33172521541E+02 -0.30819829135E+03  0.35168407410E+03  0.00000000000E+00 0. -1.
          5    1    4    4  501    0 -0.47463763833E+02 -0.15676370797E+02  0.33535714858E+03  0.33909447737E+03  0.47000000000E+01 0.  1.
         -5    1    4    4    0  501  0.59722549100E+02 -0.12025117583E+03  0.75650345056E+03  0.76834021688E+03  0.47000000000E+01 0.  1.
          1    1    1    2  502    0  0.23435614157E+02 -0.24201963436E+01  0.58087414638E+03  0.58135175178E+03  0.00000000000E+00 0. -1.
          1    1    1    2  503    0  0.27322013326E+02  0.10360644444E+02 -0.50363211665E+03  0.50447908211E+03  0.00000000000E+00 0. -1.
<mgrwt>
<rscale>  0 0.26241451E+02</rscale>
<asrwt>0</asrwt>
<pdfrwt beam="1">  1        2 0.26465295E+00 0.23560250E+02</pdfrwt>
<pdfrwt beam="2">  1        2 0.30591476E+00 0.29227779E+02</pdfrwt>
<totfact> 0.19966829E+01</totfact>
</mgrwt>
</event>
<event>
13    1  0.1589573E-008  0.8781745E+02  0.7546771E-02  0.1454888E+00
          2   -1    0    0  502    0  0.00000000000E+00  0.00000000000E+00  0.21154524031E+04  0.21154524031E+04  0.00000000000E+00 0. -1.
          2   -1    0    0  503    0 -0.00000000000E+00 -0.00000000000E+00 -0.36274483083E+04  0.36274483083E+04  0.00000000000E+00 0. -1.
         24    2    1    2    0    0  0.22826258958E+03  0.23576196581E+03 -0.19233593365E+04  0.19528014059E+04  0.80216450861E+02 0.  0.
         25    2    1    2    0    0  0.71273079090E+02  0.54987200028E+02  0.88762229307E+03  0.90088760231E+03  0.12498677078E+03 0.  0.
         24    2    1    2    0    0 -0.36849299478E+03 -0.25169842483E+03  0.16706401500E+03  0.48001510861E+03  0.58008060868E+02 0.  0.
        -11    1    3    3    0    0  0.10003594698E+03  0.10730216382E+03 -0.63536075004E+03  0.65207685724E+03  0.00000000000E+00 0.  1.
         12    1    3    3    0    0  0.12822664261E+03  0.12845980199E+03 -0.12879985865E+04  0.13007245486E+04  0.00000000000E+00 0. -1.
        -11    1    5    5    0    0 -0.13363653643E+03 -0.11381911343E+03  0.88417409494E+02  0.19654809273E+03  0.00000000000E+00 0.  1.
         12    1    5    5    0    0 -0.23485645834E+03 -0.13787931139E+03  0.78646605502E+02  0.28346701588E+03  0.00000000000E+00 0. -1.
          5    1    4    4  501    0  0.59062788119E+02  0.53428931240E+02  0.23578387331E+03  0.24891602710E+03  0.47000000000E+01 0.  1.
         -5    1    4    4    0  501  0.12210290971E+02  0.15582687884E+01  0.65183841976E+03  0.65197157521E+03  0.47000000000E+01 0.  1.
          1    1    1    2  502    0 -0.16884649550E+02 -0.20469839940E+02  0.88147348129E+03  0.88187278218E+03  0.00000000000E+00 0. -1.
          1    1    1    2  503    0  0.85841975652E+02 -0.18580901068E+02 -0.15247963580E+04  0.15273238124E+04  0.00000000000E+00 0. -1.
<mgrwt>
<rscale>  0 0.48272511E+02</rscale>
<asrwt>0</asrwt>
<pdfrwt beam="1">  1        2 0.31109595E+00 0.26534991E+02</pdfrwt>
<pdfrwt beam="2">  1        2 0.53344827E+00 0.87817455E+02</pdfrwt>
<totfact> 0.19225889E+00</totfact>
</mgrwt>
</event>
<event>
13    1  0.1589573E-008  0.1002919E+03  0.7546771E-02  0.1448878E+00
          2   -1    0    0  503    0  0.00000000000E+00  0.00000000000E+00  0.66629422327E+03  0.66629422327E+03  0.00000000000E+00 0. -1.
          2   -1    0    0  502    0 -0.00000000000E+00 -0.00000000000E+00 -0.24536142686E+04  0.24536142686E+04  0.00000000000E+00 0. -1.
         24    2    1    2    0    0  0.11270753391E+03  0.41491638926E+02 -0.12917782274E+03  0.19361034981E+03  0.79834286886E+02 0.  0.
         25    2    1    2    0    0 -0.17697581826E+02  0.76386658486E+02  0.38569675830E+03  0.41295867143E+03  0.12499899578E+03 0.  0.
         24    2    1    2    0    0 -0.68210557552E+02 -0.42302314780E+02 -0.54303159095E+03  0.55491279663E+03  0.81257227982E+02 0.  0.
        -11    1    5    5    0    0  0.76848619616E+01  0.16471308320E+02 -0.80807919802E+02  0.82826813315E+02  0.00000000000E+00 0.  1.
         12    1    5    5    0    0 -0.75895419513E+02 -0.58773623100E+02 -0.46222367115E+03  0.47208598332E+03  0.00000000000E+00 0. -1.
        -11    1    3    3    0    0  0.11033824932E+03  0.51266853405E+02 -0.85288245843E+02  0.14858298826E+03  0.00000000000E+00 0.  1.
         12    1    3    3    0    0  0.23692845927E+01 -0.97752144788E+01 -0.43889576898E+02  0.45027361547E+02  0.00000000000E+00 0. -1.
          5    1    4    4  501    0  0.12752783143E+01 -0.22141772493E+02  0.11319136712E+02  0.25339638510E+02  0.47000000000E+01 0. -1.
         -5    1    4    4    0  501 -0.18972860140E+02  0.98528430979E+02  0.37437762159E+03  0.38761903292E+03  0.47000000000E+01 0. -1.
          1    1    1    2  502    0 -0.47371572024E+02 -0.88478465257E+02 -0.17275121717E+04  0.17304250368E+04  0.00000000000E+00 0. -1.
          1    1    1    2  503    0  0.20572177487E+02  0.12902482625E+02  0.22670478169E+03  0.22800163725E+03  0.00000000000E+00 0. -1.
<mgrwt>
<rscale>  0 0.49350168E+02</rscale>
<asrwt>0</asrwt>
<pdfrwt beam="1">  1        2 0.97984445E-01 0.24283504E+02</pdfrwt>
<pdfrwt beam="2">  1        2 0.36082562E+00 0.10029192E+03</pdfrwt>
<totfact> 0.42819352E+01</totfact>
</mgrwt>
</event>
<event>
13    1  0.1589573E-008  0.1565601E+03  0.7546771E-02  0.1208726E+00
         -3   -1    0    0    0  501 -0.00000000000E+00  0.00000000000E+00  0.18439856704E+04  0.18439856704E+04  0.00000000000E+00 0.  1.
          2   -1    0    0  503    0  0.00000000000E+00 -0.00000000000E+00 -0.40930180026E+03  0.40930180026E+03  0.00000000000E+00 0. -1.
         24    2    1    2    0    0 -0.20726179586E+03  0.24858529194E+02  0.70515505083E+03  0.73977230397E+03  0.80274638069E+02 0.  0.
         25    2    1    2    0    0  0.48592538935E+03  0.24319623547E+02  0.28300145573E+03  0.57657452618E+03  0.12503372424E+03 0.  0.
         24    2    1    2    0    0  0.36223161460E+02 -0.11053887165E+02 -0.62696705780E+02  0.10362211336E+03  0.73296381996E+02 0.  0.
        -11    1    3    3    0    0 -0.32611111145E+02  0.15747353968E+01  0.24274601678E+03  0.24493181301E+03  0.00000000000E+00 0.  1.
         12    1    3    3    0    0 -0.17465068472E+03  0.23283793798E+02  0.46240903405E+03  0.49484049096E+03  0.00000000000E+00 0. -1.
        -13    1    5    5    0    0  0.51994829743E+02 -0.31548002364E+01 -0.17250119718E+02  0.54872413058E+02  0.00000000000E+00 0.  1.
         14    1    5    5    0    0 -0.15771668283E+02 -0.78990869285E+01 -0.45446586062E+02  0.48749700301E+02  0.00000000000E+00 0. -1.
          5    1    4    4  502    0  0.81640799884E+02 -0.26283811927E+02  0.94230848117E+02  0.12750530072E+03  0.47000000000E+01 0. -1.
         -5    1    4    4    0  502  0.40428458946E+03  0.50603435474E+02  0.18877060761E+03  0.44906922546E+03  0.47000000000E+01 0. -1.
          1    1    1    2  503    0 -0.18010658987E+03 -0.12007304912E+03 -0.74293437924E+02  0.22885680186E+03  0.00000000000E+00 0. -1.
         -4    1    1    2    0  501 -0.13478016507E+03  0.81948783540E+02  0.58351750728E+03  0.60446172528E+03  0.00000000000E+00 0.  1.
<mgrwt>
<rscale>  0 0.14347699E+03</rscale>
<asrwt>0</asrwt>
<pdfrwt beam="2">  1        2 0.60191442E-01 0.13148715E+03</pdfrwt>
<pdfrwt beam="1">  1       -3 0.27117436E+00 0.15656015E+03</pdfrwt>
<totfact> 0.32582438E+00</totfact>
</mgrwt>
</event>
<event>
13    1  0.1589573E-008  0.8530797E+02  0.7546771E-02  0.1327030E+00
          2   -1    0    0  502    0  0.00000000000E+00  0.00000000000E+00  0.28856952629E+04  0.28856952629E+04  0.00000000000E+00 0. -1.
          2   -1    0    0  503    0 -0.00000000000E+00 -0.00000000000E+00 -0.17429956595E+04  0.17429956595E+04  0.00000000000E+00 0. -1.
         24    2    1    2    0    0 -0.44628398701E+02  0.30252500774E+02 -0.14211686918E+03  0.17156006989E+03  0.79553411629E+02 0.  0.
         25    2    1    2    0    0  0.86953724195E+02 -0.76667445964E+02  0.88265919810E+03  0.89897289738E+03  0.12500465118E+03 0.  0.
         24    2    1    2    0    0 -0.36478950996E+02 -0.53588785774E+02 -0.11852662069E+02  0.10490413909E+03  0.81620591598E+02 0.  0.
        -13    1    3    3    0    0 -0.16554494841E+02  0.48828788174E+02 -0.43839717798E+02  0.67677342668E+02  0.00000000000E+00 0.  1.
         14    1    3    3    0    0 -0.28073903860E+02 -0.18576287400E+02 -0.98277151383E+02  0.10388272722E+03  0.00000000000E+00 0. -1.
        -13    1    5    5    0    0 -0.20123962309E+02 -0.67363284200E+02  0.13655848086E+02  0.71618908845E+02  0.00000000000E+00 0.  1.
         14    1    5    5    0    0 -0.16354988687E+02  0.13774498426E+02 -0.25508510155E+02  0.33285230241E+02  0.00000000000E+00 0. -1.
          5    1    4    4  501    0  0.44418438666E+02  0.28758001191E+02  0.20195957815E+03  0.20882955139E+03  0.47000000000E+01 0. -1.
         -5    1    4    4    0  501  0.42535285529E+02 -0.10542544715E+03  0.68069961995E+03  0.69014334600E+03  0.47000000000E+01 0. -1.
          1    1    1    2  502    0  0.60604932881E+02  0.46473029292E+02  0.19316788192E+04  0.19331879787E+04  0.00000000000E+00 0. -1.
          1    1    1    2  503    0 -0.66451307379E+02  0.53530701671E+02 -0.15176688827E+04  0.15200658373E+04  0.00000000000E+00 0. -1.
<mgrwt>
<rscale>  0 0.80716483E+02</rscale>
<asrwt>0</asrwt>
<pdfrwt beam="1">  1        2 0.42436695E+00 0.76372118E+02</pdfrwt>
<pdfrwt beam="2">  1        2 0.25632289E+00 0.85307974E+02</pdfrwt>
<totfact> 0.66681568E+00</totfact>
</mgrwt>
</event>
<event>
13    1  0.1589573E-008  0.7811900E+02  0.7546771E-02  0.1459273E+00
          2   -1    0    0  502    0  0.00000000000E+00  0.00000000000E+00  0.13830098582E+04  0.13830098582E+04  0.00000000000E+00 0. -1.
          2   -1    0    0  503    0 -0.00000000000E+00 -0.00000000000E+00 -0.20906385068E+03  0.20906385068E+03  0.00000000000E+00 0. -1.
         24    2    1    2    0    0 -0.80228386518E+02  0.55554032514E+02  0.76887236100E+01  0.12802252409E+03  0.82509427776E+02 0.  0.
         25    2    1    2    0    0  0.15289662018E+03 -0.76660484511E+02  0.53770668913E+03  0.57793437820E+03  0.12500182249E+03 0.  0.
         24    2    1    2    0    0 -0.14590237555E+02 -0.68208149184E+01  0.98760242181E+02  0.12790172725E+03  0.79660955617E+02 0.  0.
        -11    1    3    3    0    0 -0.44046192698E+02 -0.99122093978E+01  0.24485662575E+02  0.51360166063E+02  0.00000000000E+00 0.  1.
         12    1    3    3    0    0 -0.36182193820E+02  0.65466241912E+02 -0.16796938965E+02  0.76662358027E+02  0.00000000000E+00 0. -1.
        -13    1    5    5    0    0 -0.89068453280E+01 -0.43322033985E+02  0.50587172680E+02  0.67195182581E+02  0.00000000000E+00 0.  1.
         14    1    5    5    0    0 -0.56833922268E+01  0.36501219067E+02  0.48173069500E+02  0.60706544669E+02  0.00000000000E+00 0. -1.
          5    1    4    4  501    0  0.88230085414E+02 -0.88486266872E+02  0.45666827508E+03  0.47347900783E+03  0.47000000000E+01 0. -1.
         -5    1    4    4    0  501  0.64666534762E+02  0.11825782361E+02  0.81038414051E+02  0.10445537037E+03  0.47000000000E+01 0. -1.
          1    1    1    2  502    0 -0.78232652521E+02  0.72283886866E+01  0.63973332188E+03  0.64453961915E+03  0.00000000000E+00 0. -1.
          1    1    1    2  503    0  0.20154656419E+02  0.20698878229E+02 -0.10994296932E+03  0.11367546014E+03  0.00000000000E+00 0. -1.
<mgrwt>
<rscale>  0 0.47506707E+02</rscale>
<asrwt>0</asrwt>
<pdfrwt beam="1">  1        2 0.20338380E+00 0.78119003E+02</pdfrwt>
<pdfrwt beam="2">  1        2 0.30744685E-01 0.28890374E+02</pdfrwt>
<totfact> 0.46698941E+02</totfact>
</mgrwt>
</event>
<event>
13    1  0.1589573E-008  0.1507298E+03  0.7546771E-02  0.1342245E+00
          2   -1    0    0  502    0  0.00000000000E+00  0.00000000000E+00  0.79955847253E+02  0.79955847253E+02  0.00000000000E+00 0. -1.
          2   -1    0    0  503    0 -0.00000000000E+00 -0.00000000000E+00 -0.26278058217E+04  0.26278058217E+04  0.00000000000E+00 0. -1.
         24    2    1    2    0    0 -0.81196083477E+02 -0.25723374199E+02 -0.64317030464E+03  0.65372364337E+03  0.80200156933E+02 0.  0.
         25    2    1    2    0    0 -0.17664895074E+03  0.84077748386E+02 -0.68125934007E+03  0.71973230969E+03  0.12500555834E+03 0.  0.
         24    2    1    2    0    0  0.10843259199E+03 -0.11688974604E+03 -0.32513002825E+03  0.37070687134E+03  0.79329751388E+02 0.  0.
        -11    1    5    5    0    0 -0.12411426456E+02 -0.16840769544E+02 -0.45336394113E+02  0.49930388109E+02  0.00000000000E+00 0.  1.
         12    1    5    5    0    0  0.12084401845E+03 -0.10004897649E+03 -0.27979363414E+03  0.32077648323E+03  0.00000000000E+00 0. -1.
        -11    1    3    3    0    0 -0.54979282241E+02  0.24424236336E+02 -0.31037855892E+03  0.31615520656E+03  0.00000000000E+00 0.  1.
         12    1    3    3    0    0 -0.26216801236E+02 -0.50147610535E+02 -0.33279174572E+03  0.33756843681E+03  0.00000000000E+00 0. -1.
          5    1    4    4  501    0 -0.15239619383E+03  0.11338726512E+03 -0.60874694062E+03  0.63771168995E+03  0.47000000000E+01 0. -1.
         -5    1    4    4    0  501 -0.24252756910E+02 -0.29309516739E+02 -0.72512399451E+02  0.82020619745E+02  0.47000000000E+01 0. -1.
          1    1    1    2  502    0  0.16513005310E+03  0.24108400893E+02 -0.18438264759E+03  0.24868878173E+03  0.00000000000E+00 0. -1.
          1    1    1    2  503    0 -0.15717610872E+02  0.34426970959E+02 -0.71390765388E+03  0.71491006280E+03  0.00000000000E+00 0. -1.
<mgrwt>
<rscale>  0 0.75527485E+02</rscale>
<asrwt>0</asrwt>
<pdfrwt beam="1">  1        2 0.11758213E-01 0.15072982E+03</pdfrwt>
<pdfrwt beam="2">  1        2 0.38644202E+00 0.37845206E+02</pdfrwt>
<totfact> 0.40690686E+02</totfact>
</mgrwt>
</event>
<event>
13    1  0.1589573E-008  0.2249262E+03  0.7546771E-02  0.1194608E+00
          2   -1    0    0  503    0  0.00000000000E+00  0.00000000000E+00  0.95372732876E+03  0.95372732876E+03  0.00000000000E+00 0. -1.
          2   -1    0    0  502    0 -0.00000000000E+00 -0.00000000000E+00 -0.20600654152E+04  0.20600654152E+04  0.00000000000E+00 0. -1.
         24    2    1    2    0    0  0.22651745810E+02 -0.11503011809E+03 -0.11088372058E+03  0.17747100602E+03  0.73862905663E+02 0.  0.
         25    2    1    2    0    0  0.80310234670E+02  0.18780581943E+03  0.16189448803E+03  0.28906021968E+03  0.12500090296E+03 0.  0.
         24    2    1    2    0    0 -0.16074999338E+03  0.24105186683E+03 -0.66302287263E+02  0.30832960620E+03  0.82003596790E+02 0.  0.
        -13    1    3    3    0    0  0.33465185336E+02 -0.80174014130E+02 -0.11102428629E+03  0.14097582529E+03  0.00000000000E+00 0.  1.
         14    1    3    3    0    0 -0.10813439526E+02 -0.34856103959E+02  0.14056571043E+00  0.36495180728E+02  0.00000000000E+00 0. -1.
        -13    1    5    5    0    0 -0.15606864406E+03  0.24501757979E+03 -0.72705626477E+02  0.29946142354E+03  0.00000000000E+00 0.  1.
         14    1    5    5    0    0 -0.46813493192E+01 -0.39657129533E+01  0.64033392143E+01  0.88681826644E+01  0.00000000000E+00 0. -1.
          5    1    4    4  501    0  0.37476694036E+02  0.68524691592E+02 -0.61981291006E+01  0.78489762122E+02  0.47000000000E+01 0. -1.
         -5    1    4    4    0  501  0.42833540634E+02  0.11928112784E+03  0.16809261713E+03  0.21057045756E+03  0.47000000000E+01 0. -1.
          1    1    1    2  502    0  0.74588770947E+02 -0.20851954892E+03 -0.16525849288E+04  0.16673574404E+04  0.00000000000E+00 0. -1.
          1    1    1    2  503    0 -0.16800758044E+02 -0.10530801925E+03  0.56153836222E+03  0.57157447164E+03  0.00000000000E+00 0. -1.
<mgrwt>
<rscale>  0 0.15487442E+03</rscale>
<asrwt>0</asrwt>
<pdfrwt beam="1">  1        2 0.14025402E+00 0.10663979E+03</pdfrwt>
<pdfrwt beam="2">  1        2 0.30295079E+00 0.22492623E+03</pdfrwt>
<totfact> 0.38284532E+01</totfact>
</mgrwt>
</event>
<event>
13    1  0.1589573E-008  0.1391333E+03  0.7546771E-02  0.1241601E+00
          2   -1    0    0  503    0  0.00000000000E+00  0.00000000000E+00  0.27487087559E+04  0.27487087559E+04  0.00000000000E+00 0. -1.
          2   -1    0    0  502    0 -0.00000000000E+00 -0.00000000000E+00 -0.11973986060E+04  0.11973986060E+04  0.00000000000E+00 0. -1.
         24    2    1    2    0    0  0.58136721158E+02 -0.78741420225E+02 -0.16011042481E+02  0.12838096790E+03  0.81518279126E+02 0.  0.
         25    2    1    2    0    0  0.68019504931E+02  0.74442052303E+02  0.16397556199E+04  0.16476018576E+04  0.12500046473E+03 0.  0.
         24    2    1    2    0    0 -0.12750174923E+02 -0.68969656977E+02  0.18791084094E+03  0.21722935132E+03  0.83418980967E+02 0.  0.
        -11    1    3    3    0    0  0.22062324224E+02 -0.29140574811E+02 -0.47101109834E+02  0.59619072435E+02  0.00000000000E+00 0.  1.
         12    1    3    3    0    0  0.36074396935E+02 -0.49600845414E+02  0.31090067353E+02  0.68761895466E+02  0.00000000000E+00 0. -1.
        -13    1    5    5    0    0  0.36747491589E+01  0.17158827167E+02  0.13935793339E+02  0.22408379395E+02  0.00000000000E+00 0.  1.
         14    1    5    5    0    0 -0.16424924082E+02 -0.86128484143E+02  0.17397504760E+03  0.19482097192E+03  0.00000000000E+00 0. -1.
          5    1    4    4  501    0  0.58266826257E+02  0.79261641424E+02  0.61968178784E+03  0.62745919311E+03  0.47000000000E+01 0.  1.
         -5    1    4    4    0  501  0.97526786743E+01 -0.48195891216E+01  0.10200738320E+04  0.10201426645E+04  0.47000000000E+01 0.  1.
          1    1    1    2  502    0 -0.19617587310E+03  0.13800072389E+03 -0.10902719264E+04  0.11163431580E+04  0.00000000000E+00 0. -1.
          1    1    1    2  503    0  0.82769821936E+02 -0.64731698990E+02  0.82992665798E+03  0.83655202701E+03  0.00000000000E+00 0. -1.
<mgrwt>
<rscale>  0 0.12091162E+03</rscale>
<asrwt>0</asrwt>
<pdfrwt beam="1">  1        2 0.40422187E+00 0.10507634E+03</pdfrwt>
<pdfrwt beam="2">  1        2 0.17608803E+00 0.13913332E+03</pdfrwt>
<totfact> 0.13572398E+01</totfact>
</mgrwt>
</event>
<event>
13    1  0.1589573E-008  0.6705824E+02  0.7546771E-02  0.1379774E+00
          2   -1    0    0  503    0  0.00000000000E+00  0.00000000000E+00  0.49571567998E+04  0.49571567998E+04  0.00000000000E+00 0. -1.
          2   -1    0    0  502    0 -0.00000000000E+00 -0.00000000000E+00 -0.33270952323E+04  0.33270952323E+04  0.00000000000E+00 0. -1.
         24    2    1    2    0    0  0.10336500888E+02 -0.54326074860E+01 -0.44330796544E+02  0.92183182353E+02  0.79976015854E+02 0.  0.
         25    2    1    2    0    0  0.25259050909E+02  0.36949646556E+01  0.62699552404E+02  0.14215463382E+03  0.12500013452E+03 0.  0.
         24    2    1    2    0    0 -0.27614783598E+01  0.67368557876E+02  0.21465333001E+04  0.21492053006E+04  0.83259037642E+02 0.  0.
        -11    1    3    3    0    0 -0.22396109732E+02  0.14917415518E+01 -0.53054798817E+02  0.57607488242E+02  0.00000000000E+00 0.  1.
         12    1    3    3    0    0  0.32732610620E+02 -0.69243490378E+01  0.87240022734E+01  0.34575694111E+02  0.00000000000E+00 0. -1.
        -11    1    5    5    0    0 -0.27297720533E+01  0.51781839277E+02  0.51627981955E+03  0.51887730978E+03  0.00000000000E+00 0.  1.
         12    1    5    5    0    0 -0.31706306529E-01  0.15586718599E+02  0.16302534805E+04  0.16303279908E+04  0.00000000000E+00 0. -1.
          5    1    4    4  501    0  0.68091064323E+02 -0.28271269929E+02  0.38318337228E+02  0.83222849699E+02  0.47000000000E+01 0.  1.
         -5    1    4    4    0  501 -0.42832013414E+02  0.31966234585E+02  0.24381215176E+02  0.58931784125E+02  0.47000000000E+01 0.  1.
          1    1    1    2  502    0 -0.61874786970E+02 -0.50934478991E+01 -0.32170550754E+04  0.32176540819E+04  0.00000000000E+00 0. -1.
          1    1    1    2  503    0  0.29040713533E+02 -0.60537467146E+02  0.26822145870E+04  0.26830548334E+04  0.00000000000E+00 0. -1.
<mgrwt>
<rscale>  0 0.64523242E+02</rscale>
<asrwt>0</asrwt>
<pdfrwt beam="1">  1        2 0.72899364E+00 0.67058237E+02</pdfrwt>
<pdfrwt beam="2">  1        2 0.48927871E+00 0.62084076E+02</pdfrwt>
<totfact> 0.46247969E-02</totfact>
</mgrwt>
</event>
<event>
13    1  0.1589573E-008  0.1359452E+03  0.7546771E-02  0.1248519E+00
         -3   -1    0    0    0  501 -0.00000000000E+00  0.00000000000E+00  0.61567606636E+03  0.61567606636E+03  0.00000000000E+00 0.  1.
          2   -1    0    0  503    0  0.00000000000E+00 -0.00000000000E+00 -0.53678691389E+04  0.53678691389E+04  0.00000000000E+00 0. -1.
         24    2    1    2    0    0  0.50564206746E+02  0.86872050781E+02  0.29284900495E+03  0.31985432403E+03  0.80266784469E+02 0.  0.
         25    2    1    2    0    0  0.19625802035E+03  0.56730543120E+02 -0.13566173298E+03  0.27525477549E+03  0.12500208223E+03 0.  0.
         24    2    1    2    0    0 -0.32497504736E+02  0.46605857252E+02 -0.86235106777E+01  0.99501821121E+02  0.81228404673E+02 0.  0.
        -13    1    3    3    0    0  0.21822768975E+02  0.64918854487E+02  0.26636161517E+03  0.27502581870E+03  0.00000000000E+00 0.  1.
         14    1    3    3    0    0  0.28741437771E+02  0.21953196295E+02  0.26487389771E+02  0.44828505324E+02  0.00000000000E+00 0. -1.
        -13    1    5    5    0    0 -0.46377727837E+02 -0.33511422881E+01 -0.10298133094E+02  0.47625364451E+02  0.00000000000E+00 0.  1.
         14    1    5    5    0    0  0.13880223100E+02  0.49956999540E+02  0.16746224160E+01  0.51876456670E+02  0.00000000000E+00 0. -1.
          5    1    4    4  502    0  0.10459925723E+03  0.28763878266E+02 -0.14239638654E+03  0.17907313089E+03  0.47000000000E+01 0. -1.
         -5    1    4    4    0  502  0.91658763118E+02  0.27966664854E+02  0.67346535635E+01  0.96181644600E+02  0.47000000000E+01 0. -1.
          1    1    1    2  503    0 -0.82958912555E+02 -0.56377345163E+02 -0.50489323654E+04  0.50499285754E+04  0.00000000000E+00 0. -1.
         -4    1    1    2    0  501 -0.13136580980E+03 -0.13383110599E+03  0.14817553154E+03  0.23900570927E+03  0.00000000000E+00 0.  1.
<mgrwt>
<rscale>  0 0.11677209E+03</rscale>
<asrwt>0</asrwt>
<pdfrwt beam="2">  1        2 0.78939247E+00 0.10030308E+03</pdfrwt>
<pdfrwt beam="1">  1       -3 0.90540604E-01 0.13594518E+03</pdfrwt>
<totfact> 0.32133389E-02</totfact>
</mgrwt>
</event>
<event>
13    1  0.3688549E-008  0.9157130E+02  0.7546771E-02  0.1314968E+00
          2   -1    0    0  502    0  0.00000000000E+00  0.00000000000E+00  0.37671260158E+04  0.37671260158E+04  0.00000000000E+00 0. -1.
          2   -1    0    0  503    0 -0.00000000000E+00 -0.00000000000E+00 -0.21595939491E+04  0.21595939491E+04  0.00000000000E+00 0. -1.
         24    2    1    2    0    0  0.71986979200E+02  0.32513667504E+01 -0.18421878315E+04  0.18449859375E+04  0.71584961237E+02 0.  0.
         25    2    1    2    0    0  0.16972003913E+02 -0.14592465400E+03 -0.32099520339E+02  0.19554510393E+03  0.12500181960E+03 0.  0.
         24    2    1    2    0    0 -0.15933315333E+02  0.10020318517E+02  0.19107514785E+03  0.20770152378E+03  0.79220789785E+02 0.  0.
        -11    1    3    3    0    0 -0.81118874713E+01 -0.12445842376E+02 -0.56341254199E+03  0.56360836951E+03  0.00000000000E+00 0.  1.
         12    1    3    3    0    0  0.80098866671E+02  0.15697209127E+02 -0.12787752895E+04  0.12813775680E+04  0.00000000000E+00 0. -1.
        -13    1    5    5    0    0  0.11090870624E+02 -0.24796227240E+02  0.28975414980E+02  0.39716935554E+02  0.00000000000E+00 0.  1.
         14    1    5    5    0    0 -0.27024185957E+02  0.34816545757E+02  0.16209973287E+03  0.16798458823E+03  0.00000000000E+00 0. -1.
          5    1    4    4  501    0  0.32990813217E+02 -0.15316879266E+03 -0.55155549402E+02  0.16617249301E+03  0.47000000000E+01 0. -1.
         -5    1    4    4    0  501 -0.16018809304E+02  0.72441386574E+01  0.23056029063E+02  0.29372610925E+02  0.47000000000E+01 0. -1.
          1    1    1    2  502    0 -0.79379023507E+00  0.79227142171E+02  0.34737311484E+04  0.34746346084E+04  0.00000000000E+00 0. -1.
          1    1    1    2  503    0 -0.72231877545E+02  0.53425826566E+02 -0.18298687782E+03  0.20385279133E+03  0.00000000000E+00 0. -1.
<mgrwt>
<rscale>  0 0.85178031E+02</rscale>
<asrwt>0</asrwt>
<pdfrwt beam="1">  1        2 0.55398912E+00 0.79231119E+02</pdfrwt>
<pdfrwt beam="2">  1        2 0.31758735E+00 0.91571305E+02</pdfrwt>
<totfact> 0.13215165E+00</totfact>
</mgrwt>
</event>
<event>
13    1  0.1589573E-008  0.9485940E+02  0.7546771E-02  0.1314041E+00
          2   -1    0    0  502    0  0.00000000000E+00  0.00000000000E+00  0.92739387105E+03  0.92739387105E+03  0.00000000000E+00 0. -1.
          2   -1    0    0  503    0 -0.00000000000E+00 -0.00000000000E+00 -0.28416643060E+04  0.28416643060E+04  0.00000000000E+00 0. -1.
         24    2    1    2    0    0  0.65097542895E+02 -0.10840624356E+03 -0.12479100961E+03  0.19510822960E+03  0.80652473256E+02 0.  0.
         25    2    1    2    0    0 -0.86451943569E+02  0.13547318062E+03 -0.24232951358E+02  0.20503360048E+03  0.12499848071E+03 0.  0.
         24    2    1    2    0    0 -0.11413136029E+01  0.13134157464E+02  0.30771452934E+03  0.31835182450E+03  0.80534737263E+02 0.  0.
        -11    1    5    5    0    0 -0.17310393632E+00  0.39966825187E+02  0.26430324203E+03  0.26730802612E+03  0.00000000000E+00 0.  1.
         12    1    5    5    0    0 -0.96820966661E+00 -0.26832667723E+02  0.43411287309E+02  0.51043798378E+02  0.00000000000E+00 0. -1.
        -13    1    3    3    0    0 -0.31651393801E+01 -0.68852406758E+02 -0.41839807968E+02  0.80630276910E+02  0.00000000000E+00 0.  1.
         14    1    3    3    0    0  0.68262682275E+02 -0.39553836805E+02 -0.82951201647E+02  0.11447795269E+03  0.00000000000E+00 0. -1.
          5    1    4    4  501    0 -0.80441778502E+02  0.13986192810E+03  0.17521295798E+02  0.16236170874E+03  0.47000000000E+01 0. -1.
         -5    1    4    4    0  501 -0.60101650678E+01 -0.43887474807E+01 -0.41754247156E+02  0.42671891734E+02  0.47000000000E+01 0. -1.
          1    1    1    2  502    0  0.83434791412E+02 -0.87475090963E+02  0.48073662762E+03  0.49570249252E+03  0.00000000000E+00 0. -1.
          1    1    1    2  503    0 -0.60939077134E+02  0.47273996447E+02 -0.25536976310E+04  0.25548620300E+04  0.00000000000E+00 0. -1.
<mgrwt>
<rscale>  0 0.85534290E+02</rscale>
<asrwt>0</asrwt>
<pdfrwt beam="1">  1        2 0.13638145E+00 0.94859397E+02</pdfrwt>
<pdfrwt beam="2">  1        2 0.41789182E+00 0.77125883E+02</pdfrwt>
<totfact> 0.18424546E+01</totfact>
</mgrwt>
</event>
<event>
13    1  0.1589573E-008  0.1432485E+03  0.7546771E-02  0.1222027E+00
         -1   -1    0    0    0  501 -0.00000000000E+00  0.00000000000E+00  0.34346535605E+03  0.34346535605E+03  0.00000000000E+00 0.  1.
          2   -1    0    0  503    0  0.00000000000E+00 -0.00000000000E+00 -0.14950851821E+04  0.14950851821E+04  0.00000000000E+00 0. -1.
         24    2    1    2    0    0 -0.18341292307E+02  0.91272833808E+02  0.10254609407E+03  0.15707795830E+03  0.74098922915E+02 0.  0.
         25    2    1    2    0    0 -0.35010100991E+02 -0.27575542077E+02 -0.61594792137E+03  0.63008196620E+03  0.12500129834E+03 0.  0.
         24    2    1    2    0    0  0.22322123997E+02  0.91292156529E+01 -0.39203958118E+02  0.93026508712E+02  0.80841580841E+02 0.  0.
        -13    1    3    3    0    0 -0.23861969101E+02  0.17871654834E+01  0.47337267581E+01  0.24392533670E+02  0.00000000000E+00 0.  1.
         14    1    3    3    0    0  0.55206767934E+01  0.89485668325E+02  0.97812367317E+02  0.13268542463E+03  0.00000000000E+00 0. -1.
        -13    1    5    5    0    0  0.54273622260E+01  0.44638021522E+02 -0.18990976123E+02  0.48812563959E+02  0.00000000000E+00 0.  1.
         14    1    5    5    0    0  0.16894761771E+02 -0.35508805869E+02 -0.20212981994E+02  0.44213944753E+02  0.00000000000E+00 0. -1.
          5    1    4    4  502    0  0.20285282843E+02 -0.49415875518E+01 -0.49138372699E+03  0.49184953913E+03  0.47000000000E+01 0. -1.
         -5    1    4    4    0  502 -0.55295383833E+02 -0.22633954525E+02 -0.12456419438E+03  0.13823242707E+03  0.47000000000E+01 0. -1.
          1    1    1    2  503    0 -0.11075790922E+03  0.77570252861E+02 -0.71068306877E+03  0.72343270787E+03  0.00000000000E+00 0. -1.
         -2    1    1    2    0  501  0.14178717852E+03 -0.15039676025E+03  0.11166902814E+03  0.23493139707E+03  0.00000000000E+00 0.  1.
<mgrwt>
<rscale>  0 0.13372784E+03</rscale>
<asrwt>0</asrwt>
<pdfrwt beam="2">  1        2 0.21986547E+00 0.14324849E+03</pdfrwt>
<pdfrwt beam="1">  1       -1 0.50509610E-01 0.12483996E+03</pdfrwt>
<totfact> 0.73221378E+01</totfact>
</mgrwt>
</event>
<event>
13    1  0.1589573E-008  0.1925939E+03  0.7546771E-02  0.1202854E+00
          2   -1    0    0  503    0  0.00000000000E+00  0.00000000000E+00  0.72114561847E+03  0.72114561847E+03  0.00000000000E+00 0. -1.
          2   -1    0    0  502    0 -0.00000000000E+00 -0.00000000000E+00 -0.20748092156E+04  0.20748092156E+04  0.00000000000E+00 0. -1.
         24    2    1    2    0    0  0.41237719627E+03 -0.44348869659E+02 -0.99147901742E+02  0.42981449662E+03  0.53744030709E+02 0.  0.
         25    2    1    2    0    0 -0.29846421155E+03  0.30770832779E+03 -0.28099121191E+03  0.52758214175E+03  0.12498621746E+03 0.  0.
         24    2    1    2    0    0 -0.26201364695E+01 -0.87115704768E+02  0.11188731941E+02  0.11856539036E+03  0.79602468159E+02 0.  0.
        -11    1    3    3    0    0  0.56703505592E+02 -0.18668505247E+02 -0.35483621750E-01  0.59697587001E+02  0.00000000000E+00 0.  1.
         12    1    3    3    0    0  0.35567369068E+03 -0.25680364412E+02 -0.99112418120E+02  0.37011690962E+03  0.00000000000E+00 0. -1.
        -11    1    5    5    0    0  0.56819526713E+01  0.14617030629E+02 -0.12850080985E+01  0.15735101410E+02  0.00000000000E+00 0.  1.
         12    1    5    5    0    0 -0.83020891408E+01 -0.10173273540E+03  0.12473740040E+02  0.10283028895E+03  0.00000000000E+00 0. -1.
          5    1    4    4  501    0 -0.41412307857E+02 -0.27868683679E+01 -0.40476276844E+02  0.58164979709E+02  0.47000000000E+01 0. -1.
         -5    1    4    4    0  501 -0.25705190370E+03  0.31049519616E+03 -0.24051493507E+03  0.46941716205E+03  0.47000000000E+01 0. -1.
          1    1    1    2  502    0  0.11329501838E+03  0.11256728543E+02 -0.12912423556E+04  0.12962520187E+04  0.00000000000E+00 0. -1.
          1    1    1    2  503    0 -0.22458786663E+03 -0.18750048190E+03  0.30652914013E+03  0.42374078669E+03  0.00000000000E+00 0. -1.
<mgrwt>
<rscale>  0 0.14807894E+03</rscale>
<asrwt>0</asrwt>
<pdfrwt beam="1">  1        2 0.10605083E+00 0.19259394E+03</pdfrwt>
<pdfrwt beam="2">  1        2 0.30511900E+00 0.11385287E+03</pdfrwt>
<totfact> 0.55921550E+01</totfact>
</mgrwt>
</event>
<event>
13    1  0.1589573E-008  0.1346114E+03  0.7546771E-02  0.1283947E+00
          2   -1    0    0  503    0  0.00000000000E+00  0.00000000000E+00  0.25890816144E+04  0.25890816144E+04  0.00000000000E+00 0. -1.
          2   -1    0    0  502    0 -0.00000000000E+00 -0.00000000000E+00 -0.14129854605E+04  0.14129854605E+04  0.00000000000E+00 0. -1.
         24    2    1    2    0    0 -0.40576988294E+02 -0.88131912799E+02 -0.44689880692E+03  0.46449884510E+03  0.81405819418E+02 0.  0.
         25    2    1    2    0    0  0.11732762033E+03 -0.32916130587E+02  0.34713396630E+03  0.38856810876E+03  0.12503576462E+03 0.  0.
         24    2    1    2    0    0 -0.39131322092E+02 -0.74493606402E+02 -0.25213107538E+03  0.27847000141E+03  0.83035563173E+02 0.  0.
        -11    1    5    5    0    0  0.15342848953E+02 -0.79234543915E+01 -0.11711638750E+03  0.11838256783E+03  0.00000000000E+00 0.  1.
         12    1    5    5    0    0 -0.54474171045E+02 -0.66570152011E+02 -0.13501468787E+03  0.16008743358E+03  0.00000000000E+00 0. -1.
        -11    1    3    3    0    0 -0.64772177420E+02 -0.53966694792E+02 -0.31705576520E+03  0.32807346336E+03  0.00000000000E+00 0.  1.
         12    1    3    3    0    0  0.24195189126E+02 -0.34165218007E+02 -0.12984304172E+03  0.13642538173E+03  0.00000000000E+00 0. -1.
          5    1    4    4  501    0  0.76382203200E+02 -0.79385051957E+02  0.25049363070E+03  0.27368846607E+03  0.47000000000E+01 0.  1.
         -5    1    4    4    0  501  0.40945417134E+02  0.46468921370E+02  0.96640335607E+02  0.11487964269E+03  0.47000000000E+01 0.  1.
          1    1    1    2  502    0  0.29252127288E+02  0.22157413747E+03 -0.65205916947E+03  0.68929815452E+03  0.00000000000E+00 0. -1.
          1    1    1    2  503    0 -0.66871437236E+02 -0.26032487685E+02  0.21800512393E+04  0.21812319651E+04  0.00000000000E+00 0. -1.
<mgrwt>
<rscale>  0 0.98283767E+02</rscale>
<asrwt>0</asrwt>
<pdfrwt beam="1">  1        2 0.38074730E+00 0.71759874E+02</pdfrwt>
<pdfrwt beam="2">  1        2 0.20779198E+00 0.13461142E+03</pdfrwt>
<totfact> 0.13321563E+01</totfact>
</mgrwt>
</event>
<event>
13    1  0.1589573E-008  0.1063670E+03  0.7546771E-02  0.1464008E+00
          2   -1    0    0  503    0  0.00000000000E+00  0.00000000000E+00  0.65798101415E+03  0.65798101415E+03  0.00000000000E+00 0. -1.
          2   -1    0    0  502    0 -0.00000000000E+00 -0.00000000000E+00 -0.32403994976E+04  0.32403994976E+04  0.00000000000E+00 0. -1.
         24    2    1    2    0    0 -0.76090514680E+02 -0.15714859200E+02 -0.17191555942E+04  0.17227281849E+04  0.79118384426E+02 0.  0.
         25    2    1    2    0    0  0.82421084038E+02 -0.38127860437E+02  0.54202976496E+03  0.56361893238E+03  0.12499226375E+03 0.  0.
         24    2    1    2    0    0 -0.36527878748E+02 -0.52608820109E+02  0.12978389883E+02  0.10332214013E+03  0.80031569754E+02 0.  0.
        -11    1    3    3    0    0 -0.16465304711E+02 -0.28149571254E+01 -0.55615756450E+02  0.58070152474E+02  0.00000000000E+00 0.  1.
         12    1    3    3    0    0 -0.59625209969E+02 -0.12899902075E+02 -0.16635398378E+04  0.16646580325E+04  0.00000000000E+00 0. -1.
        -13    1    5    5    0    0 -0.60690012072E+02 -0.35335484431E+02 -0.15789796322E+01  0.70245051086E+02  0.00000000000E+00 0.  1.
         14    1    5    5    0    0  0.24162133325E+02 -0.17273335677E+02  0.14557369515E+02  0.33077089041E+02  0.00000000000E+00 0. -1.
          5    1    4    4  501    0  0.94431347624E+02  0.11619821490E+02  0.42907848717E+03  0.43952558266E+03  0.47000000000E+01 0. -1.
         -5    1    4    4    0  501 -0.12010263585E+02 -0.49747681927E+02  0.11295127780E+03  0.12409334972E+03  0.47000000000E+01 0. -1.
          1    1    1    2  502    0  0.47479244906E+02  0.95420918260E+02 -0.14591192288E+04  0.14630066145E+04  0.00000000000E+00 0. -1.
          1    1    1    2  503    0 -0.17281935517E+02  0.11030621486E+02  0.40848184705E+02  0.45704639800E+02  0.00000000000E+00 0. -1.
<mgrwt>
<rscale>  0 0.46698564E+02</rscale>
<asrwt>0</asrwt>
<pdfrwt beam="1">  1        2 0.96761914E-01 0.20502193E+02</pdfrwt>
<pdfrwt beam="2">  1        2 0.47652934E+00 0.10636696E+03</pdfrwt>
<totfact> 0.16745782E+01</totfact>
</mgrwt>
</event>
<event>
13    1  0.1589573E-008  0.1433164E+03  0.7546771E-02  0.1261980E+00
          2   -1    0    0  503    0  0.00000000000E+00  0.00000000000E+00  0.28374835599E+04  0.28374835599E+04  0.00000000000E+00 0. -1.
          2   -1    0    0  502    0 -0.00000000000E+00 -0.00000000000E+00 -0.11620720020E+04  0.11620720020E+04  0.00000000000E+00 0. -1.
         24    2    1    2    0    0 -0.11540317625E+01 -0.12496811800E+02 -0.37163232081E+03  0.38040754734E+03  0.80260937656E+02 0.  0.
         25    2    1    2    0    0  0.23977604953E+03 -0.65797017345E+02  0.65651964370E+03  0.71306746008E+03  0.12500143455E+03 0.  0.
         24    2    1    2    0    0 -0.11134032138E+03 -0.10601980491E+03  0.10702283048E+03  0.20394688088E+03  0.80644762876E+02 0.  0.
        -13    1    3    3    0    0  0.19460995884E+02 -0.35435531972E+02 -0.11440618580E+03  0.12133912245E+03  0.00000000000E+00 0.  1.
         14    1    3    3    0    0 -0.20615027647E+02  0.22938720172E+02 -0.25722613500E+03  0.25906842489E+03  0.00000000000E+00 0. -1.
        -13    1    5    5    0    0 -0.82303487193E+02 -0.67085553139E+02  0.25736248997E+02  0.10925515986E+03  0.00000000000E+00 0.  1.
         14    1    5    5    0    0 -0.29036834184E+02 -0.38934251774E+02  0.81286581480E+02  0.94691721018E+02  0.00000000000E+00 0. -1.
          5    1    4    4  501    0  0.16008449111E+03 -0.81383219853E+02  0.55280819646E+03  0.58126522762E+03  0.47000000000E+01 0. -1.
         -5    1    4    4    0  501  0.79691558427E+02  0.15586202508E+02  0.10371144724E+03  0.13180223246E+03  0.47000000000E+01 0. -1.
          1    1    1    2  502    0 -0.72796606260E+02  0.54056685607E+02 -0.70390361820E+03  0.70971950435E+03  0.00000000000E+00 0. -1.
          1    1    1    2  503    0 -0.54485090135E+02  0.13025694845E+03  0.19874050227E+04  0.19924141693E+04  0.00000000000E+00 0. -1.
<mgrwt>
<rscale>  0 0.10924191E+03</rscale>
<asrwt>0</asrwt>
<pdfrwt beam="1">  1        2 0.41727699E+00 0.14331643E+03</pdfrwt>
<pdfrwt beam="2">  1        2 0.17089294E+00 0.83268855E+02</pdfrwt>
<totfact> 0.12575948E+01</totfact>
</mgrwt>
</event>
<event>
13    1  0.1589573E-008  0.1053104E+03  0.7546771E-02  0.1387388E+00
          2   -1    0    0  503    0  0.00000000000E+00  0.00000000000E+00  0.15415750160E+04  0.15415750160E+04  0.00000000000E+00 0. -1.
          2   -1    0    0  502    0 -0.00000000000E+00 -0.00000000000E+00 -0.10577772811E+04  0.10577772811E+04  0.00000000000E+00 0. -1.
         24    2    1    2    0    0  0.76746851336E+02  0.18048509712E+02 -0.11786381871E+03  0.16272451142E+03  0.79822045600E+02 0.  0.
         25    2    1    2    0    0 -0.55881167434E+02  0.77072905996E+02  0.85002207754E+02  0.17863411976E+03  0.12498734218E+03 0.  0.
         24    2    1    2    0    0 -0.12370406089E+03 -0.16203679244E+03  0.10337621117E+04  0.10566671072E+04  0.79515125396E+02 0.  0.
        -11    1    3    3    0    0  0.34494759363E+02  0.22177016439E+02 -0.11273558716E+03  0.11996258206E+03  0.00000000000E+00 0.  1.
         12    1    3    3    0    0  0.42252091973E+02 -0.41285067274E+01 -0.51282315456E+01  0.42761929361E+02  0.00000000000E+00 0. -1.
        -11    1    5    5    0    0 -0.60052160826E+02 -0.78999160635E+02  0.31308237083E+03  0.32843218527E+03  0.00000000000E+00 0.  1.
         12    1    5    5    0    0 -0.63651900066E+02 -0.83037631809E+02  0.72067974086E+03  0.72823492196E+03  0.00000000000E+00 0. -1.
          5    1    4    4  501    0 -0.95300742038E+02  0.49312361290E+02  0.68810903838E+02  0.12755771594E+03  0.47000000000E+01 0.  1.
         -5    1    4    4    0  501  0.39419574603E+02  0.27760544706E+02  0.16191303917E+02  0.51076403816E+02  0.47000000000E+01 0.  1.
          1    1    1    2  502    0  0.23692593341E+01  0.37089666761E+02 -0.85077311021E+03  0.85158448895E+03  0.00000000000E+00 0. -1.
          1    1    1    2  503    0  0.10046911766E+03  0.29825709975E+02  0.33367034439E+03  0.34974206968E+03  0.00000000000E+00 0. -1.
<mgrwt>
<rscale>  0 0.62561078E+02</rscale>
<asrwt>0</asrwt>
<pdfrwt beam="1">  1        2 0.22670221E+00 0.10531040E+03</pdfrwt>
<pdfrwt beam="2">  1        2 0.15555548E+00 0.37165263E+02</pdfrwt>
<totfact> 0.68006679E+01</totfact>
</mgrwt>
</event>
<event>
13    1  0.1589573E-008  0.7430526E+02  0.7546771E-02  0.1380275E+00
          2   -1    0    0  503    0  0.00000000000E+00  0.00000000000E+00  0.16019785040E+04  0.16019785040E+04  0.00000000000E+00 0. -1.
          2   -1    0    0  502    0 -0.00000000000E+00 -0.00000000000E+00 -0.22617826775E+04  0.22617826775E+04  0.00000000000E+00 0. -1.
         24    2    1    2    0    0 -0.14116042268E+02  0.46201005465E+01 -0.35601929749E+03  0.36531899291E+03  0.80545753567E+02 0.  0.
         25    2    1    2    0    0 -0.17858117125E+02 -0.19870532987E+02  0.12606530957E+04  0.12671171765E+04  0.12500384383E+03 0.  0.
         24    2    1    2    0    0  0.82530933902E+02  0.16806968910E+01 -0.23481427367E+03  0.26096736782E+03  0.78434967671E+02 0.  0.
        -11    1    5    5    0    0  0.53371896388E+02  0.25374136525E+02 -0.68532302074E+02  0.90493549803E+02  0.00000000000E+00 0.  1.
         12    1    5    5    0    0  0.29159037515E+02 -0.23693439634E+02 -0.16628197160E+03  0.17047381801E+03  0.00000000000E+00 0. -1.
        -11    1    3    3    0    0  0.84933064385E+01 -0.22161379704E+02 -0.34382728864E+02  0.41778404095E+02  0.00000000000E+00 0.  1.
         12    1    3    3    0    0 -0.22609348706E+02  0.26781480250E+02 -0.32163656863E+03  0.32354058882E+03  0.00000000000E+00 0. -1.
          5    1    4    4  501    0  0.45916959515E+02 -0.38124515113E+02  0.50266797813E+03  0.50622033944E+03  0.47000000000E+01 0. -1.
         -5    1    4    4    0  501 -0.63775076639E+02  0.18253982126E+02  0.75798511754E+03  0.76089683708E+03  0.47000000000E+01 0. -1.
          1    1    1    2  502    0 -0.61966787799E+02 -0.41051724874E+02 -0.16467161271E+04  0.16483928932E+04  0.00000000000E+00 0. -1.
          1    1    1    2  503    0  0.11410013289E+02  0.54621460423E+02  0.31709242908E+03  0.32196475106E+03  0.00000000000E+00 0. -1.
<mgrwt>
<rscale>  0 0.64391525E+02</rscale>
<asrwt>0</asrwt>
<pdfrwt beam="1">  1        2 0.23558508E+00 0.55800469E+02</pdfrwt>
<pdfrwt beam="2">  1        2 0.33261510E+00 0.74305263E+02</pdfrwt>
<totfact> 0.16564304E+01</totfact>
</mgrwt>
</event>
<event>
13    1  0.1589573E-008  0.6919190E+02  0.7546771E-02  0.1496642E+00
          2   -1    0    0  502    0  0.00000000000E+00  0.00000000000E+00  0.27290620462E+04  0.27290620462E+04  0.00000000000E+00 0. -1.
          2   -1    0    0  503    0 -0.00000000000E+00 -0.00000000000E+00 -0.15071289937E+04  0.15071289937E+04  0.00000000000E+00 0. -1.
         24    2    1    2    0    0 -0.99205544076E+03 -0.66647285654E+02 -0.54118117373E+03  0.11343214668E+04  0.72057400870E+02 0.  0.
         25    2    1    2    0    0  0.92440040897E+03 -0.18600211568E+03  0.18242488054E+04  0.20573329708E+04  0.12498938131E+03 0.  0.
         24    2    1    2    0    0  0.74400011514E+02  0.16705717006E+03 -0.10264453868E+03  0.22513737052E+03  0.81899172779E+02 0.  0.
        -11    1    3    3    0    0 -0.62627561118E+03 -0.79288818830E+01 -0.34819711906E+03  0.71660675551E+03  0.00000000000E+00 0.  1.
         12    1    3    3    0    0 -0.36577982958E+03 -0.58718403771E+02 -0.19298405467E+03  0.41771471129E+03  0.00000000000E+00 0. -1.
        -13    1    5    5    0    0  0.51203575711E+01  0.48880293274E+02  0.70395755997E+01  0.49649337929E+02  0.00000000000E+00 0.  1.
         14    1    5    5    0    0  0.69279653943E+02  0.11817687679E+03 -0.10968411428E+03  0.17548803259E+03  0.00000000000E+00 0. -1.
          5    1    4    4  501    0  0.16411297369E+02  0.43408170078E+01  0.77741928896E+02  0.79712426146E+02  0.47000000000E+01 0. -1.
         -5    1    4    4    0  501  0.90798911161E+03 -0.19034293269E+03  0.17465068765E+04  0.19776205446E+04  0.47000000000E+01 0. -1.
          1    1    1    2  502    0 -0.21833075524E+02  0.65619850341E+02  0.42726868126E+03  0.43282926649E+03  0.00000000000E+00 0. -1.
          1    1    1    2  503    0  0.15088095794E+02  0.19972380931E+02 -0.38575872177E+03  0.38656996528E+03  0.00000000000E+00 0. -1.
<mgrwt>
<rscale>  0 0.41616541E+02</rscale>
<asrwt>0</asrwt>
<pdfrwt beam="1">  1        2 0.40133266E+00 0.69191899E+02</pdfrwt>
<pdfrwt beam="2">  1        2 0.22163661E+00 0.25030914E+02</pdfrwt>
<totfact> 0.11733676E+01</totfact>
</mgrwt>
</event>
<event>
13    1  0.1589573E-008  0.1171166E+03  0.7546771E-02  0.1277178E+00
          2   -1    0    0  502    0  0.00000000000E+00  0.00000000000E+00  0.68793922861E+03  0.68793922861E+03  0.00000000000E+00 0. -1.
          2   -1    0    0  503    0 -0.00000000000E+00 -0.00000000000E+00 -0.35079489040E+04  0.35079489040E+04  0.00000000000E+00 0. -1.
         24    2    1    2    0    0  0.11382148675E+03 -0.79491497871E+02 -0.28407086296E+03  0.32541173464E+03  0.76956564238E+02 0.  0.
         25    2    1    2    0    0 -0.18685880479E+03  0.13038736184E+03 -0.10798067358E+03  0.28142964733E+03  0.12500297387E+03 0.  0.
         24    2    1    2    0    0 -0.16207168629E+02  0.88430921894E+01 -0.13667395995E+03  0.15892382791E+03  0.78969229156E+02 0.  0.
        -11    1    3    3    0    0  0.12291970946E+03 -0.82362517016E+02 -0.27483473162E+03  0.31213293464E+03  0.00000000000E+00 0.  1.
         12    1    3    3    0    0 -0.90982227059E+01  0.28710191452E+01 -0.92361313388E+01  0.13278800000E+02  0.00000000000E+00 0. -1.
        -13    1    5    5    0    0 -0.45363172564E+02  0.20309651018E+02 -0.80662392582E+02  0.94745558875E+02  0.00000000000E+00 0.  1.
         14    1    5    5    0    0  0.29156003934E+02 -0.11466558828E+02 -0.56011567372E+02  0.64178269034E+02  0.00000000000E+00 0. -1.
          5    1    4    4  501    0 -0.10466842042E+03  0.17853516499E+02 -0.92941128044E+02  0.14118912694E+03  0.47000000000E+01 0. -1.
         -5    1    4    4    0  501 -0.82190384372E+02  0.11253384534E+03 -0.15039545533E+02  0.14024052039E+03  0.47000000000E+01 0. -1.
          1    1    1    2  502    0 -0.85087663852E+02 -0.22246685170E+02  0.56322464611E+03  0.57004984653E+03  0.00000000000E+00 0. -1.
          1    1    1    2  503    0  0.17433215052E+03 -0.37492270986E+02 -0.28545088251E+04  0.28600730762E+04  0.00000000000E+00 0. -1.
<mgrwt>
<rscale>  0 0.10149753E+03</rscale>
<asrwt>0</asrwt>
<pdfrwt beam="1">  1        2 0.10116753E+00 0.87961511E+02</pdfrwt>
<pdfrwt beam="2">  1        2 0.51587483E+00 0.11711655E+03</pdfrwt>
<totfact> 0.10621755E+01</totfact>
</mgrwt>
</event>
<event>
13    1  0.1589573E-008  0.7064935E+02  0.7546771E-02  0.1421894E+00
          2   -1    0    0  503    0  0.00000000000E+00  0.00000000000E+00  0.27889218984E+04  0.27889218984E+04  0.00000000000E+00 0. -1.
          2   -1    0    0  502    0 -0.00000000000E+00 -0.00000000000E+00 -0.79984148954E+03  0.79984148954E+03  0.00000000000E+00 0. -1.
         24    2    1    2    0    0 -0.72377610546E+02  0.15273659397E+03 -0.27592739826E+03  0.33295397724E+03  0.78456587997E+02 0.  0.
         25    2    1    2    0    0  0.20406107155E+03 -0.22048566252E+02  0.10548002747E+04  0.10818296528E+04  0.12499887192E+03 0.  0.
         24    2    1    2    0    0 -0.29619909479E+02 -0.86414492901E+02 -0.17240746462E+03  0.20871613151E+03  0.74116705751E+02 0.  0.
        -11    1    3    3    0    0 -0.27162481032E+02  0.42711092181E+02 -0.15613175394E+03  0.16413153980E+03  0.00000000000E+00 0.  1.
         12    1    3    3    0    0 -0.45215129514E+02  0.11002550179E+03 -0.11979564432E+03  0.16882243743E+03  0.00000000000E+00 0. -1.
        -11    1    5    5    0    0  0.17281021445E+02  0.16312115467E+01 -0.19097322236E+02  0.25807019779E+02  0.00000000000E+00 0.  1.
         12    1    5    5    0    0 -0.46900930924E+02 -0.88045704448E+02 -0.15331014239E+03  0.18290911173E+03  0.00000000000E+00 0. -1.
          5    1    4    4  501    0  0.88912131037E+01 -0.41073107907E+02  0.14051721661E+03  0.14674205950E+03  0.47000000000E+01 0.  1.
         -5    1    4    4    0  501  0.19516985845E+03  0.19024541656E+02  0.91428305807E+03  0.93508759328E+03  0.47000000000E+01 0.  1.
          1    1    1    2  502    0 -0.60671076620E+02 -0.35900926107E+02 -0.28678848482E+03  0.29532607582E+03  0.00000000000E+00 0. -1.
          1    1    1    2  503    0 -0.41392474907E+02 -0.83726087148E+01  0.16694034819E+04  0.16699375506E+04  0.00000000000E+00 0. -1.
<mgrwt>
<rscale>  0 0.54622122E+02</rscale>
<asrwt>0</asrwt>
<pdfrwt beam="1">  1        2 0.41013557E+00 0.42230766E+02</pdfrwt>
<pdfrwt beam="2">  1        2 0.11762375E+00 0.70649353E+02</pdfrwt>
<totfact> 0.26121075E+01</totfact>
</mgrwt>
</event>
<event>
13    1  0.1589573E-008  0.1158720E+03  0.7546771E-02  0.1389260E+00
          2   -1    0    0  502    0  0.00000000000E+00  0.00000000000E+00  0.32805390613E+03  0.32805390613E+03  0.00000000000E+00 0. -1.
          2   -1    0    0  503    0 -0.00000000000E+00 -0.00000000000E+00 -0.35688906776E+04  0.35688906776E+04  0.00000000000E+00 0. -1.
         24    2    1    2    0    0 -0.26345298528E+02 -0.14615198284E+02 -0.56866443094E+03  0.57513802360E+03  0.80602930506E+02 0.  0.
         25    2    1    2    0    0  0.16959547930E+03  0.38881474382E+01  0.40994159660E+01  0.21075794284E+03  0.12499744385E+03 0.  0.
         24    2    1    2    0    0 -0.35245334149E+02 -0.29195278226E+01 -0.15653253902E+03  0.17938065800E+03  0.80151278665E+02 0.  0.
        -13    1    3    3    0    0  0.18164875301E+00 -0.41137382345E+02 -0.17871691028E+03  0.18339043389E+03  0.00000000000E+00 0.  1.
         14    1    3    3    0    0 -0.26526947281E+02  0.26522184061E+02 -0.38994752066E+03  0.39174758971E+03  0.00000000000E+00 0. -1.
        -13    1    5    5    0    0 -0.40710425579E+02  0.12351576227E+02 -0.15748800527E+03  0.16313298866E+03  0.00000000000E+00 0.  1.
         14    1    5    5    0    0  0.54650914300E+01 -0.15271104050E+02  0.95546625088E+00  0.16247669340E+02  0.00000000000E+00 0. -1.
          5    1    4    4  501    0  0.74707502557E+02 -0.27521461909E+02 -0.52801392030E+02  0.95648935196E+02  0.47000000000E+01 0. -1.
         -5    1    4    4    0  501  0.94887976743E+02  0.31409609348E+02  0.56900807996E+02  0.11510900764E+03  0.47000000000E+01 0. -1.
          1    1    1    2  502    0  0.22136572565E+02  0.24839591225E+02  0.20304465728E+03  0.20575268160E+03  0.00000000000E+00 0. -1.
          1    1    1    2  503    0 -0.13014141919E+03 -0.11193012556E+02 -0.27227838747E+04  0.27259152777E+04  0.00000000000E+00 0. -1.
<mgrwt>
<rscale>  0 0.62091119E+02</rscale>
<asrwt>0</asrwt>
<pdfrwt beam="1">  1        2 0.48243221E-01 0.33272107E+02</pdfrwt>
<pdfrwt beam="2">  1        2 0.52483687E+00 0.11587204E+03</pdfrwt>
<totfact> 0.21490320E+01</totfact>
</mgrwt>
</event>
<event>
13    1  0.1589573E-008  0.2079362E+03  0.7546771E-02  0.1291745E+00
          2   -1    0    0  503    0  0.00000000000E+00  0.00000000000E+00  0.16141548141E+04  0.16141548141E+04  0.00000000000E+00 0. -1.
          2   -1    0    0  502    0 -0.00000000000E+00 -0.00000000000E+00 -0.23396969337E+04  0.23396969337E+04  0.00000000000E+00 0. -1.
         24    2    1    2    0    0 -0.28320558881E+02  0.51859175999E+02 -0.13696851352E+04  0.13733558405E+04  0.81101584406E+02 0.  0.
         25    2    1    2    0    0 -0.81447577562E+02 -0.48301161172E+02  0.61224849944E+03  0.63201384900E+03  0.12500628065E+03 0.  0.
         24    2    1    2    0    0 -0.31501426500E+03  0.23553600197E+03 -0.96009632823E+02  0.41268133886E+03  0.79855134283E+02 0.  0.
        -11    1    3    3    0    0  0.27957373885E+02  0.21390740308E+02 -0.39145254466E+03  0.39303215294E+03  0.00000000000E+00 0.  1.
         12    1    3    3    0    0 -0.56277932766E+02  0.30468435691E+02 -0.97823259053E+03  0.98032368760E+03  0.00000000000E+00 0. -1.
        -13    1    5    5    0    0 -0.15332672886E+03  0.96658379228E+02 -0.61066078058E+01  0.18135384947E+03  0.00000000000E+00 0.  1.
         14    1    5    5    0    0 -0.16168753614E+03  0.13887762274E+03 -0.89903025017E+02  0.23132748939E+03  0.00000000000E+00 0. -1.
          5    1    4    4  501    0  0.64248780259E+01  0.27324525505E+02  0.25052716047E+03  0.25213856683E+03  0.47000000000E+01 0.  1.
         -5    1    4    4    0  501 -0.87872455588E+02 -0.75625686676E+02  0.36172133898E+03  0.37987528217E+03  0.47000000000E+01 0.  1.
          1    1    1    2  502    0  0.43727387491E+03 -0.19776799229E+03 -0.62145872101E+03  0.78519523838E+03  0.00000000000E+00 0. -1.
          1    1    1    2  503    0 -0.12491473469E+02 -0.41326024510E+02  0.74936287001E+03  0.75060548104E+03  0.00000000000E+00 0. -1.
<mgrwt>
<rscale>  0 0.94747843E+02</rscale>
<asrwt>0</asrwt>
<pdfrwt beam="1">  1        2 0.23737571E+00 0.43172644E+02</pdfrwt>
<pdfrwt beam="2">  1        2 0.34407308E+00 0.20793616E+03</pdfrwt>
<totfact> 0.13584925E+01</totfact>
</mgrwt>
</event>
<event>
13    1  0.1589573E-008  0.1569394E+03  0.7546771E-02  0.1364096E+00
          2   -1    0    0  503    0  0.00000000000E+00  0.00000000000E+00  0.15242669828E+04  0.15242669828E+04  0.00000000000E+00 0. -1.
         -1   -1    0    0    0  501 -0.00000000000E+00 -0.00000000000E+00 -0.13711444315E+04  0.13711444315E+04  0.00000000000E+00 0.  1.
         24    2    1    2    0    0 -0.68985879925E+02  0.44835049660E+02 -0.66486425129E+03  0.67462671995E+03  0.79419804266E+02 0.  0.
         25    2    1    2    0    0  0.20544929301E+03 -0.24503578136E+03  0.29058156973E+03  0.44979536501E+03  0.12500510218E+03 0.  0.
         24    2    1    2    0    0 -0.47726360861E+02  0.65163301515E+02 -0.11599126291E+03  0.16187820738E+03  0.78908298465E+02 0.  0.
        -11    1    5    5    0    0  0.11078510924E+02  0.10940821820E+02  0.54197176251E+01  0.16486610493E+02  0.00000000000E+00 0.  1.
         12    1    5    5    0    0 -0.58804871785E+02  0.54222479695E+02 -0.12141098054E+03  0.14539159689E+03  0.00000000000E+00 0. -1.
        -13    1    3    3    0    0 -0.53056839095E+02  0.36213627327E+02 -0.64314988413E+03  0.64634992723E+03  0.00000000000E+00 0.  1.
         14    1    3    3    0    0 -0.15929040829E+02  0.86214223326E+01 -0.21714367166E+02  0.28276792714E+02  0.00000000000E+00 0. -1.
          5    1    4    4  502    0  0.13790533241E+03 -0.22487203971E+03  0.18297985923E+03  0.32107481034E+03  0.47000000000E+01 0. -1.
         -5    1    4    4    0  502  0.67543960601E+02 -0.20163741644E+02  0.10760171050E+03  0.12872055467E+03  0.47000000000E+01 0. -1.
          1    1    1    2  503    0 -0.60025069345E+02  0.14437643007E+03  0.11203474177E+04  0.11312055069E+04  0.00000000000E+00 0. -1.
         -2    1    1    2    0  501 -0.28711982880E+02 -0.93389998926E+01 -0.47695092196E+03  0.47790561499E+03  0.00000000000E+00 0.  1.
<mgrwt>
<rscale>  0 0.68836133E+02</rscale>
<asrwt>0</asrwt>
<pdfrwt beam="1">  1        2 0.22415691E+00 0.15693940E+03</pdfrwt>
<pdfrwt beam="2">  1       -1 0.20163889E+00 0.30192630E+02</pdfrwt>
<totfact> 0.34362800E+00</totfact>
</mgrwt>
</event>
<event>
13    1  0.1589573E-008  0.1083627E+03  0.7546771E-02  0.1363321E+00
          2   -1    0    0  503    0  0.00000000000E+00  0.00000000000E+00  0.62331463290E+03  0.62331463290E+03  0.00000000000E+00 0. -1.
          2   -1    0    0  502    0 -0.00000000000E+00 -0.00000000000E+00 -0.11648034503E+04  0.11648034503E+04  0.00000000000E+00 0. -1.
         24    2    1    2    0    0  0.73751757263E+02 -0.73643397866E+02 -0.40249255237E+02  0.13629617268E+03  0.78063899420E+02 0.  0.
         25    2    1    2    0    0 -0.47016377576E+02 -0.99207298167E+02  0.35246800500E+03  0.38976009007E+03  0.12500642180E+03 0.  0.
         24    2    1    2    0    0 -0.54204725937E+02  0.11062640854E+03  0.31894035363E+02  0.15054951758E+03  0.80446088605E+02 0.  0.
        -11    1    3    3    0    0  0.33139720430E+02 -0.67721864216E+02  0.45584558885E+01  0.75533247535E+02  0.00000000000E+00 0.  1.
         12    1    3    3    0    0  0.40612036833E+02 -0.59215336500E+01 -0.44807711125E+02  0.60762925150E+02  0.00000000000E+00 0. -1.
        -11    1    5    5    0    0  0.15015822081E+02  0.57891669984E+02  0.17766323366E+02  0.62390404810E+02  0.00000000000E+00 0.  1.
         12    1    5    5    0    0 -0.69220548018E+02  0.52734738558E+02  0.14127711997E+02  0.88159112773E+02  0.00000000000E+00 0. -1.
          5    1    4    4  501    0 -0.28855547689E+02  0.25472140440E+02  0.62275946684E+02  0.73361134850E+02  0.47000000000E+01 0. -1.
         -5    1    4    4    0  501 -0.18160829887E+02 -0.12467943861E+03  0.29019205832E+03  0.31639895522E+03  0.47000000000E+01 0. -1.
          1    1    1    2  502    0  0.23421534607E+02  0.10604931876E+03 -0.99118811287E+03  0.99712030437E+03  0.00000000000E+00 0. -1.
          1    1    1    2  503    0  0.40478116427E+01 -0.43825031272E+02  0.10558651036E+03  0.11439199847E+03  0.00000000000E+00 0. -1.
<mgrwt>
<rscale>  0 0.69059487E+02</rscale>
<asrwt>0</asrwt>
<pdfrwt beam="1">  1        2 0.91663917E-01 0.44011568E+02</pdfrwt>
<pdfrwt beam="2">  1        2 0.17129462E+00 0.10836271E+03</pdfrwt>
<totfact> 0.19515117E+02</totfact>
</mgrwt>
</event>
<event>
13    1  0.1589573E-008  0.9503699E+02  0.7546771E-02  0.1385280E+00
          2   -1    0    0  502    0  0.00000000000E+00  0.00000000000E+00  0.64200747564E+03  0.64200747564E+03  0.00000000000E+00 0. -1.
          2   -1    0    0  503    0 -0.00000000000E+00 -0.00000000000E+00 -0.14496379555E+04  0.14496379555E+04  0.00000000000E+00 0. -1.
         24    2    1    2    0    0 -0.25074251826E+02  0.11485515463E+02 -0.14072822332E+03  0.16443623484E+03  0.80462459057E+02 0.  0.
         25    2    1    2    0    0  0.38673904626E+02 -0.10584432519E+03 -0.24250737249E+03  0.29518351028E+03  0.12499914783E+03 0.  0.
         24    2    1    2    0    0  0.20379407818E+02  0.14191282852E+03  0.46073164021E+03  0.48953773179E+03  0.82577087592E+02 0.  0.
        -13    1    5    5    0    0  0.38810259365E+00  0.27619737001E+02  0.20842409049E+02  0.34603562109E+02  0.00000000000E+00 0.  1.
         14    1    5    5    0    0  0.19991305225E+02  0.11429309152E+03  0.43988923116E+03  0.45493416968E+03  0.00000000000E+00 0. -1.
        -13    1    3    3    0    0  0.28144504568E+02 -0.49546961585E+01 -0.58663839616E+02  0.65254181704E+02  0.00000000000E+00 0.  1.
         14    1    3    3    0    0 -0.53218756394E+02  0.16440211622E+02 -0.82064383706E+02  0.99182053132E+02  0.00000000000E+00 0. -1.
          5    1    4    4  501    0 -0.15375356479E+02  0.62409937506E+00  0.77516162749E+01  0.17859693216E+02  0.47000000000E+01 0.  1.
         -5    1    4    4    0  501  0.54049261105E+02 -0.10646842456E+03 -0.25025898877E+03  0.27732381707E+03  0.47000000000E+01 0.  1.
          1    1    1    2  502    0  0.27904135520E+02  0.31243087833E+02  0.12272048734E+03  0.12967300926E+03  0.00000000000E+00 0. -1.
          1    1    1    2  503    0 -0.61883196138E+02 -0.78797106628E+02 -0.10078470116E+04  0.10128149449E+04  0.00000000000E+00 0. -1.
<mgrwt>
<rscale>  0 0.63095949E+02</rscale>
<asrwt>0</asrwt>
<pdfrwt beam="1">  1        2 0.94412866E-01 0.41889991E+02</pdfrwt>
<pdfrwt beam="2">  1        2 0.21318205E+00 0.95036993E+02</pdfrwt>
<totfact> 0.13607581E+02</totfact>
</mgrwt>
</event>
<event>
13    1  0.1589573E-008  0.1670613E+03  0.7546771E-02  0.1255633E+00
          2   -1    0    0  502    0  0.00000000000E+00  0.00000000000E+00  0.35666521068E+03  0.35666521068E+03  0.00000000000E+00 0. -1.
          2   -1    0    0  503    0 -0.00000000000E+00 -0.00000000000E+00 -0.30405952495E+04  0.30405952495E+04  0.00000000000E+00 0. -1.
         24    2    1    2    0    0  0.86774856988E+02  0.15219234567E+01 -0.73657880295E+03  0.74597784375E+03  0.80015113310E+02 0.  0.
         25    2    1    2    0    0 -0.22822573513E+03 -0.23630973115E+02 -0.53638196280E+03  0.59663966553E+03  0.12501148508E+03 0.  0.
         24    2    1    2    0    0 -0.19436956071E+02 -0.11367435926E+03 -0.32569699970E+03  0.35464439416E+03  0.79965339266E+02 0.  0.
        -13    1    5    5    0    0 -0.40077151873E+02 -0.85647979722E+02 -0.16458647059E+03  0.18981691398E+03  0.00000000000E+00 0.  1.
         14    1    5    5    0    0  0.20640195802E+02 -0.28026379536E+02 -0.16111052911E+03  0.16482748018E+03  0.00000000000E+00 0. -1.
        -13    1    3    3    0    0 -0.57772075427E+01  0.20707364690E+02 -0.90303437746E+02  0.92827161694E+02  0.00000000000E+00 0.  1.
         14    1    3    3    0    0  0.92552064530E+02 -0.19185441233E+02 -0.64627536521E+03  0.65315068206E+03  0.00000000000E+00 0. -1.
          5    1    4    4  501    0 -0.15432170786E+03 -0.56209137691E+00 -0.20693556263E+03  0.25818582948E+03  0.47000000000E+01 0. -1.
         -5    1    4    4    0  501 -0.73904027265E+02 -0.23068881738E+02 -0.32944640017E+03  0.33845383605E+03  0.47000000000E+01 0. -1.
          1    1    1    2  502    0  0.15358726764E+03  0.60094115849E+02  0.28410819703E+03  0.32850847655E+03  0.00000000000E+00 0. -1.
          1    1    1    2  503    0  0.73005665717E+01  0.75689293067E+02 -0.13693804704E+04  0.13714900802E+04  0.00000000000E+00 0. -1.
<mgrwt>
<rscale>  0 0.11270952E+03</rscale>
<asrwt>0</asrwt>
<pdfrwt beam="1">  1        2 0.52450765E-01 0.16706129E+03</pdfrwt>
<pdfrwt beam="2">  1        2 0.44714637E+00 0.76040564E+02</pdfrwt>
<totfact> 0.42425147E+01</totfact>
</mgrwt>
</event>
<event>
13    1  0.1589573E-008  0.7549311E+02  0.7546771E-02  0.1386028E+00
          2   -1    0    0  503    0  0.00000000000E+00  0.00000000000E+00  0.42725633057E+04  0.42725633057E+04  0.00000000000E+00 0. -1.
          2   -1    0    0  502    0 -0.00000000000E+00 -0.00000000000E+00 -0.39224238239E+04  0.39224238239E+04  0.00000000000E+00 0. -1.
         24    2    1    2    0    0 -0.13859831264E+03  0.15379550204E+03 -0.87945651193E+03  0.90732408781E+03  0.83250797215E+02 0.  0.
         25    2    1    2    0    0  0.32666574048E+03  0.10026500453E+03 -0.43269104921E+03  0.56533812693E+03  0.12498830569E+03 0.  0.
         24    2    1    2    0    0 -0.72352019912E+02 -0.20985126539E+03  0.60463282472E+02  0.24394549240E+03  0.81124758027E+02 0.  0.
        -11    1    5    5    0    0 -0.41639838837E+02 -0.16585228798E+03  0.11632367845E+02  0.17139477702E+03  0.00000000000E+00 0.  1.
         12    1    5    5    0    0 -0.30712181074E+02 -0.43998977404E+02  0.48830914627E+02  0.72550715380E+02  0.00000000000E+00 0. -1.
        -11    1    3    3    0    0 -0.35428543117E+02  0.35627741631E+01 -0.23162664538E+03  0.23434755786E+03  0.00000000000E+00 0.  1.
         12    1    3    3    0    0 -0.10316976952E+03  0.15023272787E+03 -0.64782986655E+03  0.67297652995E+03  0.00000000000E+00 0. -1.
          5    1    4    4  501    0  0.76202331396E+02 -0.12037590188E+02 -0.16351829907E+03  0.18086465387E+03  0.47000000000E+01 0.  1.
         -5    1    4    4    0  501  0.25046340909E+03  0.11230259472E+03 -0.26917275013E+03  0.38447347306E+03  0.47000000000E+01 0.  1.
          1    1    1    2  502    0 -0.41152372304E+02 -0.32465131648E+02 -0.24376434969E+04  0.24382069889E+04  0.00000000000E+00 0. -1.
          1    1    1    2  503    0 -0.74563035625E+02 -0.11744109534E+02  0.40394672574E+04  0.40401724337E+04  0.00000000000E+00 0. -1.
<mgrwt>
<rscale>  0 0.62905436E+02</rscale>
<asrwt>0</asrwt>
<pdfrwt beam="1">  1        2 0.62831813E+00 0.75493107E+02</pdfrwt>
<pdfrwt beam="2">  1        2 0.57682703E+00 0.52416624E+02</pdfrwt>
<totfact> 0.75318086E-02</totfact>
</mgrwt>
</event>
<event>
13    1  0.1589573E-008  0.2995519E+02  0.7546771E-02  0.1600052E+00
          2   -1    0    0  502    0  0.00000000000E+00  0.00000000000E+00  0.13473091622E+04  0.13473091622E+04  0.00000000000E+00 0. -1.
          2   -1    0    0  503    0 -0.00000000000E+00 -0.00000000000E+00 -0.31025685067E+04  0.31025685067E+04  0.00000000000E+00 0. -1.
         24    2    1    2    0    0  0.17799431992E+03 -0.15876392239E+02 -0.57261731132E+03  0.60521465212E+03  0.80375071780E+02 0.  0.
         25    2    1    2    0    0 -0.34256179233E+03  0.89998343878E+02 -0.22520965357E+03  0.43794168735E+03  0.12500099998E+03 0.  0.
         24    2    1    2    0    0  0.17307491932E+03 -0.11608848543E+03 -0.12053311083E+04  0.12246902416E+04  0.60096947675E+02 0.  0.
        -13    1    3    3    0    0  0.91774932734E+02 -0.31197900095E+02 -0.19741558799E+03  0.21992921959E+03  0.00000000000E+00 0.  1.
         14    1    3    3    0    0  0.86219387190E+02  0.15321507856E+02 -0.37520172332E+03  0.38528543252E+03  0.00000000000E+00 0. -1.
        -13    1    5    5    0    0  0.15298353865E+03 -0.91330744559E+02 -0.11089530401E+04  0.11231750145E+04  0.00000000000E+00 0.  1.
         14    1    5    5    0    0  0.20091380677E+02 -0.24757740875E+02 -0.96378068204E+02  0.10151522714E+03  0.00000000000E+00 0. -1.
          5    1    4    4  501    0 -0.29975482290E+03  0.10589683470E+03 -0.22907635923E+03  0.39187391061E+03  0.47000000000E+01 0.  1.
         -5    1    4    4    0  501 -0.42806969426E+02 -0.15898490823E+02  0.38667056634E+01  0.46067776748E+02  0.47000000000E+01 0.  1.
          1    1    1    2  502    0  0.16057095842E+02  0.25287908632E+02  0.12145522892E+04  0.12149216320E+04  0.00000000000E+00 0. -1.
          1    1    1    2  503    0 -0.24564542762E+02  0.16678625165E+02 -0.96665356056E+03  0.96710945577E+03  0.00000000000E+00 0. -1.
<mgrwt>
<rscale>  0 0.29823122E+02</rscale>
<asrwt>0</asrwt>
<pdfrwt beam="1">  1        2 0.19813370E+00 0.29955190E+02</pdfrwt>
<pdfrwt beam="2">  1        2 0.45626007E+00 0.29691637E+02</pdfrwt>
<totfact> 0.10218975E+01</totfact>
</mgrwt>
</event>
<event>
13    1  0.1589573E-008  0.2452266E+03  0.7546771E-02  0.1159657E+00
          2   -1    0    0  502    0  0.00000000000E+00  0.00000000000E+00  0.37217406805E+04  0.37217406805E+04  0.00000000000E+00 0. -1.
          2   -1    0    0  503    0 -0.00000000000E+00 -0.00000000000E+00 -0.19668179977E+04  0.19668179977E+04  0.00000000000E+00 0. -1.
         24    2    1    2    0    0 -0.26779284700E+03 -0.23366696575E+03 -0.24171641618E+03  0.44122295947E+03  0.99687583608E+02 0.  0.
         25    2    1    2    0    0  0.39067349792E+03  0.10519709170E+02  0.49468649868E+03  0.64271128768E+03  0.12500648413E+03 0.  0.
         24    2    1    2    0    0  0.21319495611E+03  0.26008511293E+03  0.13332131609E+04  0.13772483601E+04  0.79116103683E+02 0.  0.
        -11    1    3    3    0    0 -0.11380733876E+02 -0.83917890876E+01 -0.45236619053E+02  0.47395093955E+02  0.00000000000E+00 0.  1.
         12    1    3    3    0    0 -0.25641211313E+03 -0.22527517666E+03 -0.19647979713E+03  0.39382786552E+03  0.00000000000E+00 0. -1.
        -11    1    5    5    0    0  0.86587819148E+02  0.11005432852E+03  0.40569745421E+03  0.42918507663E+03  0.00000000000E+00 0.  1.
         12    1    5    5    0    0  0.12660713696E+03  0.15003078441E+03  0.92751570665E+03  0.94806328348E+03  0.00000000000E+00 0. -1.
          5    1    4    4  501    0  0.42933242558E+02 -0.61497650723E+01  0.13602717743E+03  0.14285155206E+03  0.47000000000E+01 0. -1.
         -5    1    4    4    0  501  0.34774025537E+03  0.16669474242E+02  0.35865932125E+03  0.49985973562E+03  0.47000000000E+01 0. -1.
          1    1    1    2  502    0 -0.21441561266E+03 -0.11614646170E+03  0.16858200727E+04  0.17033653081E+04  0.00000000000E+00 0. -1.
          1    1    1    2  503    0 -0.12165999436E+03  0.79208605352E+02 -0.15170806333E+04  0.15240107628E+04  0.00000000000E+00 0. -1.
<mgrwt>
<rscale>  0 0.18868026E+03</rscale>
<asrwt>0</asrwt>
<pdfrwt beam="1">  1        2 0.54731480E+00 0.24522658E+03</pdfrwt>
<pdfrwt beam="2">  1        2 0.28923794E+00 0.14517285E+03</pdfrwt>
<totfact> 0.13541162E+00</totfact>
</mgrwt>
</event>
<event>
13    1  0.1632610E-008  0.6757257E+02  0.7546771E-02  0.1395295E+00
          2   -1    0    0  502    0  0.00000000000E+00  0.00000000000E+00  0.32939522295E+04  0.32939522295E+04  0.00000000000E+00 0. -1.
          2   -1    0    0  503    0 -0.00000000000E+00 -0.00000000000E+00 -0.19445222841E+04  0.19445222841E+04  0.00000000000E+00 0. -1.
         24    2    1    2    0    0 -0.83662006321E+03 -0.26443533861E+03 -0.38510403845E+02  0.88013786580E+03  0.57449396420E+02 0.  0.
         25    2    1    2    0    0 -0.28660102306E+03  0.26681772703E+03 -0.99058962749E+02  0.42281297350E+03  0.12500514624E+03 0.  0.
         24    2    1    2    0    0  0.10121237622E+04  0.13745059437E+02  0.13680183753E+04  0.17036678773E+04  0.80165605826E+02 0.  0.
        -11    1    5    5    0    0  0.37499925300E+03  0.32906098982E+02  0.55370309355E+03  0.66954788246E+03  0.00000000000E+00 0.  1.
         12    1    5    5    0    0  0.63712450920E+03 -0.19161039545E+02  0.81431528174E+03  0.10341199948E+04  0.00000000000E+00 0. -1.
        -11    1    3    3    0    0 -0.53270457217E+03 -0.16632144792E+03 -0.52074315095E+02  0.56048971404E+03  0.00000000000E+00 0.  1.
         12    1    3    3    0    0 -0.30391549104E+03 -0.98113890690E+02  0.13563911250E+02  0.31964815177E+03  0.00000000000E+00 0. -1.
          5    1    4    4  501    0 -0.20743397580E+03  0.19219567849E+03 -0.12754497196E+03  0.31025448106E+03  0.47000000000E+01 0.  1.
         -5    1    4    4    0  501 -0.79167047255E+02  0.74622048548E+02  0.28486009213E+02  0.11255849244E+03  0.47000000000E+01 0.  1.
          1    1    1    2  502    0  0.51851919041E+02  0.16329315423E+02  0.11737086713E+04  0.11749669412E+04  0.00000000000E+00 0. -1.
          1    1    1    2  503    0  0.59245405023E+02 -0.32456763282E+02 -0.10547277346E+04  0.10568888558E+04  0.00000000000E+00 0. -1.
<mgrwt>
<rscale>  0 0.60608625E+02</rscale>
<asrwt>0</asrwt>
<pdfrwt beam="1">  1        2 0.48440474E+00 0.54362377E+02</pdfrwt>
<pdfrwt beam="2">  1        2 0.28595916E+00 0.67572569E+02</pdfrwt>
<totfact> 0.35147466E+00</totfact>
</mgrwt>
</event>
<event>
13    1  0.1589573E-008  0.1196534E+03  0.7546771E-02  0.1334319E+00
          2   -1    0    0  503    0  0.00000000000E+00  0.00000000000E+00  0.12738728692E+04  0.12738728692E+04  0.00000000000E+00 0. -1.
          2   -1    0    0  502    0 -0.00000000000E+00 -0.00000000000E+00 -0.20031833017E+04  0.20031833017E+04  0.00000000000E+00 0. -1.
         24    2    1    2    0    0 -0.11176968137E+03 -0.52095333340E+03 -0.57731033243E+02  0.54155800768E+03  0.77893300301E+02 0.  0.
         25    2    1    2    0    0  0.43464858471E+03  0.46271343339E+03 -0.45348719495E+03  0.79011833429E+03  0.12495292143E+03 0.  0.
         24    2    1    2    0    0 -0.18271082067E+03  0.71967313397E+02  0.33220135753E+02  0.21478078980E+03  0.80403184406E+02 0.  0.
        -13    1    3    3    0    0 -0.15695369730E+02 -0.15714460832E+03 -0.48344389427E+02  0.16516038430E+03  0.00000000000E+00 0.  1.
         14    1    3    3    0    0 -0.96074311642E+02 -0.36380872508E+03 -0.93866438163E+01  0.37639762338E+03  0.00000000000E+00 0. -1.
        -13    1    5    5    0    0 -0.78089866965E+02  0.73708649817E+02  0.12424360096E+02  0.10809883026E+03  0.00000000000E+00 0.  1.
         14    1    5    5    0    0 -0.10462095370E+03 -0.17413364200E+01  0.20795775657E+02  0.10668195954E+03  0.00000000000E+00 0. -1.
          5    1    4    4  501    0  0.13248804450E+02 -0.53437236534E+01 -0.22066943080E+02  0.26704422457E+02  0.47000000000E+01 0.  1.
         -5    1    4    4    0  501  0.42139978026E+03  0.46805715704E+03 -0.43142025187E+03  0.76341391183E+03  0.47000000000E+01 0.  1.
          1    1    1    2  502    0 -0.32868300061E+02  0.39090315091E+02 -0.98545567895E+03  0.98677822891E+03  0.00000000000E+00 0. -1.
          1    1    1    2  503    0 -0.10729978260E+03 -0.52817728478E+02  0.73414333890E+03  0.74382081030E+03  0.00000000000E+00 0. -1.
<mgrwt>
<rscale>  0 0.78172694E+02</rscale>
<asrwt>0</asrwt>
<pdfrwt beam="1">  1        2 0.18733425E+00 0.11965336E+03</pdfrwt>
<pdfrwt beam="2">  1        2 0.29458578E+00 0.51072281E+02</pdfrwt>
<totfact> 0.31504790E+01</totfact>
</mgrwt>
</event>
<event>
13    1  0.1589573E-008  0.4187460E+02  0.7546771E-02  0.1592094E+00
          2   -1    0    0  502    0  0.00000000000E+00  0.00000000000E+00  0.10252047254E+04  0.10252047254E+04  0.00000000000E+00 0. -1.
          2   -1    0    0  503    0 -0.00000000000E+00 -0.00000000000E+00 -0.93742695721E+03  0.93742695721E+03  0.00000000000E+00 0. -1.
         24    2    1    2    0    0  0.31583953198E+02 -0.98415488782E+01 -0.31880745534E+03  0.33098939797E+03  0.82591681194E+02 0.  0.
         25    2    1    2    0    0 -0.11866031048E+03 -0.82854648812E+02  0.50014238522E+03  0.53545513120E+03  0.12499851968E+03 0.  0.
         24    2    1    2    0    0  0.35922533145E+02  0.74836649205E+02 -0.11164116015E+03  0.15985231063E+03  0.78727759542E+02 0.  0.
        -11    1    3    3    0    0  0.59758040434E+02 -0.90300726019E+01 -0.20332107216E+03  0.21211323389E+03  0.00000000000E+00 0.  1.
         12    1    3    3    0    0 -0.28174087236E+02 -0.81147627636E+00 -0.11548638318E+03  0.11887616408E+03  0.00000000000E+00 0. -1.
        -11    1    5    5    0    0 -0.25038046502E+02  0.20446103061E+02 -0.37713233134E+02  0.49671267917E+02  0.00000000000E+00 0.  1.
         12    1    5    5    0    0  0.60960579646E+02  0.54390546145E+02 -0.73927927018E+02  0.11018104272E+03  0.00000000000E+00 0. -1.
          5    1    4    4  501    0 -0.34782793300E+02 -0.83854625622E+02  0.15018006116E+03  0.17554937117E+03  0.47000000000E+01 0.  1.
         -5    1    4    4    0  501 -0.83877517184E+02  0.99997680941E+00  0.34996232406E+03  0.35990576003E+03  0.47000000000E+01 0.  1.
          1    1    1    2  502    0  0.19915208398E+02 -0.10005046410E+02  0.47599399365E+03  0.47651547559E+03  0.00000000000E+00 0. -1.
          1    1    1    2  503    0  0.31238615744E+02  0.27864594895E+02 -0.45790999520E+03  0.45981936722E+03  0.00000000000E+00 0. -1.
<mgrwt>
<rscale>  0 0.30549387E+02</rscale>
<asrwt>0</asrwt>
<pdfrwt beam="1">  1        2 0.15076540E+00 0.22287137E+02</pdfrwt>
<pdfrwt beam="2">  1        2 0.13785691E+00 0.41874604E+02</pdfrwt>
<totfact> 0.15886232E+02</totfact>
</mgrwt>
</event>
<event>
13    1  0.1589573E-008  0.4930062E+02  0.7546771E-02  0.1499510E+00
          2   -1    0    0  502    0  0.00000000000E+00  0.00000000000E+00  0.17115862942E+04  0.17115862942E+04  0.00000000000E+00 0. -1.
          2   -1    0    0  503    0 -0.00000000000E+00 -0.00000000000E+00 -0.37605409489E+04  0.37605409489E+04  0.00000000000E+00 0. -1.
         24    2    1    2    0    0  0.11624442716E+04 -0.10954442874E+04 -0.94206658729E+03  0.18558207990E+04  0.72845806620E+02 0.  0.
         25    2    1    2    0    0 -0.64935238272E+03  0.92202872113E+03  0.62953903607E+02  0.11363904281E+04  0.12499812589E+03 0.  0.
         24    2    1    2    0    0 -0.54049479353E+03  0.25242648389E+03 -0.59624877082E+03  0.84733222755E+03  0.81274568777E+02 0.  0.
        -11    1    3    3    0    0  0.59788726617E+03 -0.57748483505E+03 -0.53072180539E+03  0.98621678778E+03  0.00000000000E+00 0.  1.
         12    1    3    3    0    0  0.56455700546E+03 -0.51795945234E+03 -0.41134478190E+03  0.86960401118E+03  0.00000000000E+00 0. -1.
        -13    1    5    5    0    0 -0.35654119953E+03  0.20807428624E+03 -0.40712863025E+03  0.57980191198E+03  0.00000000000E+00 0.  1.
         14    1    5    5    0    0 -0.18395359400E+03  0.44352197653E+02 -0.18912014057E+03  0.26753031557E+03  0.00000000000E+00 0. -1.
          5    1    4    4  501    0 -0.29202396110E+03  0.31302569344E+03  0.38716401319E+02  0.42986524439E+03  0.47000000000E+01 0. -1.
         -5    1    4    4    0  501 -0.35732842162E+03  0.60900302769E+03  0.24237502287E+02  0.70652518366E+03  0.47000000000E+01 0. -1.
          1    1    1    2  502    0  0.13163489567E+02 -0.31828120245E+02  0.52838382428E+03  0.52950521476E+03  0.00000000000E+00 0. -1.
          1    1    1    2  503    0  0.14239415049E+02 -0.47182797389E+02 -0.11019770245E+04  0.11030785738E+04  0.00000000000E+00 0. -1.
<mgrwt>
<rscale>  0 0.41207420E+02</rscale>
<asrwt>0</asrwt>
<pdfrwt beam="1">  1        2 0.25170387E+00 0.34442803E+02</pdfrwt>
<pdfrwt beam="2">  1        2 0.55302072E+00 0.49300618E+02</pdfrwt>
<totfact> 0.26492259E+00</totfact>
</mgrwt>
</event>
<event>
13    1  0.1589573E-008  0.7185875E+02  0.7546771E-02  0.1472318E+00
          2   -1    0    0  503    0  0.00000000000E+00  0.00000000000E+00  0.30371618358E+04  0.30371618358E+04  0.00000000000E+00 0. -1.
          2   -1    0    0  502    0 -0.00000000000E+00 -0.00000000000E+00 -0.90834981586E+02  0.90834981586E+02  0.00000000000E+00 0. -1.
         24    2    1    2    0    0 -0.11125983402E+03 -0.12340136167E+03  0.45916853673E+03  0.49521660416E+03  0.82444485510E+02 0.  0.
         25    2    1    2    0    0  0.16801195261E+02  0.12047500312E+03  0.14838572725E+04  0.14940733940E+04  0.12500557878E+03 0.  0.
         24    2    1    2    0    0  0.40622835098E+02  0.74626077562E+02  0.14094041895E+03  0.18320785317E+03  0.80508692602E+02 0.  0.
        -11    1    5    5    0    0 -0.14324834927E+02  0.11941640038E+02 -0.91675320133E+00  0.18672013789E+02  0.00000000000E+00 0.  1.
         12    1    5    5    0    0  0.54947670025E+02  0.62684437524E+02  0.14185717216E+03  0.16453583938E+03  0.00000000000E+00 0. -1.
        -11    1    3    3    0    0 -0.13825506693E+02 -0.36789902266E+02  0.39319268177E+02  0.55593582310E+02  0.00000000000E+00 0.  1.
         12    1    3    3    0    0 -0.97434327330E+02 -0.86611459406E+02  0.41984926855E+03  0.43962302185E+03  0.00000000000E+00 0. -1.
          5    1    4    4  501    0 -0.44001423112E+02  0.82172582460E+02  0.10639408200E+04  0.10680265058E+04  0.47000000000E+01 0. -1.
         -5    1    4    4    0  501  0.60802618373E+02  0.38302420663E+02  0.41991645253E+03  0.42604688819E+03  0.47000000000E+01 0. -1.
          1    1    1    2  502    0  0.57113831510E+02 -0.43298413661E+02 -0.18623405371E+02  0.74051155311E+02  0.00000000000E+00 0. -1.
          1    1    1    2  503    0 -0.32780278458E+01 -0.28401305351E+02  0.88098403135E+03  0.88144781077E+03  0.00000000000E+00 0. -1.
<mgrwt>
<rscale>  0 0.45325831E+02</rscale>
<asrwt>0</asrwt>
<pdfrwt beam="1">  1        2 0.44664138E+00 0.28589852E+02</pdfrwt>
<pdfrwt beam="2">  1        2 0.13358088E-01 0.71858748E+02</pdfrwt>
<totfact> 0.22174331E+02</totfact>
</mgrwt>
</event>
<event>
13    1  0.1589573E-008  0.6908820E+02  0.7546771E-02  0.1459198E+00
          2   -1    0    0  502    0  0.00000000000E+00  0.00000000000E+00  0.23426479447E+04  0.23426479447E+04  0.00000000000E+00 0. -1.
          2   -1    0    0  503    0 -0.00000000000E+00 -0.00000000000E+00 -0.44136583792E+04  0.44136583792E+04  0.00000000000E+00 0. -1.
         24    2    1    2    0    0  0.62251623949E+02 -0.26031611452E+02 -0.90590126629E+03  0.91163277333E+03  0.76578715421E+02 0.  0.
         25    2    1    2    0    0 -0.22761393494E+03 -0.44023747366E+02  0.11944442817E+04  0.12231390055E+04  0.12500276452E+03 0.  0.
         24    2    1    2    0    0  0.29172140122E+03  0.31456302838E+02 -0.15069272157E+03  0.33917808643E+03  0.79010145295E+02 0.  0.
        -11    1    5    5    0    0  0.67096690814E+02  0.98521872879E+01  0.19903559305E-01  0.67816162592E+02  0.00000000000E+00 0.  1.
         12    1    5    5    0    0  0.22462471041E+03  0.21604115550E+02 -0.15071262513E+03  0.27136192384E+03  0.00000000000E+00 0. -1.
        -11    1    3    3    0    0  0.15205840155E+02 -0.17868877120E+02 -0.69491248297E+03  0.69530847351E+03  0.00000000000E+00 0.  1.
         12    1    3    3    0    0  0.47045783794E+02 -0.81627343321E+01 -0.21098878332E+03  0.21632429982E+03  0.00000000000E+00 0. -1.
          5    1    4    4  501    0 -0.47664051379E+02 -0.58321304568E+02  0.49698689557E+03  0.50268409635E+03  0.47000000000E+01 0. -1.
         -5    1    4    4    0  501 -0.17994988357E+03  0.14297557202E+02  0.69745738609E+03  0.72045490917E+03  0.47000000000E+01 0. -1.
          1    1    1    2  502    0 -0.22828353911E+02  0.23391100463E+02  0.10356465462E+04  0.10361621716E+04  0.00000000000E+00 0. -1.
          1    1    1    2  503    0 -0.10353073632E+03  0.15207955517E+02 -0.32445072744E+04  0.32461942870E+04  0.00000000000E+00 0. -1.
<mgrwt>
<rscale>  0 0.47519617E+02</rscale>
<asrwt>0</asrwt>
<pdfrwt beam="1">  1        2 0.34450705E+00 0.32684512E+02</pdfrwt>
<pdfrwt beam="2">  1        2 0.64906741E+00 0.69088198E+02</pdfrwt>
<totfact> 0.45919743E-01</totfact>
</mgrwt>
</event>
<event>
13    1  0.1589573E-008  0.1192203E+03  0.7546771E-02  0.1275739E+00
          2   -1    0    0  503    0  0.00000000000E+00  0.00000000000E+00  0.90331970185E+03  0.90331970185E+03  0.00000000000E+00 0. -1.
          2   -1    0    0  502    0 -0.00000000000E+00 -0.00000000000E+00 -0.28803522961E+04  0.28803522961E+04  0.00000000000E+00 0. -1.
         24    2    1    2    0    0 -0.16734396646E+03 -0.77039709454E+02 -0.55413721198E+03  0.58987462320E+03  0.83336075366E+02 0.  0.
         25    2    1    2    0    0  0.19073049587E+03 -0.32927656157E+02 -0.56463789497E+02  0.23724125754E+03  0.12503160465E+03 0.  0.
         24    2    1    2    0    0 -0.16495786107E+02 -0.31596536260E+02 -0.24981003313E+02  0.90137096516E+02  0.78931575298E+02 0.  0.
        -11    1    5    5    0    0  0.14229831617E+02  0.28958254245E+01  0.20624893613E+02  0.25224197694E+02  0.00000000000E+00 0.  1.
         12    1    5    5    0    0 -0.30725617724E+02 -0.34492361685E+02 -0.45605896926E+02  0.64912898823E+02  0.00000000000E+00 0. -1.
        -11    1    3    3    0    0 -0.34162228307E+02 -0.58122762341E+02 -0.19936107227E+03  0.21045225226E+03  0.00000000000E+00 0.  1.
         12    1    3    3    0    0 -0.13318173815E+03 -0.18916947113E+02 -0.35477613971E+03  0.37942237094E+03  0.00000000000E+00 0. -1.
          5    1    4    4  501    0  0.14387383697E+02  0.33614657077E+02  0.84853298671E+01  0.37828994211E+02  0.47000000000E+01 0.  1.
         -5    1    4    4    0  501  0.17634311217E+03 -0.66542313234E+02 -0.64949119364E+02  0.19941226333E+03  0.47000000000E+01 0.  1.
          1    1    1    2  502    0 -0.97787392493E+02  0.69193845776E+02 -0.20977899044E+04  0.21012074256E+04  0.00000000000E+00 0. -1.
          1    1    1    2  503    0  0.90896649190E+02  0.72370056096E+02  0.75633931496E+03  0.76521159505E+03  0.00000000000E+00 0. -1.
<mgrwt>
<rscale>  0 0.10219888E+03</rscale>
<asrwt>0</asrwt>
<pdfrwt beam="1">  1        2 0.13284113E+00 0.87607680E+02</pdfrwt>
<pdfrwt beam="2">  1        2 0.42358123E+00 0.11922027E+03</pdfrwt>
<totfact> 0.17109537E+01</totfact>
</mgrwt>
</event>
<event>
13    1  0.1589573E-008  0.1555019E+03  0.7546771E-02  0.1342595E+00
          2   -1    0    0  502    0  0.00000000000E+00  0.00000000000E+00  0.33701162521E+04  0.33701162521E+04  0.00000000000E+00 0. -1.
          2   -1    0    0  503    0 -0.00000000000E+00 -0.00000000000E+00 -0.13830807016E+04  0.13830807016E+04  0.00000000000E+00 0. -1.
         24    2    1    2    0    0  0.52629487141E+02  0.23533993769E+03  0.16610921371E+03  0.30364450033E+03  0.80330333710E+02 0.  0.
         25    2    1    2    0    0 -0.10469527606E+03 -0.22939762708E+02  0.79183190012E+03  0.80877032319E+03  0.12499737628E+03 0.  0.
         24    2    1    2    0    0 -0.82115048022E+02  0.38457437128E+02 -0.57696645781E+02  0.13751830419E+03  0.85793504827E+02 0.  0.
        -13    1    5    5    0    0  0.13220665713E+01  0.26123896820E+01 -0.45843730760E+02  0.45937131929E+02  0.00000000000E+00 0.  1.
         14    1    5    5    0    0 -0.83437114593E+02  0.35845047446E+02 -0.11852915022E+02  0.91581172260E+02  0.00000000000E+00 0. -1.
        -13    1    3    3    0    0  0.56005420856E+02  0.10971653096E+03  0.51339942329E+02  0.13345453911E+03  0.00000000000E+00 0.  1.
         14    1    3    3    0    0 -0.33759337150E+01  0.12562340673E+03  0.11476927138E+03  0.17018996122E+03  0.00000000000E+00 0. -1.
          5    1    4    4  501    0  0.21381074701E+02  0.19359971863E+02  0.96805944132E+02  0.10112091616E+03  0.47000000000E+01 0.  1.
         -5    1    4    4    0  501 -0.12607635076E+03 -0.42299734571E+02  0.69502595599E+03  0.70764940702E+03  0.47000000000E+01 0.  1.
          1    1    1    2  502    0  0.21726234913E+02 -0.29420662678E+02  0.22821169067E+04  0.22824099501E+04  0.00000000000E+00 0. -1.
          1    1    1    2  503    0  0.11245460203E+03 -0.22143694943E+03 -0.11953258242E+04  0.12208538758E+04  0.00000000000E+00 0. -1.
<mgrwt>
<rscale>  0 0.75413633E+02</rscale>
<asrwt>0</asrwt>
<pdfrwt beam="1">  1        2 0.49560533E+00 0.36573278E+02</pdfrwt>
<pdfrwt beam="2">  1        2 0.20339422E+00 0.15550195E+03</pdfrwt>
<totfact> 0.60335439E+00</totfact>
</mgrwt>
</event>
<event>
13    1  0.1589573E-008  0.1449456E+03  0.7546771E-02  0.1400917E+00
          2   -1    0    0  503    0  0.00000000000E+00  0.00000000000E+00  0.12544162916E+04  0.12544162916E+04  0.00000000000E+00 0. -1.
          2   -1    0    0  502    0 -0.00000000000E+00 -0.00000000000E+00 -0.20317354324E+04  0.20317354324E+04  0.00000000000E+00 0. -1.
         24    2    1    2    0    0  0.71344445324E+02 -0.60400784284E+02 -0.18186643837E+03  0.21965185239E+03  0.80207544721E+02 0.  0.
         25    2    1    2    0    0 -0.12496845222E+03 -0.15517354257E+03  0.66015240633E+03  0.70079881874E+03  0.12498736894E+03 0.  0.
         24    2    1    2    0    0 -0.47926650405E+02 -0.10930234983E+02 -0.53440185739E+02  0.10594634557E+03  0.77151414972E+02 0.  0.
        -11    1    3    3    0    0  0.58112238343E+01  0.60362792182E+01 -0.84029640786E+02  0.84446358832E+02  0.00000000000E+00 0.  1.
         12    1    3    3    0    0  0.65533221490E+02 -0.66437063502E+02 -0.97836797584E+02  0.13520549355E+03  0.00000000000E+00 0. -1.
        -11    1    5    5    0    0  0.19602585595E+02  0.46546669845E+01 -0.33234832972E+01  0.20419912536E+02  0.00000000000E+00 0.  1.
         12    1    5    5    0    0 -0.67529236000E+02 -0.15584901968E+02 -0.50116702441E+02  0.85526433035E+02  0.00000000000E+00 0. -1.
          5    1    4    4  501    0 -0.64863714171E+02 -0.13516831482E+03  0.30361520748E+03  0.33864739621E+03  0.47000000000E+01 0.  1.
         -5    1    4    4    0  501 -0.60104738048E+02 -0.20005227751E+02  0.35653719885E+03  0.36215142253E+03  0.47000000000E+01 0.  1.
          1    1    1    2  502    0  0.81087463284E+02  0.23949269449E+03 -0.17214420527E+04  0.17399122588E+04  0.00000000000E+00 0. -1.
          1    1    1    2  503    0  0.20463194015E+02 -0.12988132646E+02  0.51927712966E+03  0.51984244852E+03  0.00000000000E+00 0. -1.
<mgrwt>
<rscale>  0 0.59270993E+02</rscale>
<asrwt>0</asrwt>
<pdfrwt beam="1">  1        2 0.18447299E+00 0.24237036E+02</pdfrwt>
<pdfrwt beam="2">  1        2 0.29878462E+00 0.14494556E+03</pdfrwt>
<totfact> 0.31110490E+01</totfact>
</mgrwt>
</event>
<event>
13    1  0.1589573E-008  0.1235510E+03  0.7546771E-02  0.1267445E+00
          2   -1    0    0  503    0  0.00000000000E+00  0.00000000000E+00  0.94598263791E+03  0.94598263791E+03  0.00000000000E+00 0. -1.
          2   -1    0    0  502    0 -0.00000000000E+00 -0.00000000000E+00 -0.22127624010E+04  0.22127624010E+04  0.00000000000E+00 0. -1.
         24    2    1    2    0    0 -0.52870560370E+02 -0.21659832610E+01 -0.19946551260E+03  0.21958988801E+03  0.75054916968E+02 0.  0.
         25    2    1    2    0    0  0.13634780204E+03  0.13389961515E+03 -0.54098062900E+03  0.58720049866E+03  0.12499821845E+03 0.  0.
         24    2    1    2    0    0 -0.73962136961E+02 -0.71466482020E+02  0.15789718643E+03  0.20261780381E+03  0.74462051950E+02 0.  0.
        -13    1    3    3    0    0 -0.63438851691E+02  0.17130375973E+02 -0.11647260457E+03  0.13373034548E+03  0.00000000000E+00 0.  1.
         14    1    3    3    0    0  0.10568291320E+02 -0.19296359234E+02 -0.82992908027E+02  0.85859542533E+02  0.00000000000E+00 0. -1.
        -13    1    5    5    0    0 -0.79299747683E+02 -0.33036809714E+02  0.12542259171E+03  0.15202206185E+03  0.00000000000E+00 0.  1.
         14    1    5    5    0    0  0.53376107214E+01 -0.38429672306E+02  0.32474594728E+02  0.50595741960E+02  0.00000000000E+00 0. -1.
          5    1    4    4  501    0 -0.32733744521E+01 -0.18795116255E+01  0.47920649836E+01  0.77007422409E+01  0.47000000000E+01 0.  1.
         -5    1    4    4    0  501  0.13962117649E+03  0.13577912677E+03 -0.54577269399E+03  0.57949975642E+03  0.47000000000E+01 0.  1.
          1    1    1    2  502    0  0.11393145170E+03 -0.48073491812E+02 -0.14088045921E+04  0.14142212751E+04  0.00000000000E+00 0. -1.
          1    1    1    2  503    0 -0.12344655640E+03 -0.12193658053E+02  0.72457378411E+03  0.73511557337E+03  0.00000000000E+00 0. -1.
<mgrwt>
<rscale>  0 0.10636919E+03</rscale>
<asrwt>0</asrwt>
<pdfrwt beam="1">  1        2 0.13911510E+00 0.12355104E+03</pdfrwt>
<pdfrwt beam="2">  1        2 0.32540623E+00 0.91576759E+02</pdfrwt>
<totfact> 0.35590659E+01</totfact>
</mgrwt>
</event>
<event>
13    1  0.1589573E-008  0.8181016E+02  0.7546771E-02  0.1346534E+00
          2   -1    0    0  502    0  0.00000000000E+00  0.00000000000E+00  0.12424462058E+04  0.12424462058E+04  0.00000000000E+00 0. -1.
          4   -1    0    0  503    0 -0.00000000000E+00 -0.00000000000E+00 -0.98612120779E+03  0.98612120779E+03  0.00000000000E+00 0. -1.
         24    2    1    2    0    0  0.11348098066E+03  0.14552157002E+03  0.16429371191E+03  0.26173196935E+03  0.86352415702E+02 0.  0.
         25    2    1    2    0    0 -0.20762387337E+03 -0.22889266027E+03 -0.28975648750E+02  0.33461237692E+03  0.12500532728E+03 0.  0.
         24    2    1    2    0    0  0.22627381942E+01 -0.46569920780E+02  0.31022367844E+03  0.32375781950E+03  0.80040724130E+02 0.  0.
        -13    1    5    5    0    0 -0.22760181344E+02 -0.55143618531E+02  0.15109113382E+03  0.16244191343E+03  0.00000000000E+00 0.  1.
         14    1    5    5    0    0  0.25022919538E+02  0.85736977510E+01  0.15913254462E+03  0.16131590607E+03  0.00000000000E+00 0. -1.
        -13    1    3    3    0    0 -0.19013304012E+01 -0.73958938612E+01 -0.21785178855E+01  0.79410480088E+01  0.00000000000E+00 0.  1.
         14    1    3    3    0    0  0.11538231106E+03  0.15291746388E+03  0.16647222979E+03  0.25379092134E+03  0.00000000000E+00 0. -1.
          5    1    4    4  501    0 -0.19041304884E+03 -0.12869405114E+03 -0.35643962757E+02  0.23261958225E+03  0.47000000000E+01 0. -1.
         -5    1    4    4    0  501 -0.17210824538E+02 -0.10019860913E+03  0.66683140062E+01  0.10199279467E+03  0.47000000000E+01 0. -1.
          1    1    1    2  502    0  0.46529132381E+02  0.80350241460E+02  0.55424703042E+03  0.56197054388E+03  0.00000000000E+00 0. -1.
          3    1    1    2  503    0  0.45351022143E+02  0.49590769579E+02 -0.74346377404E+03  0.74649470390E+03  0.00000000000E+00 0. -1.
<mgrwt>
<rscale>  0 0.74146580E+02</rscale>
<asrwt>0</asrwt>
<pdfrwt beam="1">  1        2 0.18271268E+00 0.81810156E+02</pdfrwt>
<pdfrwt beam="2">  1        4 0.14501782E+00 0.67200890E+02</pdfrwt>
<totfact> 0.39276297E+00</totfact>
</mgrwt>
</event>
<event>
13    1  0.1589573E-008  0.8525185E+02  0.7546771E-02  0.1331664E+00
         -3   -1    0    0    0  501 -0.00000000000E+00  0.00000000000E+00  0.50912647820E+03  0.50912647820E+03  0.00000000000E+00 0.  1.
          2   -1    0    0  503    0  0.00000000000E+00 -0.00000000000E+00 -0.13470945888E+04  0.13470945888E+04  0.00000000000E+00 0. -1.
         24    2    1    2    0    0 -0.43638069395E+02  0.17847521804E+02  0.74844544164E+02  0.11879922739E+03  0.79301547916E+02 0.  0.
         25    2    1    2    0    0 -0.14454692807E+02  0.13772297494E+03 -0.10048455884E+03  0.21189076074E+03  0.12499596775E+03 0.  0.
         24    2    1    2    0    0 -0.88416104812E+01 -0.41088016926E+02  0.11179848321E+03  0.14336645922E+03  0.79300955670E+02 0.  0.
        -11    1    5    5    0    0 -0.32395473993E+01 -0.47538739895E+02  0.20839051153E+02  0.52006658334E+02  0.00000000000E+00 0.  1.
         12    1    5    5    0    0 -0.56020630819E+01  0.64507229686E+01  0.90959432056E+02  0.91359800884E+02  0.00000000000E+00 0. -1.
        -13    1    3    3    0    0  0.23488090867E+01  0.40769950895E+02  0.31467775285E+02  0.51555083953E+02  0.00000000000E+00 0.  1.
         14    1    3    3    0    0 -0.45986878482E+02 -0.22922429090E+02  0.43376768879E+02  0.67244143434E+02  0.00000000000E+00 0. -1.
          5    1    4    4  502    0  0.26240111446E+02  0.19458499763E+01 -0.57966509673E+02  0.63832092434E+02  0.47000000000E+01 0.  1.
         -5    1    4    4    0  502 -0.40694804252E+02  0.13577712496E+03 -0.42518049162E+02  0.14805866831E+03  0.47000000000E+01 0.  1.
          1    1    1    2  503    0  0.66751782499E+02 -0.30444573371E+02 -0.11442215909E+04  0.11465712894E+04  0.00000000000E+00 0. -1.
         -4    1    1    2    0  501  0.18259018394E+00 -0.84037906445E+02  0.22009501178E+03  0.23559333027E+03  0.00000000000E+00 0.  1.
<mgrwt>
<rscale>  0 0.79086324E+02</rscale>
<asrwt>0</asrwt>
<pdfrwt beam="2">  1        2 0.19810214E+00 0.73366699E+02</pdfrwt>
<pdfrwt beam="1">  1       -3 0.74871543E-01 0.85251848E+02</pdfrwt>
<totfact> 0.20292362E+01</totfact>
</mgrwt>
</event>
<event>
13    1  0.1589573E-008  0.5951362E+02  0.7546771E-02  0.1411485E+00
          2   -1    0    0  503    0  0.00000000000E+00  0.00000000000E+00  0.37451165364E+04  0.37451165364E+04  0.00000000000E+00 0. -1.
          2   -1    0    0  502    0 -0.00000000000E+00 -0.00000000000E+00 -0.10591919573E+04  0.10591919573E+04  0.00000000000E+00 0. -1.
         24    2    1    2    0    0  0.12468541878E+04  0.18241004145E+03  0.13616949862E+04  0.18574441715E+04  0.89257076225E+02 0.  0.
         25    2    1    2    0    0 -0.10131476928E+04  0.48551643882E+02  0.87138100972E+03  0.13430397295E+04  0.12500136586E+03 0.  0.
         24    2    1    2    0    0 -0.19060860457E+03 -0.25945365403E+03  0.52017920170E+03  0.61743187564E+03  0.83593543084E+02 0.  0.
        -13    1    3    3    0    0  0.10605462023E+04  0.16054614835E+03  0.12028414477E+04  0.16116329796E+04  0.00000000000E+00 0.  1.
         14    1    3    3    0    0  0.18630798554E+03  0.21863893094E+02  0.15885353858E+03  0.24581119181E+03  0.00000000000E+00 0. -1.
        -13    1    5    5    0    0 -0.69691436570E+02 -0.11192960497E+03  0.28944074604E+03  0.31805829382E+03  0.00000000000E+00 0.  1.
         14    1    5    5    0    0 -0.12091716800E+03 -0.14752404906E+03  0.23073845566E+03  0.29937358182E+03  0.00000000000E+00 0. -1.
          5    1    4    4  501    0 -0.94385904427E+02 -0.15602001336E+02  0.45792716715E+02  0.10616583398E+03  0.47000000000E+01 0. -1.
         -5    1    4    4    0  501 -0.91876178839E+03  0.64153645218E+02  0.82558829300E+03  0.12368738956E+04  0.47000000000E+01 0. -1.
          1    1    1    2  502    0 -0.44535916136E+02 -0.31120994114E+02 -0.52351536571E+03  0.52632718174E+03  0.00000000000E+00 0. -1.
          1    1    1    2  503    0  0.14380257271E+01  0.59612962818E+02  0.45618474714E+03  0.46006553531E+03  0.00000000000E+00 0. -1.
<mgrwt>
<rscale>  0 0.56863811E+02</rscale>
<asrwt>0</asrwt>
<pdfrwt beam="1">  1        2 0.55075243E+00 0.59513622E+02</pdfrwt>
<pdfrwt beam="2">  1        2 0.15576352E+00 0.54331980E+02</pdfrwt>
<totfact> 0.52348279E+00</totfact>
</mgrwt>
</event>
<event>
13    1  0.1589573E-008  0.2724360E+02  0.7546771E-02  0.1669620E+00
          2   -1    0    0  502    0  0.00000000000E+00  0.00000000000E+00  0.63809733699E+03  0.63809733699E+03  0.00000000000E+00 0. -1.
          2   -1    0    0  503    0 -0.00000000000E+00 -0.00000000000E+00 -0.21073277345E+04  0.21073277345E+04  0.00000000000E+00 0. -1.
         24    2    1    2    0    0  0.51010624604E+02 -0.50817336850E+02 -0.39846976935E+03  0.41265931071E+03  0.79530271482E+02 0.  0.
         25    2    1    2    0    0 -0.48578816257E+02  0.17006797342E+02  0.33416056624E+03  0.36046899465E+03  0.12500191811E+03 0.  0.
         24    2    1    2    0    0  0.11082158693E+01  0.21577807568E+02 -0.39067775531E+03  0.39959017857E+03  0.81094835827E+02 0.  0.
        -11    1    5    5    0    0 -0.31856667869E+02  0.23825205775E+02 -0.10995962964E+03  0.11693420316E+03  0.00000000000E+00 0.  1.
         12    1    5    5    0    0  0.32964883739E+02 -0.22473982072E+01 -0.28071812566E+03  0.28265597541E+03  0.00000000000E+00 0. -1.
        -11    1    3    3    0    0  0.55745086803E+02 -0.45650375073E+02 -0.39916599777E+03  0.40561677138E+03  0.00000000000E+00 0.  1.
         12    1    3    3    0    0 -0.47344621984E+01 -0.51669617768E+01  0.69622841432E+00  0.70425393372E+01  0.00000000000E+00 0. -1.
          5    1    4    4  501    0 -0.36658770613E+02 -0.18858448378E+02  0.31521046478E+03  0.31792960485E+03  0.47000000000E+01 0. -1.
         -5    1    4    4    0  501 -0.11920045644E+02  0.35865245721E+02  0.18950101460E+02  0.42539389795E+02  0.47000000000E+01 0. -1.
          1    1    1    2  502    0 -0.19539177336E+02 -0.98277370617E+01  0.27865948507E+03  0.27951649770E+03  0.00000000000E+00 0. -1.
          1    1    1    2  503    0  0.15999153120E+02  0.22060469001E+02 -0.12929029241E+04  0.12931900898E+04  0.00000000000E+00 0. -1.
<mgrwt>
<rscale>  0 0.24410229E+02</rscale>
<asrwt>0</asrwt>
<pdfrwt beam="1">  1        2 0.93837843E-01 0.21871531E+02</pdfrwt>
<pdfrwt beam="2">  1        2 0.30990114E+00 0.27243601E+02</pdfrwt>
<totfact> 0.77366791E+01</totfact>
</mgrwt>
</event>
<event>
13    1  0.1589573E-008  0.1425000E+03  0.7546771E-02  0.1415662E+00
          2   -1    0    0  503    0  0.00000000000E+00  0.00000000000E+00  0.52652081195E+03  0.52652081195E+03  0.00000000000E+00 0. -1.
         -3   -1    0    0    0  501 -0.00000000000E+00 -0.00000000000E+00 -0.66530720524E+03  0.66530720524E+03  0.00000000000E+00 0.  1.
         24    2    1    2    0    0  0.22378663727E+01  0.48339407708E+02 -0.20312585977E+03  0.22318739851E+03  0.78808588135E+02 0.  0.
         25    2    1    2    0    0 -0.25409439291E+02 -0.18823689225E+03 -0.62845522831E+02  0.23592079904E+03  0.12502118409E+03 0.  0.
         24    2    1    2    0    0  0.34193625101E+02  0.22984343886E+02 -0.16516814277E+03  0.18836340463E+03  0.80639771571E+02 0.  0.
        -11    1    5    5    0    0  0.51196212601E+02  0.27553958282E+02 -0.67350403528E+02  0.88973870642E+02  0.00000000000E+00 0.  1.
         12    1    5    5    0    0 -0.17002587499E+02 -0.45696143959E+01 -0.97817739238E+02  0.99389533991E+02  0.00000000000E+00 0. -1.
        -11    1    3    3    0    0 -0.28343925541E+02  0.49605401916E+01 -0.12806270357E+03  0.13125563271E+03  0.00000000000E+00 0.  1.
         12    1    3    3    0    0  0.30581791914E+02  0.43378867516E+02 -0.75063156202E+02  0.91931765798E+02  0.00000000000E+00 0. -1.
          5    1    4    4  502    0  0.35658419098E+02 -0.85042011465E+02 -0.69751981296E+02  0.11571990089E+03  0.47000000000E+01 0.  1.
         -5    1    4    4    0  502 -0.61067858388E+02 -0.10319488079E+03  0.69064584651E+01  0.12020089816E+03  0.47000000000E+01 0.  1.
          1    1    1    2  503    0 -0.16042791609E+02  0.13829889420E+03  0.40568741149E+03  0.42891284796E+03  0.00000000000E+00 0. -1.
         -4    1    1    2    0  501  0.50207394262E+01 -0.21385753542E+02 -0.11333427942E+03  0.11544356704E+03  0.00000000000E+00 0.  1.
<mgrwt>
<rscale>  0 0.55949332E+02</rscale>
<asrwt>0</asrwt>
<pdfrwt beam="1">  1        2 0.77429532E-01 0.14250002E+03</pdfrwt>
<pdfrwt beam="2">  1       -3 0.97839294E-01 0.21967209E+02</pdfrwt>
<totfact> 0.34177175E+01</totfact>
</mgrwt>
</event>
<event>
13    1  0.1589573E-008  0.5954934E+02  0.7546771E-02  0.1410036E+00
         -1   -1    0    0    0  501 -0.00000000000E+00  0.00000000000E+00  0.98119977057E+03  0.98119977057E+03  0.00000000000E+00 0.  1.
          2   -1    0    0  503    0  0.00000000000E+00 -0.00000000000E+00 -0.17036035050E+04  0.17036035050E+04  0.00000000000E+00 0. -1.
         24    2    1    2    0    0 -0.56344378873E+02  0.44639859987E+02  0.22398062227E+03  0.24836649340E+03  0.79694352139E+02 0.  0.
         25    2    1    2    0    0  0.15970396708E+03 -0.31274209685E+02 -0.75443215956E+03  0.78184033130E+03  0.12499194760E+03 0.  0.
         24    2    1    2    0    0 -0.12298395184E+03 -0.10812592824E+02  0.23119587608E+03  0.27438917192E+03  0.81215269366E+02 0.  0.
        -13    1    3    3    0    0 -0.25750288249E+02 -0.21555067910E+02  0.56992840839E+02  0.66150451279E+02  0.00000000000E+00 0.  1.
         14    1    3    3    0    0 -0.30594090623E+02  0.66194927897E+02  0.16698778143E+03  0.18221604212E+03  0.00000000000E+00 0. -1.
        -13    1    5    5    0    0 -0.71239576764E+01 -0.23748955657E+02  0.15604130345E+02  0.29295947699E+02  0.00000000000E+00 0.  1.
         14    1    5    5    0    0 -0.11585999416E+03  0.12936362833E+02  0.21559174574E+03  0.24509322422E+03  0.00000000000E+00 0. -1.
          5    1    4    4  502    0  0.14436458623E+03  0.11532914091E+02 -0.41988522825E+03  0.44418446255E+03  0.47000000000E+01 0.  1.
         -5    1    4    4    0  502  0.15339380856E+02 -0.42807123776E+02 -0.33454693131E+03  0.33765586875E+03  0.47000000000E+01 0.  1.
          1    1    1    2  503    0  0.30471429341E+02  0.51280951004E+02 -0.89911058854E+03  0.90108717357E+03  0.00000000000E+00 0. -1.
         -2    1    1    2    0  501 -0.10847065712E+02 -0.53834008482E+02  0.47596251537E+03  0.47912010534E+03  0.00000000000E+00 0.  1.
<mgrwt>
<rscale>  0 0.57185729E+02</rscale>
<asrwt>0</asrwt>
<pdfrwt beam="2">  1        2 0.25052992E+00 0.59549344E+02</pdfrwt>
<pdfrwt beam="1">  1       -1 0.14429409E+00 0.54915929E+02</pdfrwt>
<totfact> 0.71345267E+00</totfact>
</mgrwt>
</event>
<event>
13    1  0.1589573E-008  0.1190560E+03  0.7546771E-02  0.1397336E+00
          2   -1    0    0  502    0  0.00000000000E+00  0.00000000000E+00  0.26120585862E+04  0.26120585862E+04  0.00000000000E+00 0. -1.
          2   -1    0    0  503    0 -0.00000000000E+00 -0.00000000000E+00 -0.50850243410E+03  0.50850243410E+03  0.00000000000E+00 0. -1.
         24    2    1    2    0    0  0.67529615743E+02 -0.61085890888E+02 -0.19350130741E+03  0.22741721927E+03  0.77356968542E+02 0.  0.
         25    2    1    2    0    0  0.20214253703E+02 -0.59961088587E+02  0.89199910030E+03  0.90293753168E+03  0.12501937041E+03 0.  0.
         24    2    1    2    0    0 -0.32338870375E+02  0.12417939975E+02 -0.47682633692E+02  0.10069203443E+03  0.81640948498E+02 0.  0.
        -11    1    5    5    0    0  0.43023578289E+01 -0.23072704154E+02 -0.43602049212E+02  0.49517660036E+02  0.00000000000E+00 0.  1.
         12    1    5    5    0    0 -0.36641228203E+02  0.35490644130E+02 -0.40805844794E+01  0.51174374395E+02  0.00000000000E+00 0. -1.
        -13    1    3    3    0    0 -0.48858167123E+00 -0.50043880727E+02 -0.92074533214E+02  0.10479670022E+03  0.00000000000E+00 0.  1.
         14    1    3    3    0    0  0.68018197414E+02 -0.11042010161E+02 -0.10142677419E+03  0.12262051905E+03  0.00000000000E+00 0. -1.
          5    1    4    4  501    0  0.41755221466E+02 -0.59840385038E+02  0.86497632350E+03  0.86806134600E+03  0.47000000000E+01 0.  1.
         -5    1    4    4    0  501 -0.21540967763E+02 -0.12070354903E+00  0.27022776803E+02  0.34876185681E+02  0.47000000000E+01 0.  1.
          1    1    1    2  502    0  0.95908462133E+01 -0.28802462307E+02  0.16445130219E+04  0.16447931922E+04  0.00000000000E+00 0. -1.
          1    1    1    2  503    0 -0.64995845284E+02  0.13743150181E+03 -0.19177202902E+03  0.24472104263E+03  0.00000000000E+00 0. -1.
<mgrwt>
<rscale>  0 0.60118374E+02</rscale>
<asrwt>0</asrwt>
<pdfrwt beam="1">  1        2 0.38412626E+00 0.30357308E+02</pdfrwt>
<pdfrwt beam="2">  1        2 0.74779771E-01 0.11905597E+03</pdfrwt>
<totfact> 0.55260772E+01</totfact>
</mgrwt>
</event>
<event>
13    1  0.1589573E-008  0.2005845E+03  0.7546771E-02  0.1221089E+00
          2   -1    0    0  503    0  0.00000000000E+00  0.00000000000E+00  0.32424522200E+04  0.32424522200E+04  0.00000000000E+00 0. -1.
          2   -1    0    0  502    0 -0.00000000000E+00 -0.00000000000E+00 -0.18098294904E+03  0.18098294904E+03  0.00000000000E+00 0. -1.
         24    2    1    2    0    0 -0.43609224120E+02 -0.41771346521E+01  0.32749524486E+03  0.34013333163E+03  0.80736206235E+02 0.  0.
         25    2    1    2    0    0  0.12840556051E+03 -0.25839233449E+03  0.47016629801E+02  0.31794778153E+03  0.12500256720E+03 0.  0.
         24    2    1    2    0    0 -0.36968018885E+02  0.61152374776E+02  0.48289262338E+03  0.49456324831E+03  0.79380561216E+02 0.  0.
        -11    1    5    5    0    0  0.13849653084E+02 -0.98065560083E+01  0.45822748825E+02  0.48864155995E+02  0.00000000000E+00 0.  1.
         12    1    5    5    0    0 -0.50817671970E+02  0.70958930785E+02  0.43706987455E+03  0.44569909231E+03  0.00000000000E+00 0. -1.
        -13    1    3    3    0    0 -0.57418815825E+02  0.18615825905E+02  0.27137306416E+03  0.27800505272E+03  0.00000000000E+00 0.  1.
         14    1    3    3    0    0  0.13809591705E+02 -0.22792960557E+02  0.56122180700E+02  0.62128278912E+02  0.00000000000E+00 0. -1.
          5    1    4    4  501    0  0.51327805021E+02 -0.20541538749E+03  0.67126137185E+02  0.22216667905E+03  0.47000000000E+01 0. -1.
         -5    1    4    4    0  501  0.77077755489E+02 -0.52976947003E+02 -0.20109507384E+02  0.95781102480E+02  0.47000000000E+01 0. -1.
          1    1    1    2  502    0 -0.70217062933E+02  0.11421023157E+03  0.10630520783E+03  0.17110000039E+03  0.00000000000E+00 0. -1.
          1    1    1    2  503    0  0.22388745428E+02  0.87206862797E+02  0.20977595651E+04  0.20996908072E+04  0.00000000000E+00 0. -1.
<mgrwt>
<rscale>  0 0.13438606E+03</rscale>
<asrwt>0</asrwt>
<pdfrwt beam="1">  1        2 0.47683117E+00 0.90034953E+02</pdfrwt>
<pdfrwt beam="2">  1        2 0.26615142E-01 0.20058448E+03</pdfrwt>
<totfact> 0.66839737E+01</totfact>
</mgrwt>
</event>
<event>
13    1  0.1589573E-008  0.4755223E+02  0.7546771E-02  0.1484758E+00
          2   -1    0    0  502    0  0.00000000000E+00  0.00000000000E+00  0.41617501680E+04  0.41617501680E+04  0.00000000000E+00 0. -1.
          2   -1    0    0  503    0 -0.00000000000E+00 -0.00000000000E+00 -0.21923409099E+04  0.21923409099E+04  0.00000000000E+00 0. -1.
         24    2    1    2    0    0 -0.18990847811E+03  0.18835393912E+04 -0.53436507459E+03  0.19700288631E+04  0.10808246982E+03 0.  0.
         25    2    1    2    0    0  0.46479762171E+03 -0.12866520593E+04  0.79540159861E+03  0.15873874012E+04  0.12499882953E+03 0.  0.
         24    2    1    2    0    0 -0.24088607754E+03 -0.60761681176E+03  0.10379490822E+04  0.12292665733E+04  0.80831421485E+02 0.  0.
        -13    1    3    3    0    0 -0.54669686554E+02  0.10757218015E+04 -0.30210765620E+03  0.11186756477E+04  0.00000000000E+00 0.  1.
         14    1    3    3    0    0 -0.13523879156E+03  0.80781758977E+03 -0.23225741839E+03  0.85135321546E+03  0.00000000000E+00 0. -1.
        -13    1    5    5    0    0 -0.47920157746E+02 -0.73897636570E+02  0.10273372919E+03  0.13531970042E+03  0.00000000000E+00 0.  1.
         14    1    5    5    0    0 -0.19296591980E+03 -0.53371917519E+03  0.93521535299E+03  0.10939468729E+04  0.00000000000E+00 0. -1.
          5    1    4    4  501    0  0.29724149544E+03 -0.69941698431E+03  0.38812442543E+03  0.85334593464E+03  0.47000000000E+01 0.  1.
         -5    1    4    4    0  501  0.16755612627E+03 -0.58723507501E+03  0.40727717318E+03  0.73404146652E+03  0.47000000000E+01 0.  1.
          1    1    1    2  502    0 -0.14664156270E+02  0.45242880311E+02  0.11175367152E+04  0.11185482849E+04  0.00000000000E+00 0. -1.
          1    1    1    2  503    0 -0.19338909789E+02 -0.34513400471E+02 -0.44711306325E+03  0.44885995542E+03  0.00000000000E+00 0. -1.
<mgrwt>
<rscale>  0 0.43373624E+02</rscale>
<asrwt>0</asrwt>
<pdfrwt beam="1">  1        2 0.61202209E+00 0.47552232E+02</pdfrwt>
<pdfrwt beam="2">  1        2 0.32240307E+00 0.39562207E+02</pdfrwt>
<totfact> 0.87274805E-01</totfact>
</mgrwt>
</event>
<event>
13    1  0.1589573E-008  0.2656349E+03  0.7546771E-02  0.1148525E+00
          2   -1    0    0  502    0  0.00000000000E+00  0.00000000000E+00  0.78102804944E+03  0.78102804944E+03  0.00000000000E+00 0. -1.
          2   -1    0    0  503    0 -0.00000000000E+00 -0.00000000000E+00 -0.11708550046E+04  0.11708550046E+04  0.00000000000E+00 0. -1.
         24    2    1    2    0    0 -0.23997264984E+03 -0.42671346713E+02 -0.68452322212E+03  0.73093027562E+03  0.79242095481E+02 0.  0.
         25    2    1    2    0    0 -0.60125271531E+01 -0.74398896927E+02  0.77151141936E+02  0.16476741327E+03  0.12499862170E+03 0.  0.
         24    2    1    2    0    0 -0.19979801745E+02 -0.83860719698E+02 -0.11850808792E+03  0.16702194824E+03  0.80127095940E+02 0.  0.
        -11    1    5    5    0    0 -0.21303055239E+02 -0.30576751488E+02 -0.10587899793E+03  0.11224580213E+03  0.00000000000E+00 0.  1.
         12    1    5    5    0    0  0.13232534942E+01 -0.53283968209E+02 -0.12629089994E+02  0.54776146104E+02  0.00000000000E+00 0. -1.
        -13    1    3    3    0    0  0.62240313700E+01 -0.27292038450E+01 -0.21364743026E+02  0.22419620083E+02  0.00000000000E+00 0.  1.
         14    1    3    3    0    0 -0.24619668121E+03 -0.39942142868E+02 -0.66315847909E+03  0.70851065554E+03  0.00000000000E+00 0. -1.
          5    1    4    4  501    0 -0.52365304322E+02 -0.26449816977E+02 -0.47474715841E+01  0.59045291102E+02  0.47000000000E+01 0. -1.
         -5    1    4    4    0  501  0.46352777169E+02 -0.47949079950E+02  0.81898613520E+02  0.10572212217E+03  0.47000000000E+01 0. -1.
          1    1    1    2  502    0  0.79619920036E+02  0.26064730252E+03  0.54101975298E+03  0.60578768648E+03  0.00000000000E+00 0. -1.
          1    1    1    2  503    0  0.18634505870E+03 -0.59716339180E+02 -0.20496654007E+03  0.28337573047E+03  0.00000000000E+00 0. -1.
<mgrwt>
<rscale>  0 0.20144611E+03</rscale>
<asrwt>0</asrwt>
<pdfrwt beam="1">  1        2 0.11485707E+00 0.26563488E+03</pdfrwt>
<pdfrwt beam="2">  1        2 0.17218456E+00 0.15276810E+03</pdfrwt>
<totfact> 0.13919070E+02</totfact>
</mgrwt>
</event>
<event>
13    1  0.1589573E-008  0.3117582E+02  0.7546771E-02  0.1648897E+00
          2   -1    0    0  503    0  0.00000000000E+00  0.00000000000E+00  0.17156304978E+04  0.17156304978E+04  0.00000000000E+00 0. -1.
          2   -1    0    0  502    0 -0.00000000000E+00 -0.00000000000E+00 -0.93706728786E+03  0.93706728786E+03  0.00000000000E+00 0. -1.
         24    2    1    2    0    0  0.43609338127E+03 -0.79699818831E+02  0.28328170274E+02  0.45161254688E+03  0.81375112663E+02 0.  0.
         25    2    1    2    0    0 -0.54995506551E+03  0.32048812128E+03 -0.14391101819E+02  0.64884169333E+03  0.12500091690E+03 0.  0.
         24    2    1    2    0    0  0.13146951928E+03 -0.26065270118E+03  0.46460670117E+03  0.55155244165E+03  0.55916401773E+02 0.  0.
        -11    1    5    5    0    0  0.11806562700E+02 -0.68810305823E+02  0.88624123000E+02  0.11282060223E+03  0.00000000000E+00 0.  1.
         12    1    5    5    0    0  0.11966295658E+03 -0.19184239536E+03  0.37598257817E+03  0.43873183942E+03  0.00000000000E+00 0. -1.
        -11    1    3    3    0    0  0.19774242939E+03  0.43689741889E+01  0.18946260250E+02  0.19869604197E+03  0.00000000000E+00 0.  1.
         12    1    3    3    0    0  0.23835095188E+03 -0.84068793020E+02  0.93819100242E+01  0.25291650492E+03  0.00000000000E+00 0. -1.
          5    1    4    4  501    0 -0.79861626814E+02  0.30349311649E+02 -0.42801051351E+02  0.95671208583E+02  0.47000000000E+01 0.  1.
         -5    1    4    4    0  501 -0.47009343869E+03  0.29013880964E+03  0.28409949532E+02  0.55317048474E+03  0.47000000000E+01 0.  1.
          1    1    1    2  502    0  0.62445643805E+00  0.31177168224E+02 -0.34946440344E+03  0.35085292508E+03  0.00000000000E+00 0. -1.
          1    1    1    2  503    0 -0.18232291486E+02 -0.11312769493E+02  0.64948384379E+03  0.64983817874E+03  0.00000000000E+00 0. -1.
<mgrwt>
<rscale>  0 0.25863758E+02</rscale>
<asrwt>0</asrwt>
<pdfrwt beam="1">  1        2 0.25229860E+00 0.21456822E+02</pdfrwt>
<pdfrwt beam="2">  1        2 0.13780401E+00 0.31175819E+02</pdfrwt>
<totfact> 0.76550233E+01</totfact>
</mgrwt>
</event>
<event>
13    1  0.1589573E-008  0.7730433E+02  0.7546771E-02  0.1384158E+00
          2   -1    0    0  503    0  0.00000000000E+00  0.00000000000E+00  0.10580960026E+04  0.10580960026E+04  0.00000000000E+00 0. -1.
          2   -1    0    0  502    0 -0.00000000000E+00 -0.00000000000E+00 -0.38147011099E+04  0.38147011099E+04  0.00000000000E+00 0. -1.
         24    2    1    2    0    0 -0.98820379615E+01  0.27449369508E+03 -0.16927150254E+04  0.17168050947E+04  0.81799342756E+02 0.  0.
         25    2    1    2    0    0 -0.75876933257E+02 -0.22293602115E+03 -0.25896761113E+03  0.37167790085E+03  0.12498983896E+03 0.  0.
         24    2    1    2    0    0  0.87977886938E+02 -0.23735043893E+02 -0.29673818713E+03  0.32060099940E+03  0.80174735548E+02 0.  0.
        -11    1    3    3    0    0  0.14483994760E+02  0.43319380670E+01 -0.10547865020E+03  0.10655654574E+03  0.00000000000E+00 0.  1.
         12    1    3    3    0    0 -0.24366032721E+02  0.27016175701E+03 -0.15872363752E+04  0.16102485489E+04  0.00000000000E+00 0. -1.
        -11    1    5    5    0    0  0.27036724770E+02 -0.44036728392E+02 -0.86401962892E+02  0.10067530544E+03  0.00000000000E+00 0.  1.
         12    1    5    5    0    0  0.60941162168E+02  0.20301684499E+02 -0.21033622423E+03  0.21992569396E+03  0.00000000000E+00 0. -1.
          5    1    4    4  501    0 -0.42861344815E-01 -0.12099288041E+03 -0.19453616602E+03  0.22914119847E+03  0.47000000000E+01 0.  1.
         -5    1    4    4    0  501 -0.75834071913E+02 -0.10194314074E+03 -0.64431445104E+02  0.14253670238E+03  0.47000000000E+01 0.  1.
          1    1    1    2  502    0 -0.22679012663E+02  0.46759747132E+02 -0.14839638373E+04  0.14848735576E+04  0.00000000000E+00 0. -1.
          1    1    1    2  503    0  0.20460096944E+02 -0.74582377167E+02  0.97577955375E+03  0.97883955992E+03  0.00000000000E+00 0. -1.
<mgrwt>
<rscale>  0 0.63383391E+02</rscale>
<asrwt>0</asrwt>
<pdfrwt beam="1">  1        2 0.15560235E+00 0.77304326E+02</pdfrwt>
<pdfrwt beam="2">  1        2 0.56098546E+00 0.51969333E+02</pdfrwt>
<totfact> 0.47954729E+00</totfact>
</mgrwt>
</event>
<event>
13    1  0.1589573E-008  0.2333029E+03  0.7546771E-02  0.1160118E+00
          2   -1    0    0  503    0  0.00000000000E+00  0.00000000000E+00  0.24690035901E+04  0.24690035901E+04  0.00000000000E+00 0. -1.
          2   -1    0    0  502    0 -0.00000000000E+00 -0.00000000000E+00 -0.19971263761E+04  0.19971263761E+04  0.00000000000E+00 0. -1.
         24    2    1    2    0    0 -0.73099782367E+03 -0.64911951721E+03 -0.83154656293E+03  0.12857648001E+04  0.77507863553E+02 0.  0.
         25    2    1    2    0    0  0.64539964858E+03  0.10915632921E+03 -0.67024868399E+02  0.66975311604E+03  0.12498437051E+03 0.  0.
         24    2    1    2    0    0  0.19462554531E+03  0.66964062482E+03  0.60319067115E+03  0.92391859778E+03  0.59067082697E+02 0.  0.
        -11    1    3    3    0    0 -0.32398349774E+03 -0.33732337076E+03 -0.41115240897E+03  0.62273482853E+03  0.00000000000E+00 0.  1.
         12    1    3    3    0    0 -0.40701432593E+03 -0.31179614645E+03 -0.42039415396E+03  0.66302997152E+03  0.00000000000E+00 0. -1.
        -13    1    5    5    0    0  0.17312439583E+03  0.55060292305E+03  0.47328460024E+03  0.74641405943E+03  0.00000000000E+00 0.  1.
         14    1    5    5    0    0  0.21501149486E+02  0.11903770177E+03  0.12990607091E+03  0.17750453834E+03  0.00000000000E+00 0. -1.
          5    1    4    4  501    0  0.48718319729E+03  0.49454463999E+02 -0.93404775890E+02  0.49853761532E+03  0.47000000000E+01 0. -1.
         -5    1    4    4    0  501  0.15821645128E+03  0.59701865211E+02  0.26379907491E+02  0.17121550072E+03  0.47000000000E+01 0. -1.
          1    1    1    2  502    0 -0.11017123915E+03  0.10439444105E+03 -0.38346261565E+03  0.41240693358E+03  0.00000000000E+00 0. -1.
          1    1    1    2  503    0  0.11438689274E+01 -0.23407187786E+03  0.11507205898E+04  0.11742865188E+04  0.00000000000E+00 0. -1.
<mgrwt>
<rscale>  0 0.18817477E+03</rscale>
<asrwt>0</asrwt>
<pdfrwt beam="1">  1        2 0.36308876E+00 0.23330293E+03</pdfrwt>
<pdfrwt beam="2">  1        2 0.29369505E+00 0.15177583E+03</pdfrwt>
<totfact> 0.67039644E+00</totfact>
</mgrwt>
</event>
<event>
13    1  0.1589573E-008  0.1028747E+03  0.7546771E-02  0.1459548E+00
          2   -1    0    0  502    0  0.00000000000E+00  0.00000000000E+00  0.13933459564E+04  0.13933459564E+04  0.00000000000E+00 0. -1.
          2   -1    0    0  503    0 -0.00000000000E+00 -0.00000000000E+00 -0.32108655135E+03  0.32108655135E+03  0.00000000000E+00 0. -1.
         24    2    1    2    0    0  0.42001020106E+02  0.65675001716E+02 -0.68053240275E+02  0.12970236486E+03  0.78193148027E+02 0.  0.
         25    2    1    2    0    0 -0.31584373072E+02  0.52639847243E+02  0.77508769168E+03  0.78749591323E+03  0.12498142832E+03 0.  0.
         24    2    1    2    0    0  0.14482701146E+02 -0.38628979292E+02  0.13149287412E+03  0.15954088723E+03  0.80380172191E+02 0.  0.
        -11    1    3    3    0    0  0.22744422863E+01  0.63712696748E+02 -0.18948519430E+02  0.66509602338E+02  0.00000000000E+00 0.  1.
         12    1    3    3    0    0  0.39726577820E+02  0.19623049684E+01 -0.49104720846E+02  0.63192762524E+02  0.00000000000E+00 0. -1.
        -11    1    5    5    0    0  0.42229657918E+02 -0.13142061690E+02  0.10365525705E+03  0.11269636244E+03  0.00000000000E+00 0.  1.
         12    1    5    5    0    0 -0.27746956772E+02 -0.25486917603E+02  0.27837617069E+02  0.46844524793E+02  0.00000000000E+00 0. -1.
          5    1    4    4  501    0 -0.73412005675E+02  0.35171786592E+02  0.63422683165E+03  0.63944674613E+03  0.47000000000E+01 0. -1.
         -5    1    4    4    0  501  0.41827632603E+02  0.17468060651E+02  0.14086086002E+03  0.14804916710E+03  0.47000000000E+01 0. -1.
          1    1    1    2  502    0 -0.57186917099E+01  0.21134391864E+02  0.42237416736E+03  0.42294125267E+03  0.00000000000E+00 0. -1.
          1    1    1    2  503    0 -0.19180656470E+02 -0.10082026153E+03 -0.18864208788E+03  0.21475208971E+03  0.00000000000E+00 0. -1.
<mgrwt>
<rscale>  0 0.47459280E+02</rscale>
<asrwt>0</asrwt>
<pdfrwt beam="1">  1        2 0.20490381E+00 0.21894427E+02</pdfrwt>
<pdfrwt beam="2">  1        2 0.47218611E-01 0.10287473E+03</pdfrwt>
<totfact> 0.33519902E+02</totfact>
</mgrwt>
</event>
<event>
13    1  0.1589573E-008  0.5972717E+02  0.7546771E-02  0.1436191E+00
          2   -1    0    0  503    0  0.00000000000E+00  0.00000000000E+00  0.24248147101E+04  0.24248147101E+04  0.00000000000E+00 0. -1.
          2   -1    0    0  502    0 -0.00000000000E+00 -0.00000000000E+00 -0.13376671531E+04  0.13376671531E+04  0.00000000000E+00 0. -1.
         24    2    1    2    0    0  0.66286657259E+03 -0.26402931766E+03  0.20737046548E+03  0.74731342114E+03  0.79820209339E+02 0.  0.
         25    2    1    2    0    0 -0.17675496544E+03  0.29613357093E+03  0.38403093886E+02  0.36883037948E+03  0.12499456615E+03 0.  0.
         24    2    1    2    0    0 -0.48374110733E+03 -0.46902276172E+02 -0.37239046086E+03  0.61595821478E+03  0.67265032451E+02 0.  0.
        -11    1    3    3    0    0  0.52382493250E+03 -0.24018491547E+03  0.17891984021E+03  0.60340174241E+03  0.00000000000E+00 0.  1.
         12    1    3    3    0    0  0.13904164009E+03 -0.23844402186E+02  0.28450625272E+02  0.14391167872E+03  0.00000000000E+00 0. -1.
        -11    1    5    5    0    0 -0.17727352373E+03 -0.45860088671E+02 -0.15909880886E+03  0.24257263022E+03  0.00000000000E+00 0.  1.
         12    1    5    5    0    0 -0.30646758359E+03 -0.10421875018E+01 -0.21329165200E+03  0.37338558456E+03  0.00000000000E+00 0. -1.
          5    1    4    4  501    0 -0.10978959442E+03  0.26106071862E+03 -0.14394629005E+01  0.28325009427E+03  0.47000000000E+01 0. -1.
         -5    1    4    4    0  501 -0.66965371024E+02  0.35072852309E+02  0.39842556786E+02  0.85580285211E+02  0.47000000000E+01 0. -1.
          1    1    1    2  502    0  0.29369652875E+01 -0.44719501671E+02 -0.40652556935E+03  0.40898838386E+03  0.00000000000E+00 0. -1.
          1    1    1    2  503    0 -0.53074651058E+01  0.59517524571E+02  0.16202900279E+04  0.16213914640E+04  0.00000000000E+00 0. -1.
<mgrwt>
<rscale>  0 0.51737059E+02</rscale>
<asrwt>0</asrwt>
<pdfrwt beam="1">  1        2 0.35659040E+00 0.59727168E+02</pdfrwt>
<pdfrwt beam="2">  1        2 0.19671576E+00 0.44815841E+02</pdfrwt>
<totfact> 0.19390956E+01</totfact>
</mgrwt>
</event>
