<event>
13    1  0.3019759E-008  0.1026583E+03  0.7546771E-02  0.1282410E+00
          2   -1    0    0  502    0  0.00000000000E+00  0.00000000000E+00  0.31702673971E+04  0.31702673971E+04  0.00000000000E+00 0. -1.
          4   -1    0    0  503    0 -0.00000000000E+00 -0.00000000000E+00 -0.44409835153E+03  0.44409835153E+03  0.00000000000E+00 0. -1.
         25    2    1    2    0    0 -0.78023764589E+02 -0.47507869204E+02  0.20452256242E+02  0.15615718863E+03  0.12498826864E+03 0.  0.
         24    2    1    2    0    0  0.38479881381E+02  0.65559230276E+02  0.53388552464E+03  0.54530141573E+03  0.80877479183E+02 0.  0.
         24    2    1    2    0    0  0.49549721163E+02 -0.50730401477E+02  0.28082945821E+03  0.29988000451E+03  0.77679366685E+02 0.  0.
        -11    1    5    5    0    0  0.62487075171E+02 -0.27284912304E+02  0.13106184092E+03  0.14773729099E+03  0.00000000000E+00 0.  1.
         12    1    5    5    0    0 -0.12937354008E+02 -0.23445489174E+02  0.14976761729E+03  0.15214271353E+03  0.00000000000E+00 0. -1.
        -11    1    4    4    0    0  0.56886055095E+02  0.17485946537E+02  0.28900329654E+03  0.29506725843E+03  0.00000000000E+00 0.  1.
         12    1    4    4    0    0 -0.18406173714E+02  0.48073283739E+02  0.24488222810E+03  0.25023415730E+03  0.00000000000E+00 0. -1.
          5    1    3    3  501    0 -0.30030231613E+02 -0.48494025716E+02  0.67691886946E+02  0.88644046045E+02  0.47000000000E+01 0. -1.
         -5    1    3    3    0  501 -0.47993532976E+02  0.98615651214E+00 -0.47239630703E+02  0.67513142581E+02  0.47000000000E+01 0. -1.
          1    1    1    2  502    0 -0.10323725671E+03  0.12104762041E+02  0.22444781862E+04  0.22468837943E+04  0.00000000000E+00 0. -1.
          3    1    1    2  503    0  0.93231418750E+02  0.20574278364E+02 -0.35347637977E+03  0.36614334547E+03  0.00000000000E+00 0. -1.
<mgrwt>
<rscale>  0 0.99001302E+02</rscale>
<asrwt>0</asrwt>
<pdfrwt beam="1">  1        2 0.46621578E+00 0.10265828E+03</pdfrwt>
<pdfrwt beam="2">  1        4 0.65308583E-01 0.95474595E+02</pdfrwt>
<totfact> 0.26066021E+00</totfact>
</mgrwt>
</event>
<event>
13    1  0.3019759E-008  0.2009572E+03  0.7546771E-02  0.1370416E+00
          2   -1    0    0  502    0  0.00000000000E+00  0.00000000000E+00  0.15675939581E+04  0.15675939581E+04  0.00000000000E+00 0. -1.
          2   -1    0    0  503    0 -0.00000000000E+00 -0.00000000000E+00 -0.32855973589E+04  0.32855973589E+04  0.00000000000E+00 0. -1.
         25    2    1    2    0    0 -0.84153664455E+02 -0.12028961182E+03 -0.91029167334E+03  0.93048668120E+03  0.12499241333E+03 0.  0.
         24    2    1    2    0    0 -0.17712840448E+03  0.62286888597E+02 -0.58120456222E+03  0.61598223166E+03  0.79882654005E+02 0.  0.
         24    2    1    2    0    0  0.62975206168E+01 -0.12585479680E+03  0.56075614611E+02  0.16263885441E+03  0.86184881299E+02 0.  0.
        -11    1    4    4    0    0 -0.11670310077E+03  0.20699422530E+02 -0.45327082078E+03  0.46851095696E+03  0.00000000000E+00 0.  1.
         12    1    4    4    0    0 -0.60425303712E+02  0.41587466067E+02 -0.12793374144E+03  0.14747127470E+03  0.00000000000E+00 0. -1.
        -11    1    5    5    0    0  0.21881970574E+02 -0.23717536184E+02  0.49526780151E+02  0.59112131673E+02  0.00000000000E+00 0.  1.
         12    1    5    5    0    0 -0.15584449957E+02 -0.10213726062E+03  0.65488344604E+01  0.10352672273E+03  0.00000000000E+00 0. -1.
          5    1    3    3  501    0 -0.18339832798E+02  0.19285409459E+02 -0.29057721643E+03  0.29183126151E+03  0.47000000000E+01 0.  1.
         -5    1    3    3    0  501 -0.65813831658E+02 -0.13957502128E+03 -0.61971445690E+03  0.63865541969E+03  0.47000000000E+01 0.  1.
          1    1    1    2  502    0  0.25505921762E+03  0.20622988025E+03  0.14118766991E+04  0.14494763818E+04  0.00000000000E+00 0. -1.
          1    1    1    2  503    0 -0.74669304595E-01 -0.22372360219E+02 -0.16944594789E+04  0.16946071679E+04  0.00000000000E+00 0. -1.
<mgrwt>
<rscale>  0 0.67051554E+02</rscale>
<asrwt>0</asrwt>
<pdfrwt beam="1">  1        2 0.23052853E+00 0.20095716E+03</pdfrwt>
<pdfrwt beam="2">  1        2 0.48317607E+00 0.22372485E+02</pdfrwt>
<totfact> 0.58565327E+00</totfact>
</mgrwt>
</event>
<event>
13    1  0.3019759E-008  0.9474790E+02  0.7546771E-02  0.1535122E+00
          2   -1    0    0  503    0  0.00000000000E+00  0.00000000000E+00  0.27384997094E+04  0.27384997094E+04  0.00000000000E+00 0. -1.
         -3   -1    0    0    0  501 -0.00000000000E+00 -0.00000000000E+00 -0.90086075027E+03  0.90086075027E+03  0.00000000000E+00 0.  1.
         25    2    1    2    0    0  0.19566074636E+03 -0.16773275956E+03  0.39956464185E+02  0.28920283026E+03  0.12499740678E+03 0.  0.
         24    2    1    2    0    0  0.13135128626E+03 -0.30584674079E+03 -0.22787939969E+03  0.41110968613E+03  0.79289116386E+02 0.  0.
         24    2    1    2    0    0 -0.35516561758E+03  0.37287755544E+03  0.12385920741E+04  0.13458399442E+04  0.10951959694E+03 0.  0.
        -11    1    4    4    0    0  0.97408427015E+02 -0.13218061706E+03 -0.93815205318E+02  0.18910687435E+03  0.00000000000E+00 0.  1.
         12    1    4    4    0    0  0.33942859243E+02 -0.17366612373E+03 -0.13406419437E+03  0.22200281178E+03  0.00000000000E+00 0. -1.
        -11    1    5    5    0    0 -0.40001848653E+02  0.25263834187E+01  0.87824174975E+02  0.96538159393E+02  0.00000000000E+00 0.  1.
         12    1    5    5    0    0 -0.31516376893E+03  0.37035117202E+03  0.11507678991E+04  0.12493017848E+04  0.00000000000E+00 0. -1.
          5    1    3    3  502    0  0.60081444627E+02 -0.13133457661E+03  0.34884541965E+02  0.14865252191E+03  0.47000000000E+01 0.  1.
         -5    1    3    3    0  502  0.13557930173E+03 -0.36398182944E+02  0.50719222196E+01  0.14055030834E+03  0.47000000000E+01 0.  1.
          1    1    1    2  503    0  0.16120137361E+02  0.93330859697E+02  0.11880802160E+04  0.11918494485E+04  0.00000000000E+00 0. -1.
         -4    1    1    2    0  501  0.12033447605E+02  0.73710852054E+01 -0.40111039548E+03  0.40135855058E+03  0.00000000000E+00 0.  1.
<mgrwt>
<rscale>  0 0.36565596E+02</rscale>
<asrwt>0</asrwt>
<pdfrwt beam="1">  1        2 0.40272054E+00 0.94747899E+02</pdfrwt>
<pdfrwt beam="2">  1       -3 0.13247952E+00 0.14111582E+02</pdfrwt>
<totfact> 0.10896512E+00</totfact>
</mgrwt>
</event>
<event>
13    1  0.3019759E-008  0.5694394E+02  0.7546771E-02  0.1488770E+00
          2   -1    0    0  502    0  0.00000000000E+00  0.00000000000E+00  0.82550870609E+03  0.82550870609E+03  0.00000000000E+00 0. -1.
          2   -1    0    0  503    0 -0.00000000000E+00 -0.00000000000E+00 -0.22447933236E+04  0.22447933236E+04  0.00000000000E+00 0. -1.
         25    2    1    2    0    0 -0.79738555488E+01  0.25604867705E+02 -0.43440002508E+03  0.45282194008E+03  0.12500054401E+03 0.  0.
         24    2    1    2    0    0 -0.32432376533E+02  0.28140798241E+02  0.66850352731E+01  0.89398746230E+02  0.78126068361E+02 0.  0.
         24    2    1    2    0    0  0.59830888209E+02 -0.36166418439E+02  0.51889708122E+02  0.12422160381E+03  0.88604289041E+02 0.  0.
        -11    1    5    5    0    0  0.75409071432E+02 -0.10439485902E+02  0.16714635910E+02  0.77941580519E+02  0.00000000000E+00 0.  1.
         12    1    5    5    0    0 -0.15578183224E+02 -0.25726932537E+02  0.35175072212E+02  0.46280023287E+02  0.00000000000E+00 0. -1.
        -13    1    4    4    0    0 -0.44165737456E+02  0.31948851367E+01 -0.22144854816E+02  0.49509738950E+02  0.00000000000E+00 0.  1.
         14    1    4    4    0    0  0.11733360923E+02  0.24945913104E+02  0.28829890089E+02  0.39889007279E+02  0.00000000000E+00 0. -1.
          5    1    3    3  501    0  0.35013765963E+02  0.35850880096E+02 -0.72823698182E+02  0.88524744718E+02  0.47000000000E+01 0. -1.
         -5    1    3    3    0  501 -0.42987621512E+02 -0.10246012391E+02 -0.36157632690E+03  0.36429719536E+03  0.47000000000E+01 0. -1.
          1    1    1    2  502    0  0.12924403349E+02  0.29407952526E+02  0.67934858452E+03  0.68010761440E+03  0.00000000000E+00 0. -1.
          1    1    1    2  503    0 -0.32349059475E+02 -0.46987200033E+02 -0.17228079204E+04  0.17237521252E+04  0.00000000000E+00 0. -1.
<mgrwt>
<rscale>  0 0.42769065E+02</rscale>
<asrwt>0</asrwt>
<pdfrwt beam="1">  1        2 0.12139834E+00 0.32122700E+02</pdfrwt>
<pdfrwt beam="2">  1        2 0.33011666E+00 0.56943935E+02</pdfrwt>
<totfact> 0.45436810E+01</totfact>
</mgrwt>
</event>
<event>
13    1  0.3019759E-008  0.6025689E+02  0.7546771E-02  0.1554093E+00
          2   -1    0    0  503    0  0.00000000000E+00  0.00000000000E+00  0.54889065986E+03  0.54889065986E+03  0.00000000000E+00 0. -1.
         -3   -1    0    0    0  501 -0.00000000000E+00 -0.00000000000E+00 -0.13379247660E+04  0.13379247660E+04  0.00000000000E+00 0.  1.
         25    2    1    2    0    0 -0.81905333226E+02 -0.17117686954E+03 -0.26159185874E+03  0.34650407680E+03  0.12499908161E+03 0.  0.
         24    2    1    2    0    0  0.62738288896E+02 -0.21500147530E+02 -0.22886603838E+02  0.10959799147E+03  0.84199607257E+02 0.  0.
         24    2    1    2    0    0 -0.19116362443E+00  0.11953164218E+03  0.90235232790E+02  0.17093436176E+03  0.82391193502E+02 0.  0.
        -11    1    4    4    0    0 -0.19536351629E+02 -0.85657889335E+01 -0.14711184337E+02  0.25912559110E+02  0.00000000000E+00 0.  1.
         12    1    4    4    0    0  0.82274640525E+02 -0.12934358596E+02 -0.81754195008E+01  0.83685432363E+02  0.00000000000E+00 0. -1.
        -13    1    5    5    0    0 -0.35077594166E+02  0.97825711521E+02  0.68284290731E+02  0.12435051993E+03  0.00000000000E+00 0.  1.
         14    1    5    5    0    0  0.34886430541E+02  0.21705930657E+02  0.21950942060E+02  0.46583841822E+02  0.00000000000E+00 0. -1.
          5    1    3    3  502    0 -0.10098684453E+03 -0.17709455822E+03 -0.21908033551E+03  0.29929769248E+03  0.47000000000E+01 0. -1.
         -5    1    3    3    0  502  0.19081511299E+02  0.59176886827E+01 -0.42511523231E+02  0.47206384316E+02  0.47000000000E+01 0. -1.
          1    1    1    2  503    0  0.25482787620E+02  0.54499304103E+02  0.32966754102E+03  0.33511227106E+03  0.00000000000E+00 0. -1.
         -4    1    1    2    0  501 -0.61245796657E+01  0.18646070783E+02 -0.92445841738E+03  0.92466672477E+03  0.00000000000E+00 0.  1.
<mgrwt>
<rscale>  0 0.34389123E+02</rscale>
<asrwt>0</asrwt>
<pdfrwt beam="1">  1        2 0.80719216E-01 0.60256890E+02</pdfrwt>
<pdfrwt beam="2">  1       -3 0.19675364E+00 0.19626167E+02</pdfrwt>
<totfact> 0.65583579E+00</totfact>
</mgrwt>
</event>
<event>
13    1  0.3019759E-008  0.6617942E+02  0.7546771E-02  0.1473454E+00
         -1   -1    0    0    0  501 -0.00000000000E+00  0.00000000000E+00  0.24532697711E+03  0.24532697711E+03  0.00000000000E+00 0.  1.
          2   -1    0    0  503    0  0.00000000000E+00 -0.00000000000E+00 -0.27892303017E+04  0.27892303017E+04  0.00000000000E+00 0. -1.
         25    2    1    2    0    0  0.88072884321E+02  0.37276699959E+02 -0.38222201740E+02  0.16196329095E+03  0.12499914239E+03 0.  0.
         24    2    1    2    0    0  0.16505499947E+02  0.10200817614E+03 -0.33844787013E+03  0.36320641786E+03  0.81815900947E+02 0.  0.
         24    2    1    2    0    0 -0.72399952084E+02 -0.50703304084E+02 -0.52856324796E+03  0.54190762915E+03  0.80449942997E+02 0.  0.
        -13    1    5    5    0    0  0.11503849181E+02 -0.30995515065E+02 -0.16338571992E+03  0.16669719246E+03  0.00000000000E+00 0.  1.
         14    1    5    5    0    0 -0.83903801265E+02 -0.19707789018E+02 -0.36517752805E+03  0.37521043670E+03  0.00000000000E+00 0. -1.
        -13    1    4    4    0    0 -0.22812518739E+02  0.82680595158E+02 -0.25365826995E+03  0.26776670768E+03  0.00000000000E+00 0.  1.
         14    1    4    4    0    0  0.39318018685E+02  0.19327580981E+02 -0.84789600185E+02  0.95439710181E+02  0.00000000000E+00 0. -1.
          5    1    3    3  502    0  0.10087564428E+03  0.34894873948E+02  0.14163812654E+02  0.10777871509E+03  0.47000000000E+01 0.  1.
         -5    1    3    3    0  502 -0.12802759960E+02  0.23818260103E+01 -0.52386014393E+02  0.54184575866E+02  0.47000000000E+01 0.  1.
          1    1    1    2  503    0 -0.12680532828E+02 -0.64748248780E+02 -0.18010237409E+04  0.18022318516E+04  0.00000000000E+00 0. -1.
         -2    1    1    2    0  501 -0.19497899356E+02 -0.23833323234E+02  0.16235373612E+03  0.16524808927E+03  0.00000000000E+00 0.  1.
<mgrwt>
<rscale>  0 0.45142533E+02</rscale>
<asrwt>0</asrwt>
<pdfrwt beam="2">  1        2 0.41018090E+00 0.66179417E+02</pdfrwt>
<pdfrwt beam="1">  1       -1 0.36077499E-01 0.30792781E+02</pdfrwt>
<totfact> 0.32933121E+01</totfact>
</mgrwt>
</event>
<event>
13    1  0.3019759E-008  0.6786835E+02  0.7546771E-02  0.1504958E+00
          2   -1    0    0  502    0  0.00000000000E+00  0.00000000000E+00  0.15764621096E+04  0.15764621096E+04  0.00000000000E+00 0. -1.
          2   -1    0    0  503    0 -0.00000000000E+00 -0.00000000000E+00 -0.10163851296E+04  0.10163851296E+04  0.00000000000E+00 0. -1.
         25    2    1    2    0    0 -0.18760177249E+03 -0.98920049152E+02 -0.17886230593E+03  0.30429584507E+03  0.12499854271E+03 0.  0.
         24    2    1    2    0    0 -0.15714457587E+03  0.64546719472E+03 -0.10364398356E+03  0.67782918966E+03  0.85953579578E+02 0.  0.
         24    2    1    2    0    0  0.34911849589E+03 -0.50005067806E+03  0.18825989739E+03  0.64338135608E+03  0.81014662762E+02 0.  0.
        -11    1    4    4    0    0 -0.81902926228E+02  0.45862434964E+03 -0.45035461580E+02  0.46805189478E+03  0.00000000000E+00 0.  1.
         12    1    4    4    0    0 -0.75241649641E+02  0.18684284507E+03 -0.58608521982E+02  0.20977729488E+03  0.00000000000E+00 0. -1.
        -11    1    5    5    0    0  0.18647223691E+03 -0.21669949915E+03  0.58303301221E+02  0.29177018869E+03  0.00000000000E+00 0.  1.
         12    1    5    5    0    0  0.16264625898E+03 -0.28335117891E+03  0.12995659617E+03  0.35161116740E+03  0.00000000000E+00 0. -1.
          5    1    3    3  501    0 -0.16632024111E+03 -0.81330845589E+02 -0.19742571103E+03  0.27069564168E+03  0.47000000000E+01 0. -1.
         -5    1    3    3    0  501 -0.21281531377E+02 -0.17589203563E+02  0.18563405092E+02  0.33600203398E+02  0.47000000000E+01 0. -1.
          1    1    1    2  502    0  0.74635609924E+01 -0.67493572130E+02  0.80847223153E+03  0.81131894849E+03  0.00000000000E+00 0. -1.
          1    1    1    2  503    0 -0.11835708528E+02  0.20997104628E+02 -0.15414885936E+03  0.15602189988E+03  0.00000000000E+00 0. -1.
<mgrwt>
<rscale>  0 0.40445541E+02</rscale>
<asrwt>0</asrwt>
<pdfrwt beam="1">  1        2 0.23183266E+00 0.67868348E+02</pdfrwt>
<pdfrwt beam="2">  1        2 0.14946840E+00 0.24103162E+02</pdfrwt>
<totfact> 0.72986046E+01</totfact>
</mgrwt>
</event>
<event>
13    1  0.3019759E-008  0.6437169E+02  0.7546771E-02  0.1443118E+00
          2   -1    0    0  503    0  0.00000000000E+00  0.00000000000E+00  0.21054777376E+04  0.21054777376E+04  0.00000000000E+00 0. -1.
          2   -1    0    0  502    0 -0.00000000000E+00 -0.00000000000E+00 -0.18932460629E+04  0.18932460629E+04  0.00000000000E+00 0. -1.
         25    2    1    2    0    0  0.82743345986E+01  0.67036438498E+02 -0.16558164676E+03  0.21818180516E+03  0.12499467853E+03 0.  0.
         24    2    1    2    0    0 -0.42623905487E+02 -0.21815500432E+02  0.62612645466E+03  0.63306188417E+03  0.80251470955E+02 0.  0.
         24    2    1    2    0    0 -0.29299339806E+01  0.24585815973E+02  0.40827849417E+03  0.41680154311E+03  0.80119602366E+02 0.  0.
        -11    1    4    4    0    0 -0.11120121388E+02 -0.49246856067E+02  0.29172751995E+03  0.29606393875E+03  0.00000000000E+00 0.  1.
         12    1    4    4    0    0 -0.31503784099E+02  0.27431355634E+02  0.33439893471E+03  0.33699794542E+03  0.00000000000E+00 0. -1.
        -13    1    5    5    0    0  0.25116846905E+02 -0.88215756677E+01  0.57999669158E+02  0.63817221956E+02  0.00000000000E+00 0.  1.
         14    1    5    5    0    0 -0.28046780886E+02  0.33407391640E+02  0.35027882501E+03  0.35298432116E+03  0.00000000000E+00 0. -1.
          5    1    3    3  501    0  0.58804244208E+02  0.62058354615E+02 -0.73138509891E+02  0.11260777124E+03  0.47000000000E+01 0. -1.
         -5    1    3    3    0  501 -0.50529909609E+02  0.49780838827E+01 -0.92443136866E+02  0.10557403392E+03  0.47000000000E+01 0. -1.
          1    1    1    2  502    0  0.54487999610E+02 -0.34270259104E+02 -0.16926473058E+04  0.16938708022E+04  0.00000000000E+00 0. -1.
          1    1    1    2  503    0 -0.17208494741E+02 -0.35536494934E+02  0.10360556784E+04  0.10368077659E+04  0.00000000000E+00 0. -1.
<mgrwt>
<rscale>  0 0.50414703E+02</rscale>
<asrwt>0</asrwt>
<pdfrwt beam="1">  1        2 0.30962908E+00 0.39483854E+02</pdfrwt>
<pdfrwt beam="2">  1        2 0.27841854E+00 0.64371686E+02</pdfrwt>
<totfact> 0.15238485E+01</totfact>
</mgrwt>
</event>
<event>
13    1  0.3019759E-008  0.2130039E+03  0.7546771E-02  0.1391252E+00
          2   -1    0    0  503    0  0.00000000000E+00  0.00000000000E+00  0.26204069630E+04  0.26204069630E+04  0.00000000000E+00 0. -1.
          2   -1    0    0  502    0 -0.00000000000E+00 -0.00000000000E+00 -0.82124272152E+03  0.82124272152E+03  0.00000000000E+00 0. -1.
         25    2    1    2    0    0  0.41005127607E+02 -0.20860419787E+03 -0.18096608101E+02  0.24728535566E+03  0.12500171215E+03 0.  0.
         24    2    1    2    0    0 -0.18869809415E+03  0.73042135057E+02  0.11843301319E+03  0.24585525181E+03  0.74002040496E+02 0.  0.
         24    2    1    2    0    0  0.93476474769E+02 -0.17730949859E+03  0.32454761392E+03  0.38973038326E+03  0.79888098698E+02 0.  0.
        -11    1    5    5    0    0  0.10330089728E+02 -0.18166829007E+02  0.25490596686E+01  0.21053316488E+02  0.00000000000E+00 0.  1.
         12    1    5    5    0    0  0.83146385041E+02 -0.15914266958E+03  0.32199855425E+03  0.36867706678E+03  0.00000000000E+00 0. -1.
        -13    1    4    4    0    0 -0.18781214244E+03  0.80936504104E+02  0.12085526843E+03  0.23755023564E+03  0.00000000000E+00 0.  1.
         14    1    4    4    0    0 -0.88595170799E+00 -0.78943690476E+01 -0.24222552379E+01  0.83050161665E+01  0.00000000000E+00 0. -1.
          5    1    3    3  501    0  0.20924311550E+02 -0.79316070302E+02 -0.68522557970E+02  0.10698736735E+03  0.47000000000E+01 0.  1.
         -5    1    3    3    0  501  0.20080816057E+02 -0.12928812757E+03  0.50425949869E+02  0.14029798831E+03  0.47000000000E+01 0.  1.
          1    1    1    2  502    0 -0.14339320677E+02 -0.10567097496E+02 -0.57821449625E+03  0.57848879275E+03  0.00000000000E+00 0. -1.
          1    1    1    2  503    0  0.68555812454E+02  0.32343865890E+03  0.19524947187E+04  0.19802899010E+04  0.00000000000E+00 0. -1.
<mgrwt>
<rscale>  0 0.61596264E+02</rscale>
<asrwt>0</asrwt>
<pdfrwt beam="1">  1        2 0.38535396E+00 0.21300393E+03</pdfrwt>
<pdfrwt beam="2">  1        2 0.12077099E+00 0.17812346E+02</pdfrwt>
<totfact> 0.25807919E+01</totfact>
</mgrwt>
</event>
<event>
13    1  0.3019759E-008  0.6671315E+02  0.7546771E-02  0.1484899E+00
          4   -1    0    0  503    0 -0.00000000000E+00  0.00000000000E+00  0.50035338752E+03  0.50035338752E+03  0.00000000000E+00 0. -1.
          2   -1    0    0  502    0  0.00000000000E+00 -0.00000000000E+00 -0.28369504546E+04  0.28369504546E+04  0.00000000000E+00 0. -1.
         25    2    1    2    0    0 -0.25693914512E+02 -0.22933899997E+02  0.27819423476E+03  0.30691966924E+03  0.12498603964E+03 0.  0.
         24    2    1    2    0    0 -0.78049652947E+02  0.79042186582E+02 -0.11593562485E+03  0.17940683794E+03  0.80039545257E+02 0.  0.
         24    2    1    2    0    0  0.16087108458E+03 -0.13134628471E+03 -0.13659208563E+04  0.13839361311E+04  0.80050465959E+02 0.  0.
        -13    1    5    5    0    0  0.36286917553E+02 -0.65533378542E+01 -0.11824943852E+03  0.12386531530E+03  0.00000000000E+00 0.  1.
         14    1    5    5    0    0  0.12458416703E+03 -0.12479294686E+03 -0.12476714178E+04  0.12600708158E+04  0.00000000000E+00 0. -1.
        -13    1    4    4    0    0 -0.61825461267E+02  0.38220758277E+02 -0.22382210858E+02  0.76053779571E+02  0.00000000000E+00 0.  1.
         14    1    4    4    0    0 -0.16224191680E+02  0.40821428304E+02 -0.93553413988E+02  0.10335305836E+03  0.00000000000E+00 0. -1.
          5    1    3    3  501    0 -0.67508823596E+02 -0.76328860929E+00  0.22773528093E+03  0.23757834930E+03  0.47000000000E+01 0. -1.
         -5    1    3    3    0  501  0.41814909084E+02 -0.22170611387E+02  0.50458953824E+02  0.69341319947E+02  0.47000000000E+01 0. -1.
          1    1    1    2  502    0 -0.37298107751E+02  0.55227273943E+02 -0.12979393357E+04  0.12996490757E+04  0.00000000000E+00 0. -1.
          3    1    1    2  503    0 -0.19829409370E+02  0.20010724184E+02  0.16500451506E+03  0.16739212809E+03  0.00000000000E+00 0. -1.
<mgrwt>
<rscale>  0 0.43352173E+02</rscale>
<asrwt>0</asrwt>
<pdfrwt beam="2">  1        2 0.41719861E+00 0.66713152E+02</pdfrwt>
<pdfrwt beam="1">  1        4 0.73581379E-01 0.28171520E+02</pdfrwt>
<totfact> 0.29132308E+00</totfact>
</mgrwt>
</event>
<event>
13    1  0.3019759E-008  0.1145358E+03  0.7546771E-02  0.1280769E+00
         -1   -1    0    0    0  501 -0.00000000000E+00  0.00000000000E+00  0.58364529740E+03  0.58364529740E+03  0.00000000000E+00 0.  1.
          2   -1    0    0  503    0  0.00000000000E+00 -0.00000000000E+00 -0.16118157101E+04  0.16118157101E+04  0.00000000000E+00 0. -1.
         25    2    1    2    0    0  0.25431191891E+02  0.45606711610E+02  0.25876779675E+03  0.29208262882E+03  0.12499908703E+03 0.  0.
         24    2    1    2    0    0  0.70498080782E+02 -0.61778608663E+02  0.32238848219E+02  0.12773998599E+03  0.80570371744E+02 0.  0.
         24    2    1    2    0    0 -0.11555980401E+03 -0.38994140024E+01  0.54530810891E+01  0.14031691796E+03  0.79308433596E+02 0.  0.
        -13    1    5    5    0    0 -0.31915002327E+02 -0.22680114017E+02  0.32007555082E+02  0.50571123457E+02  0.00000000000E+00 0.  1.
         14    1    5    5    0    0 -0.83644801684E+02  0.18780700015E+02 -0.26554473993E+02  0.89745794502E+02  0.00000000000E+00 0. -1.
        -13    1    4    4    0    0  0.41210243016E+02 -0.78465959601E+02  0.31380303751E+02  0.94020819019E+02  0.00000000000E+00 0.  1.
         14    1    4    4    0    0  0.29287837766E+02  0.16687350938E+02  0.85854446738E+00  0.33719166967E+02  0.00000000000E+00 0. -1.
          5    1    3    3  502    0  0.65213158245E+02  0.61114454246E+02  0.14407444844E+03  0.16960916609E+03  0.47000000000E+01 0. -1.
         -5    1    3    3    0  502 -0.39781966354E+02 -0.15507742635E+02  0.11469334831E+03  0.12247346273E+03  0.47000000000E+01 0. -1.
          1    1    1    2  503    0  0.79503560647E+02  0.83078251780E+02 -0.14653867263E+04  0.14698915163E+04  0.00000000000E+00 0. -1.
         -2    1    1    2    0  501 -0.59873029309E+02 -0.63006940725E+02  0.14075658753E+03  0.16542995844E+03  0.00000000000E+00 0.  1.
<mgrwt>
<rscale>  0 0.99775578E+02</rscale>
<asrwt>0</asrwt>
<pdfrwt beam="2">  1        2 0.23703172E+00 0.11453579E+03</pdfrwt>
<pdfrwt beam="1">  1       -1 0.85830190E-01 0.86917514E+02</pdfrwt>
<totfact> 0.23539352E+01</totfact>
</mgrwt>
</event>
<event>
13    1  0.3019759E-008  0.7182696E+02  0.7546771E-02  0.1497956E+00
         -3   -1    0    0    0  501 -0.00000000000E+00  0.00000000000E+00  0.53534234744E+03  0.53534234744E+03  0.00000000000E+00 0.  1.
          2   -1    0    0  503    0  0.00000000000E+00 -0.00000000000E+00 -0.98340269277E+03  0.98340269277E+03  0.00000000000E+00 0. -1.
         25    2    1    2    0    0 -0.54675928192E+02  0.10347622817E+03  0.32951584368E+03  0.37135184993E+03  0.12499887318E+03 0.  0.
         24    2    1    2    0    0  0.19400318652E+02 -0.39996232974E+02 -0.46836436775E+03  0.47713870268E+03  0.79498991231E+02 0.  0.
         24    2    1    2    0    0  0.92841630522E+01  0.20588989184E+02 -0.34637976411E+03  0.35605622548E+03  0.79290557831E+02 0.  0.
        -13    1    5    5    0    0  0.66609412119E+01  0.48644117642E+02 -0.15436769509E+03  0.16198766498E+03  0.00000000000E+00 0.  1.
         14    1    5    5    0    0  0.26232218403E+01 -0.28055128458E+02 -0.19201206902E+03  0.19406856050E+03  0.00000000000E+00 0. -1.
        -13    1    4    4    0    0 -0.10399590860E+02  0.18526187014E+02 -0.62921057827E+02  0.66411072972E+02  0.00000000000E+00 0.  1.
         14    1    4    4    0    0  0.29799909512E+02 -0.58522419988E+02 -0.40544330992E+03  0.41072762971E+03  0.00000000000E+00 0. -1.
          5    1    3    3  502    0  0.21226840992E+02  0.91744738550E+02  0.18232826552E+03  0.20526412798E+03  0.47000000000E+01 0. -1.
         -5    1    3    3    0  502 -0.75902769185E+02  0.11731489621E+02  0.14718757816E+03  0.16608772195E+03  0.47000000000E+01 0. -1.
          1    1    1    2  503    0 -0.96597849982E+01 -0.21855493998E+02 -0.13006469583E+03  0.13224144269E+03  0.00000000000E+00 0. -1.
         -4    1    1    2    0  501  0.35651231487E+02 -0.62213490383E+02  0.16723263868E+03  0.18195681942E+03  0.00000000000E+00 0.  1.
<mgrwt>
<rscale>  0 0.41428371E+02</rscale>
<asrwt>0</asrwt>
<pdfrwt beam="2">  1        2 0.14461804E+00 0.23895064E+02</pdfrwt>
<pdfrwt beam="1">  1       -3 0.78726818E-01 0.71826965E+02</pdfrwt>
<totfact> 0.29881369E+01</totfact>
</mgrwt>
</event>
<event>
13    1  0.3019759E-008  0.7914318E+02  0.7546771E-02  0.1463092E+00
          2   -1    0    0  502    0  0.00000000000E+00  0.00000000000E+00  0.20255660841E+04  0.20255660841E+04  0.00000000000E+00 0. -1.
          4   -1    0    0  503    0 -0.00000000000E+00 -0.00000000000E+00 -0.72185294870E+03  0.72185294870E+03  0.00000000000E+00 0. -1.
         25    2    1    2    0    0  0.14233301349E+03  0.62841061535E+02  0.65263457984E+02  0.20999409381E+03  0.12502205703E+03 0.  0.
         24    2    1    2    0    0  0.42548006520E+02  0.64915319083E+02  0.86206166858E+02  0.14277540014E+03  0.83240495969E+02 0.  0.
         24    2    1    2    0    0 -0.11041139704E+03 -0.63317519634E+02  0.11610839606E+04  0.11710404710E+04  0.83785656170E+02 0.  0.
        -13    1    5    5    0    0 -0.61319270395E+02 -0.55010372532E+02  0.40356621599E+03  0.41188819441E+03  0.00000000000E+00 0.  1.
         14    1    5    5    0    0 -0.49092126644E+02 -0.83071471021E+01  0.75751774460E+03  0.75915227654E+03  0.00000000000E+00 0. -1.
        -13    1    4    4    0    0  0.64145881059E+02  0.60053522316E+02  0.82106788637E+02  0.12026073482E+03  0.00000000000E+00 0.  1.
         14    1    4    4    0    0 -0.21597874540E+02  0.48617967673E+01  0.40993782207E+01  0.22514665315E+02  0.00000000000E+00 0. -1.
          5    1    3    3  501    0  0.10981211370E+03  0.87866050400E+02  0.10096474875E+02  0.14107860196E+03  0.47000000000E+01 0.  1.
         -5    1    3    3    0  501  0.32520899792E+02 -0.25024988865E+02  0.55166983109E+02  0.68915491846E+02  0.47000000000E+01 0.  1.
          1    1    1    2  502    0 -0.27730903401E+02 -0.60816577411E+00  0.60452579554E+03  0.60516180510E+03  0.00000000000E+00 0. -1.
          3    1    1    2  503    0 -0.46738719568E+02 -0.63830695209E+02 -0.61336624562E+03  0.61844726276E+03  0.00000000000E+00 0. -1.
<mgrwt>
<rscale>  0 0.46853383E+02</rscale>
<asrwt>0</asrwt>
<pdfrwt beam="1">  1        2 0.29787736E+00 0.27737571E+02</pdfrwt>
<pdfrwt beam="2">  1        4 0.10615485E+00 0.79143175E+02</pdfrwt>
<totfact> 0.39052941E+00</totfact>
</mgrwt>
</event>
<event>
13    1  0.3019759E-008  0.1051103E+03  0.7546771E-02  0.1300524E+00
          2   -1    0    0  503    0  0.00000000000E+00  0.00000000000E+00  0.21054763698E+04  0.21054763698E+04  0.00000000000E+00 0. -1.
          2   -1    0    0  502    0 -0.00000000000E+00 -0.00000000000E+00 -0.30094122482E+03  0.30094122482E+03  0.00000000000E+00 0. -1.
         25    2    1    2    0    0 -0.85267065957E+02 -0.12331633463E+02  0.98963195330E+02  0.18122290647E+03  0.12500194429E+03 0.  0.
         24    2    1    2    0    0  0.22046770644E+02  0.64893537794E+02  0.21448684018E+03  0.23927693840E+03  0.80942061373E+02 0.  0.
         24    2    1    2    0    0 -0.40746672926E+02 -0.11666896225E+03  0.58572766372E+03  0.60389013336E+03  0.79589314701E+02 0.  0.
        -11    1    4    4    0    0 -0.71853118693E+00  0.71393500267E+02  0.10313924242E+03  0.12544023076E+03  0.00000000000E+00 0.  1.
         12    1    4    4    0    0  0.22765301831E+02 -0.64999624724E+01  0.11134759776E+03  0.11383670764E+03  0.00000000000E+00 0. -1.
        -13    1    5    5    0    0 -0.58384407422E+02 -0.62802430489E+02  0.42214577724E+03  0.43076669039E+03  0.00000000000E+00 0.  1.
         14    1    5    5    0    0  0.17637734496E+02 -0.53866531762E+02  0.16358188648E+03  0.17312344297E+03  0.00000000000E+00 0. -1.
          5    1    3    3  501    0 -0.67539111927E+01  0.50231863600E+02  0.27048788851E+02  0.57641846045E+02  0.47000000000E+01 0. -1.
         -5    1    3    3    0  501 -0.78513154764E+02 -0.62563497063E+02  0.71914406478E+02  0.12358106042E+03  0.47000000000E+01 0. -1.
          1    1    1    2  502    0  0.33736775362E+02  0.99686356165E+02 -0.22528151871E+03  0.24865096478E+03  0.00000000000E+00 0. -1.
          1    1    1    2  503    0  0.70230192877E+02 -0.35579298245E+02  0.11306389645E+04  0.11333766517E+04  0.00000000000E+00 0. -1.
<mgrwt>
<rscale>  0 0.90967941E+02</rscale>
<asrwt>0</asrwt>
<pdfrwt beam="1">  1        2 0.30962887E+00 0.78728435E+02</pdfrwt>
<pdfrwt beam="2">  1        2 0.44256064E-01 0.10511026E+03</pdfrwt>
<totfact> 0.14762033E+02</totfact>
</mgrwt>
</event>
<event>
13    1  0.3019759E-008  0.5759688E+02  0.7546771E-02  0.1448776E+00
          2   -1    0    0  503    0  0.00000000000E+00  0.00000000000E+00  0.37014161509E+04  0.37014161509E+04  0.00000000000E+00 0. -1.
          2   -1    0    0  502    0 -0.00000000000E+00 -0.00000000000E+00 -0.37782469776E+03  0.37782469776E+03  0.00000000000E+00 0. -1.
         25    2    1    2    0    0 -0.10534697712E+03  0.53191113929E+02  0.55537177785E+02  0.18065148504E+03  0.12499320278E+03 0.  0.
         24    2    1    2    0    0 -0.50626690467E+02 -0.38845971239E+02  0.25046987877E+03  0.27063586572E+03  0.80228052290E+02 0.  0.
         24    2    1    2    0    0  0.81502012422E+02  0.40931960095E+02  0.56899969893E+03  0.58203356347E+03  0.81758230393E+02 0.  0.
        -11    1    5    5    0    0 -0.13971377799E+01  0.35972698336E+02  0.24149338654E+03  0.24416191915E+03  0.00000000000E+00 0.  1.
         12    1    5    5    0    0  0.82899150202E+02  0.49592617586E+01  0.32750631239E+03  0.33787164432E+03  0.00000000000E+00 0. -1.
        -13    1    4    4    0    0 -0.13440683614E+02 -0.46371397499E+02  0.20868233573E+03  0.21419448109E+03  0.00000000000E+00 0.  1.
         14    1    4    4    0    0 -0.37186006853E+02  0.75254262608E+01  0.41787543037E+02  0.56441384631E+02  0.00000000000E+00 0. -1.
          5    1    3    3  501    0 -0.10078334375E+03  0.94877757095E+01  0.80926085997E+02  0.12968585759E+03  0.47000000000E+01 0.  1.
         -5    1    3    3    0  501 -0.45636333736E+01  0.43703338220E+02 -0.25388908213E+02  0.50965627450E+02  0.47000000000E+01 0.  1.
          1    1    1    2  502    0  0.19850442404E+02 -0.37371204814E+02 -0.29686640714E+03  0.29986715509E+03  0.00000000000E+00 0. -1.
          1    1    1    2  503    0  0.54621212761E+02 -0.17905897972E+02  0.27454511048E+04  0.27460527793E+04  0.00000000000E+00 0. -1.
<mgrwt>
<rscale>  0 0.49368734E+02</rscale>
<asrwt>0</asrwt>
<pdfrwt beam="1">  1        2 0.54432589E+00 0.57596884E+02</pdfrwt>
<pdfrwt beam="2">  1        2 0.55562457E-01 0.42316037E+02</pdfrwt>
<totfact> 0.17774001E+01</totfact>
</mgrwt>
</event>
<event>
13    1  0.3019759E-008  0.1141632E+03  0.7546771E-02  0.1315850E+00
          2   -1    0    0  503    0  0.00000000000E+00  0.00000000000E+00  0.13246266696E+04  0.13246266696E+04  0.00000000000E+00 0. -1.
          2   -1    0    0  502    0 -0.00000000000E+00 -0.00000000000E+00 -0.14476518851E+04  0.14476518851E+04  0.00000000000E+00 0. -1.
         25    2    1    2    0    0 -0.23894298928E+03 -0.34810579314E+03 -0.55191908657E+03  0.70605265438E+03  0.12499710916E+03 0.  0.
         24    2    1    2    0    0  0.40969945440E+03  0.20984442873E+03  0.30355970021E+03  0.55689141173E+03  0.78046304607E+02 0.  0.
         24    2    1    2    0    0 -0.38730869581E+02  0.25362737826E+03  0.30682854782E+03  0.40462032146E+03  0.61212086394E+02 0.  0.
        -13    1    5    5    0    0 -0.38269761795E+02  0.10857604449E+03  0.16930940303E+03  0.20474131499E+03  0.00000000000E+00 0.  1.
         14    1    5    5    0    0 -0.46110778560E+00  0.14505133376E+03  0.13751914479E+03  0.19987900648E+03  0.00000000000E+00 0. -1.
        -13    1    4    4    0    0  0.33221908522E+03  0.13910923884E+03  0.21397531684E+03  0.41893476477E+03  0.00000000000E+00 0.  1.
         14    1    4    4    0    0  0.77480369181E+02  0.70735189894E+02  0.89584383370E+02  0.13795664696E+03  0.00000000000E+00 0. -1.
          5    1    3    3  501    0 -0.16562396098E+03 -0.31221103495E+03 -0.40203066199E+03  0.53531090964E+03  0.47000000000E+01 0.  1.
         -5    1    3    3    0  501 -0.73319028302E+02 -0.35894758190E+02 -0.14988842458E+03  0.17074174474E+03  0.47000000000E+01 0.  1.
          1    1    1    2  502    0 -0.92604267317E+02 -0.66160150405E+02 -0.63587518322E+03  0.64597984835E+03  0.00000000000E+00 0. -1.
          1    1    1    2  503    0 -0.39421328220E+02 -0.49205863447E+02  0.45438080626E+03  0.45873431876E+03  0.00000000000E+00 0. -1.
<mgrwt>
<rscale>  0 0.84840736E+02</rscale>
<asrwt>0</asrwt>
<pdfrwt beam="1">  1        2 0.19479804E+00 0.63049648E+02</pdfrwt>
<pdfrwt beam="2">  1        2 0.21288998E+00 0.11416321E+03</pdfrwt>
<totfact> 0.53116494E+01</totfact>
</mgrwt>
</event>
<event>
13    1  0.3019759E-008  0.1290441E+03  0.7546771E-02  0.1430815E+00
          2   -1    0    0  503    0  0.00000000000E+00  0.00000000000E+00  0.34949424009E+04  0.34949424009E+04  0.00000000000E+00 0. -1.
          2   -1    0    0  502    0 -0.00000000000E+00 -0.00000000000E+00 -0.15319676705E+04  0.15319676705E+04  0.00000000000E+00 0. -1.
         25    2    1    2    0    0 -0.21580441533E+03  0.10825241031E+03 -0.49065444175E+03  0.56094299745E+03  0.12500054069E+03 0.  0.
         24    2    1    2    0    0  0.72738162884E+01 -0.11148878472E+03  0.82247870435E+02  0.16152270220E+03  0.82717674126E+02 0.  0.
         24    2    1    2    0    0  0.12885491257E+03 -0.10574884097E+03  0.34507306549E+03  0.39170149012E+03  0.81044623348E+02 0.  0.
        -11    1    5    5    0    0  0.44067424447E+02 -0.13774538670E+02  0.17241841760E+03  0.17849309942E+03  0.00000000000E+00 0.  1.
         12    1    5    5    0    0  0.84787488121E+02 -0.91974302299E+02  0.17265464789E+03  0.21320839070E+03  0.00000000000E+00 0. -1.
        -11    1    4    4    0    0 -0.25408335179E+02 -0.30277200797E+01  0.18098903143E+02  0.31341998667E+02  0.00000000000E+00 0.  1.
         12    1    4    4    0    0  0.32682151468E+02 -0.10846106464E+03  0.64148967292E+02  0.13018070353E+03  0.00000000000E+00 0. -1.
          5    1    3    3  501    0 -0.22252398869E+03  0.11929795125E+03 -0.48340971606E+03  0.54539524227E+03  0.47000000000E+01 0. -1.
         -5    1    3    3    0  501  0.67195733607E+01 -0.11045540941E+02 -0.72447256897E+01  0.15547755180E+02  0.47000000000E+01 0. -1.
          1    1    1    2  502    0 -0.11868205618E+02  0.18048685922E+02 -0.94169168833E+03  0.94193940635E+03  0.00000000000E+00 0. -1.
          1    1    1    2  503    0  0.91543892088E+02  0.90936529454E+02  0.29679999246E+04  0.29708034753E+04  0.00000000000E+00 0. -1.
<mgrwt>
<rscale>  0 0.52796777E+02</rscale>
<asrwt>0</asrwt>
<pdfrwt beam="1">  1        2 0.51396212E+00 0.12904408E+03</pdfrwt>
<pdfrwt beam="2">  1        2 0.22528936E+00 0.21601143E+02</pdfrwt>
<totfact> 0.40128412E+00</totfact>
</mgrwt>
</event>
<event>
13    1  0.3019759E-008  0.1093064E+03  0.7546771E-02  0.1285839E+00
          2   -1    0    0  503    0  0.00000000000E+00  0.00000000000E+00  0.16080682900E+03  0.16080682900E+03  0.00000000000E+00 0. -1.
          2   -1    0    0  502    0 -0.00000000000E+00 -0.00000000000E+00 -0.36892313998E+04  0.36892313998E+04  0.00000000000E+00 0. -1.
         25    2    1    2    0    0 -0.13108224711E+03 -0.73702203465E+01 -0.13827188727E+04  0.13945513073E+04  0.12499996798E+03 0.  0.
         24    2    1    2    0    0  0.76442782788E+02 -0.69839177830E+01 -0.14727158597E+03  0.18636381813E+03  0.84559319570E+02 0.  0.
         24    2    1    2    0    0  0.47471621847E+02 -0.12516124627E+02 -0.58823564858E+02  0.11193191077E+03  0.81598606665E+02 0.  0.
        -11    1    4    4    0    0  0.92906123119E+02 -0.62399539075E+01 -0.14048204498E+03  0.16853987570E+03  0.00000000000E+00 0.  1.
         12    1    4    4    0    0 -0.16463340331E+02 -0.74396387552E+00 -0.67895409925E+01  0.17823942437E+02  0.00000000000E+00 0. -1.
        -13    1    5    5    0    0  0.16768510220E+02  0.13448597598E+02 -0.67462588200E+02  0.70804297321E+02  0.00000000000E+00 0.  1.
         14    1    5    5    0    0  0.30703111627E+02 -0.25964722225E+02  0.86390233428E+01  0.41127613450E+02  0.00000000000E+00 0. -1.
          5    1    3    3  501    0 -0.32305084128E+02 -0.60061098877E+02 -0.45938034737E+03  0.46443874473E+03  0.47000000000E+01 0. -1.
         -5    1    3    3    0  501 -0.98777162980E+02  0.52690878530E+02 -0.92333852535E+03  0.93011256254E+03  0.47000000000E+01 0. -1.
          1    1    1    2  502    0  0.52559037770E+02  0.10086571440E+03 -0.20292341179E+04  0.20324191128E+04  0.00000000000E+00 0. -1.
          1    1    1    2  503    0 -0.45391195297E+02 -0.73995451645E+02  0.89623570687E+02  0.12477207980E+03  0.00000000000E+00 0. -1.
<mgrwt>
<rscale>  0 0.97410016E+02</rscale>
<asrwt>0</asrwt>
<pdfrwt beam="1">  1        2 0.23648063E-01 0.86808338E+02</pdfrwt>
<pdfrwt beam="2">  1        2 0.54253403E+00 0.10930645E+03</pdfrwt>
<totfact> 0.39436619E+01</totfact>
</mgrwt>
</event>
<event>
13    1  0.3019759E-008  0.8780492E+02  0.7546771E-02  0.1374474E+00
          2   -1    0    0  502    0  0.00000000000E+00  0.00000000000E+00  0.75450810436E+03  0.75450810436E+03  0.00000000000E+00 0. -1.
          2   -1    0    0  503    0 -0.00000000000E+00 -0.00000000000E+00 -0.26779765203E+04  0.26779765203E+04  0.00000000000E+00 0. -1.
         25    2    1    2    0    0 -0.64107467372E+02 -0.20733306571E+03 -0.21698186770E+03  0.33136492982E+03  0.12499927318E+03 0.  0.
         24    2    1    2    0    0 -0.34956145894E+03  0.34607864729E+03 -0.11248972546E+03  0.51072204258E+03  0.78863316964E+02 0.  0.
         24    2    1    2    0    0  0.45638156944E+03 -0.77415707100E+02  0.20302746713E+03  0.51648316013E+03  0.10610077128E+03 0.  0.
        -13    1    5    5    0    0  0.21279851196E+03 -0.17873661920E+02  0.39642232980E+02  0.21719618118E+03  0.00000000000E+00 0.  1.
         14    1    5    5    0    0  0.24358305747E+03 -0.59542045181E+02  0.16338523415E+03  0.29928697895E+03  0.00000000000E+00 0. -1.
        -13    1    4    4    0    0 -0.25096279692E+03  0.29322969324E+03 -0.95154240557E+02  0.39751768254E+03  0.00000000000E+00 0.  1.
         14    1    4    4    0    0 -0.98598662024E+02  0.52848954048E+02 -0.17335484901E+02  0.11320436005E+03  0.00000000000E+00 0. -1.
          5    1    3    3  501    0 -0.59112310142E+02 -0.13371268999E+03 -0.21159313302E+03  0.25722964957E+03  0.47000000000E+01 0. -1.
         -5    1    3    3    0  501 -0.49951572300E+01 -0.73620375714E+02 -0.53887346743E+01  0.74135280248E+02  0.47000000000E+01 0. -1.
          1    1    1    2  502    0 -0.41822536941E+02  0.26512751523E+02  0.13298597130E+03  0.14190602226E+03  0.00000000000E+00 0. -1.
          1    1    1    2  503    0 -0.89010618420E+00 -0.87842626003E+02 -0.19300102613E+04  0.19320084699E+04  0.00000000000E+00 0. -1.
<mgrwt>
<rscale>  0 0.65938914E+02</rscale>
<asrwt>0</asrwt>
<pdfrwt beam="1">  1        2 0.11095707E+00 0.49518184E+02</pdfrwt>
<pdfrwt beam="2">  1        2 0.39382007E+00 0.87804923E+02</pdfrwt>
<totfact> 0.28794099E+01</totfact>
</mgrwt>
</event>
<event>
13    1  0.3019759E-008  0.8008750E+02  0.7546771E-02  0.1333577E+00
          2   -1    0    0  503    0  0.00000000000E+00  0.00000000000E+00  0.14055841999E+04  0.14055841999E+04  0.00000000000E+00 0. -1.
          2   -1    0    0  502    0 -0.00000000000E+00 -0.00000000000E+00 -0.20512166180E+04  0.20512166180E+04  0.00000000000E+00 0. -1.
         25    2    1    2    0    0 -0.60196342355E+02 -0.64588336126E+02 -0.30249272237E+03  0.33899900605E+03  0.12499290468E+03 0.  0.
         24    2    1    2    0    0  0.22803363132E+03  0.18239945618E+03 -0.78684411391E+03  0.84315750322E+03  0.80759005738E+02 0.  0.
         24    2    1    2    0    0 -0.35962850133E+02 -0.61064798360E+02  0.28452979242E+03  0.30521763940E+03  0.84725252660E+02 0.  0.
        -11    1    4    4    0    0  0.21976034429E+03  0.15594278663E+03 -0.75076155679E+03  0.79765636510E+03  0.00000000000E+00 0.  1.
         12    1    4    4    0    0  0.82732870252E+01  0.26456669549E+02 -0.36082557120E+02  0.45501138119E+02  0.00000000000E+00 0. -1.
        -13    1    5    5    0    0  0.23413210034E+02 -0.20363348663E+02  0.41931125276E+02  0.52163815426E+02  0.00000000000E+00 0.  1.
         14    1    5    5    0    0 -0.59376060167E+02 -0.40701449697E+02  0.24259866714E+03  0.25305382397E+03  0.00000000000E+00 0. -1.
          5    1    3    3  501    0 -0.43333351745E+02 -0.47744702776E+02 -0.41377751303E+02  0.76756395952E+02  0.47000000000E+01 0.  1.
         -5    1    3    3    0  501 -0.16862990610E+02 -0.16843633350E+02 -0.26111497107E+03  0.26224261010E+03  0.47000000000E+01 0.  1.
          1    1    1    2  502    0 -0.79818025646E+02 -0.28046143132E+00 -0.90197584421E+03  0.90550064573E+03  0.00000000000E+00 0. -1.
          1    1    1    2  503    0 -0.52056413185E+02 -0.56465860265E+02  0.10611504699E+04  0.10639260235E+04  0.00000000000E+00 0. -1.
<mgrwt>
<rscale>  0 0.78426603E+02</rscale>
<asrwt>0</asrwt>
<pdfrwt beam="1">  1        2 0.20670356E+00 0.76800153E+02</pdfrwt>
<pdfrwt beam="2">  1        2 0.30164950E+00 0.80087498E+02</pdfrwt>
<totfact> 0.25127165E+01</totfact>
</mgrwt>
</event>
<event>
13    1  0.3019759E-008  0.1326965E+03  0.7546771E-02  0.1294399E+00
          2   -1    0    0  502    0  0.00000000000E+00  0.00000000000E+00  0.30302086269E+04  0.30302086269E+04  0.00000000000E+00 0. -1.
          2   -1    0    0  503    0 -0.00000000000E+00 -0.00000000000E+00 -0.34388943223E+04  0.34388943223E+04  0.00000000000E+00 0. -1.
         25    2    1    2    0    0  0.14823876416E+03  0.39997485177E+03 -0.76887616359E+03  0.88811618739E+03  0.12500077643E+03 0.  0.
         24    2    1    2    0    0 -0.12052324208E+04  0.18677682040E+03 -0.94491495332E+03  0.15449017317E+04  0.79914473333E+02 0.  0.
         24    2    1    2    0    0  0.86140433524E+03 -0.59749041517E+03 -0.39257223524E+03  0.11218272399E+04  0.73288275147E+02 0.  0.
        -11    1    5    5    0    0  0.60157085050E+03 -0.45728028117E+03 -0.28053653963E+03  0.80603566533E+03  0.00000000000E+00 0.  1.
         12    1    5    5    0    0  0.25983348473E+03 -0.14021013401E+03 -0.11203569561E+03  0.31579157455E+03  0.00000000000E+00 0. -1.
        -13    1    4    4    0    0 -0.90457157877E+03  0.14057642164E+03 -0.75196177071E+03  0.11846763170E+04  0.00000000000E+00 0.  1.
         14    1    4    4    0    0 -0.30066084200E+03  0.46200398757E+02 -0.19295318261E+03  0.36022541475E+03  0.00000000000E+00 0. -1.
          5    1    3    3  501    0  0.16535668729E+03  0.36965676419E+03 -0.73566775989E+03  0.83977264797E+03  0.47000000000E+01 0.  1.
         -5    1    3    3    0  501 -0.17117923121E+02  0.30318087582E+02 -0.33208403700E+02  0.48343539412E+02  0.47000000000E+01 0. -1.
          1    1    1    2  502    0  0.63674492270E+02  0.17361964542E+02  0.22983185737E+04  0.22992660014E+04  0.00000000000E+00 0. -1.
          1    1    1    2  503    0  0.13191482910E+03 -0.66232215390E+01 -0.60064091695E+03  0.61499178882E+03  0.00000000000E+00 0. -1.
<mgrwt>
<rscale>  0 0.93583366E+02</rscale>
<asrwt>0</asrwt>
<pdfrwt beam="1">  1        2 0.44561892E+00 0.65999082E+02</pdfrwt>
<pdfrwt beam="2">  1        2 0.50571975E+00 0.13269649E+03</pdfrwt>
<totfact> 0.72925678E-01</totfact>
</mgrwt>
</event>
<event>
13    1  0.3019759E-008  0.2305850E+02  0.7546771E-02  0.1790735E+00
          2   -1    0    0  502    0  0.00000000000E+00  0.00000000000E+00  0.45489020379E+04  0.45489020379E+04  0.00000000000E+00 0. -1.
          2   -1    0    0  503    0 -0.00000000000E+00 -0.00000000000E+00 -0.11954307363E+04  0.11954307363E+04  0.00000000000E+00 0. -1.
         25    2    1    2    0    0  0.18696936880E+03  0.12824726569E+03 -0.27480022727E+02  0.26034261021E+03  0.12497286512E+03 0.  0.
         24    2    1    2    0    0 -0.77475199603E+02  0.23742868920E+02  0.10538772970E+03  0.15539619853E+03  0.80469090766E+02 0.  0.
         24    2    1    2    0    0 -0.80416802735E+02 -0.13844213401E+03  0.15164053069E+04  0.15269665454E+04  0.80676448642E+02 0.  0.
        -11    1    5    5    0    0 -0.13160213596E+02 -0.96545576949E+02  0.70506470832E+03  0.71176574978E+03  0.00000000000E+00 0.  1.
         12    1    5    5    0    0 -0.67256589139E+02 -0.41896557061E+02  0.81134059859E+03  0.81520079563E+03  0.00000000000E+00 0. -1.
        -13    1    4    4    0    0 -0.10370070172E+02  0.25953829836E+02 -0.27776805776E+01  0.28086565257E+02  0.00000000000E+00 0.  1.
         14    1    4    4    0    0 -0.67105129431E+02 -0.22109609160E+01  0.10816541027E+03  0.12730963327E+03  0.00000000000E+00 0. -1.
          5    1    3    3  501    0  0.10090209721E+03  0.50387740271E+02 -0.74264925168E+02  0.13512041556E+03  0.47000000000E+01 0. -1.
         -5    1    3    3    0  501  0.86067271585E+02  0.77859525416E+02  0.46784902441E+02  0.12522219465E+03  0.47000000000E+01 0. -1.
          1    1    1    2  502    0 -0.23033056890E+02 -0.10435156489E+01  0.27802978297E+04  0.27803934312E+04  0.00000000000E+00 0. -1.
          1    1    1    2  503    0 -0.60443095692E+01 -0.12504484949E+02 -0.10211395419E+04  0.10212339888E+04  0.00000000000E+00 0. -1.
<mgrwt>
<rscale>  0 0.17895597E+02</rscale>
<asrwt>0</asrwt>
<pdfrwt beam="1">  1        2 0.66895618E+00 0.23058495E+02</pdfrwt>
<pdfrwt beam="2">  1        2 0.17579864E+00 0.13888694E+02</pdfrwt>
<totfact> 0.17561005E+00</totfact>
</mgrwt>
</event>
<event>
13    1  0.3019759E-008  0.1139537E+03  0.7546771E-02  0.1280523E+00
          4   -1    0    0  503    0 -0.00000000000E+00  0.00000000000E+00  0.11329481111E+04  0.11329481111E+04  0.00000000000E+00 0. -1.
          2   -1    0    0  502    0  0.00000000000E+00 -0.00000000000E+00 -0.10549691816E+04  0.10549691816E+04  0.00000000000E+00 0. -1.
         25    2    1    2    0    0 -0.39513613721E+02  0.70752834295E+02  0.10199749161E+03  0.18054164549E+03  0.12499803290E+03 0.  0.
         24    2    1    2    0    0 -0.28775368544E+02 -0.37592045641E+02 -0.20359165242E+03  0.22433647154E+03  0.81462309059E+02 0.  0.
         24    2    1    2    0    0 -0.70449328021E+02  0.70614279303E+02 -0.20442038211E+03  0.24150362333E+03  0.81159245921E+02 0.  0.
        -13    1    4    4    0    0 -0.54134498451E+02 -0.11812464598E+02 -0.14786085823E+03  0.15790158846E+03  0.00000000000E+00 0.  1.
         14    1    4    4    0    0  0.25359129907E+02 -0.25779581043E+02 -0.55730794189E+02  0.66434883076E+02  0.00000000000E+00 0. -1.
        -13    1    5    5    0    0 -0.25121633134E+01  0.21345667305E+02 -0.10732844978E+01  0.21519768048E+02  0.00000000000E+00 0.  1.
         14    1    5    5    0    0 -0.67937164708E+02  0.49268611998E+02 -0.20334709761E+03  0.21998385528E+03  0.00000000000E+00 0. -1.
          5    1    3    3  501    0  0.27544051626E+02  0.23810562955E-01 -0.12065399722E+02  0.30435821286E+02  0.47000000000E+01 0.  1.
         -5    1    3    3    0  501 -0.67057665347E+02  0.70729023732E+02  0.11406289133E+03  0.15010582420E+03  0.47000000000E+01 0.  1.
          1    1    1    2  502    0  0.52426385568E+02 -0.11853784854E+03 -0.56948291745E+03  0.58404669394E+03  0.00000000000E+00 0. -1.
          3    1    1    2  503    0  0.86311924718E+02  0.14762780583E+02  0.95347638980E+03  0.95748885839E+03  0.00000000000E+00 0. -1.
<mgrwt>
<rscale>  0 0.99891907E+02</rscale>
<asrwt>0</asrwt>
<pdfrwt beam="2">  1        2 0.15514253E+00 0.11395369E+03</pdfrwt>
<pdfrwt beam="1">  1        4 0.16661002E+00 0.87565336E+02</pdfrwt>
<totfact> 0.34409520E+00</totfact>
</mgrwt>
</event>
<event>
13    1  0.3019759E-008  0.1709219E+03  0.7546771E-02  0.1236106E+00
          2   -1    0    0  503    0  0.00000000000E+00  0.00000000000E+00  0.20372226831E+04  0.20372226831E+04  0.00000000000E+00 0. -1.
          2   -1    0    0  502    0 -0.00000000000E+00 -0.00000000000E+00 -0.13214937302E+04  0.13214937302E+04  0.00000000000E+00 0. -1.
         25    2    1    2    0    0 -0.45830970755E+02 -0.24830300952E+03  0.15166933133E+03  0.31998540064E+03  0.12502882923E+03 0.  0.
         24    2    1    2    0    0 -0.16935722253E+02  0.18987371381E+03  0.76750558026E+02  0.22077312721E+03  0.80692500615E+02 0.  0.
         24    2    1    2    0    0  0.12877312140E+02  0.35292081036E+02  0.77822090667E+02  0.11670301592E+03  0.78434431073E+02 0.  0.
        -11    1    4    4    0    0 -0.19746149086E+02  0.53709671479E+02  0.61052711022E+02  0.83678388711E+02  0.00000000000E+00 0.  1.
         12    1    4    4    0    0  0.28104268326E+01  0.13616404233E+03  0.15697847003E+02  0.13709473850E+03  0.00000000000E+00 0. -1.
        -13    1    5    5    0    0 -0.32927050109E+01 -0.19879757090E+02  0.25498108583E+00  0.20152212375E+02  0.00000000000E+00 0.  1.
         14    1    5    5    0    0  0.16170017151E+02  0.55171838126E+02  0.77567109581E+02  0.96550803548E+02  0.00000000000E+00 0. -1.
          5    1    3    3  501    0 -0.62387541424E+02 -0.22922493490E+03  0.91605250158E+02  0.25465641158E+03  0.47000000000E+01 0.  1.
         -5    1    3    3    0  501  0.16556570670E+02 -0.19078074624E+02  0.60064081175E+02  0.65328989056E+02  0.47000000000E+01 0.  1.
          1    1    1    2  502    0  0.11876482032E+03  0.12491563355E+03 -0.11369507697E+04  0.11499417597E+04  0.00000000000E+00 0. -1.
          1    1    1    2  503    0 -0.68875439456E+02 -0.10177841888E+03  0.15464377426E+04  0.15513131097E+04  0.00000000000E+00 0. -1.
<mgrwt>
<rscale>  0 0.12433920E+03</rscale>
<asrwt>0</asrwt>
<pdfrwt beam="1">  1        2 0.29959157E+00 0.90452078E+02</pdfrwt>
<pdfrwt beam="2">  1        2 0.19433731E+00 0.17092186E+03</pdfrwt>
<totfact> 0.26314243E+01</totfact>
</mgrwt>
</event>
<event>
13    1  0.3019759E-008  0.9628063E+02  0.7546771E-02  0.1440291E+00
          2   -1    0    0  503    0  0.00000000000E+00  0.00000000000E+00  0.79960038350E+03  0.79960038350E+03  0.00000000000E+00 0. -1.
          2   -1    0    0  502    0 -0.00000000000E+00 -0.00000000000E+00 -0.48320587252E+03  0.48320587252E+03  0.00000000000E+00 0. -1.
         25    2    1    2    0    0  0.32399668725E+01  0.72433836654E+02 -0.23431328390E+03  0.27532596413E+03  0.12507802938E+03 0.  0.
         24    2    1    2    0    0  0.10995037535E+03 -0.41575400852E+01 -0.69044512166E+02  0.15273277485E+03  0.80335457145E+02 0.  0.
         24    2    1    2    0    0  0.91693219067E+01 -0.10893523294E+02  0.13255059747E+03  0.15136739481E+03  0.71691575568E+02 0.  0.
        -13    1    5    5    0    0 -0.27210895859E+02 -0.21431852316E+02  0.53867540006E+02  0.64042712415E+02  0.00000000000E+00 0.  1.
         14    1    5    5    0    0  0.36380217766E+02  0.10538329021E+02  0.78683057468E+02  0.87324682397E+02  0.00000000000E+00 0. -1.
        -13    1    4    4    0    0  0.74983282323E+01 -0.78847698488E+01 -0.46509628726E+02  0.47765469600E+02  0.00000000000E+00 0.  1.
         14    1    4    4    0    0  0.10245204712E+03  0.37272297636E+01 -0.22534883440E+02  0.10496730525E+03  0.00000000000E+00 0. -1.
          5    1    3    3  501    0  0.14719331054E+02  0.10449428634E+03 -0.20294334030E+03  0.22878768314E+03  0.47000000000E+01 0. -1.
         -5    1    3    3    0  501 -0.11479364181E+02 -0.32060449685E+02 -0.31369943607E+02  0.46538280994E+02  0.47000000000E+01 0. -1.
          1    1    1    2  502    0 -0.20042009500E+02  0.18032786003E+02 -0.99489476185E+02  0.10307773468E+03  0.00000000000E+00 0. -1.
          1    1    1    2  503    0 -0.10231765463E+03 -0.75415559277E+02  0.58669118577E+03  0.60030238754E+03  0.00000000000E+00 0. -1.
<mgrwt>
<rscale>  0 0.50948650E+02</rscale>
<asrwt>0</asrwt>
<pdfrwt beam="1">  1        2 0.11758829E+00 0.96280630E+02</pdfrwt>
<pdfrwt beam="2">  1        2 0.71059687E-01 0.26960406E+02</pdfrwt>
<totfact> 0.42151991E+02</totfact>
</mgrwt>
</event>
<event>
13    1  0.3019759E-008  0.1530807E+03  0.7546771E-02  0.1301733E+00
          2   -1    0    0  503    0  0.00000000000E+00  0.00000000000E+00  0.17477036601E+04  0.17477036601E+04  0.00000000000E+00 0. -1.
          2   -1    0    0  502    0 -0.00000000000E+00 -0.00000000000E+00 -0.35684197035E+03  0.35684197035E+03  0.00000000000E+00 0. -1.
         25    2    1    2    0    0 -0.72787644254E+02 -0.23956070668E+03 -0.38296870061E+02  0.28245016564E+03  0.12499628983E+03 0.  0.
         24    2    1    2    0    0  0.37987927018E+02  0.10070696136E+03  0.10155625920E+03  0.16849078796E+03  0.80563621935E+02 0.  0.
         24    2    1    2    0    0 -0.20820320193E+02 -0.34524136608E+02  0.63263845337E+02  0.11087250762E+03  0.81639433352E+02 0.  0.
        -11    1    4    4    0    0  0.81559541826E+01  0.61319510115E+02  0.10175269966E+03  0.11908070288E+03  0.00000000000E+00 0.  1.
         12    1    4    4    0    0  0.29831972835E+02  0.39387451243E+02 -0.19644046547E+00  0.49410085079E+02  0.00000000000E+00 0. -1.
        -13    1    5    5    0    0 -0.23885813977E+02 -0.60420110134E+02  0.44634749219E+02  0.78825012882E+02  0.00000000000E+00 0.  1.
         14    1    5    5    0    0  0.30654937847E+01  0.25895973525E+02  0.18629096118E+02  0.32047494741E+02  0.00000000000E+00 0. -1.
          5    1    3    3  501    0 -0.63398140160E+02 -0.18976142939E+03  0.24497739118E+02  0.20162081609E+03  0.47000000000E+01 0.  1.
         -5    1    3    3    0  501 -0.93895040934E+01 -0.49799277289E+02 -0.62794609179E+02  0.80829349543E+02  0.47000000000E+01 0.  1.
          1    1    1    2  502    0  0.48375845395E+02  0.22753074023E+02 -0.12984367628E+03  0.14041832169E+03  0.00000000000E+00 0. -1.
          1    1    1    2  503    0  0.72441920341E+01  0.15062480791E+03  0.13941821316E+04  0.14023138476E+04  0.00000000000E+00 0. -1.
<mgrwt>
<rscale>  0 0.90463400E+02</rscale>
<asrwt>0</asrwt>
<pdfrwt beam="1">  1        2 0.25701524E+00 0.15308069E+03</pdfrwt>
<pdfrwt beam="2">  1        2 0.52476761E-01 0.53459562E+02</pdfrwt>
<totfact> 0.17177427E+02</totfact>
</mgrwt>
</event>
<event>
13    1  0.3019759E-008  0.9433140E+02  0.7546771E-02  0.1326467E+00
          2   -1    0    0  502    0  0.00000000000E+00  0.00000000000E+00  0.17454039244E+03  0.17454039244E+03  0.00000000000E+00 0. -1.
          2   -1    0    0  503    0 -0.00000000000E+00 -0.00000000000E+00 -0.27001411244E+04  0.27001411244E+04  0.00000000000E+00 0. -1.
         25    2    1    2    0    0  0.16715296468E+03 -0.26851479288E+03 -0.11367654510E+04  0.11865496622E+04  0.12499641028E+03 0.  0.
         24    2    1    2    0    0 -0.51977351346E+02  0.15480849026E+03 -0.53452567896E+03  0.56440050963E+03  0.78504267963E+02 0.  0.
         24    2    1    2    0    0 -0.23868776305E+02 -0.31098075868E+01 -0.69267205122E+02  0.10776569906E+03  0.78969049647E+02 0.  0.
        -11    1    5    5    0    0  0.15032508652E+02 -0.16336669773E+02 -0.62239750870E+02  0.66080630172E+02  0.00000000000E+00 0.  1.
         12    1    5    5    0    0 -0.38901284957E+02  0.13226862186E+02 -0.70274542522E+01  0.41685068884E+02  0.00000000000E+00 0. -1.
        -13    1    4    4    0    0 -0.39502008417E+02  0.49907060618E+02 -0.30724498860E+03  0.31376839609E+03  0.00000000000E+00 0.  1.
         14    1    4    4    0    0 -0.12475342930E+02  0.10490142964E+03 -0.22728069037E+03  0.25063211354E+03  0.00000000000E+00 0. -1.
          5    1    3    3  501    0  0.10419426283E+03 -0.18122129067E+03 -0.52030947175E+03  0.56075095808E+03  0.47000000000E+01 0.  1.
         -5    1    3    3    0  501  0.62958701849E+02 -0.87293502208E+02 -0.61645597929E+03  0.62579870411E+03  0.47000000000E+01 0.  1.
          1    1    1    2  502    0 -0.77009541457E+02  0.48892922638E+02  0.95864046028E+02  0.13232876740E+03  0.00000000000E+00 0. -1.
          1    1    1    2  503    0 -0.14297295568E+02  0.67923187562E+02 -0.88090644282E+03  0.88363687851E+03  0.00000000000E+00 0. -1.
<mgrwt>
<rscale>  0 0.80917825E+02</rscale>
<asrwt>0</asrwt>
<pdfrwt beam="1">  1        2 0.25667706E-01 0.94331396E+02</pdfrwt>
<pdfrwt beam="2">  1        2 0.39707956E+00 0.69411613E+02</pdfrwt>
<totfact> 0.13732764E+02</totfact>
</mgrwt>
</event>
<event>
13    1  0.3019759E-008  0.4655465E+02  0.7546771E-02  0.1521531E+00
          2   -1    0    0  503    0  0.00000000000E+00  0.00000000000E+00  0.11376685022E+04  0.11376685022E+04  0.00000000000E+00 0. -1.
         -3   -1    0    0    0  501 -0.00000000000E+00 -0.00000000000E+00 -0.44915063268E+03  0.44915063268E+03  0.00000000000E+00 0.  1.
         25    2    1    2    0    0  0.12202342447E+03 -0.98729891322E+02 -0.16148392347E+03  0.25757284500E+03  0.12501762027E+03 0.  0.
         24    2    1    2    0    0 -0.10113627205E+03  0.61388840384E+02 -0.67601782076E+01  0.14307659636E+03  0.80175290271E+02 0.  0.
         24    2    1    2    0    0 -0.27673958939E+02  0.53727366286E+02  0.31216255008E+02  0.10496491758E+03  0.79941862972E+02 0.  0.
        -11    1    5    5    0    0 -0.46696407824E+02  0.45455919286E+01  0.91460093335E+01  0.47800276112E+02  0.00000000000E+00 0.  1.
         12    1    5    5    0    0  0.19022448886E+02  0.49181774357E+02  0.22070245675E+02  0.57164641472E+02  0.00000000000E+00 0. -1.
        -11    1    4    4    0    0 -0.10466096687E+03  0.65606532055E+02  0.11451510481E+02  0.12405350509E+03  0.00000000000E+00 0.  1.
         12    1    4    4    0    0  0.35246948175E+01 -0.42176916705E+01 -0.18211688689E+02  0.19023091271E+02  0.00000000000E+00 0. -1.
          5    1    3    3  502    0  0.77479680022E+01  0.12913781227E+02 -0.73405211952E+02  0.75081368497E+02  0.47000000000E+01 0. -1.
         -5    1    3    3    0  502  0.11427545647E+03 -0.11164367255E+03 -0.88078711522E+02  0.18249147650E+03  0.47000000000E+01 0. -1.
          1    1    1    2  503    0  0.34303716162E+02 -0.31553651623E+02  0.95086501820E+03  0.95200664951E+03  0.00000000000E+00 0. -1.
         -4    1    1    2    0  501 -0.27516909650E+02  0.15167336274E+02 -0.12531930203E+03  0.12919812641E+03  0.00000000000E+00 0.  1.
<mgrwt>
<rscale>  0 0.38245995E+02</rscale>
<asrwt>0</asrwt>
<pdfrwt beam="1">  1        2 0.16730419E+00 0.46554654E+02</pdfrwt>
<pdfrwt beam="2">  1       -3 0.66051564E-01 0.31420191E+02</pdfrwt>
<totfact> 0.32835956E+01</totfact>
</mgrwt>
</event>
<event>
13    1  0.3019759E-008  0.1142987E+03  0.7546771E-02  0.1425362E+00
          2   -1    0    0  502    0  0.00000000000E+00  0.00000000000E+00  0.11876292352E+04  0.11876292352E+04  0.00000000000E+00 0. -1.
          2   -1    0    0  503    0 -0.00000000000E+00 -0.00000000000E+00 -0.12710699495E+04  0.12710699495E+04  0.00000000000E+00 0. -1.
         25    2    1    2    0    0  0.78068791640E+01 -0.55858745460E+02 -0.30378444888E+03  0.33330233556E+03  0.12499723478E+03 0.  0.
         24    2    1    2    0    0 -0.28538509511E+02 -0.60332791108E+02 -0.57037562754E+02  0.11883268122E+03  0.80083895716E+02 0.  0.
         24    2    1    2    0    0  0.79726864474E+02  0.14858972684E+02  0.12699851286E+03  0.17812467420E+03  0.94987448128E+02 0.  0.
        -13    1    4    4    0    0 -0.45583958389E+02 -0.50120061258E+02 -0.10929179672E+02  0.68624811629E+02  0.00000000000E+00 0.  1.
         14    1    4    4    0    0  0.17045448878E+02 -0.10212729851E+02 -0.46108383081E+02  0.50207869591E+02  0.00000000000E+00 0. -1.
        -13    1    5    5    0    0  0.50569369163E+02  0.12442075787E+02  0.13750621324E+03  0.14703749531E+03  0.00000000000E+00 0.  1.
         14    1    5    5    0    0  0.29157495311E+02  0.24168968969E+01 -0.10507700388E+02  0.31087178882E+02  0.00000000000E+00 0. -1.
          5    1    3    3  501    0 -0.51545365320E+02  0.49783705371E+01 -0.11733289590E+03  0.12833864313E+03  0.47000000000E+01 0. -1.
         -5    1    3    3    0  501  0.59352244484E+02 -0.60837115997E+02 -0.18645155298E+03  0.20496369243E+03  0.47000000000E+01 0. -1.
          1    1    1    2  502    0 -0.77716048038E+02  0.84136467763E+02  0.98590240885E+03  0.99253326852E+03  0.00000000000E+00 0. -1.
          1    1    1    2  503    0  0.18720813911E+02  0.17196096121E+02 -0.83551962441E+03  0.83590622523E+03  0.00000000000E+00 0. -1.
<mgrwt>
<rscale>  0 0.53902409E+02</rscale>
<asrwt>0</asrwt>
<pdfrwt beam="1">  1        2 0.17465136E+00 0.11429873E+03</pdfrwt>
<pdfrwt beam="2">  1        2 0.18692205E+00 0.25419965E+02</pdfrwt>
<totfact> 0.82059040E+01</totfact>
</mgrwt>
</event>
<event>
13    1  0.3019759E-008  0.1158456E+03  0.7546771E-02  0.1263322E+00
          2   -1    0    0  503    0  0.00000000000E+00  0.00000000000E+00  0.15130675584E+04  0.15130675584E+04  0.00000000000E+00 0. -1.
          2   -1    0    0  502    0 -0.00000000000E+00 -0.00000000000E+00 -0.50844839192E+03  0.50844839192E+03  0.00000000000E+00 0. -1.
         25    2    1    2    0    0  0.77624798584E+02  0.10874098155E+03 -0.33012811497E+03  0.37743840452E+03  0.12499986597E+03 0.  0.
         24    2    1    2    0    0  0.44233416286E+02 -0.42806280284E+02  0.35386515652E+02  0.10662619716E+03  0.79548524078E+02 0.  0.
         24    2    1    2    0    0 -0.37333253805E+02  0.73593708678E+02  0.48486693968E+03  0.49834591889E+03  0.80267676494E+02 0.  0.
        -11    1    5    5    0    0  0.51322016371E+01 -0.15445183504E+02  0.59064338327E+02  0.61265726545E+02  0.00000000000E+00 0.  1.
         12    1    5    5    0    0 -0.42465455442E+02  0.89038892182E+02  0.42580260135E+03  0.43708019235E+03  0.00000000000E+00 0. -1.
        -13    1    4    4    0    0  0.24759112426E+02  0.78073168550E+01  0.44612364892E+02  0.51616188796E+02  0.00000000000E+00 0.  1.
         14    1    4    4    0    0  0.19474303860E+02 -0.50613597139E+02 -0.92258492392E+01  0.55010008365E+02  0.00000000000E+00 0. -1.
          5    1    3    3  501    0  0.25105160414E+02  0.38062288475E+02 -0.26206919860E+03  0.26604766817E+03  0.47000000000E+01 0. -1.
         -5    1    3    3    0  501  0.52519638171E+02  0.70678693070E+02 -0.68058916370E+02  0.11139073635E+03  0.47000000000E+01 0. -1.
          1    1    1    2  502    0 -0.12968924950E+03 -0.48838077178E+02 -0.65513226500E+02  0.15328549202E+03  0.00000000000E+00 0. -1.
          1    1    1    2  503    0  0.45164288432E+02 -0.90690332762E+02  0.88000705263E+03  0.88581993773E+03  0.00000000000E+00 0. -1.
<mgrwt>
<rscale>  0 0.10852711E+03</rscale>
<asrwt>0</asrwt>
<pdfrwt beam="1">  1        2 0.22250993E+00 0.10167094E+03</pdfrwt>
<pdfrwt beam="2">  1        2 0.74771823E-01 0.11584563E+03</pdfrwt>
<totfact> 0.15932728E+02</totfact>
</mgrwt>
</event>
<event>
13    1  0.3019759E-008  0.2045890E+03  0.7546771E-02  0.1200358E+00
          2   -1    0    0  502    0  0.00000000000E+00  0.00000000000E+00  0.18643527264E+04  0.18643527264E+04  0.00000000000E+00 0. -1.
          2   -1    0    0  503    0 -0.00000000000E+00 -0.00000000000E+00 -0.36669388856E+04  0.36669388856E+04  0.00000000000E+00 0. -1.
         25    2    1    2    0    0  0.71269331072E+02 -0.48260998853E+03 -0.19031455466E+04  0.19686533602E+04  0.12506543382E+03 0.  0.
         24    2    1    2    0    0  0.32220637354E+03  0.57844339151E+03  0.39590174610E+03  0.77559513559E+03  0.79974480086E+02 0.  0.
         24    2    1    2    0    0 -0.10730065677E+03  0.29175702600E+01 -0.34120858730E+02  0.13886874115E+03  0.81230235187E+02 0.  0.
        -13    1    4    4    0    0  0.28105303556E+02  0.45300125834E+02  0.86733376370E+01  0.54011445771E+02  0.00000000000E+00 0.  1.
         14    1    4    4    0    0  0.29410106998E+03  0.53314326567E+03  0.38722840846E+03  0.72158368982E+03  0.00000000000E+00 0. -1.
        -13    1    5    5    0    0 -0.46685463087E+02  0.34695430699E+02  0.76831516622E+01  0.58671425707E+02  0.00000000000E+00 0.  1.
         14    1    5    5    0    0 -0.60615193686E+02 -0.31777860439E+02 -0.41804010392E+02  0.80197315445E+02  0.00000000000E+00 0. -1.
          5    1    3    3  501    0  0.98072106660E+02 -0.31050461202E+03 -0.11216863330E+04  0.11680040976E+04  0.47000000000E+01 0.  1.
         -5    1    3    3    0  501 -0.26802775588E+02 -0.17210537651E+03 -0.78145921351E+03  0.80064926265E+03  0.47000000000E+01 0.  1.
          1    1    1    2  502    0 -0.86104992096E+02 -0.68636515582E+02  0.11838741659E+04  0.11889840544E+04  0.00000000000E+00 0. -1.
          1    1    1    2  503    0 -0.20007005574E+03 -0.30114457655E+02 -0.14450956660E+04  0.14591903206E+04  0.00000000000E+00 0. -1.
<mgrwt>
<rscale>  0 0.15009351E+03</rscale>
<asrwt>0</asrwt>
<pdfrwt beam="1">  1        2 0.27416952E+00 0.11011376E+03</pdfrwt>
<pdfrwt beam="2">  1        2 0.53925571E+00 0.20458898E+03</pdfrwt>
<totfact> 0.17433520E+00</totfact>
</mgrwt>
</event>
<event>
13    1  0.3019759E-008  0.1346920E+03  0.7546771E-02  0.1360906E+00
          2   -1    0    0  502    0  0.00000000000E+00  0.00000000000E+00  0.17224979541E+03  0.17224979541E+03  0.00000000000E+00 0. -1.
          2   -1    0    0  503    0 -0.00000000000E+00 -0.00000000000E+00 -0.32006482161E+04  0.32006482161E+04  0.00000000000E+00 0. -1.
         25    2    1    2    0    0 -0.33090121527E+02  0.12214498537E+03 -0.21665737154E+04  0.21738633456E+04  0.12500330859E+03 0.  0.
         24    2    1    2    0    0  0.45735937199E+02 -0.41018380582E+02 -0.12538628302E+03  0.16201966933E+03  0.82184972982E+02 0.  0.
         24    2    1    2    0    0 -0.40895458223E+02  0.74947552535E+02 -0.22903419663E+03  0.25753015959E+03  0.81089738813E+02 0.  0.
        -11    1    4    4    0    0  0.19548858613E+02 -0.16552778255E+01  0.74769971587E+01  0.20995316246E+02  0.00000000000E+00 0.  1.
         12    1    4    4    0    0  0.26187078585E+02 -0.39363102757E+02 -0.13286328018E+03  0.14102435309E+03  0.00000000000E+00 0. -1.
        -13    1    5    5    0    0  0.22913565406E+02  0.32001192264E+02 -0.59186178364E+02  0.71078206894E+02  0.00000000000E+00 0.  1.
         14    1    5    5    0    0 -0.63809023629E+02  0.42946360270E+02 -0.16984801826E+03  0.18645195270E+03  0.00000000000E+00 0. -1.
          5    1    3    3  501    0 -0.10983094875E+01 -0.17889191208E+02 -0.71360714311E+02  0.73727003146E+02  0.47000000000E+01 0. -1.
         -5    1    3    3    0  501 -0.31991812039E+02  0.14003417658E+03 -0.20952130011E+04  0.21001363424E+04  0.47000000000E+01 0. -1.
          1    1    1    2  502    0 -0.37499965192E+01 -0.13929544540E+03  0.99678759448E+02  0.17132757708E+03  0.00000000000E+00 0. -1.
          1    1    1    2  503    0  0.31999639070E+02 -0.16778711926E+02 -0.60708298510E+03  0.60815725998E+03  0.00000000000E+00 0. -1.
<mgrwt>
<rscale>  0 0.69761422E+02</rscale>
<asrwt>0</asrwt>
<pdfrwt beam="1">  1        2 0.25330853E-01 0.13469202E+03</pdfrwt>
<pdfrwt beam="2">  1        2 0.47068354E+00 0.36131732E+02</pdfrwt>
<totfact> 0.86801909E+01</totfact>
</mgrwt>
</event>
<event>
13    1  0.3019759E-008  0.2727869E+03  0.7546771E-02  0.1324258E+00
          2   -1    0    0  502    0  0.00000000000E+00  0.00000000000E+00  0.18721815598E+03  0.18721815598E+03  0.00000000000E+00 0. -1.
          2   -1    0    0  503    0 -0.00000000000E+00 -0.00000000000E+00 -0.18429800449E+04  0.18429800449E+04  0.00000000000E+00 0. -1.
         25    2    1    2    0    0  0.22706110051E+03  0.20435514461E+03 -0.37651805898E+03  0.50070773241E+03  0.12499846424E+03 0.  0.
         24    2    1    2    0    0  0.10229251281E+03 -0.76220747395E+02 -0.74860340844E+02  0.16843615023E+03  0.80581049642E+02 0.  0.
         24    2    1    2    0    0 -0.28006465724E+02 -0.10621093363E+03 -0.69011412632E+02  0.15262090778E+03  0.80407971458E+02 0.  0.
        -11    1    4    4    0    0  0.14784624326E+02 -0.27225707803E+02 -0.59355426056E+02  0.66954394062E+02  0.00000000000E+00 0.  1.
         12    1    4    4    0    0  0.87507888487E+02 -0.48995039592E+02 -0.15504914788E+02  0.10148175617E+03  0.00000000000E+00 0. -1.
        -11    1    5    5    0    0 -0.32219052488E+00 -0.16867871595E+02  0.18143275418E+02  0.24775135555E+02  0.00000000000E+00 0.  1.
         12    1    5    5    0    0 -0.27684275200E+02 -0.89343062031E+02 -0.87154688051E+02  0.12784577222E+03  0.00000000000E+00 0. -1.
          5    1    3    3  501    0  0.43494910303E+02  0.11970722021E+03 -0.15791367076E+03  0.20292965088E+03  0.47000000000E+01 0.  1.
         -5    1    3    3    0  501  0.18356619021E+03  0.84647924408E+02 -0.21860438822E+03  0.29777808153E+03  0.47000000000E+01 0.  1.
          1    1    1    2  502    0 -0.23289073756E+02 -0.75340869293E+01  0.12353443586E+02  0.27418077808E+02  0.00000000000E+00 0. -1.
          1    1    1    2  503    0 -0.27805807384E+03 -0.14389376663E+02 -0.11477255201E+04  0.11810153327E+04  0.00000000000E+00 0. -1.
<mgrwt>
<rscale>  0 0.81713628E+02</rscale>
<asrwt>0</asrwt>
<pdfrwt beam="1">  1        2 0.27532083E-01 0.24477406E+02</pdfrwt>
<pdfrwt beam="2">  1        2 0.27102647E+00 0.27278695E+03</pdfrwt>
<totfact> 0.27714871E+02</totfact>
</mgrwt>
</event>
<event>
13    1  0.3019759E-008  0.7082697E+02  0.7546771E-02  0.1380771E+00
          2   -1    0    0  503    0  0.00000000000E+00  0.00000000000E+00  0.12755958971E+04  0.12755958971E+04  0.00000000000E+00 0. -1.
         -1   -1    0    0    0  501 -0.00000000000E+00 -0.00000000000E+00 -0.92211782257E+03  0.92211782257E+03  0.00000000000E+00 0.  1.
         25    2    1    2    0    0 -0.14168625938E+03 -0.24222637750E+03 -0.22450036703E+03  0.38049059883E+03  0.12499626774E+03 0.  0.
         24    2    1    2    0    0  0.79351507341E+02 -0.77816138746E+02  0.10901337363E+03  0.17934197556E+03  0.89037157424E+02 0.  0.
         24    2    1    2    0    0  0.50539276794E+02  0.27617991406E+03  0.56780954581E+03  0.63851473310E+03  0.80397889507E+02 0.  0.
        -11    1    4    4    0    0  0.85894602312E+02 -0.44826573711E+02  0.44564911841E+02  0.10664584279E+03  0.00000000000E+00 0.  1.
         12    1    4    4    0    0 -0.65430949717E+01 -0.32989565035E+02  0.64448461792E+02  0.72696132774E+02  0.00000000000E+00 0. -1.
        -13    1    5    5    0    0  0.78982020431E+01  0.67246788292E+02  0.72220117941E+02  0.98996250265E+02  0.00000000000E+00 0.  1.
         14    1    5    5    0    0  0.42641074751E+02  0.20893312576E+03  0.49558942787E+03  0.53951848283E+03  0.00000000000E+00 0. -1.
          5    1    3    3  502    0 -0.33890307789E+02 -0.16939853561E+03 -0.15868595864E+03  0.23462254858E+03  0.47000000000E+01 0.  1.
         -5    1    3    3    0  502 -0.10779595159E+03 -0.72827841886E+02 -0.65814408385E+02  0.14586805025E+03  0.47000000000E+01 0.  1.
          1    1    1    2  503    0 -0.54895224387E+02  0.19645099413E+02  0.44606388880E+03  0.44985820931E+03  0.00000000000E+00 0. -1.
         -2    1    1    2    0  501  0.66690699635E+02  0.24217502777E+02 -0.54490836672E+03  0.54950820283E+03  0.00000000000E+00 0.  1.
<mgrwt>
<rscale>  0 0.64261433E+02</rscale>
<asrwt>0</asrwt>
<pdfrwt beam="1">  1        2 0.18758763E+00 0.58304507E+02</pdfrwt>
<pdfrwt beam="2">  1       -1 0.13560556E+00 0.70826973E+02</pdfrwt>
<totfact> 0.13209519E+01</totfact>
</mgrwt>
</event>
<event>
13    1  0.3019759E-008  0.2398028E+03  0.7546771E-02  0.1354995E+00
          2   -1    0    0  502    0  0.00000000000E+00  0.00000000000E+00  0.21751792440E+04  0.21751792440E+04  0.00000000000E+00 0. -1.
          2   -1    0    0  503    0 -0.00000000000E+00 -0.00000000000E+00 -0.27860825214E+04  0.27860825214E+04  0.00000000000E+00 0. -1.
         25    2    1    2    0    0 -0.23476455272E+03 -0.47813415866E+02 -0.24979646077E+03  0.36800266807E+03  0.12500869547E+03 0.  0.
         24    2    1    2    0    0  0.12619853371E+03  0.14825622468E+03  0.90390776477E+02  0.23568165110E+03  0.97310688650E+02 0.  0.
         24    2    1    2    0    0 -0.89258811824E+02 -0.49212410063E+01  0.25180376820E+02  0.12393768618E+03  0.82067926607E+02 0.  0.
        -13    1    5    5    0    0 -0.90442843766E+02 -0.29149578340E+02  0.10545508104E+02  0.95607602454E+02  0.00000000000E+00 0.  1.
         14    1    5    5    0    0  0.11840319421E+01  0.24228337333E+02  0.14634868715E+02  0.28330083725E+02  0.00000000000E+00 0. -1.
        -13    1    4    4    0    0  0.28987151745E+02  0.10159225843E+03  0.21766128399E+02  0.10786568632E+03  0.00000000000E+00 0.  1.
         14    1    4    4    0    0  0.97211381963E+02  0.46663966254E+02  0.68624648078E+02  0.12781596478E+03  0.00000000000E+00 0. -1.
          5    1    3    3  501    0 -0.99327389008E+02 -0.56442505733E+02 -0.18514118571E+03  0.21760293037E+03  0.47000000000E+01 0.  1.
         -5    1    3    3    0  501 -0.13543716372E+03  0.86290898662E+01 -0.64655275056E+02  0.15039973770E+03  0.47000000000E+01 0.  1.
          1    1    1    2  502    0  0.21694649655E+03 -0.10497582484E+03  0.18707018266E+04  0.18861630444E+04  0.00000000000E+00 0. -1.
          1    1    1    2  503    0 -0.19121665706E+02  0.94542570327E+01 -0.23473797966E+04  0.23474767156E+04  0.00000000000E+00 0. -1.
<mgrwt>
<rscale>  0 0.71521230E+02</rscale>
<asrwt>0</asrwt>
<pdfrwt beam="1">  1        2 0.31987930E+00 0.23980277E+03</pdfrwt>
<pdfrwt beam="2">  1        2 0.40971802E+00 0.21331223E+02</pdfrwt>
<totfact> 0.51290220E+00</totfact>
</mgrwt>
</event>
<event>
13    1  0.3019759E-008  0.9272602E+02  0.7546771E-02  0.1400630E+00
          2   -1    0    0  503    0  0.00000000000E+00  0.00000000000E+00  0.13079829722E+04  0.13079829722E+04  0.00000000000E+00 0. -1.
         -1   -1    0    0    0  501 -0.00000000000E+00 -0.00000000000E+00 -0.17014902264E+04  0.17014902264E+04  0.00000000000E+00 0.  1.
         25    2    1    2    0    0  0.78130531117E+02 -0.26001976228E+02 -0.27967221094E+03  0.31720988536E+03  0.12500033257E+03 0.  0.
         24    2    1    2    0    0  0.48548372601E+02  0.56331476335E+01  0.21184710673E+02  0.92651007150E+02  0.75807257734E+02 0.  0.
         24    2    1    2    0    0 -0.13540559756E+01  0.25869601234E+02  0.50646321631E+02  0.10064664016E+03  0.83027866075E+02 0.  0.
        -11    1    5    5    0    0 -0.79810283992E+01  0.54046051534E+02  0.19202640150E+02  0.57908668518E+02  0.00000000000E+00 0.  1.
         12    1    5    5    0    0  0.66269724236E+01 -0.28176450300E+02  0.31443681481E+02  0.42737971642E+02  0.00000000000E+00 0. -1.
        -11    1    4    4    0    0 -0.56587749692E+00  0.28000245752E+02 -0.10685935016E+02  0.29975376339E+02  0.00000000000E+00 0.  1.
         12    1    4    4    0    0  0.49114250098E+02 -0.22367098118E+02  0.31870645689E+02  0.62675630811E+02  0.00000000000E+00 0. -1.
          5    1    3    3  502    0  0.71567411122E+02 -0.71021482366E+02 -0.16094085777E+03  0.18997366921E+03  0.47000000000E+01 0.  1.
         -5    1    3    3    0  502  0.65631199949E+01  0.45019506138E+02 -0.11873135317E+03  0.12723621616E+03  0.47000000000E+01 0.  1.
          1    1    1    2  503    0 -0.90528214039E+02 -0.20702872337E+02  0.11545164424E+04  0.11582453032E+04  0.00000000000E+00 0. -1.
         -2    1    1    2    0  501 -0.34796633703E+02  0.15202099697E+02 -0.13401825180E+04  0.13407203627E+04  0.00000000000E+00 0.  1.
<mgrwt>
<rscale>  0 0.59338328E+02</rscale>
<asrwt>0</asrwt>
<pdfrwt beam="1">  1        2 0.19235044E+00 0.92726017E+02</pdfrwt>
<pdfrwt beam="2">  1       -1 0.25021915E+00 0.37972484E+02</pdfrwt>
<totfact> 0.22686777E+00</totfact>
</mgrwt>
</event>
<event>
13    1  0.3019759E-008  0.1094980E+03  0.7546771E-02  0.1331060E+00
          2   -1    0    0  503    0  0.00000000000E+00  0.00000000000E+00  0.17602298372E+04  0.17602298372E+04  0.00000000000E+00 0. -1.
          2   -1    0    0  502    0 -0.00000000000E+00 -0.00000000000E+00 -0.10695187519E+04  0.10695187519E+04  0.00000000000E+00 0. -1.
         25    2    1    2    0    0 -0.13642079430E+01 -0.75306489691E+02 -0.13445155332E+03  0.19844099956E+03  0.12501472578E+03 0.  0.
         24    2    1    2    0    0 -0.33776767222E+02 -0.18546308617E+02  0.22014239785E+03  0.23637509409E+03  0.76978400912E+02 0.  0.
         24    2    1    2    0    0 -0.24894317936E+02 -0.40139420255E+02  0.26609445851E+03  0.28092540713E+03  0.76693698551E+02 0.  0.
        -11    1    4    4    0    0 -0.25362404685E+02 -0.44408576804E+02  0.90865949640E+02  0.10426885474E+03  0.00000000000E+00 0.  1.
         12    1    4    4    0    0 -0.84143625365E+01  0.25862268186E+02  0.12927644821E+03  0.13210623934E+03  0.00000000000E+00 0. -1.
        -13    1    5    5    0    0  0.13541760513E+02 -0.93055379008E+01  0.18711516306E+03  0.18783518456E+03  0.00000000000E+00 0.  1.
         14    1    5    5    0    0 -0.38436078449E+02 -0.30833882354E+02  0.78979295455E+02  0.93090222570E+02  0.00000000000E+00 0. -1.
          5    1    3    3  501    0  0.13022797792E+02 -0.10850133056E+03 -0.97813760901E+02  0.14673702265E+03  0.47000000000E+01 0.  1.
         -5    1    3    3    0  501 -0.14387005735E+02  0.33194840870E+02 -0.36637792422E+02  0.51703976907E+02  0.47000000000E+01 0.  1.
          1    1    1    2  502    0  0.65112400502E+01  0.11318785012E+03 -0.88324307762E+03  0.89048987632E+03  0.00000000000E+00 0. -1.
          1    1    1    2  503    0  0.53524053050E+02  0.20804368441E+02  0.12221688599E+04  0.12235172120E+04  0.00000000000E+00 0. -1.
<mgrwt>
<rscale>  0 0.79296532E+02</rscale>
<asrwt>0</asrwt>
<pdfrwt beam="1">  1        2 0.25885733E+00 0.57425134E+02</pdfrwt>
<pdfrwt beam="2">  1        2 0.15728217E+00 0.10949805E+03</pdfrwt>
<totfact> 0.52362863E+01</totfact>
</mgrwt>
</event>
<event>
13    1  0.3019759E-008  0.6750729E+02  0.7546771E-02  0.1454711E+00
          2   -1    0    0  502    0  0.00000000000E+00  0.00000000000E+00  0.25496139524E+04  0.25496139524E+04  0.00000000000E+00 0. -1.
          2   -1    0    0  503    0 -0.00000000000E+00 -0.00000000000E+00 -0.32363785101E+04  0.32363785101E+04  0.00000000000E+00 0. -1.
         25    2    1    2    0    0  0.12655521536E+03  0.65808925736E+02 -0.24684428446E+03  0.31129493639E+03  0.12500159763E+03 0.  0.
         24    2    1    2    0    0 -0.58048325173E+02  0.18574110889E+02  0.83947034037E+02  0.13144296899E+03  0.80718919235E+02 0.  0.
         24    2    1    2    0    0 -0.52529232500E+02  0.13440949820E+02  0.30342037017E+03  0.31791623259E+03  0.77889861408E+02 0.  0.
        -11    1    4    4    0    0  0.66906767192E+01 -0.22991272999E+02  0.15989403950E+02  0.28792791246E+02  0.00000000000E+00 0.  1.
         12    1    4    4    0    0 -0.64739001892E+02  0.41565383888E+02  0.67957630088E+02  0.10265017774E+03  0.00000000000E+00 0. -1.
        -13    1    5    5    0    0 -0.83159325345E+01  0.38955896843E+02  0.89072730932E+02  0.97573910593E+02  0.00000000000E+00 0.  1.
         14    1    5    5    0    0 -0.44213299965E+02 -0.25514947023E+02  0.21434763923E+03  0.22034232199E+03  0.00000000000E+00 0. -1.
          5    1    3    3  501    0  0.74747405346E+02 -0.29864148286E+02 -0.99270623005E+02  0.12788975155E+03  0.47000000000E+01 0.  1.
         -5    1    3    3    0  501  0.51807810010E+02  0.95673074022E+02 -0.14757366146E+03  0.18340518484E+03  0.47000000000E+01 0.  1.
          1    1    1    2  502    0 -0.21954766680E+02 -0.63781659591E+02  0.20983812895E+04  0.20994652053E+04  0.00000000000E+00 0. -1.
          1    1    1    2  503    0  0.59771089960E+01 -0.34042326855E+02 -0.29256689669E+04  0.29258731192E+04  0.00000000000E+00 0. -1.
<mgrwt>
<rscale>  0 0.48303823E+02</rscale>
<asrwt>0</asrwt>
<pdfrwt beam="1">  1        2 0.37494323E+00 0.67507293E+02</pdfrwt>
<pdfrwt beam="2">  1        2 0.47593801E+00 0.34563071E+02</pdfrwt>
<totfact> 0.21104528E+00</totfact>
</mgrwt>
</event>
<event>
13    1  0.3019759E-008  0.7709949E+02  0.7546771E-02  0.1410921E+00
          2   -1    0    0  503    0  0.00000000000E+00  0.00000000000E+00  0.17423917206E+04  0.17423917206E+04  0.00000000000E+00 0. -1.
          2   -1    0    0  502    0 -0.00000000000E+00 -0.00000000000E+00 -0.25039819895E+04  0.25039819895E+04  0.00000000000E+00 0. -1.
         25    2    1    2    0    0  0.17627076127E+03 -0.11552783324E+03  0.27893221429E+02  0.24662156036E+03  0.12500440273E+03 0.  0.
         24    2    1    2    0    0 -0.11506526766E+03  0.13343221546E+03  0.24732052372E+03  0.31350321621E+03  0.77927230004E+02 0.  0.
         24    2    1    2    0    0 -0.29474078215E+02 -0.43683564860E+02  0.17501408904E+03  0.19977578300E+03  0.80644013928E+02 0.  0.
        -11    1    4    4    0    0 -0.30737574104E+00  0.51648699874E+02  0.70622936195E+02  0.87494467227E+02  0.00000000000E+00 0.  1.
         12    1    4    4    0    0 -0.11475789192E+03  0.81783515588E+02  0.17669758753E+03  0.22600874898E+03  0.00000000000E+00 0. -1.
        -13    1    5    5    0    0 -0.18634908444E+01  0.10967532539E+02  0.10964915922E+03  0.11021205689E+03  0.00000000000E+00 0.  1.
         14    1    5    5    0    0 -0.27610587371E+02 -0.54651097399E+02  0.65364929829E+02  0.89563726103E+02  0.00000000000E+00 0. -1.
          5    1    3    3  501    0  0.18848557227E+03 -0.12430255873E+03  0.36349803621E+02  0.22873857410E+03  0.47000000000E+01 0. -1.
         -5    1    3    3    0  501 -0.12214811000E+02  0.87747254861E+01 -0.84565821922E+01  0.17882986258E+02  0.47000000000E+01 0. -1.
          1    1    1    2  502    0  0.63463702611E+01 -0.41643125801E+02 -0.23476385315E+04  0.23480164184E+04  0.00000000000E+00 0. -1.
          1    1    1    2  503    0 -0.38077785654E+02  0.67422308440E+02  0.11358204284E+04  0.11384567322E+04  0.00000000000E+00 0. -1.
<mgrwt>
<rscale>  0 0.56988896E+02</rscale>
<asrwt>0</asrwt>
<pdfrwt beam="1">  1        2 0.25623408E+00 0.77099488E+02</pdfrwt>
<pdfrwt beam="2">  1        2 0.36823264E+00 0.42123940E+02</pdfrwt>
<totfact> 0.11390774E+01</totfact>
</mgrwt>
</event>
<event>
13    1  0.3019759E-008  0.4028717E+02  0.7546771E-02  0.1548753E+00
          2   -1    0    0  503    0  0.00000000000E+00  0.00000000000E+00  0.54403395589E+03  0.54403395589E+03  0.00000000000E+00 0. -1.
          2   -1    0    0  502    0 -0.00000000000E+00 -0.00000000000E+00 -0.65627758649E+03  0.65627758649E+03  0.00000000000E+00 0. -1.
         25    2    1    2    0    0 -0.92796489568E+02  0.98268834287E+02 -0.45915727841E+03  0.49469010924E+03  0.12499978238E+03 0.  0.
         24    2    1    2    0    0  0.11479034555E+03  0.29334984086E+02  0.57135211001E+02  0.15500434987E+03  0.82003362245E+02 0.  0.
         24    2    1    2    0    0 -0.44970010739E+02 -0.74243333148E+02  0.14556590080E+03  0.18646906759E+03  0.77761862820E+02 0.  0.
        -11    1    4    4    0    0 -0.22293610917E+01 -0.15256975922E+02  0.18220950214E+02  0.23869402839E+02  0.00000000000E+00 0.  1.
         12    1    4    4    0    0  0.11701970665E+03  0.44591960008E+02  0.38914260786E+02  0.13113494703E+03  0.00000000000E+00 0. -1.
        -13    1    5    5    0    0  0.21540299136E+02 -0.28183327877E+02  0.49008933711E+02  0.60499256529E+02  0.00000000000E+00 0.  1.
         14    1    5    5    0    0 -0.66510309875E+02 -0.46060005271E+02  0.96556967088E+02  0.12596981106E+03  0.00000000000E+00 0. -1.
          5    1    3    3  501    0 -0.40796671379E+02  0.41608918331E+01 -0.26974914382E+02  0.49309405009E+02  0.47000000000E+01 0.  1.
         -5    1    3    3    0  501 -0.51999818190E+02  0.94107942454E+02 -0.43218236403E+03  0.44538070424E+03  0.47000000000E+01 0.  1.
          1    1    1    2  502    0  0.31938911253E+02 -0.24335898806E+02 -0.10535034594E+03  0.11274318344E+03  0.00000000000E+00 0. -1.
          1    1    1    2  503    0 -0.89627564996E+01 -0.29024586419E+02  0.24956288196E+03  0.25140483223E+03  0.00000000000E+00 0. -1.
<mgrwt>
<rscale>  0 0.34982856E+02</rscale>
<asrwt>0</asrwt>
<pdfrwt beam="1">  1        2 0.80004994E-01 0.30376926E+02</pdfrwt>
<pdfrwt beam="2">  1        2 0.96511409E-01 0.40287165E+02</pdfrwt>
<totfact> 0.47977133E+02</totfact>
</mgrwt>
</event>
<event>
13    1  0.3019759E-008  0.2431959E+03  0.7546771E-02  0.1205380E+00
          2   -1    0    0  502    0  0.00000000000E+00  0.00000000000E+00  0.20935121451E+04  0.20935121451E+04  0.00000000000E+00 0. -1.
          2   -1    0    0  503    0 -0.00000000000E+00 -0.00000000000E+00 -0.22852279144E+04  0.22852279144E+04  0.00000000000E+00 0. -1.
         25    2    1    2    0    0 -0.26140285831E+03 -0.18723724572E+03 -0.13048602575E+04  0.13496944640E+04  0.12500245590E+03 0.  0.
         24    2    1    2    0    0 -0.52420233457E+02  0.19162932324E+03 -0.13281399520E+03  0.25211950028E+03  0.80343056309E+02 0.  0.
         24    2    1    2    0    0  0.54065821541E+03 -0.92166659157E+02  0.80895027537E+03  0.98064245973E+03  0.80331107613E+02 0.  0.
        -11    1    5    5    0    0  0.24340400265E+03 -0.67122585181E+01  0.39261833024E+03  0.46199536379E+03  0.00000000000E+00 0.  1.
         12    1    5    5    0    0  0.29725421276E+03 -0.85454400638E+02  0.41633194512E+03  0.51864709594E+03  0.00000000000E+00 0. -1.
        -13    1    4    4    0    0 -0.47223947456E+02  0.39336587350E+02 -0.30834048590E+02  0.68761958015E+02  0.00000000000E+00 0.  1.
         14    1    4    4    0    0 -0.51962860013E+01  0.15229273589E+03 -0.10197994661E+03  0.18335754226E+03  0.00000000000E+00 0. -1.
          5    1    3    3  501    0 -0.24056648977E+03 -0.11459020328E+03 -0.10813017076E+04  0.11136600126E+04  0.47000000000E+01 0.  1.
         -5    1    3    3    0  501 -0.20836368531E+02 -0.72647042442E+02 -0.22355854984E+03  0.23603445138E+03  0.47000000000E+01 0.  1.
          1    1    1    2  502    0 -0.24282361961E+03  0.15036174931E+01  0.11005221840E+04  0.11269936329E+04  0.00000000000E+00 0. -1.
          1    1    1    2  503    0  0.15988495959E+02  0.86270964140E+02 -0.66351397602E+03  0.66929000263E+03  0.00000000000E+00 0. -1.
<mgrwt>
<rscale>  0 0.14607538E+03</rscale>
<asrwt>0</asrwt>
<pdfrwt beam="1">  1        2 0.30786943E+00 0.24319595E+03</pdfrwt>
<pdfrwt beam="2">  1        2 0.33606293E+00 0.87740021E+02</pdfrwt>
<totfact> 0.79458619E+00</totfact>
</mgrwt>
</event>
<event>
13    1  0.3019759E-008  0.1662481E+03  0.7546771E-02  0.1234395E+00
          2   -1    0    0  503    0  0.00000000000E+00  0.00000000000E+00  0.48368973921E+04  0.48368973921E+04  0.00000000000E+00 0. -1.
          2   -1    0    0  502    0 -0.00000000000E+00 -0.00000000000E+00 -0.71061904812E+03  0.71061904812E+03  0.00000000000E+00 0. -1.
         25    2    1    2    0    0 -0.20261618519E+03  0.71668572468E+02 -0.36871391001E+02  0.25134603463E+03  0.12500250745E+03 0.  0.
         24    2    1    2    0    0  0.15781259715E+03 -0.73171783029E+02 -0.25013928539E+02  0.19286506798E+03  0.79450060902E+02 0.  0.
         24    2    1    2    0    0  0.26980775695E+02 -0.22709075140E+03  0.21180742580E+04  0.21318655598E+04  0.79460877180E+02 0.  0.
        -11    1    5    5    0    0  0.83375428340E+01 -0.66473575222E+02  0.98967904201E+03  0.99194397877E+03  0.00000000000E+00 0.  1.
         12    1    5    5    0    0  0.18643232861E+02 -0.16061717617E+03  0.11283952160E+04  0.11399215810E+04  0.00000000000E+00 0. -1.
        -11    1    4    4    0    0  0.16517581357E+03 -0.61359664707E+02 -0.17564604873E+02  0.17707787323E+03  0.00000000000E+00 0.  1.
         12    1    4    4    0    0 -0.73632164212E+01 -0.11812118322E+02 -0.74493236658E+01  0.15787194760E+02  0.00000000000E+00 0. -1.
          5    1    3    3  501    0 -0.29836504118E+02  0.56697239048E+02 -0.43742406618E+02  0.77719251350E+02  0.47000000000E+01 0. -1.
         -5    1    3    3    0  501 -0.17277968108E+03  0.14971333420E+02  0.68710156173E+01  0.17362678328E+03  0.47000000000E+01 0. -1.
          1    1    1    2  502    0  0.70705959253E+02  0.15011042834E+03 -0.43447826038E+03  0.46508475799E+03  0.00000000000E+00 0. -1.
          1    1    1    2  503    0 -0.52883146903E+02  0.78483533621E+02  0.25045676659E+04  0.25063550198E+04  0.00000000000E+00 0. -1.
<mgrwt>
<rscale>  0 0.12543260E+03</rscale>
<asrwt>0</asrwt>
<pdfrwt beam="1">  1        2 0.71130842E+00 0.94637690E+02</pdfrwt>
<pdfrwt beam="2">  1        2 0.10450280E+00 0.16624811E+03</pdfrwt>
<totfact> 0.11553319E+00</totfact>
</mgrwt>
</event>
<event>
13    1  0.3019759E-008  0.9557943E+02  0.7546771E-02  0.1562642E+00
          2   -1    0    0  502    0  0.00000000000E+00  0.00000000000E+00  0.12219786174E+04  0.12219786174E+04  0.00000000000E+00 0. -1.
          2   -1    0    0  503    0 -0.00000000000E+00 -0.00000000000E+00 -0.27895533034E+04  0.27895533034E+04  0.00000000000E+00 0. -1.
         25    2    1    2    0    0  0.72454844988E+03  0.80796699158E+02 -0.71454993715E+03  0.10284481732E+04  0.12500187814E+03 0.  0.
         24    2    1    2    0    0 -0.42278338723E+03 -0.96929466758E+02 -0.34433301875E+03  0.55954881575E+03  0.79928313910E+02 0.  0.
         24    2    1    2    0    0 -0.23537272386E+03  0.71595580883E+02  0.42736370887E+03  0.49931638697E+03  0.78427471571E+02 0.  0.
        -11    1    4    4    0    0 -0.25821784954E+03 -0.33730520485E+02 -0.16616091291E+03  0.30890719450E+03  0.00000000000E+00 0.  1.
         12    1    4    4    0    0 -0.16456553769E+03 -0.63198946273E+02 -0.17817210584E+03  0.25064162125E+03  0.00000000000E+00 0. -1.
        -11    1    5    5    0    0 -0.67544810789E+02 -0.11113821020E+01  0.17546498936E+03  0.18801994342E+03  0.00000000000E+00 0.  1.
         12    1    5    5    0    0 -0.16782791307E+03  0.72706962985E+02  0.25189871952E+03  0.31129644355E+03  0.00000000000E+00 0. -1.
          5    1    3    3  501    0  0.20815741256E+03  0.75251169963E+02 -0.24839514600E+03  0.33273786310E+03  0.47000000000E+01 0.  1.
         -5    1    3    3    0  501  0.51639103733E+03  0.55455291954E+01 -0.46615479115E+03  0.69571031014E+03  0.47000000000E+01 0.  1.
          1    1    1    2  502    0  0.17517437059E+01  0.11587447814E+02  0.49241412228E+03  0.49255355584E+03  0.00000000000E+00 0. -1.
          1    1    1    2  503    0 -0.68144082501E+02 -0.67050261097E+02 -0.14284695613E+04  0.14316649891E+04  0.00000000000E+00 0. -1.
<mgrwt>
<rscale>  0 0.33467984E+02</rscale>
<asrwt>0</asrwt>
<pdfrwt beam="1">  1        2 0.17970274E+00 0.11719111E+02</pdfrwt>
<pdfrwt beam="2">  1        2 0.41022842E+00 0.95579433E+02</pdfrwt>
<totfact> 0.14981970E+01</totfact>
</mgrwt>
</event>
<event>
13    1  0.3019759E-008  0.1031736E+03  0.7546771E-02  0.1490421E+00
          2   -1    0    0  503    0  0.00000000000E+00  0.00000000000E+00  0.36874253204E+03  0.36874253204E+03  0.00000000000E+00 0. -1.
         -1   -1    0    0    0  501 -0.00000000000E+00 -0.00000000000E+00 -0.60567595188E+03  0.60567595188E+03  0.00000000000E+00 0.  1.
         25    2    1    2    0    0 -0.17764313926E+02  0.74547241987E+02 -0.33775831025E+03  0.36821123186E+03  0.12500389191E+03 0.  0.
         24    2    1    2    0    0  0.16496149736E+02 -0.25549511249E+02  0.43766455861E+01  0.86295674124E+02  0.80640485271E+02 0.  0.
         24    2    1    2    0    0 -0.60706665639E+02  0.61638864967E+02  0.64604918656E+02  0.13561830508E+03  0.82060223189E+02 0.  0.
        -11    1    5    5    0    0 -0.53256529612E+01  0.27389992925E+02  0.64745927505E+02  0.70502549034E+02  0.00000000000E+00 0.  1.
         12    1    5    5    0    0 -0.55381012678E+02  0.34248872042E+02 -0.14100884904E+00  0.65115756042E+02  0.00000000000E+00 0. -1.
        -13    1    4    4    0    0  0.69024510097E+00 -0.51999802181E+02 -0.88708343634E+01  0.52755545371E+02  0.00000000000E+00 0.  1.
         14    1    4    4    0    0  0.15805904635E+02  0.26450290932E+02  0.13247479949E+02  0.33540128753E+02  0.00000000000E+00 0. -1.
          5    1    3    3  502    0 -0.35780121604E+02  0.66962635485E+02 -0.82707087727E+02  0.11236887475E+03  0.47000000000E+01 0. -1.
         -5    1    3    3    0  502  0.18015807678E+02  0.75846065019E+01 -0.25505122252E+03  0.25584235711E+03  0.47000000000E+01 0. -1.
          1    1    1    2  503    0  0.50497734816E+02 -0.97390878125E+02  0.19310000470E+03  0.22208695635E+03  0.00000000000E+00 0. -1.
         -2    1    1    2    0  501  0.11477095013E+02 -0.13245717580E+02 -0.16125667853E+03  0.16220631651E+03  0.00000000000E+00 0.  1.
<mgrwt>
<rscale>  0 0.42523591E+02</rscale>
<asrwt>0</asrwt>
<pdfrwt beam="1">  1        2 0.54226844E-01 0.10317359E+03</pdfrwt>
<pdfrwt beam="2">  1       -1 0.89069992E-01 0.17526344E+02</pdfrwt>
<totfact> 0.15065718E+02</totfact>
</mgrwt>
</event>
<event>
13    1  0.3019759E-008  0.1164856E+03  0.7546771E-02  0.1531732E+00
          2   -1    0    0  502    0  0.00000000000E+00  0.00000000000E+00  0.85126050692E+03  0.85126050692E+03  0.00000000000E+00 0. -1.
          2   -1    0    0  503    0 -0.00000000000E+00 -0.00000000000E+00 -0.97022247221E+03  0.97022247221E+03  0.00000000000E+00 0. -1.
         25    2    1    2    0    0 -0.86350092098E+02  0.26049742675E+02 -0.72626403594E+03  0.74244066512E+03  0.12499505519E+03 0.  0.
         24    2    1    2    0    0  0.34918910817E+02  0.43371908576E+01  0.46015259030E+02  0.10427763214E+03  0.86708009691E+02 0.  0.
         24    2    1    2    0    0 -0.62142240140E+02 -0.29051407256E+02  0.12421263154E+03  0.16279367046E+03  0.79795733188E+02 0.  0.
        -11    1    4    4    0    0  0.28253787051E+02 -0.39850441487E+02  0.25517872290E+02  0.55113482703E+02  0.00000000000E+00 0.  1.
         12    1    4    4    0    0  0.66651237663E+01  0.44187632344E+02  0.20497386740E+02  0.49164149440E+02  0.00000000000E+00 0. -1.
        -13    1    5    5    0    0 -0.14065944513E+02  0.23018995764E+02  0.10798755702E+02  0.29057496206E+02  0.00000000000E+00 0.  1.
         14    1    5    5    0    0 -0.48076295627E+02 -0.52070403020E+02  0.11341387584E+03  0.13373617426E+03  0.00000000000E+00 0. -1.
          5    1    3    3  501    0 -0.57838376016E+02 -0.34941609267E+02 -0.18548398077E+03  0.19746541702E+03  0.47000000000E+01 0.  1.
         -5    1    3    3    0  501 -0.28511716082E+02  0.60991351941E+02 -0.54078005517E+03  0.54497524809E+03  0.47000000000E+01 0.  1.
          1    1    1    2  502    0  0.11932987147E+03 -0.11563407666E+02  0.61857759016E+03  0.63008853797E+03  0.00000000000E+00 0. -1.
          1    1    1    2  503    0 -0.57564500464E+01  0.10227881389E+02 -0.18150341008E+03  0.18188247345E+03  0.00000000000E+00 0. -1.
<mgrwt>
<rscale>  0 0.36974825E+02</rscale>
<asrwt>0</asrwt>
<pdfrwt beam="1">  1        2 0.12518537E+00 0.11648562E+03</pdfrwt>
<pdfrwt beam="2">  1        2 0.14267977E+00 0.11736536E+02</pdfrwt>
<totfact> 0.18936326E+02</totfact>
</mgrwt>
</event>
<event>
13    1  0.3019759E-008  0.8226161E+02  0.7546771E-02  0.1522476E+00
          2   -1    0    0  502    0  0.00000000000E+00  0.00000000000E+00  0.13441744436E+04  0.13441744436E+04  0.00000000000E+00 0. -1.
          2   -1    0    0  503    0 -0.00000000000E+00 -0.00000000000E+00 -0.51133991541E+03  0.51133991541E+03  0.00000000000E+00 0. -1.
         25    2    1    2    0    0 -0.44881544624E+02 -0.96621404353E+01 -0.31441469934E+02  0.13683174885E+03  0.12500660565E+03 0.  0.
         24    2    1    2    0    0  0.73911179949E+02 -0.26469621790E+02  0.12686168601E+03  0.16936786884E+03  0.80175334247E+02 0.  0.
         24    2    1    2    0    0 -0.99929113035E+02  0.10361764811E+02  0.39689996837E+03  0.41745557447E+03  0.81525320964E+02 0.  0.
        -11    1    5    5    0    0 -0.66754751451E+02 -0.30831480667E+02  0.27320830489E+03  0.28293030043E+03  0.00000000000E+00 0.  1.
         12    1    5    5    0    0 -0.33174361584E+02  0.41193245478E+02  0.12369166348E+03  0.13452527403E+03  0.00000000000E+00 0. -1.
        -13    1    4    4    0    0  0.38546348534E+02  0.27164804550E+02  0.63888193116E+02  0.79406856197E+02  0.00000000000E+00 0.  1.
         14    1    4    4    0    0  0.35364831415E+02 -0.53634426340E+02  0.62973492890E+02  0.89961012648E+02  0.00000000000E+00 0. -1.
          5    1    3    3  501    0  0.36913339625E+02 -0.19894972797E+02  0.11543290690E+02  0.43746338645E+02  0.47000000000E+01 0.  1.
         -5    1    3    3    0  501 -0.81794884249E+02  0.10232832362E+02 -0.42984760624E+02  0.93085410207E+02  0.47000000000E+01 0.  1.
          1    1    1    2  502    0 -0.10595873848E+02  0.14140530163E+02  0.73179716684E+03  0.73201046477E+03  0.00000000000E+00 0. -1.
          1    1    1    2  503    0  0.81495351558E+02  0.11629467251E+02 -0.39128282314E+03  0.39984870204E+03  0.00000000000E+00 0. -1.
<mgrwt>
<rscale>  0 0.38125562E+02</rscale>
<asrwt>0</asrwt>
<pdfrwt beam="1">  1        2 0.19767271E+00 0.17669950E+02</pdfrwt>
<pdfrwt beam="2">  1        2 0.75197046E-01 0.82261607E+02</pdfrwt>
<totfact> 0.22014117E+02</totfact>
</mgrwt>
</event>
<event>
13    1  0.3019759E-008  0.3995907E+02  0.7546771E-02  0.1627766E+00
         -1   -1    0    0    0  501 -0.00000000000E+00  0.00000000000E+00  0.28164937425E+04  0.28164937425E+04  0.00000000000E+00 0.  1.
          2   -1    0    0  503    0  0.00000000000E+00 -0.00000000000E+00 -0.51750223081E+03  0.51750223081E+03  0.00000000000E+00 0. -1.
         25    2    1    2    0    0 -0.11393435054E+03  0.28100171693E+02  0.62446927662E+03  0.64757874407E+03  0.12500278577E+03 0.  0.
         24    2    1    2    0    0  0.10069673179E+03  0.49881327052E+01  0.70090829206E+02  0.14642804344E+03  0.79773017410E+02 0.  0.
         24    2    1    2    0    0 -0.32261431340E+02 -0.19204355351E+02  0.21804266313E+02  0.89351381451E+02  0.78093764932E+02 0.  0.
        -13    1    4    4    0    0  0.37211759202E+02 -0.19687069316E+02  0.65885110414E+02  0.78186594090E+02  0.00000000000E+00 0.  1.
         14    1    4    4    0    0  0.63484972587E+02  0.24675202021E+02  0.42057187924E+01  0.68241449353E+02  0.00000000000E+00 0. -1.
        -13    1    5    5    0    0 -0.15153775694E+02  0.17241712594E+02 -0.20625480962E+02  0.30859747826E+02  0.00000000000E+00 0.  1.
         14    1    5    5    0    0 -0.17107655645E+02 -0.36446067944E+02  0.42429747275E+02  0.58491633625E+02  0.00000000000E+00 0. -1.
          5    1    3    3  502    0 -0.37719548036E+02  0.10322345309E+02  0.49253405454E+03  0.49410646626E+03  0.47000000000E+01 0.  1.
         -5    1    3    3    0  502 -0.76214802508E+02  0.17777826384E+02  0.13193522208E+03  0.15347227781E+03  0.47000000000E+01 0.  1.
          1    1    1    2  503    0  0.14826823848E+02  0.11713061249E+02 -0.43360170454E+03  0.43401321257E+03  0.00000000000E+00 0. -1.
         -2    1    1    2    0  501  0.30672226246E+02 -0.25597010297E+02  0.20162288441E+04  0.20166245918E+04  0.00000000000E+00 0.  1.
<mgrwt>
<rscale>  0 0.27477930E+02</rscale>
<asrwt>0</asrwt>
<pdfrwt beam="2">  1        2 0.76103270E-01 0.18895251E+02</pdfrwt>
<pdfrwt beam="1">  1       -1 0.41419025E+00 0.39959068E+02</pdfrwt>
<totfact> 0.73042567E-01</totfact>
</mgrwt>
</event>
<event>
13    1  0.3019759E-008  0.9094662E+02  0.7546771E-02  0.1307398E+00
          2   -1    0    0  503    0  0.00000000000E+00  0.00000000000E+00  0.21557242316E+04  0.21557242316E+04  0.00000000000E+00 0. -1.
         -1   -1    0    0    0  501 -0.00000000000E+00 -0.00000000000E+00 -0.29987141012E+03  0.29987141012E+03  0.00000000000E+00 0.  1.
         25    2    1    2    0    0 -0.36018615110E+02 -0.41155790453E+02  0.26401185570E+02  0.13896013737E+03  0.12498702916E+03 0.  0.
         24    2    1    2    0    0 -0.76423162514E+02 -0.78756073514E+01  0.22547395623E+03  0.24608216973E+03  0.61768959523E+02 0.  0.
         24    2    1    2    0    0  0.38268939102E+02 -0.82280175929E+02  0.10300459590E+04  0.10369648865E+04  0.77890686529E+02 0.  0.
        -11    1    5    5    0    0  0.14051414069E+02  0.68632021735E+01  0.45850973312E+02  0.48444375681E+02  0.00000000000E+00 0.  1.
         12    1    5    5    0    0  0.24217525033E+02 -0.89143378103E+02  0.98419498573E+03  0.98852051082E+03  0.00000000000E+00 0. -1.
        -11    1    4    4    0    0 -0.48659088303E+02  0.25085100024E+02  0.14089230703E+03  0.15115426325E+03  0.00000000000E+00 0.  1.
         12    1    4    4    0    0 -0.27764074210E+02 -0.32960707375E+02  0.84581649200E+02  0.94927906480E+02  0.00000000000E+00 0. -1.
          5    1    3    3  502    0 -0.64689321861E+02  0.15614288058E+02  0.33752589579E+02  0.74765243647E+02  0.47000000000E+01 0. -1.
         -5    1    3    3    0  502  0.28670706751E+02 -0.56770078511E+02 -0.73514040080E+01  0.64194893727E+02  0.47000000000E+01 0. -1.
          1    1    1    2  503    0  0.75155173527E+02  0.40633410621E+02  0.79242835887E+03  0.79702075136E+03  0.00000000000E+00 0. -1.
         -2    1    1    2    0  501 -0.98233500586E+00  0.90678163113E+02 -0.21849663820E+03  0.23656769677E+03  0.00000000000E+00 0.  1.
<mgrwt>
<rscale>  0 0.88148454E+02</rscale>
<asrwt>0</asrwt>
<pdfrwt beam="1">  1        2 0.31701826E+00 0.85436375E+02</pdfrwt>
<pdfrwt beam="2">  1       -1 0.44098738E-01 0.90946624E+02</pdfrwt>
<totfact> 0.46806605E+01</totfact>
</mgrwt>
</event>
<event>
13    1  0.3019759E-008  0.1217101E+03  0.7546771E-02  0.1315514E+00
          2   -1    0    0  503    0  0.00000000000E+00  0.00000000000E+00  0.76647431961E+03  0.76647431961E+03  0.00000000000E+00 0. -1.
          2   -1    0    0  502    0 -0.00000000000E+00 -0.00000000000E+00 -0.90598438335E+03  0.90598438335E+03  0.00000000000E+00 0. -1.
         25    2    1    2    0    0  0.36936214058E+02  0.12392863673E+03 -0.49589459351E+02  0.18654970391E+03  0.12497634431E+03 0.  0.
         24    2    1    2    0    0 -0.28091418916E+02 -0.13913278317E+02 -0.29769528227E+02  0.10054571139E+03  0.90777244601E+02 0.  0.
         24    2    1    2    0    0 -0.40149822849E+02 -0.42657499604E+02  0.20877527211E+03  0.23179063211E+03  0.81903066751E+02 0.  0.
        -11    1    4    4    0    0 -0.12713200160E+02 -0.51985986574E+02 -0.25440492030E+02  0.59256956496E+02  0.00000000000E+00 0.  1.
         12    1    4    4    0    0 -0.15378218756E+02  0.38072708257E+02 -0.43290361964E+01  0.41288754892E+02  0.00000000000E+00 0. -1.
        -11    1    5    5    0    0 -0.28972535782E+02  0.19939108192E+02  0.97212110114E+02  0.10337877063E+03  0.00000000000E+00 0.  1.
         12    1    5    5    0    0 -0.11177287068E+02 -0.62596607795E+02  0.11156316199E+03  0.12841186148E+03  0.00000000000E+00 0. -1.
          5    1    3    3  501    0  0.30671393866E+01 -0.18938265190E+01  0.32129922340E+02  0.32671330436E+02  0.47000000000E+01 0. -1.
         -5    1    3    3    0  501  0.33869074672E+02  0.12582246325E+03 -0.81719381691E+02  0.15387837347E+03  0.47000000000E+01 0. -1.
          1    1    1    2  502    0  0.87558125118E+02 -0.86180653676E+02 -0.70391617925E+03  0.71455686810E+03  0.00000000000E+00 0. -1.
          1    1    1    2  503    0 -0.56253097411E+02  0.18822794864E+02  0.43498983098E+03  0.43901578745E+03  0.00000000000E+00 0. -1.
<mgrwt>
<rscale>  0 0.84968730E+02</rscale>
<asrwt>0</asrwt>
<pdfrwt beam="1">  1        2 0.11271681E+00 0.59318703E+02</pdfrwt>
<pdfrwt beam="2">  1        2 0.13323300E+00 0.12171010E+03</pdfrwt>
<totfact> 0.21480687E+02</totfact>
</mgrwt>
</event>
<event>
13    1  0.3019759E-008  0.1132501E+03  0.7546771E-02  0.1321280E+00
          2   -1    0    0  502    0  0.00000000000E+00  0.00000000000E+00  0.21361647470E+04  0.21361647470E+04  0.00000000000E+00 0. -1.
          2   -1    0    0  503    0 -0.00000000000E+00 -0.00000000000E+00 -0.74708442694E+03  0.74708442694E+03  0.00000000000E+00 0. -1.
         25    2    1    2    0    0 -0.19465447060E+02 -0.81055058683E+02 -0.34324737866E+02  0.15412315850E+03  0.12500773652E+03 0.  0.
         24    2    1    2    0    0  0.76489159591E+02 -0.31962488797E+02  0.57055254070E+01  0.12283942792E+03  0.90469772884E+02 0.  0.
         24    2    1    2    0    0 -0.68733189889E+02  0.59798349723E+02  0.55688453133E+03  0.56990297247E+03  0.79805530987E+02 0.  0.
        -11    1    4    4    0    0  0.75846085079E+02 -0.58720512694E+02  0.35287376105E+01  0.95985307323E+02  0.00000000000E+00 0.  1.
         12    1    4    4    0    0  0.64307451207E+00  0.26758023897E+02  0.21767877965E+01  0.26854120593E+02  0.00000000000E+00 0. -1.
        -13    1    5    5    0    0 -0.71176009090E+01  0.13356169765E+02  0.11294866588E+02  0.18884425454E+02  0.00000000000E+00 0.  1.
         14    1    5    5    0    0 -0.61615588980E+02  0.46442179959E+02  0.54558966474E+03  0.55101854702E+03  0.00000000000E+00 0. -1.
          5    1    3    3  501    0  0.23921298225E+02 -0.22355500090E+02  0.38601961918E+02  0.50835011134E+02  0.47000000000E+01 0. -1.
         -5    1    3    3    0  501 -0.43386745285E+02 -0.58699558593E+02 -0.72926699784E+02  0.10328814737E+03  0.47000000000E+01 0. -1.
          1    1    1    2  502    0  0.39331066734E+02  0.10709248167E+03  0.14447856897E+04  0.14492830716E+04  0.00000000000E+00 0. -1.
          1    1    1    2  503    0 -0.27621589376E+02 -0.53873283910E+02 -0.58397068859E+03  0.58710054339E+03  0.00000000000E+00 0. -1.
<mgrwt>
<rscale>  0 0.82803015E+02</rscale>
<asrwt>0</asrwt>
<pdfrwt beam="1">  1        2 0.31414187E+00 0.11325009E+03</pdfrwt>
<pdfrwt beam="2">  1        2 0.10986536E+00 0.60541580E+02</pdfrwt>
<totfact> 0.51900096E+01</totfact>
</mgrwt>
</event>
<event>
13    1  0.3019759E-008  0.4314275E+03  0.7546771E-02  0.1205309E+00
          2   -1    0    0  502    0  0.00000000000E+00  0.00000000000E+00  0.25211224532E+04  0.25211224532E+04  0.00000000000E+00 0. -1.
          2   -1    0    0  503    0 -0.00000000000E+00 -0.00000000000E+00 -0.21416041622E+04  0.21416041622E+04  0.00000000000E+00 0. -1.
         25    2    1    2    0    0  0.54026797149E+02 -0.83887622090E+02 -0.56344101144E+03  0.58570235576E+03  0.12500179289E+03 0.  0.
         24    2    1    2    0    0 -0.96373476810E+01 -0.10098121862E+03 -0.76523697544E+02  0.14444955707E+03  0.68700169335E+02 0.  0.
         24    2    1    2    0    0 -0.44689834813E+03 -0.54710066501E+02  0.11126972668E+04  0.12029616100E+04  0.79436155392E+02 0.  0.
        -13    1    5    5    0    0 -0.37284442595E+03 -0.37593961643E+02  0.99094120883E+03  0.10594294461E+04  0.00000000000E+00 0.  1.
         14    1    5    5    0    0 -0.74053922175E+02 -0.17116104858E+02  0.12175605795E+03  0.14353216393E+03  0.00000000000E+00 0. -1.
        -13    1    4    4    0    0 -0.21185260477E+02 -0.10453149462E+03 -0.55576344873E+02  0.12026794559E+03  0.00000000000E+00 0.  1.
         14    1    4    4    0    0  0.11547912796E+02  0.35502759931E+01 -0.20947352671E+02  0.24181611475E+02  0.00000000000E+00 0. -1.
          5    1    3    3  501    0  0.59553206857E+01 -0.20464076713E+02 -0.60624821394E+01  0.22651445205E+02  0.47000000000E+01 0.  1.
         -5    1    3    3    0  501  0.48071476463E+02 -0.63423545377E+02 -0.55737852930E+03  0.56305091056E+03  0.47000000000E+01 0.  1.
          1    1    1    2  502    0  0.35727689219E+03  0.25967939105E+03  0.12807437914E+04  0.13547637518E+04  0.00000000000E+00 0. -1.
          1    1    1    2  503    0  0.45232006465E+02 -0.20100483842E+02 -0.13739580583E+04  0.13748493407E+04  0.00000000000E+00 0. -1.
<mgrwt>
<rscale>  0 0.14613149E+03</rscale>
<asrwt>0</asrwt>
<pdfrwt beam="1">  1        2 0.37075330E+00 0.43142749E+03</pdfrwt>
<pdfrwt beam="2">  1        2 0.31494179E+00 0.49497110E+02</pdfrwt>
<totfact> 0.56620411E+00</totfact>
</mgrwt>
</event>
<event>
13    1  0.3019759E-008  0.1159136E+03  0.7546771E-02  0.1343947E+00
         -1   -1    0    0    0  501 -0.00000000000E+00  0.00000000000E+00  0.42783479229E+03  0.42783479229E+03  0.00000000000E+00 0.  1.
          2   -1    0    0  503    0  0.00000000000E+00 -0.00000000000E+00 -0.37199651146E+03  0.37199651146E+03  0.00000000000E+00 0. -1.
         25    2    1    2    0    0  0.10184745259E+03 -0.76446700795E+02  0.10387481412E+03  0.20647743599E+03  0.12500381155E+03 0.  0.
         24    2    1    2    0    0 -0.66059128714E+02 -0.18368919175E+02  0.18335268924E+02  0.10601970185E+03  0.78757662586E+02 0.  0.
         24    2    1    2    0    0 -0.25583325839E+02  0.16521976737E+03 -0.14203049979E+03  0.23291073527E+03  0.78247489709E+02 0.  0.
        -13    1    5    5    0    0 -0.22596121215E+02  0.30438306183E+02 -0.71101265455E+02  0.80575834631E+02  0.00000000000E+00 0.  1.
         14    1    5    5    0    0 -0.29872046245E+01  0.13478146119E+03 -0.70929234333E+02  0.15233490064E+03  0.00000000000E+00 0. -1.
        -13    1    4    4    0    0 -0.38841855798E+02 -0.48789209832E+02  0.19009359527E+02  0.65195341148E+02  0.00000000000E+00 0.  1.
         14    1    4    4    0    0 -0.27217272915E+02  0.30420290657E+02 -0.67409060254E+00  0.40824360702E+02  0.00000000000E+00 0. -1.
          5    1    3    3  502    0 -0.18145385263E+02 -0.11162702724E+02  0.58538018916E+02  0.62471198140E+02  0.47000000000E+01 0. -1.
         -5    1    3    3    0  502  0.11999283785E+03 -0.65283998071E+02  0.45336795206E+02  0.14400623785E+03  0.47000000000E+01 0. -1.
          1    1    1    2  503    0 -0.35566234980E+02 -0.11173986885E+03 -0.44050185102E+02  0.12526441701E+03  0.00000000000E+00 0. -1.
         -2    1    1    2    0  501  0.25361236941E+02  0.41335721451E+02  0.11970888267E+03  0.12915901362E+03  0.00000000000E+00 0.  1.
<mgrwt>
<rscale>  0 0.74975401E+02</rscale>
<asrwt>0</asrwt>
<pdfrwt beam="2">  1        2 0.54705369E-01 0.11591356E+03</pdfrwt>
<pdfrwt beam="1">  1       -1 0.62916881E-01 0.48495713E+02</pdfrwt>
<totfact> 0.28513821E+02</totfact>
</mgrwt>
</event>
<event>
13    1  0.3019759E-008  0.1772257E+03  0.7546771E-02  0.1236254E+00
          2   -1    0    0  502    0  0.00000000000E+00  0.00000000000E+00  0.26921189590E+04  0.26921189590E+04  0.00000000000E+00 0. -1.
          2   -1    0    0  503    0 -0.00000000000E+00 -0.00000000000E+00 -0.77012298789E+03  0.77012298789E+03  0.00000000000E+00 0. -1.
         25    2    1    2    0    0 -0.10428102166E+03  0.56934350955E+02  0.74962634864E+02  0.18804248134E+03  0.12499810545E+03 0.  0.
         24    2    1    2    0    0  0.92617020034E+02 -0.79580222944E+02  0.27956233588E+03  0.31575028988E+03  0.81438453055E+02 0.  0.
         24    2    1    2    0    0 -0.12245459779E+03 -0.30229792384E+02  0.11652350173E+04  0.11748640600E+04  0.81387622128E+02 0.  0.
        -11    1    5    5    0    0 -0.68041347282E+00 -0.24198779880E+02  0.11143063624E+03  0.11402995485E+03  0.00000000000E+00 0.  1.
         12    1    5    5    0    0 -0.12177418431E+03 -0.60310125048E+01  0.10538043810E+04  0.10608341051E+04  0.00000000000E+00 0. -1.
        -13    1    4    4    0    0  0.19293245374E+02  0.37612853317E+01  0.11862927717E+03  0.12024675458E+03  0.00000000000E+00 0.  1.
         14    1    4    4    0    0  0.73323774660E+02 -0.83341508276E+02  0.16093305871E+03  0.19550353530E+03  0.00000000000E+00 0. -1.
          5    1    3    3  501    0 -0.78149509869E+02 -0.26931409397E+02  0.23231540716E+02  0.85990936667E+02  0.47000000000E+01 0.  1.
         -5    1    3    3    0  501 -0.26131511786E+02  0.83865760352E+02  0.51731094148E+02  0.10205154467E+03  0.47000000000E+01 0.  1.
          1    1    1    2  502    0 -0.48271869194E+02  0.72502560248E+02  0.10789437880E+04  0.10824539216E+04  0.00000000000E+00 0. -1.
          1    1    1    2  503    0  0.18239046860E+03 -0.19626895874E+02 -0.67670780496E+03  0.70113119412E+03  0.00000000000E+00 0. -1.
<mgrwt>
<rscale>  0 0.12424471E+03</rscale>
<asrwt>0</asrwt>
<pdfrwt beam="1">  1        2 0.39589984E+00 0.87102208E+02</pdfrwt>
<pdfrwt beam="2">  1        2 0.11325338E+00 0.17722568E+03</pdfrwt>
<totfact> 0.26565293E+01</totfact>
</mgrwt>
</event>
<event>
13    1  0.3019759E-008  0.1437408E+03  0.7546771E-02  0.1250779E+00
          2   -1    0    0  503    0  0.00000000000E+00  0.00000000000E+00  0.13144631642E+04  0.13144631642E+04  0.00000000000E+00 0. -1.
          2   -1    0    0  502    0 -0.00000000000E+00 -0.00000000000E+00 -0.34570113063E+04  0.34570113063E+04  0.00000000000E+00 0. -1.
         25    2    1    2    0    0  0.46782620735E+02  0.43012186089E+02 -0.45922477596E+03  0.48016049450E+03  0.12501217488E+03 0.  0.
         24    2    1    2    0    0  0.52663139322E+02  0.14110466266E+02 -0.78034830347E+02  0.12556585204E+03  0.81883068762E+02 0.  0.
         24    2    1    2    0    0 -0.27266759067E+02  0.30016903101E+02  0.65849752224E+02  0.11068059423E+03  0.79180259219E+02 0.  0.
        -11    1    4    4    0    0  0.24769498443E+02 -0.26680104482E+02 -0.40975968376E+01  0.36635315314E+02  0.00000000000E+00 0.  1.
         12    1    4    4    0    0  0.27893640879E+02  0.40790570748E+02 -0.73937233509E+02  0.88930536726E+02  0.00000000000E+00 0. -1.
        -13    1    5    5    0    0  0.42849001830E+01 -0.70556973517E+01  0.61226065921E+02  0.61780048421E+02  0.00000000000E+00 0.  1.
         14    1    5    5    0    0 -0.31551659250E+02  0.37072600453E+02  0.46236863034E+01  0.48900545813E+02  0.00000000000E+00 0. -1.
          5    1    3    3  501    0 -0.27997716908E+02 -0.10023065732E+01 -0.27506270122E+03  0.27652568845E+03  0.47000000000E+01 0.  1.
         -5    1    3    3    0  501  0.74780337643E+02  0.44014492662E+02 -0.18416207474E+03  0.20363480605E+03  0.47000000000E+01 0.  1.
          1    1    1    2  502    0 -0.16621119111E+03  0.11128858197E+02 -0.28567887455E+04  0.28616414779E+04  0.00000000000E+00 0. -1.
          1    1    1    2  503    0  0.94032190123E+02 -0.98268413653E+02  0.11856504575E+04  0.11934260519E+04  0.00000000000E+00 0. -1.
<mgrwt>
<rscale>  0 0.11546055E+03</rscale>
<asrwt>0</asrwt>
<pdfrwt beam="1">  1        2 0.19330341E+00 0.92744263E+02</pdfrwt>
<pdfrwt beam="2">  1        2 0.50838400E+00 0.14374084E+03</pdfrwt>
<totfact> 0.47026143E+00</totfact>
</mgrwt>
</event>
<event>
13    1  0.3019759E-008  0.1464465E+03  0.7546771E-02  0.1272168E+00
          2   -1    0    0  503    0  0.00000000000E+00  0.00000000000E+00  0.16898669852E+04  0.16898669852E+04  0.00000000000E+00 0. -1.
          2   -1    0    0  502    0 -0.00000000000E+00 -0.00000000000E+00 -0.31157157494E+04  0.31157157494E+04  0.00000000000E+00 0. -1.
         25    2    1    2    0    0 -0.61405382574E+02  0.98704487111E+02 -0.28964965819E+03  0.33620096673E+03  0.12498387398E+03 0.  0.
         24    2    1    2    0    0  0.24104337918E+03 -0.39794287473E+02  0.24345180304E+03  0.35411342510E+03  0.80262329066E+02 0.  0.
         24    2    1    2    0    0  0.41724222685E+01  0.21585622196E+02  0.36234864616E+02  0.91882843231E+02  0.81523881613E+02 0.  0.
        -11    1    5    5    0    0  0.23980380398E+02 -0.77240728099E+01 -0.15224922589E+02  0.29436681413E+02  0.00000000000E+00 0.  1.
         12    1    5    5    0    0 -0.19807958129E+02  0.29309695006E+02  0.51459787205E+02  0.62446161818E+02  0.00000000000E+00 0. -1.
        -11    1    4    4    0    0  0.10099231662E+03 -0.34251588510E+01  0.50591559115E+02  0.11300745808E+03  0.00000000000E+00 0.  1.
         12    1    4    4    0    0  0.14005106256E+03 -0.36369128622E+02  0.19286024392E+03  0.24110596701E+03  0.00000000000E+00 0. -1.
          5    1    3    3  501    0 -0.36043929770E+02  0.88895874415E+02 -0.80720473613E+02  0.12545726851E+03  0.47000000000E+01 0. -1.
         -5    1    3    3    0  501 -0.25361452804E+02  0.98086126963E+01 -0.20892918458E+03  0.21074369822E+03  0.47000000000E+01 0. -1.
          1    1    1    2  502    0 -0.72447319620E+02  0.14114723593E+02 -0.27150380026E+04  0.27160410886E+04  0.00000000000E+00 0. -1.
          1    1    1    2  503    0 -0.11136309926E+03 -0.94610545427E+02  0.12991522289E+04  0.13073444110E+04  0.00000000000E+00 0. -1.
<mgrwt>
<rscale>  0 0.10396702E+03</rscale>
<asrwt>0</asrwt>
<pdfrwt beam="1">  1        2 0.24850985E+00 0.14644652E+03</pdfrwt>
<pdfrwt beam="2">  1        2 0.45819349E+00 0.73809481E+02</pdfrwt>
<totfact> 0.51337132E+00</totfact>
</mgrwt>
</event>
<event>
13    1  0.3019759E-008  0.1642516E+03  0.7546771E-02  0.1438181E+00
          2   -1    0    0  502    0  0.00000000000E+00  0.00000000000E+00  0.53205150487E+03  0.53205150487E+03  0.00000000000E+00 0. -1.
          2   -1    0    0  503    0 -0.00000000000E+00 -0.00000000000E+00 -0.75771121535E+03  0.75771121535E+03  0.00000000000E+00 0. -1.
         25    2    1    2    0    0 -0.58148166343E+02  0.15594663313E+02 -0.50010118277E+03  0.51899521708E+03  0.12502175637E+03 0.  0.
         24    2    1    2    0    0  0.14669672870E+03  0.12546381217E+03  0.37952086612E+02  0.21227772364E+03  0.79751944797E+02 0.  0.
         24    2    1    2    0    0  0.21422691303E+02 -0.26816268758E+03  0.43944758306E+02  0.28372656306E+03  0.78736662956E+02 0.  0.
        -13    1    4    4    0    0  0.41028959021E+01 -0.75707578492E+01 -0.81829667755E+01  0.11879018244E+02  0.00000000000E+00 0.  1.
         14    1    4    4    0    0  0.14259383280E+03  0.13303457002E+03  0.46135053387E+02  0.20039870539E+03  0.00000000000E+00 0. -1.
        -13    1    5    5    0    0 -0.94977262178E+01 -0.14534421799E+03 -0.10148953405E+02  0.14600736201E+03  0.00000000000E+00 0.  1.
         14    1    5    5    0    0  0.30920417521E+02 -0.12281846959E+03  0.54093711711E+02  0.13771920105E+03  0.00000000000E+00 0. -1.
          5    1    3    3  501    0 -0.26497909197E+02  0.54596795556E+02 -0.41960663897E+03  0.42399855041E+03  0.47000000000E+01 0.  1.
         -5    1    3    3    0  501 -0.31650257146E+02 -0.39002132244E+02 -0.80494543799E+02  0.94996666670E+02  0.47000000000E+01 0.  1.
          1    1    1    2  502    0 -0.93929254820E+02  0.12645720626E+03  0.20197715336E+03  0.25614234403E+03  0.00000000000E+00 0. -1.
          1    1    1    2  503    0 -0.16041998839E+02  0.64700583071E+00 -0.94325259794E+01  0.18620872419E+02  0.00000000000E+00 0. -1.
<mgrwt>
<rscale>  0 0.51352365E+02</rscale>
<asrwt>0</asrwt>
<pdfrwt beam="1">  1        2 0.78242869E-01 0.16425155E+03</pdfrwt>
<pdfrwt beam="2">  1        2 0.11142812E+00 0.16055041E+02</pdfrwt>
<totfact> 0.42098456E+02</totfact>
</mgrwt>
</event>
<event>
13    1  0.3019759E-008  0.1377293E+03  0.7546771E-02  0.1397584E+00
          2   -1    0    0  503    0  0.00000000000E+00  0.00000000000E+00  0.77137421514E+03  0.77137421514E+03  0.00000000000E+00 0. -1.
         -3   -1    0    0    0  501 -0.00000000000E+00 -0.00000000000E+00 -0.43806942890E+04  0.43806942890E+04  0.00000000000E+00 0.  1.
         25    2    1    2    0    0  0.13925915795E+03  0.18172354112E+03 -0.20150206442E+04  0.20318340839E+04  0.12499995760E+03 0.  0.
         24    2    1    2    0    0 -0.96967686690E+01 -0.44894408630E+02 -0.28526761769E+03  0.30001113580E+03  0.80743622993E+02 0.  0.
         24    2    1    2    0    0 -0.11091236431E+02  0.79580966972E+02 -0.57435939857E+02  0.12812023800E+03  0.81607367117E+02 0.  0.
        -11    1    5    5    0    0 -0.33963313731E+02  0.10665410919E+02 -0.97033920644E-01  0.35598694993E+02  0.00000000000E+00 0.  1.
         12    1    5    5    0    0  0.22872077300E+02  0.68915556053E+02 -0.57338905937E+02  0.92521543005E+02  0.00000000000E+00 0. -1.
        -13    1    4    4    0    0 -0.92151444345E+00 -0.57400610622E+02 -0.27649911474E+03  0.28239589186E+03  0.00000000000E+00 0.  1.
         14    1    4    4    0    0 -0.87752542256E+01  0.12506201993E+02 -0.87685029447E+01  0.17615243935E+02  0.00000000000E+00 0. -1.
          5    1    3    3  502    0  0.31195483670E+02  0.31893154590E+01 -0.66639776629E+03  0.66715170902E+03  0.47000000000E+01 0. -1.
         -5    1    3    3    0  502  0.10806367428E+03  0.17853422566E+03 -0.13486228779E+04  0.13646823749E+04  0.47000000000E+01 0. -1.
          1    1    1    2  503    0 -0.10927220009E+03 -0.19188918247E+03  0.70323856730E+03  0.73709317905E+03  0.00000000000E+00 0. -1.
         -4    1    1    2    0  501 -0.91989527601E+01 -0.24520916987E+02 -0.19548344394E+04  0.19550098674E+04  0.00000000000E+00 0.  1.
<mgrwt>
<rscale>  0 0.60058956E+02</rscale>
<asrwt>0</asrwt>
<pdfrwt beam="1">  1        2 0.11343739E+00 0.13772932E+03</pdfrwt>
<pdfrwt beam="2">  1       -3 0.64421974E+00 0.26189618E+02</pdfrwt>
<totfact> 0.28702057E-02</totfact>
</mgrwt>
</event>
<event>
13    1  0.3019759E-008  0.8222302E+02  0.7546771E-02  0.1362148E+00
          2   -1    0    0  502    0  0.00000000000E+00  0.00000000000E+00  0.25092112477E+04  0.25092112477E+04  0.00000000000E+00 0. -1.
          2   -1    0    0  503    0 -0.00000000000E+00 -0.00000000000E+00 -0.96309518529E+03  0.96309518529E+03  0.00000000000E+00 0. -1.
         25    2    1    2    0    0  0.98458344123E+02 -0.12480812604E+02 -0.72427992560E+02  0.17524007541E+03  0.12495380632E+03 0.  0.
         24    2    1    2    0    0  0.12857477301E+02 -0.22633646156E+02  0.15175224009E+03  0.17320877724E+03  0.79340667257E+02 0.  0.
         24    2    1    2    0    0  0.33551820893E+02 -0.41686672780E+02  0.47826157491E+03  0.48785131596E+03  0.80007931350E+02 0.  0.
        -11    1    5    5    0    0  0.24382209320E+02  0.20484845311E+02  0.20483427830E+03  0.20729496517E+03  0.00000000000E+00 0.  1.
         12    1    5    5    0    0  0.91696115728E+01 -0.62171518091E+02  0.27342729661E+03  0.28055635079E+03  0.00000000000E+00 0. -1.
        -11    1    4    4    0    0 -0.19884243841E+02 -0.32950718138E+02  0.36830363924E+02  0.53269209547E+02  0.00000000000E+00 0.  1.
         12    1    4    4    0    0  0.32741721142E+02  0.10317071982E+02  0.11492187617E+03  0.11993956770E+03  0.00000000000E+00 0. -1.
          5    1    3    3  501    0  0.10647107246E+03  0.31909457819E+02 -0.35563383774E+02  0.11679532112E+03  0.47000000000E+01 0.  1.
         -5    1    3    3    0  501 -0.80127283388E+01 -0.44390270423E+02 -0.36864608786E+02  0.58444754295E+02  0.47000000000E+01 0.  1.
          1    1    1    2  502    0 -0.86307281020E+02  0.78141630013E+02  0.18093535774E+04  0.18130955378E+04  0.00000000000E+00 0. -1.
          1    1    1    2  503    0 -0.58560361296E+02 -0.13404984731E+01 -0.82082333737E+03  0.82291072664E+03  0.00000000000E+00 0. -1.
<mgrwt>
<rscale>  0 0.69399359E+02</rscale>
<asrwt>0</asrwt>
<pdfrwt beam="1">  1        2 0.36900165E+00 0.82223020E+02</pdfrwt>
<pdfrwt beam="2">  1        2 0.14163164E+00 0.58575702E+02</pdfrwt>
<totfact> 0.26138746E+01</totfact>
</mgrwt>
</event>
<event>
13    1  0.3019759E-008  0.6230145E+02  0.7546771E-02  0.1397892E+00
         -1   -1    0    0    0  501 -0.00000000000E+00  0.00000000000E+00  0.10783480769E+04  0.10783480769E+04  0.00000000000E+00 0.  1.
          2   -1    0    0  503    0  0.00000000000E+00 -0.00000000000E+00 -0.29152252614E+04  0.29152252614E+04  0.00000000000E+00 0. -1.
         25    2    1    2    0    0 -0.39687131519E+02 -0.46409823394E+02  0.21867343727E+02  0.14082820500E+03  0.12500184994E+03 0.  0.
         24    2    1    2    0    0 -0.11380052528E+02  0.49082936001E+01 -0.20837933205E+03  0.22415117141E+03  0.81659075926E+02 0.  0.
         24    2    1    2    0    0  0.45527913576E+02  0.12098869056E+02 -0.90532832766E+03  0.91021973452E+03  0.81617465663E+02 0.  0.
        -11    1    4    4    0    0  0.31861165841E+02  0.18860595653E+02 -0.99913396764E+02  0.10655300470E+03  0.00000000000E+00 0.  1.
         12    1    4    4    0    0 -0.43241218369E+02 -0.13952302053E+02 -0.10846593528E+03  0.11759816672E+03  0.00000000000E+00 0. -1.
        -13    1    5    5    0    0  0.66903887358E+02  0.84941952373E+01 -0.53121893942E+03  0.53548281307E+03  0.00000000000E+00 0.  1.
         14    1    5    5    0    0 -0.21375973782E+02  0.36046738185E+01 -0.37410938824E+03  0.37473692145E+03  0.00000000000E+00 0. -1.
          5    1    3    3  502    0  0.79761362137E+01 -0.57881178218E+02 -0.32863823073E+02  0.67200970289E+02  0.47000000000E+01 0.  1.
         -5    1    3    3    0  502 -0.47663267732E+02  0.11471354825E+02  0.54731166800E+02  0.73627234715E+02  0.47000000000E+01 0.  1.
          1    1    1    2  503    0 -0.51949635025E+02  0.34951779391E+02 -0.17302936039E+04  0.17314261022E+04  0.00000000000E+00 0. -1.
         -2    1    1    2    0  501  0.57488905496E+02 -0.55491186530E+01  0.98525673541E+03  0.98694812510E+03  0.00000000000E+00 0.  1.
<mgrwt>
<rscale>  0 0.59985737E+02</rscale>
<asrwt>0</asrwt>
<pdfrwt beam="2">  1        2 0.42870959E+00 0.62301448E+02</pdfrwt>
<pdfrwt beam="1">  1       -1 0.15858060E+00 0.57756099E+02</pdfrwt>
<totfact> 0.14468411E+00</totfact>
</mgrwt>
</event>
<event>
13    1  0.3019759E-008  0.1443315E+03  0.7546771E-02  0.1346148E+00
          2   -1    0    0  503    0  0.00000000000E+00  0.00000000000E+00  0.14564698334E+04  0.14564698334E+04  0.00000000000E+00 0. -1.
         -3   -1    0    0    0  501 -0.00000000000E+00 -0.00000000000E+00 -0.18419826205E+03  0.18419826205E+03  0.00000000000E+00 0.  1.
         25    2    1    2    0    0 -0.15325881683E+03  0.30525430553E+02  0.25917181626E+03  0.32743983094E+03  0.12500698260E+03 0.  0.
         24    2    1    2    0    0 -0.16987420322E+02 -0.76377482914E+01  0.28124764030E+03  0.29232153441E+03  0.77490235881E+02 0.  0.
         24    2    1    2    0    0 -0.10664295477E+02 -0.12391209833E+02  0.46015765740E+03  0.46852328636E+03  0.86612533275E+02 0.  0.
        -11    1    5    5    0    0 -0.36715252850E+02 -0.36635534299E+02  0.24353284966E+03  0.24899482129E+03  0.00000000000E+00 0.  1.
         12    1    5    5    0    0  0.26050957373E+02  0.24244324466E+02  0.21662480774E+03  0.21952846507E+03  0.00000000000E+00 0. -1.
        -13    1    4    4    0    0 -0.35043179125E+02 -0.52105044011E+01  0.55525779689E+02  0.65865666090E+02  0.00000000000E+00 0.  1.
         14    1    4    4    0    0  0.18055758803E+02 -0.24272438903E+01  0.22572186061E+03  0.22645586832E+03  0.00000000000E+00 0. -1.
          5    1    3    3  502    0 -0.11694793529E+03  0.68606270008E+02  0.23016324916E+03  0.26717195047E+03  0.47000000000E+01 0. -1.
         -5    1    3    3    0  502 -0.36310881532E+02 -0.38080839455E+02  0.29008567101E+02  0.60267880471E+02  0.47000000000E+01 0. -1.
          1    1    1    2  503    0  0.38169133902E+02 -0.19196706297E+01  0.37438607832E+03  0.37633164039E+03  0.00000000000E+00 0. -1.
         -4    1    1    2    0  501  0.14274139872E+03 -0.85768017985E+01 -0.10269162095E+03  0.17605180332E+03  0.00000000000E+00 0.  1.
<mgrwt>
<rscale>  0 0.74269593E+02</rscale>
<asrwt>0</asrwt>
<pdfrwt beam="1">  1        2 0.21418673E+00 0.38217377E+02</pdfrwt>
<pdfrwt beam="2">  1       -3 0.27087980E-01 0.14433153E+03</pdfrwt>
<totfact> 0.14225897E+02</totfact>
</mgrwt>
</event>
<event>
13    1  0.3019759E-008  0.1572665E+03  0.7546771E-02  0.1214647E+00
          2   -1    0    0  502    0  0.00000000000E+00  0.00000000000E+00  0.11556077222E+04  0.11556077222E+04  0.00000000000E+00 0. -1.
          2   -1    0    0  503    0 -0.00000000000E+00 -0.00000000000E+00 -0.23016031189E+04  0.23016031189E+04  0.00000000000E+00 0. -1.
         25    2    1    2    0    0 -0.89443229400E+02  0.19065846273E+03 -0.16538662980E+03  0.29551488646E+03  0.12500228041E+03 0.  0.
         24    2    1    2    0    0  0.75805185891E+02 -0.33396728328E+02 -0.95951736823E+02  0.15167475071E+03  0.83287012987E+02 0.  0.
         24    2    1    2    0    0  0.36272478711E+02  0.52848451380E+02  0.44352980195E+03  0.45519046760E+03  0.79818701135E+02 0.  0.
        -11    1    4    4    0    0  0.72221627180E+02 -0.45389098709E+02 -0.10568878127E+03  0.13581698053E+03  0.00000000000E+00 0.  1.
         12    1    4    4    0    0  0.35835587108E+01  0.11992370381E+02  0.97370444484E+01  0.15857770177E+02  0.00000000000E+00 0. -1.
        -13    1    5    5    0    0  0.61465115537E+02  0.30263208444E+02  0.30155110824E+03  0.30923598286E+03  0.00000000000E+00 0.  1.
         14    1    5    5    0    0 -0.25192636826E+02  0.22585242937E+02  0.14197869371E+03  0.14595448475E+03  0.00000000000E+00 0. -1.
          5    1    3    3  501    0  0.83691531046E+01  0.12576279469E+03 -0.10076623348E+03  0.16143805953E+03  0.47000000000E+01 0. -1.
         -5    1    3    3    0  501 -0.97812382505E+02  0.64895668038E+02 -0.64620396315E+02  0.13407682694E+03  0.47000000000E+01 0. -1.
          1    1    1    2  502    0  0.11377447144E+03 -0.20376404129E+02  0.60076149715E+03  0.61177953926E+03  0.00000000000E+00 0. -1.
          1    1    1    2  503    0 -0.13640890664E+03 -0.18973378166E+03 -0.19289483292E+04  0.19430511970E+04  0.00000000000E+00 0. -1.
<mgrwt>
<rscale>  0 0.13902512E+03</rscale>
<asrwt>0</asrwt>
<pdfrwt beam="1">  1        2 0.16994232E+00 0.12289957E+03</pdfrwt>
<pdfrwt beam="2">  1        2 0.33847104E+00 0.15726650E+03</pdfrwt>
<totfact> 0.23003001E+01</totfact>
</mgrwt>
</event>
<event>
13    1  0.3019759E-008  0.8313443E+02  0.7546771E-02  0.1568832E+00
          2   -1    0    0  503    0  0.00000000000E+00  0.00000000000E+00  0.52043038706E+03  0.52043038706E+03  0.00000000000E+00 0. -1.
          2   -1    0    0  502    0 -0.00000000000E+00 -0.00000000000E+00 -0.13334205222E+04  0.13334205222E+04  0.00000000000E+00 0. -1.
         25    2    1    2    0    0  0.25264183675E+02 -0.19956141171E+03 -0.26244927416E+03  0.35350912590E+03  0.12500417819E+03 0.  0.
         24    2    1    2    0    0 -0.66717520977E+01  0.47262532043E+02  0.78276543367E+02  0.12162088643E+03  0.79913475487E+02 0.  0.
         24    2    1    2    0    0 -0.86159152762E+02  0.86282273877E+02  0.31488969928E+03  0.34702924629E+03  0.80035896155E+02 0.  0.
        -11    1    4    4    0    0  0.35139460165E+02  0.17574677556E+02  0.20311378288E+02  0.44228984161E+02  0.00000000000E+00 0.  1.
         12    1    4    4    0    0 -0.41811212263E+02  0.29687854486E+02  0.57965165079E+02  0.77391902274E+02  0.00000000000E+00 0. -1.
        -13    1    5    5    0    0 -0.94162288883E+01  0.10508072424E+01 -0.22926972487E+01  0.97481292057E+01  0.00000000000E+00 0.  1.
         14    1    5    5    0    0 -0.76742923874E+02  0.85231466634E+02  0.31718239653E+03  0.33728111708E+03  0.00000000000E+00 0. -1.
          5    1    3    3  501    0  0.28775626212E+02 -0.85804343978E+02 -0.20876151722E+03  0.22758269526E+03  0.47000000000E+01 0. -1.
         -5    1    3    3    0  501 -0.35114425363E+01 -0.11375706773E+03 -0.53687756939E+02  0.12592643064E+03  0.47000000000E+01 0. -1.
          1    1    1    2  502    0  0.63359730680E+02  0.53759684424E+02 -0.98495613854E+03  0.98845493271E+03  0.00000000000E+00 0. -1.
          1    1    1    2  503    0  0.42069905041E+01  0.12256921368E+02  0.41249034945E+02  0.43236717896E+02  0.00000000000E+00 0. -1.
<mgrwt>
<rscale>  0 0.32822609E+02</rscale>
<asrwt>0</asrwt>
<pdfrwt beam="1">  1        2 0.76533881E-01 0.12958815E+02</pdfrwt>
<pdfrwt beam="2">  1        2 0.19609125E+00 0.83134427E+02</pdfrwt>
<totfact> 0.19795110E+02</totfact>
</mgrwt>
</event>
<event>
13    1  0.3019759E-008  0.5865831E+02  0.7546771E-02  0.1407214E+00
          2   -1    0    0  503    0  0.00000000000E+00  0.00000000000E+00  0.45852823730E+03  0.45852823730E+03  0.00000000000E+00 0. -1.
          2   -1    0    0  502    0 -0.00000000000E+00 -0.00000000000E+00 -0.89468166292E+03  0.89468166292E+03  0.00000000000E+00 0. -1.
         25    2    1    2    0    0 -0.26830083367E+02  0.10022564878E+03 -0.20476366275E+03  0.26137941242E+03  0.12500402236E+03 0.  0.
         24    2    1    2    0    0  0.31793497412E+01 -0.15650746330E+03  0.74665128438E+02  0.19024008933E+03  0.78177463820E+02 0.  0.
         24    2    1    2    0    0  0.10613023766E+03  0.59797599233E+02  0.92813205714E+02  0.17321707690E+03  0.80935062590E+02 0.  0.
        -11    1    5    5    0    0  0.84300374847E+02  0.47660889913E+01  0.70328591963E+02  0.10988803234E+03  0.00000000000E+00 0.  1.
         12    1    5    5    0    0  0.21829862808E+02  0.55031510242E+02  0.22484613751E+02  0.63329044563E+02  0.00000000000E+00 0. -1.
        -13    1    4    4    0    0 -0.24131701421E+02 -0.11799243934E+02  0.49712494964E+01  0.27318025046E+02  0.00000000000E+00 0.  1.
         14    1    4    4    0    0  0.27311051162E+02 -0.14470821936E+03  0.69693878942E+02  0.16292206428E+03  0.00000000000E+00 0. -1.
          5    1    3    3  501    0 -0.76702685409E+02  0.55869955084E+02 -0.10959893817E+03  0.14504747870E+03  0.47000000000E+01 0. -1.
         -5    1    3    3    0  501  0.49872602042E+02  0.44355693697E+02 -0.95164724587E+02  0.11633193372E+03  0.47000000000E+01 0. -1.
          1    1    1    2  502    0 -0.44123965067E+02  0.38640950817E+02 -0.55710564264E+03  0.56018456283E+03  0.00000000000E+00 0. -1.
          1    1    1    2  503    0 -0.38355538963E+02 -0.42156735534E+02  0.15823754562E+03  0.16818875873E+03  0.00000000000E+00 0. -1.
<mgrwt>
<rscale>  0 0.57820262E+02</rscale>
<asrwt>0</asrwt>
<pdfrwt beam="1">  1        2 0.67430624E-01 0.56994190E+02</pdfrwt>
<pdfrwt beam="2">  1        2 0.13157083E+00 0.58658306E+02</pdfrwt>
<totfact> 0.39394544E+02</totfact>
</mgrwt>
</event>
<event>
13    1  0.3019759E-008  0.7302888E+02  0.7546771E-02  0.1414834E+00
          2   -1    0    0  503    0  0.00000000000E+00  0.00000000000E+00  0.77184750248E+03  0.77184750248E+03  0.00000000000E+00 0. -1.
          2   -1    0    0  502    0 -0.00000000000E+00 -0.00000000000E+00 -0.40789359470E+04  0.40789359470E+04  0.00000000000E+00 0. -1.
         25    2    1    2    0    0 -0.14439579709E+03  0.64909150549E+02 -0.17918710542E+04  0.18031887185E+04  0.12499734239E+03 0.  0.
         24    2    1    2    0    0  0.71178311291E+02  0.22863331711E+02  0.10802894779E+03  0.15462112534E+03  0.81537444803E+02 0.  0.
         24    2    1    2    0    0  0.51670931562E+01  0.62669729057E+01  0.71826514727E+02  0.10871786975E+03  0.81206854288E+02 0.  0.
        -11    1    4    4    0    0  0.42476597931E+02 -0.28405844459E+02  0.59368574265E+02  0.78331226095E+02  0.00000000000E+00 0.  1.
         12    1    4    4    0    0  0.28701713360E+02  0.51269176170E+02  0.48660373522E+02  0.76289899242E+02  0.00000000000E+00 0. -1.
        -13    1    5    5    0    0  0.10763261676E+02 -0.36564311433E+02  0.38342692276E+02  0.54064394229E+02  0.00000000000E+00 0.  1.
         14    1    5    5    0    0 -0.55961685196E+01  0.42831284338E+02  0.33483822452E+02  0.54653475518E+02  0.00000000000E+00 0. -1.
          5    1    3    3  501    0  0.14695669666E+01  0.13456725864E+02 -0.72616756403E+03  0.72630893162E+03  0.47000000000E+01 0. -1.
         -5    1    3    3    0  501 -0.14586536405E+03  0.51452424685E+02 -0.10657034902E+04  0.10768797869E+04  0.47000000000E+01 0. -1.
          1    1    1    2  502    0  0.26358353450E+02 -0.34150899930E+02 -0.22370109650E+04  0.22374268937E+04  0.00000000000E+00 0. -1.
          1    1    1    2  503    0  0.41692039191E+02 -0.59888555237E+02  0.54193811223E+03  0.54682884220E+03  0.00000000000E+00 0. -1.
<mgrwt>
<rscale>  0 0.56128916E+02</rscale>
<asrwt>0</asrwt>
<pdfrwt beam="1">  1        2 0.11350698E+00 0.73028884E+02</pdfrwt>
<pdfrwt beam="2">  1        2 0.59984353E+00 0.43139851E+02</pdfrwt>
<totfact> 0.50387405E+00</totfact>
</mgrwt>
</event>
<event>
13    1  0.3019759E-008  0.7560319E+02  0.7546771E-02  0.1429861E+00
          2   -1    0    0  502    0  0.00000000000E+00  0.00000000000E+00  0.18094301507E+04  0.18094301507E+04  0.00000000000E+00 0. -1.
          2   -1    0    0  503    0 -0.00000000000E+00 -0.00000000000E+00 -0.14370672880E+04  0.14370672880E+04  0.00000000000E+00 0. -1.
         25    2    1    2    0    0 -0.11823580537E+03  0.96848263558E+02 -0.24120361342E+03  0.31170987971E+03  0.12499829661E+03 0.  0.
         24    2    1    2    0    0  0.45515786480E+02  0.22976356298E+02 -0.11406802668E+02  0.10127525881E+03  0.86758072432E+02 0.  0.
         24    2    1    2    0    0  0.42199571379E+02 -0.34662106342E+02  0.11061739925E+03  0.14729889645E+03  0.80489070301E+02 0.  0.
        -13    1    4    4    0    0  0.13395238633E+02  0.54160951383E+02 -0.44561740189E+01  0.55970515092E+02  0.00000000000E+00 0.  1.
         14    1    4    4    0    0  0.32120547847E+02 -0.31184595085E+02 -0.69506286486E+01  0.45304743717E+02  0.00000000000E+00 0. -1.
        -13    1    5    5    0    0  0.42180270618E+02 -0.55091520380E+02  0.56583107322E+02  0.89531552435E+02  0.00000000000E+00 0.  1.
         14    1    5    5    0    0  0.19300761748E-01  0.20429414038E+02  0.54034291930E+02  0.57767344017E+02  0.00000000000E+00 0. -1.
          5    1    3    3  501    0  0.24756648443E+02  0.29356993568E+02 -0.57195313142E+02  0.69051564493E+02  0.47000000000E+01 0.  1.
         -5    1    3    3    0  501 -0.14299245381E+03  0.67491269990E+02 -0.18400830028E+03  0.24265831521E+03  0.47000000000E+01 0.  1.
          1    1    1    2  502    0 -0.53104592987E+01 -0.75398037280E+02  0.15990741796E+04  0.16008595494E+04  0.00000000000E+00 0. -1.
          1    1    1    2  503    0  0.35830906809E+02 -0.97644762332E+01 -0.10847183000E+04  0.10853538544E+04  0.00000000000E+00 0. -1.
<mgrwt>
<rscale>  0 0.52987910E+02</rscale>
<asrwt>0</asrwt>
<pdfrwt beam="1">  1        2 0.26609267E+00 0.75603192E+02</pdfrwt>
<pdfrwt beam="2">  1        2 0.21133342E+00 0.37137567E+02</pdfrwt>
<totfact> 0.33639903E+01</totfact>
</mgrwt>
</event>
<event>
13    1  0.3019759E-008  0.8884666E+02  0.7546771E-02  0.1497058E+00
         -1   -1    0    0    0  501  0.00000000000E+00  0.00000000000E+00  0.77210442682E+03  0.77210442682E+03  0.00000000000E+00 0.  1.
         -1   -1    0    0    0  502 -0.00000000000E+00 -0.00000000000E+00 -0.12802517155E+04  0.12802517155E+04  0.00000000000E+00 0.  1.
         25    2    1    2    0    0  0.43747739141E+01  0.19636856337E+03 -0.16050505678E+03  0.28278217929E+03  0.12499654533E+03 0.  0.
         24    2    1    2    0    0 -0.20623625178E+02 -0.22259828309E+03 -0.15204139865E+03  0.28226353489E+03  0.81122048026E+02 0.  0.
         24    2    1    2    0    0  0.89792418259E+02  0.29048792652E+02  0.12660646318E+03  0.17722347906E+03  0.80451564802E+02 0.  0.
        -13    1    4    4    0    0 -0.21927843635E+02 -0.22065862518E+03 -0.12387465903E+03  0.25399998099E+03  0.00000000000E+00 0.  1.
         14    1    4    4    0    0  0.13042184565E+01 -0.19396579096E+01 -0.28166739612E+02  0.28263553898E+02  0.00000000000E+00 0. -1.
        -13    1    5    5    0    0  0.24971587076E+02  0.49880545031E+02  0.52784738747E+02  0.76797640447E+02  0.00000000000E+00 0.  1.
         14    1    5    5    0    0  0.64820831184E+02 -0.20831752378E+02  0.73821724433E+02  0.10042583861E+03  0.00000000000E+00 0. -1.
          5    1    3    3  503    0 -0.46330139146E+02  0.75006629070E+02 -0.11177853838E+03  0.14243948835E+03  0.47000000000E+01 0.  1.
         -5    1    3    3    0  503  0.50704913060E+02  0.12136193430E+03 -0.48726518395E+02  0.14034269094E+03  0.47000000000E+01 0.  1.
         -2    1    1    2    0  501  0.13921645998E+02  0.13565000113E+02  0.49132147790E+03  0.49170582272E+03  0.00000000000E+00 0.  1.
         -2    1    1    2    0  502 -0.87465212994E+02 -0.16384073046E+02 -0.81352877435E+03  0.81838112639E+03  0.00000000000E+00 0.  1.
<mgrwt>
<rscale>  0 0.41556810E+02</rscale>
<asrwt>0</asrwt>
<pdfrwt beam="1">  1       -1 0.11354477E+00 0.19437630E+02</pdfrwt>
<pdfrwt beam="2">  1       -1 0.18827231E+00 0.88846659E+02</pdfrwt>
<totfact> 0.16107066E+00</totfact>
</mgrwt>
</event>
<event>
13    1  0.3019759E-008  0.6205281E+02  0.7546771E-02  0.1450442E+00
          2   -1    0    0  503    0  0.00000000000E+00  0.00000000000E+00  0.36268432791E+04  0.36268432791E+04  0.00000000000E+00 0. -1.
         -3   -1    0    0    0  501 -0.00000000000E+00 -0.00000000000E+00 -0.18635084373E+03  0.18635084373E+03  0.00000000000E+00 0.  1.
         25    2    1    2    0    0  0.58307460931E+02 -0.10794895781E+03  0.15658321033E+01  0.17515951970E+03  0.12500267206E+03 0.  0.
         24    2    1    2    0    0  0.38876152087E+01  0.34734155832E+02  0.15782863623E+03  0.18025862857E+03  0.79760388823E+02 0.  0.
         24    2    1    2    0    0 -0.23009328495E+02  0.30974379270E+02  0.15256377540E+04  0.15282572388E+04  0.80689467789E+02 0.  0.
        -11    1    5    5    0    0 -0.13394058781E+02 -0.27214244506E+02  0.55805562549E+03  0.55887932245E+03  0.00000000000E+00 0.  1.
         12    1    5    5    0    0 -0.96152697139E+01  0.58188623776E+02  0.96758212849E+03  0.96937791635E+03  0.00000000000E+00 0. -1.
        -11    1    4    4    0    0  0.14625988934E+01  0.27902071717E+02  0.64096043915E+01  0.28666144319E+02  0.00000000000E+00 0.  1.
         12    1    4    4    0    0  0.24250163153E+01  0.68320841147E+01  0.15141903184E+03  0.15159248425E+03  0.00000000000E+00 0. -1.
          5    1    3    3  502    0  0.25841329664E+02 -0.28397107177E+02  0.59825948541E+02  0.71241870649E+02  0.47000000000E+01 0.  1.
         -5    1    3    3    0  502  0.32466131266E+02 -0.79551850629E+02 -0.58260116437E+02  0.10391764906E+03  0.47000000000E+01 0.  1.
          1    1    1    2  503    0 -0.33454372147E+02 -0.19649294135E+02  0.18311603468E+04  0.18315713214E+04  0.00000000000E+00 0. -1.
         -4    1    1    2    0  501 -0.57313754975E+01  0.61889716839E+02 -0.75700133767E+02  0.97947414299E+02  0.00000000000E+00 0.  1.
<mgrwt>
<rscale>  0 0.49066576E+02</rscale>
<asrwt>0</asrwt>
<pdfrwt beam="1">  1        2 0.53335926E+00 0.38798064E+02</pdfrwt>
<pdfrwt beam="2">  1       -3 0.27404538E-01 0.62052809E+02</pdfrwt>
<totfact> 0.11069850E+01</totfact>
</mgrwt>
</event>
<event>
13    1  0.3019759E-008  0.7343653E+02  0.7546771E-02  0.1355066E+00
          2   -1    0    0  503    0  0.00000000000E+00  0.00000000000E+00  0.24386074620E+04  0.24386074620E+04  0.00000000000E+00 0. -1.
          2   -1    0    0  502    0 -0.00000000000E+00 -0.00000000000E+00 -0.23474859119E+04  0.23474859119E+04  0.00000000000E+00 0. -1.
         25    2    1    2    0    0  0.48518987954E+02  0.29422318314E+03 -0.17398045602E+03  0.36717190136E+03  0.12499852952E+03 0.  0.
         24    2    1    2    0    0 -0.54844250846E+02 -0.17441527188E+03  0.11587507653E+03  0.23108568623E+03  0.80901063665E+02 0.  0.
         24    2    1    2    0    0  0.36358790749E+02 -0.18006570377E+02  0.26230962901E+02  0.94065040025E+02  0.80709169856E+02 0.  0.
        -11    1    4    4    0    0 -0.51119729774E+02 -0.17606949009E+03  0.88814002109E+02  0.20371946172E+03  0.00000000000E+00 0.  1.
         12    1    4    4    0    0 -0.37245210721E+01  0.16542182090E+01  0.27061074416E+02  0.27366224505E+02  0.00000000000E+00 0. -1.
        -11    1    5    5    0    0 -0.20364842549E+02 -0.24762287140E+01 -0.12145259957E+02  0.23840424914E+02  0.00000000000E+00 0.  1.
         12    1    5    5    0    0  0.56723633297E+02 -0.15530341663E+02  0.38376222858E+02  0.70224615111E+02  0.00000000000E+00 0. -1.
          5    1    3    3  501    0 -0.75606438100E+01  0.59786041123E+02 -0.96616445155E+02  0.11396649298E+03  0.47000000000E+01 0. -1.
         -5    1    3    3    0  501  0.56079631764E+02  0.23443714202E+03 -0.77364010870E+02  0.25320540838E+03  0.47000000000E+01 0. -1.
          1    1    1    2  502    0 -0.60245041639E+02 -0.34880787086E+02 -0.19841375375E+04  0.19853583813E+04  0.00000000000E+00 0. -1.
          1    1    1    2  503    0  0.30211513782E+02 -0.66920553795E+02  0.21071335042E+04  0.21084123649E+04  0.00000000000E+00 0. -1.
<mgrwt>
<rscale>  0 0.71499818E+02</rscale>
<asrwt>0</asrwt>
<pdfrwt beam="1">  1        2 0.35861875E+00 0.73436529E+02</pdfrwt>
<pdfrwt beam="2">  1        2 0.34521852E+00 0.69614182E+02</pdfrwt>
<totfact> 0.59077254E+00</totfact>
</mgrwt>
</event>
<event>
13    1  0.3019759E-008  0.1576647E+03  0.7546771E-02  0.1310974E+00
          2   -1    0    0  503    0  0.00000000000E+00  0.00000000000E+00  0.40185836295E+03  0.40185836295E+03  0.00000000000E+00 0. -1.
          2   -1    0    0  502    0 -0.00000000000E+00 -0.00000000000E+00 -0.29725828891E+04  0.29725828891E+04  0.00000000000E+00 0. -1.
         25    2    1    2    0    0 -0.11680498634E+03 -0.86394776356E+02 -0.16888482533E+04  0.16996874170E+04  0.12498572204E+03 0.  0.
         24    2    1    2    0    0 -0.44602905840E+02 -0.49620719908E+02 -0.51460137599E+03  0.52579509014E+03  0.84819016686E+02 0.  0.
         24    2    1    2    0    0 -0.71075948455E+02  0.32902977061E+02 -0.65410906215E+02  0.13019871958E+03  0.80862374319E+02 0.  0.
        -11    1    5    5    0    0 -0.16102510627E+02  0.51867081356E+02 -0.34507824202E+02  0.64344968009E+02  0.00000000000E+00 0.  1.
         12    1    5    5    0    0 -0.54973437828E+02 -0.18964104295E+02 -0.30903082014E+02  0.65853751573E+02  0.00000000000E+00 0. -1.
        -11    1    4    4    0    0 -0.29924446058E+02 -0.68219013908E+02 -0.46375075376E+03  0.46969571847E+03  0.00000000000E+00 0.  1.
         12    1    4    4    0    0 -0.14678459782E+02  0.18598294000E+02 -0.50850622223E+02  0.56099371670E+02  0.00000000000E+00 0. -1.
          5    1    3    3  501    0 -0.27657057739E+02  0.32340019504E+02 -0.41783815012E+03  0.42002571278E+03  0.47000000000E+01 0.  1.
         -5    1    3    3    0  501 -0.89147928602E+02 -0.11873479586E+03 -0.12710101032E+04  0.12796617043E+04  0.47000000000E+01 0.  1.
          1    1    1    2  502    0 -0.33620862313E+02  0.33847548539E+02 -0.60650328144E+03  0.60837673305E+03  0.00000000000E+00 0. -1.
          1    1    1    2  503    0  0.26610470295E+03  0.69264970663E+02  0.30463929077E+03  0.41038329227E+03  0.00000000000E+00 0. -1.
<mgrwt>
<rscale>  0 0.86728375E+02</rscale>
<asrwt>0</asrwt>
<pdfrwt beam="1">  1        2 0.59096819E-01 0.15766471E+03</pdfrwt>
<pdfrwt beam="2">  1        2 0.43714453E+00 0.47707640E+02</pdfrwt>
<totfact> 0.43790181E+01</totfact>
</mgrwt>
</event>
<event>
13    1  0.3019759E-008  0.9166767E+02  0.7546771E-02  0.1333623E+00
          2   -1    0    0  503    0  0.00000000000E+00  0.00000000000E+00  0.16528405645E+04  0.16528405645E+04  0.00000000000E+00 0. -1.
          2   -1    0    0  502    0 -0.00000000000E+00 -0.00000000000E+00 -0.17514425188E+04  0.17514425188E+04  0.00000000000E+00 0. -1.
         25    2    1    2    0    0 -0.21846080688E+02  0.97915790755E+02 -0.30991709248E+03  0.34891034448E+03  0.12500028381E+03 0.  0.
         24    2    1    2    0    0 -0.24552976080E+01 -0.33949536370E+02  0.79546145742E+01  0.89209151735E+02  0.82075558812E+02 0.  0.
         24    2    1    2    0    0  0.30662496043E+02  0.84405968186E+02  0.17892472126E+03  0.21633688698E+03  0.81994125759E+02 0.  0.
        -13    1    4    4    0    0 -0.61921706806E+01  0.26560177819E+02 -0.35490419685E+01  0.27502394849E+02  0.00000000000E+00 0.  1.
         14    1    4    4    0    0  0.37368730725E+01 -0.60509714189E+02  0.11503656543E+02  0.61706756886E+02  0.00000000000E+00 0. -1.
        -13    1    5    5    0    0  0.16439124920E+02  0.78173149726E+01  0.11250010445E+03  0.11396327804E+03  0.00000000000E+00 0.  1.
         14    1    5    5    0    0  0.14223371123E+02  0.76588653213E+02  0.66424616814E+02  0.10237360893E+03  0.00000000000E+00 0. -1.
          5    1    3    3  501    0  0.12670346407E+02  0.11648403357E+03 -0.19662290301E+03  0.22893606912E+03  0.47000000000E+01 0. -1.
         -5    1    3    3    0  501 -0.34516427095E+02 -0.18568242817E+02 -0.11329418947E+03  0.11997427536E+03  0.47000000000E+01 0. -1.
          1    1    1    2  502    0  0.24499592760E+02 -0.62436152927E+02 -0.13603657147E+04  0.13620181279E+04  0.00000000000E+00 0. -1.
          1    1    1    2  503    0 -0.30860710506E+02 -0.85936069644E+02  0.13848015170E+04  0.13878085722E+04  0.00000000000E+00 0. -1.
<mgrwt>
<rscale>  0 0.78410660E+02</rscale>
<asrwt>0</asrwt>
<pdfrwt beam="1">  1        2 0.24306479E+00 0.91667671E+02</pdfrwt>
<pdfrwt beam="2">  1        2 0.25756508E+00 0.67070882E+02</pdfrwt>
<totfact> 0.26489161E+01</totfact>
</mgrwt>
</event>
<event>
13    1  0.3019759E-008  0.2243889E+03  0.7546771E-02  0.1220207E+00
          2   -1    0    0  503    0  0.00000000000E+00  0.00000000000E+00  0.32542149213E+03  0.32542149213E+03  0.00000000000E+00 0. -1.
          2   -1    0    0  502    0 -0.00000000000E+00 -0.00000000000E+00 -0.35012159627E+04  0.35012159627E+04  0.00000000000E+00 0. -1.
         25    2    1    2    0    0 -0.18996866710E+03 -0.13869598616E+03 -0.94833447321E+03  0.98503157996E+03  0.12499707750E+03 0.  0.
         24    2    1    2    0    0 -0.18751015185E+01 -0.54051233566E+02 -0.12076195161E+03  0.15646071792E+03  0.83495242024E+02 0.  0.
         24    2    1    2    0    0 -0.50484981016E+01  0.23485882458E+02  0.11656221778E+03  0.14333044871E+03  0.79873605811E+02 0.  0.
        -13    1    4    4    0    0  0.92971796660E+01  0.19541706758E+02 -0.12235524329E+02  0.24860086653E+02  0.00000000000E+00 0.  1.
         14    1    4    4    0    0 -0.11172281185E+02 -0.73592940324E+02 -0.10852642728E+03  0.13160063127E+03  0.00000000000E+00 0. -1.
        -13    1    5    5    0    0  0.16123597508E+02 -0.16415633087E+02  0.58260356946E+01  0.23735755690E+02  0.00000000000E+00 0.  1.
         14    1    5    5    0    0 -0.21172095610E+02  0.39901515545E+02  0.11073618209E+03  0.11959469302E+03  0.00000000000E+00 0. -1.
          5    1    3    3  501    0 -0.35968022296E+02 -0.28668289582E+02 -0.54982706706E+02  0.71838412373E+02  0.47000000000E+01 0. -1.
         -5    1    3    3    0  501 -0.15400064480E+03 -0.11002769657E+03 -0.89335176650E+03  0.91319316758E+03  0.47000000000E+01 0. -1.
          1    1    1    2  502    0  0.20428539018E+03  0.88367436020E+02 -0.23666076685E+04  0.23770513627E+04  0.00000000000E+00 0. -1.
          1    1    1    2  503    0 -0.73931234569E+01  0.80893901244E+02  0.14334740493E+03  0.16476334554E+03  0.00000000000E+00 0. -1.
<mgrwt>
<rscale>  0 0.13500869E+03</rscale>
<asrwt>0</asrwt>
<pdfrwt beam="1">  1        2 0.47856102E-01 0.81231038E+02</pdfrwt>
<pdfrwt beam="2">  1        2 0.51488470E+00 0.22438894E+03</pdfrwt>
<totfact> 0.21449274E+01</totfact>
</mgrwt>
</event>
<event>
13    1  0.3019759E-008  0.4463770E+02  0.7546771E-02  0.1494981E+00
          2   -1    0    0  502    0  0.00000000000E+00  0.00000000000E+00  0.73902146246E+03  0.73902146246E+03  0.00000000000E+00 0. -1.
          2   -1    0    0  503    0 -0.00000000000E+00 -0.00000000000E+00 -0.98485742202E+03  0.98485742202E+03  0.00000000000E+00 0. -1.
         25    2    1    2    0    0 -0.53043943479E+02 -0.11485240174E+03 -0.95827235930E+02  0.20202368561E+03  0.12500390504E+03 0.  0.
         24    2    1    2    0    0  0.62811534870E+02  0.14161174176E+03 -0.60773568706E+02  0.19772528323E+03  0.10678336321E+03 0.  0.
         24    2    1    2    0    0 -0.13511690409E+02 -0.17853632847E+02  0.22761456193E+03  0.24269552889E+03  0.81187517241E+02 0.  0.
        -11    1    4    4    0    0  0.68113939292E+02  0.74784773451E+02  0.82689288873E+01  0.10149209945E+03  0.00000000000E+00 0.  1.
         12    1    4    4    0    0 -0.53024044219E+01  0.66826968307E+02 -0.69042497593E+02  0.96233183776E+02  0.00000000000E+00 0. -1.
        -13    1    5    5    0    0 -0.40579664120E+02 -0.32461302480E+02  0.16398299188E+03  0.17201996083E+03  0.00000000000E+00 0.  1.
         14    1    5    5    0    0  0.27067973711E+02  0.14607669633E+02  0.63631570055E+02  0.70675568060E+02  0.00000000000E+00 0. -1.
          5    1    3    3  501    0 -0.76719753909E+02 -0.58151491985E+02 -0.10170436538E+03  0.14011917998E+03  0.47000000000E+01 0. -1.
         -5    1    3    3    0  501  0.23675810430E+02 -0.56700909759E+02  0.58771294547E+01  0.61904505633E+02  0.47000000000E+01 0. -1.
          1    1    1    2  502    0 -0.39030580506E+02  0.41230298932E+01  0.38056712110E+03  0.38258557115E+03  0.00000000000E+00 0. -1.
          1    1    1    2  503    0  0.42774679524E+02 -0.13028737060E+02 -0.69741683795E+03  0.69884881559E+03  0.00000000000E+00 0. -1.
<mgrwt>
<rscale>  0 0.41856050E+02</rscale>
<asrwt>0</asrwt>
<pdfrwt beam="1">  1        2 0.10867963E+00 0.39247746E+02</pdfrwt>
<pdfrwt beam="2">  1        2 0.14483197E+00 0.44637695E+02</pdfrwt>
<totfact> 0.21347232E+02</totfact>
</mgrwt>
</event>
<event>
13    1  0.3019759E-008  0.3413511E+02  0.7546771E-02  0.1568910E+00
          2   -1    0    0  502    0  0.00000000000E+00  0.00000000000E+00  0.17097150938E+04  0.17097150938E+04  0.00000000000E+00 0. -1.
          2   -1    0    0  503    0 -0.00000000000E+00 -0.00000000000E+00 -0.94875150506E+03  0.94875150506E+03  0.00000000000E+00 0. -1.
         25    2    1    2    0    0 -0.10488524396E+03  0.10597597608E+03 -0.31745822323E+03  0.37234072981E+03  0.12500429464E+03 0.  0.
         24    2    1    2    0    0  0.39705206285E+02 -0.58572219855E+02  0.31480146470E+03  0.33254865043E+03  0.80507356050E+02 0.  0.
         24    2    1    2    0    0  0.36284074485E+02 -0.16318603472E+01  0.52325108277E+03  0.53041181251E+03  0.78903727459E+02 0.  0.
        -11    1    5    5    0    0  0.60370077697E+02 -0.16747114522E+01  0.42402404059E+03  0.42830332469E+03  0.00000000000E+00 0.  1.
         12    1    5    5    0    0 -0.24086003211E+02  0.42851104919E-01  0.99227042171E+02  0.10210848782E+03  0.00000000000E+00 0. -1.
        -13    1    4    4    0    0 -0.12847540386E+02  0.11941764831E+02  0.77906464991E+02  0.79856636097E+02  0.00000000000E+00 0.  1.
         14    1    4    4    0    0  0.52552746671E+02 -0.70513984686E+02  0.23689499971E+03  0.25269201433E+03  0.00000000000E+00 0. -1.
          5    1    3    3  501    0 -0.57451652228E+01  0.50528911370E+02 -0.20923392621E+03  0.21537665538E+03  0.47000000000E+01 0.  1.
         -5    1    3    3    0  501 -0.99140078736E+02  0.55447064710E+02 -0.10822429702E+03  0.15696407443E+03  0.47000000000E+01 0.  1.
          1    1    1    2  502    0  0.29316973366E+02 -0.11645711395E+02  0.83097543306E+03  0.83157397619E+03  0.00000000000E+00 0. -1.
          1    1    1    2  503    0 -0.42101017823E+00 -0.34126184481E+02 -0.59060616851E+03  0.59159142996E+03  0.00000000000E+00 0. -1.
<mgrwt>
<rscale>  0 0.32814680E+02</rscale>
<asrwt>0</asrwt>
<pdfrwt beam="1">  1        2 0.25142869E+00 0.31545325E+02</pdfrwt>
<pdfrwt beam="2">  1        2 0.13952228E+00 0.34135113E+02</pdfrwt>
<totfact> 0.72589803E+01</totfact>
</mgrwt>
</event>
<event>
13    1  0.3019759E-008  0.1144875E+03  0.7546771E-02  0.1330260E+00
          2   -1    0    0  503    0  0.00000000000E+00  0.00000000000E+00  0.13813293391E+04  0.13813293391E+04  0.00000000000E+00 0. -1.
         -1   -1    0    0    0  501 -0.00000000000E+00 -0.00000000000E+00 -0.11895904825E+04  0.11895904825E+04  0.00000000000E+00 0.  1.
         25    2    1    2    0    0 -0.55670227883E+02 -0.10766304752E+03 -0.14531822429E+03  0.22678585917E+03  0.12499573407E+03 0.  0.
         24    2    1    2    0    0 -0.54743186802E+02  0.35611256080E+02  0.25413211878E+03  0.27436672862E+03  0.80180982248E+02 0.  0.
         24    2    1    2    0    0  0.46965768841E+02 -0.41413159642E+02  0.50626672802E+03  0.51472418374E+03  0.68659683863E+02 0.  0.
        -11    1    5    5    0    0  0.57037287900E+02 -0.51041242815E+02  0.46257216447E+03  0.46886188587E+03  0.00000000000E+00 0.  1.
         12    1    5    5    0    0 -0.10071519059E+02  0.96280831725E+01  0.43694563552E+02  0.45862297868E+02  0.00000000000E+00 0. -1.
        -11    1    4    4    0    0  0.20750596786E+02  0.10897931588E+02  0.46873726535E+02  0.52407045511E+02  0.00000000000E+00 0.  1.
         12    1    4    4    0    0 -0.75493783588E+02  0.24713324493E+02  0.20725839225E+03  0.22195968310E+03  0.00000000000E+00 0. -1.
          5    1    3    3  502    0 -0.58222330980E+01 -0.43910147913E+02  0.15113184713E+02  0.47037196346E+02  0.47000000000E+01 0. -1.
         -5    1    3    3    0  502 -0.49847994785E+02 -0.63752899609E+02 -0.16043140900E+03  0.17974866282E+03  0.47000000000E+01 0. -1.
          1    1    1    2  503    0 -0.29963002533E+02  0.46490885001E+02  0.56114757306E+03  0.56386681287E+03  0.00000000000E+00 0. -1.
         -2    1    1    2    0  501  0.93410648377E+02  0.66974066083E+02 -0.98448933899E+03  0.99117623728E+03  0.00000000000E+00 0.  1.
<mgrwt>
<rscale>  0 0.79575699E+02</rscale>
<asrwt>0</asrwt>
<pdfrwt beam="1">  1        2 0.20313667E+00 0.55309890E+02</pdfrwt>
<pdfrwt beam="2">  1       -1 0.17493978E+00 0.11448752E+03</pdfrwt>
<totfact> 0.58631445E+00</totfact>
</mgrwt>
</event>
<event>
13    1  0.3019759E-008  0.3587730E+03  0.7546771E-02  0.1192649E+00
          2   -1    0    0  503    0  0.00000000000E+00  0.00000000000E+00  0.19813780723E+04  0.19813780723E+04  0.00000000000E+00 0. -1.
          2   -1    0    0  502    0 -0.00000000000E+00 -0.00000000000E+00 -0.12067106663E+04  0.12067106663E+04  0.00000000000E+00 0. -1.
         25    2    1    2    0    0 -0.19543392568E+03  0.26509241067E+03  0.13901252346E+03  0.37872419152E+03  0.12505649149E+03 0.  0.
         24    2    1    2    0    0 -0.10738131891E+03 -0.63462603589E+01 -0.16501827134E+02  0.13523407581E+03  0.80280273353E+02 0.  0.
         24    2    1    2    0    0  0.36999718496E+02  0.78056302018E+02  0.38808125533E+03  0.40578633909E+03  0.81201765983E+02 0.  0.
        -11    1    5    5    0    0  0.15643413326E+02 -0.59716721340E+01  0.17416873106E+03  0.17497178095E+03  0.00000000000E+00 0.  1.
         12    1    5    5    0    0  0.21356305170E+02  0.84027974152E+02  0.21391252427E+03  0.23081455814E+03  0.00000000000E+00 0. -1.
        -13    1    4    4    0    0 -0.11883296830E+03 -0.82397174030E+01 -0.55059178796E+01  0.11924547132E+03  0.00000000000E+00 0.  1.
         14    1    4    4    0    0  0.11451649389E+02  0.18934570441E+01 -0.10995909254E+02  0.15988604493E+02  0.00000000000E+00 0. -1.
          5    1    3    3  501    0 -0.11604611389E+03  0.23773950509E+03  0.12793537786E+03  0.29389849224E+03  0.47000000000E+01 0.  1.
         -5    1    3    3    0  501 -0.79387811793E+02  0.27352905573E+02  0.11077145601E+02  0.84825699285E+02  0.47000000000E+01 0.  1.
          1    1    1    2  502    0  0.23586274785E+03 -0.27541052312E+03 -0.96835700797E+03  0.10340200612E+04  0.00000000000E+00 0. -1.
          1    1    1    2  503    0  0.29952778244E+02 -0.61391929206E+02  0.12324324623E+04  0.12343240709E+04  0.00000000000E+00 0. -1.
<mgrwt>
<rscale>  0 0.15654862E+03</rscale>
<asrwt>0</asrwt>
<pdfrwt beam="1">  1        2 0.29137913E+00 0.68309135E+02</pdfrwt>
<pdfrwt beam="2">  1        2 0.17745745E+00 0.35877297E+03</pdfrwt>
<totfact> 0.31836200E+01</totfact>
</mgrwt>
</event>
<event>
13    1  0.3019759E-008  0.4142650E+02  0.7546771E-02  0.1685001E+00
          2   -1    0    0  502    0  0.00000000000E+00  0.00000000000E+00  0.11293253856E+04  0.11293253856E+04  0.00000000000E+00 0. -1.
          2   -1    0    0  503    0 -0.00000000000E+00 -0.00000000000E+00 -0.20433694228E+04  0.20433694228E+04  0.00000000000E+00 0. -1.
         25    2    1    2    0    0  0.54720463358E+02 -0.21164246445E+03 -0.14047790399E+04  0.14271709998E+04  0.12500419978E+03 0.  0.
         24    2    1    2    0    0  0.87373880306E+02  0.28090821547E+02 -0.30444693098E+02  0.12556274011E+03  0.80098896070E+02 0.  0.
         24    2    1    2    0    0 -0.14029194748E+03  0.12940523939E+03  0.75189397007E+03  0.77989664077E+03  0.80415679690E+02 0.  0.
        -11    1    4    4    0    0  0.31644413607E+02  0.50022805531E+02 -0.19096105373E+01  0.59222433233E+02  0.00000000000E+00 0.  1.
         12    1    4    4    0    0  0.55729466699E+02 -0.21931983983E+02 -0.28535082561E+02  0.66340306879E+02  0.00000000000E+00 0. -1.
        -13    1    5    5    0    0 -0.71639912464E+02  0.28639663995E+02  0.19284862490E+03  0.20770917057E+03  0.00000000000E+00 0.  1.
         14    1    5    5    0    0 -0.68652035021E+02  0.10076557539E+03  0.55904534517E+03  0.57218747020E+03  0.00000000000E+00 0. -1.
          5    1    3    3  501    0  0.71058286323E+01 -0.49922830311E+02 -0.72563729357E+03  0.72740247016E+03  0.47000000000E+01 0.  1.
         -5    1    3    3    0  501  0.47614634726E+02 -0.16171963414E+03 -0.67914174633E+03  0.69976852967E+03  0.47000000000E+01 0.  1.
          1    1    1    2  502    0  0.16566441650E+01  0.41381589850E+02  0.30318542607E+03  0.30600095266E+03  0.00000000000E+00 0. -1.
          1    1    1    2  503    0 -0.34590403441E+01  0.12764813662E+02 -0.53389970031E+03  0.53406347509E+03  0.00000000000E+00 0. -1.
<mgrwt>
<rscale>  0 0.23406688E+02</rscale>
<asrwt>0</asrwt>
<pdfrwt beam="1">  1        2 0.16607726E+00 0.41426504E+02</pdfrwt>
<pdfrwt beam="2">  1        2 0.30049550E+00 0.13225182E+02</pdfrwt>
<totfact> 0.45450212E+01</totfact>
</mgrwt>
</event>
<event>
13    1  0.3019759E-008  0.1005511E+03  0.7546771E-02  0.1413255E+00
          2   -1    0    0  503    0  0.00000000000E+00  0.00000000000E+00  0.64388028785E+03  0.64388028785E+03  0.00000000000E+00 0. -1.
          2   -1    0    0  502    0 -0.00000000000E+00 -0.00000000000E+00 -0.24875390014E+04  0.24875390014E+04  0.00000000000E+00 0. -1.
         25    2    1    2    0    0  0.13196849490E+02  0.18517526566E+03 -0.90143123398E+03  0.92880265128E+03  0.12502823511E+03 0.  0.
         24    2    1    2    0    0 -0.10117034241E+03 -0.66865469395E+02 -0.13015376806E+03  0.19395221246E+03  0.77272428450E+02 0.  0.
         24    2    1    2    0    0  0.14533477963E+02 -0.76132315769E+01 -0.44856205806E+01  0.83045815045E+02  0.81285320494E+02 0.  0.
        -11    1    5    5    0    0  0.18678310955E+02  0.20044598496E+02 -0.33144440863E+02  0.43002548635E+02  0.00000000000E+00 0.  1.
         12    1    5    5    0    0 -0.41448329913E+01 -0.27657830073E+02  0.28658820282E+02  0.40043266410E+02  0.00000000000E+00 0. -1.
        -13    1    4    4    0    0 -0.10792972553E+03 -0.75454783558E+02 -0.12600226690E+03  0.18226031185E+03  0.00000000000E+00 0.  1.
         14    1    4    4    0    0  0.67593831191E+01  0.85893141627E+01 -0.41515011648E+01  0.11691900609E+02  0.00000000000E+00 0. -1.
          5    1    3    3  501    0  0.35886225144E+02  0.18621366971E+03 -0.67384388463E+03  0.70003644391E+03  0.47000000000E+01 0. -1.
         -5    1    3    3    0  501 -0.22689375654E+02 -0.10384040542E+01 -0.22758734935E+03  0.22876620737E+03  0.47000000000E+01 0. -1.
          1    1    1    2  502    0  0.29459937966E+02 -0.11753647385E+02 -0.13611737436E+04  0.13615432407E+04  0.00000000000E+00 0. -1.
          1    1    1    2  503    0  0.43980076987E+02 -0.98942917299E+02  0.55358565259E+03  0.56407536980E+03  0.00000000000E+00 0. -1.
<mgrwt>
<rscale>  0 0.56473786E+02</rscale>
<asrwt>0</asrwt>
<pdfrwt beam="1">  1        2 0.94688275E-01 0.10055114E+03</pdfrwt>
<pdfrwt beam="2">  1        2 0.36581457E+00 0.31718073E+02</pdfrwt>
<totfact> 0.48543236E+01</totfact>
</mgrwt>
</event>
<event>
13    1  0.3019759E-008  0.1189939E+03  0.7546771E-02  0.1313619E+00
          2   -1    0    0  502    0  0.00000000000E+00  0.00000000000E+00  0.31918987282E+03  0.31918987282E+03  0.00000000000E+00 0. -1.
          2   -1    0    0  503    0 -0.00000000000E+00 -0.00000000000E+00 -0.31005094935E+04  0.31005094935E+04  0.00000000000E+00 0. -1.
         25    2    1    2    0    0  0.11490958071E+03  0.20153363936E+02 -0.14733692029E+04  0.14832574598E+04  0.12500205688E+03 0.  0.
         24    2    1    2    0    0 -0.70569720748E+02 -0.23216180492E+02 -0.69724119339E+02  0.12001305084E+03  0.63423994138E+02 0.  0.
         24    2    1    2    0    0 -0.59704444779E+02  0.92688786762E+02  0.73136588253E+02  0.15393831807E+03  0.78690617688E+02 0.  0.
        -11    1    5    5    0    0 -0.26754301075E+02  0.91046763364E+02  0.29784428861E+02  0.99460635166E+02  0.00000000000E+00 0.  1.
         12    1    5    5    0    0 -0.32950143704E+02  0.16420233979E+01  0.43352159392E+02  0.54477682907E+02  0.00000000000E+00 0. -1.
        -11    1    4    4    0    0  0.61290766767E+01 -0.19797169292E+02 -0.11893837376E+02  0.23894703606E+02  0.00000000000E+00 0.  1.
         12    1    4    4    0    0 -0.76698797425E+02 -0.34190112002E+01 -0.57830281963E+02  0.96118347239E+02  0.00000000000E+00 0. -1.
          5    1    3    3  501    0  0.12703633767E+03 -0.36324978125E+01 -0.13849237948E+04  0.13907506727E+04  0.47000000000E+01 0. -1.
         -5    1    3    3    0  501 -0.12126756959E+02  0.23785861748E+02 -0.88445408051E+02  0.92506787096E+02  0.47000000000E+01 0. -1.
          1    1    1    2  502    0 -0.40721638000E+02 -0.11538254350E+03  0.15351584875E+03  0.19631224863E+03  0.00000000000E+00 0. -1.
          1    1    1    2  503    0  0.56086222820E+02  0.25756573296E+02 -0.14648787355E+04  0.14661782890E+04  0.00000000000E+00 0. -1.
<mgrwt>
<rscale>  0 0.85697250E+02</rscale>
<asrwt>0</asrwt>
<pdfrwt beam="1">  1        2 0.46939686E-01 0.11899386E+03</pdfrwt>
<pdfrwt beam="2">  1        2 0.45595729E+00 0.61717627E+02</pdfrwt>
<totfact> 0.45893080E+01</totfact>
</mgrwt>
</event>
<event>
13    1  0.3019759E-008  0.2107944E+03  0.7546771E-02  0.1285891E+00
          2   -1    0    0  502    0  0.00000000000E+00  0.00000000000E+00  0.17442987397E+03  0.17442987397E+03  0.00000000000E+00 0. -1.
          2   -1    0    0  503    0 -0.00000000000E+00 -0.00000000000E+00 -0.39183964866E+04  0.39183964866E+04  0.00000000000E+00 0. -1.
         25    2    1    2    0    0  0.13914873948E+03  0.36010196380E+02 -0.22151504871E+04  0.22233257868E+04  0.12500707142E+03 0.  0.
         24    2    1    2    0    0 -0.29769077814E+02  0.67394898494E+02 -0.35778271968E+03  0.36926996177E+03  0.54069953101E+02 0.  0.
         24    2    1    2    0    0  0.53238992889E+02 -0.23765315794E+03 -0.72804502263E+03  0.77186317846E+03  0.80061210547E+02 0.  0.
        -11    1    4    4    0    0 -0.37906965930E+02  0.70791976548E+02 -0.34081432761E+03  0.35014689476E+03  0.00000000000E+00 0.  1.
         12    1    4    4    0    0  0.81378881160E+01 -0.33970780538E+01 -0.16968392072E+02  0.19123067008E+02  0.00000000000E+00 0. -1.
        -13    1    5    5    0    0 -0.16542718085E+02 -0.93059407745E+02 -0.23329291795E+03  0.25171273400E+03  0.00000000000E+00 0.  1.
         14    1    5    5    0    0  0.69781710974E+02 -0.14459375020E+03 -0.49475210468E+03  0.52015044446E+03  0.00000000000E+00 0. -1.
          5    1    3    3  501    0 -0.17683151204E+02 -0.14195044521E+02 -0.17330085281E+03  0.17484126718E+03  0.47000000000E+01 0.  1.
         -5    1    3    3    0  501  0.15683189069E+03  0.50205240901E+02 -0.20418496343E+04  0.20484845196E+04  0.47000000000E+01 0.  1.
          1    1    1    2  502    0 -0.18615887555E+03  0.95905744009E+02  0.64321096382E+02  0.21906675266E+03  0.00000000000E+00 0. -1.
          1    1    1    2  503    0  0.23540220990E+02  0.38342319061E+02 -0.50730947960E+03  0.50930068086E+03  0.00000000000E+00 0. -1.
<mgrwt>
<rscale>  0 0.97386081E+02</rscale>
<asrwt>0</asrwt>
<pdfrwt beam="1">  1        2 0.25651455E-01 0.21079435E+03</pdfrwt>
<pdfrwt beam="2">  1        2 0.57623472E+00 0.44991949E+02</pdfrwt>
<totfact> 0.31842105E+01</totfact>
</mgrwt>
</event>
<event>
13    1  0.3019759E-008  0.8221902E+02  0.7546771E-02  0.1324489E+00
          2   -1    0    0  503    0  0.00000000000E+00  0.00000000000E+00  0.34281081818E+04  0.34281081818E+04  0.00000000000E+00 0. -1.
          2   -1    0    0  502    0 -0.00000000000E+00 -0.00000000000E+00 -0.33661555784E+04  0.33661555784E+04  0.00000000000E+00 0. -1.
         25    2    1    2    0    0  0.11827499557E+03 -0.28978108262E+01 -0.23388090947E+03  0.29037873900E+03  0.12498864094E+03 0.  0.
         24    2    1    2    0    0 -0.94208334948E+03  0.44915811512E+03 -0.97957945138E+03  0.14336198054E+04  0.80161057219E+02 0.  0.
         24    2    1    2    0    0  0.73200070246E+03 -0.39844462660E+03  0.33837332504E+02  0.83732527251E+03  0.73385952688E+02 0.  0.
        -13    1    5    5    0    0  0.58666088872E+03 -0.33595640150E+03  0.25136339061E+01  0.67605030909E+03  0.00000000000E+00 0.  1.
         14    1    5    5    0    0  0.14533981374E+03 -0.62488225093E+02  0.31323698598E+02  0.16127496342E+03  0.00000000000E+00 0. -1.
        -13    1    4    4    0    0 -0.72964433687E+03  0.34835171342E+03 -0.80322173894E+03  0.11396907197E+04  0.00000000000E+00 0.  1.
         14    1    4    4    0    0 -0.21243901261E+03  0.10080640170E+03 -0.17635771245E+03  0.29392908574E+03  0.00000000000E+00 0. -1.
          5    1    3    3  501    0 -0.73563770014E+01 -0.18884476292E+02  0.36802243642E+01  0.21127559698E+02  0.47000000000E+01 0. -1.
         -5    1    3    3    0  501  0.12563137257E+03  0.15986665466E+02 -0.23756113383E+03  0.26925117930E+03  0.47000000000E+01 0. -1.
          1    1    1    2  502    0  0.74238677042E+02  0.32509669364E+02 -0.14939661020E+04  0.14961627498E+04  0.00000000000E+00 0. -1.
          1    1    1    2  503    0  0.17568974413E+02 -0.80325347059E+02  0.27355417337E+04  0.27367771936E+04  0.00000000000E+00 0. -1.
<mgrwt>
<rscale>  0 0.81629801E+02</rscale>
<asrwt>0</asrwt>
<pdfrwt beam="1">  1        2 0.50413355E+00 0.82219024E+02</pdfrwt>
<pdfrwt beam="2">  1        2 0.49502288E+00 0.81044801E+02</pdfrwt>
<totfact> 0.50935746E-01</totfact>
</mgrwt>
</event>
<event>
13    1  0.3019759E-008  0.1473324E+03  0.7546771E-02  0.1318865E+00
          2   -1    0    0  502    0  0.00000000000E+00  0.00000000000E+00  0.25092199956E+04  0.25092199956E+04  0.00000000000E+00 0. -1.
          2   -1    0    0  503    0 -0.00000000000E+00 -0.00000000000E+00 -0.28396324658E+04  0.28396324658E+04  0.00000000000E+00 0. -1.
         25    2    1    2    0    0 -0.18794845681E+01 -0.15421728374E+03 -0.22352147922E+04  0.22440119154E+04  0.12497122112E+03 0.  0.
         24    2    1    2    0    0  0.16875254118E+02 -0.11355022301E+03 -0.14356656975E+03  0.19841944540E+03  0.74702670749E+02 0.  0.
         24    2    1    2    0    0  0.95239756949E+02  0.10719626247E+03  0.27921168327E+03  0.32398076825E+03  0.80266581657E+02 0.  0.
        -11    1    4    4    0    0 -0.15000016375E+02 -0.96503109429E+02 -0.84368467402E+02  0.12905769606E+03  0.00000000000E+00 0.  1.
         12    1    4    4    0    0  0.31875270493E+02 -0.17047113584E+02 -0.59198102344E+02  0.69361749342E+02  0.00000000000E+00 0. -1.
        -13    1    5    5    0    0  0.45160368778E+02 -0.87861741275E+00  0.80273008011E+02  0.92108559276E+02  0.00000000000E+00 0.  1.
         14    1    5    5    0    0  0.50079388170E+02  0.10807487988E+03  0.19893867526E+03  0.23187220897E+03  0.00000000000E+00 0. -1.
          5    1    3    3  501    0  0.44351642694E+02 -0.13570717227E+03 -0.18600624157E+04  0.18655395426E+04  0.47000000000E+01 0.  1.
         -5    1    3    3    0  501 -0.46231127262E+02 -0.18510111469E+02 -0.37515237651E+03  0.37847237278E+03  0.47000000000E+01 0. -1.
          1    1    1    2  502    0 -0.86318507009E+02  0.11947254087E+03  0.21719022895E+04  0.21768978221E+04  0.00000000000E+00 0. -1.
          1    1    1    2  503    0 -0.23917019489E+02  0.41098703405E+02 -0.40274508110E+03  0.40554251022E+03  0.00000000000E+00 0. -1.
<mgrwt>
<rscale>  0 0.83700938E+02</rscale>
<asrwt>0</asrwt>
<pdfrwt beam="1">  1        2 0.36900294E+00 0.14733236E+03</pdfrwt>
<pdfrwt beam="2">  1        2 0.41759301E+00 0.47551312E+02</pdfrwt>
<totfact> 0.30216206E+00</totfact>
</mgrwt>
</event>
<event>
13    1  0.3019759E-008  0.5435881E+02  0.7546771E-02  0.1536953E+00
          2   -1    0    0  503    0  0.00000000000E+00  0.00000000000E+00  0.20961076503E+04  0.20961076503E+04  0.00000000000E+00 0. -1.
          2   -1    0    0  502    0 -0.00000000000E+00 -0.00000000000E+00 -0.29687196013E+03  0.29687196013E+03  0.00000000000E+00 0. -1.
         25    2    1    2    0    0  0.98431210940E+02 -0.84025232923E+02 -0.19023073769E+03  0.26183566954E+03  0.12498496400E+03 0.  0.
         24    2    1    2    0    0 -0.46779236886E+02  0.82411068753E+02  0.32247671023E+03  0.34501718102E+03  0.77882894830E+02 0.  0.
         24    2    1    2    0    0  0.12660128775E+02  0.20527858760E+02  0.10966567067E+04  0.10999739497E+04  0.81884588764E+02 0.  0.
        -11    1    4    4    0    0 -0.59239816655E+02  0.55101280222E+02  0.28873350320E+03  0.29985420262E+03  0.00000000000E+00 0.  1.
         12    1    4    4    0    0  0.12460579769E+02  0.27309788531E+02  0.33743207024E+02  0.45162978401E+02  0.00000000000E+00 0. -1.
        -11    1    5    5    0    0  0.33384355679E+02 -0.11843641363E+02  0.25601865236E+03  0.25845761239E+03  0.00000000000E+00 0.  1.
         12    1    5    5    0    0 -0.20724226904E+02  0.32371500123E+02  0.84063805435E+03  0.84151633735E+03  0.00000000000E+00 0. -1.
          5    1    3    3  501    0 -0.30001727134E+02 -0.18727648735E+02 -0.40973933159E+02  0.54330301459E+02  0.47000000000E+01 0. -1.
         -5    1    3    3    0  501  0.12843293807E+03 -0.65297584188E+02 -0.14925680453E+03  0.20750536808E+03  0.47000000000E+01 0. -1.
          1    1    1    2  502    0 -0.43839433062E+02 -0.32010752345E+02 -0.44896499988E+02  0.70443451563E+02  0.00000000000E+00 0. -1.
          1    1    1    2  503    0 -0.20472669766E+02  0.13097057754E+02  0.61522951089E+03  0.61570935854E+03  0.00000000000E+00 0. -1.
<mgrwt>
<rscale>  0 0.36347114E+02</rscale>
<asrwt>0</asrwt>
<pdfrwt beam="1">  1        2 0.30825112E+00 0.24303562E+02</pdfrwt>
<pdfrwt beam="2">  1        2 0.43657642E-01 0.54358809E+02</pdfrwt>
<totfact> 0.17314615E+02</totfact>
</mgrwt>
</event>
<event>
13    1  0.3019759E-008  0.1348812E+03  0.7546771E-02  0.1356093E+00
          2   -1    0    0  502    0  0.00000000000E+00  0.00000000000E+00  0.36623261506E+04  0.36623261506E+04  0.00000000000E+00 0. -1.
          2   -1    0    0  503    0 -0.00000000000E+00 -0.00000000000E+00 -0.15803257967E+04  0.15803257967E+04  0.00000000000E+00 0. -1.
         25    2    1    2    0    0  0.51562322588E+02 -0.77483879284E+02 -0.91559535899E+03  0.92876377147E+03  0.12499942854E+03 0.  0.
         24    2    1    2    0    0  0.16149823692E+02  0.10078366811E+03 -0.23069553930E+03  0.26481529656E+03  0.80551504493E+02 0.  0.
         24    2    1    2    0    0 -0.20087272791E+02 -0.10832684611E+03  0.74644882911E+01  0.13726671695E+03  0.81536671997E+02 0.  0.
        -11    1    5    5    0    0 -0.32724201229E+02 -0.98250976033E+02 -0.19932074822E+02  0.10545812081E+03  0.00000000000E+00 0.  1.
         12    1    5    5    0    0  0.12636928438E+02 -0.10075870078E+02  0.27396563113E+02  0.31808596143E+02  0.00000000000E+00 0. -1.
        -11    1    4    4    0    0 -0.74142048461E+01 -0.44008580753E+01 -0.74728536239E+02  0.75224278752E+02  0.00000000000E+00 0.  1.
         12    1    4    4    0    0  0.23564028538E+02  0.10518452618E+03 -0.15596700306E+03  0.18959101781E+03  0.00000000000E+00 0. -1.
          5    1    3    3  501    0  0.27130410452E+02 -0.23393566604E+01 -0.67328786866E+03  0.67385471420E+03  0.47000000000E+01 0. -1.
         -5    1    3    3    0  501  0.24431912136E+02 -0.75144522624E+02 -0.24230749033E+03  0.25490905727E+03  0.47000000000E+01 0. -1.
          1    1    1    2  502    0 -0.68602255144E+02  0.11619961646E+03  0.35640142980E+04  0.35665678932E+04  0.00000000000E+00 0. -1.
          1    1    1    2  503    0  0.20977381655E+02 -0.31172559176E+02 -0.34318753407E+03  0.34523826921E+03  0.00000000000E+00 0. -1.
<mgrwt>
<rscale>  0 0.71189750E+02</rscale>
<asrwt>0</asrwt>
<pdfrwt beam="1">  1        2 0.53857737E+00 0.13488125E+03</pdfrwt>
<pdfrwt beam="2">  1        2 0.23240085E+00 0.37573648E+02</pdfrwt>
<totfact> 0.28468763E+00</totfact>
</mgrwt>
</event>
<event>
13    1  0.3019759E-008  0.6824486E+02  0.7546771E-02  0.1538926E+00
          2   -1    0    0  502    0  0.00000000000E+00  0.00000000000E+00  0.91001090377E+03  0.91001090377E+03  0.00000000000E+00 0. -1.
          2   -1    0    0  503    0 -0.00000000000E+00 -0.00000000000E+00 -0.32803353815E+03  0.32803353815E+03  0.00000000000E+00 0. -1.
         25    2    1    2    0    0 -0.58848303340E+02  0.96028285253E+02 -0.81134758957E+02  0.18681111970E+03  0.12502396154E+03 0.  0.
         24    2    1    2    0    0 -0.86715573879E+01 -0.12922546340E+02  0.14488461819E+02  0.81878128038E+02  0.79069110363E+02 0.  0.
         24    2    1    2    0    0  0.24864275584E+02 -0.42048980898E+02  0.33748890203E+03  0.35030059917E+03  0.80158603984E+02 0.  0.
        -11    1    4    4    0    0  0.30121248304E+02  0.94274644978E+01 -0.68274457394E+01  0.32292115161E+02  0.00000000000E+00 0.  1.
         12    1    4    4    0    0 -0.38792805692E+02 -0.22350010838E+02  0.21315907558E+02  0.49586012876E+02  0.00000000000E+00 0. -1.
        -13    1    5    5    0    0 -0.19591839459E+02 -0.43813189941E+02  0.20491144566E+03  0.21045697030E+03  0.00000000000E+00 0.  1.
         14    1    5    5    0    0  0.44456115043E+02  0.17642090424E+01  0.13257745637E+03  0.13984362887E+03  0.00000000000E+00 0. -1.
          5    1    3    3  501    0 -0.43389049972E+01  0.69328409244E+02  0.16684914718E+02  0.71594209291E+02  0.47000000000E+01 0.  1.
         -5    1    3    3    0  501 -0.54509398343E+02  0.26699876009E+02 -0.97819673674E+02  0.11521691041E+03  0.47000000000E+01 0.  1.
          1    1    1    2  502    0  0.35200065047E+02 -0.58653169536E+02  0.46197330167E+03  0.46701024650E+03  0.00000000000E+00 0. -1.
          1    1    1    2  503    0  0.74555200968E+01  0.17596411521E+02 -0.15083854095E+03  0.15204434851E+03  0.00000000000E+00 0. -1.
<mgrwt>
<rscale>  0 0.36113797E+02</rscale>
<asrwt>0</asrwt>
<pdfrwt beam="1">  1        2 0.13382513E+00 0.68244856E+02</pdfrwt>
<pdfrwt beam="2">  1        2 0.48240227E-01 0.19110690E+02</pdfrwt>
<totfact> 0.53311391E+02</totfact>
</mgrwt>
</event>
<event>
13    1  0.3019759E-008  0.7838685E+02  0.7546771E-02  0.1460027E+00
          2   -1    0    0  502    0  0.00000000000E+00  0.00000000000E+00  0.40059658314E+04  0.40059658314E+04  0.00000000000E+00 0. -1.
          2   -1    0    0  503    0 -0.00000000000E+00 -0.00000000000E+00 -0.12005201090E+04  0.12005201090E+04  0.00000000000E+00 0. -1.
         25    2    1    2    0    0  0.65400298034E+02 -0.61190504817E+02 -0.50236333892E+03  0.52537282468E+03  0.12500481495E+03 0.  0.
         24    2    1    2    0    0 -0.17925693769E+02  0.73407120673E+02  0.11457263182E+03  0.15865345786E+03  0.79587033270E+02 0.  0.
         24    2    1    2    0    0  0.42147933179E+02  0.16109272518E+02  0.18998570328E+03  0.21105916813E+03  0.80096492233E+02 0.  0.
        -11    1    5    5    0    0 -0.14196763373E+02 -0.18781526868E+02  0.71784687244E+02  0.75546907047E+02  0.00000000000E+00 0.  1.
         12    1    5    5    0    0  0.56344696552E+02  0.34890799386E+02  0.11820101603E+03  0.13551226108E+03  0.00000000000E+00 0. -1.
        -13    1    4    4    0    0  0.22510428086E+02  0.62601389901E+02  0.57852165577E+02  0.88161933123E+02  0.00000000000E+00 0.  1.
         14    1    4    4    0    0 -0.40436121855E+02  0.10805730772E+02  0.56720466248E+02  0.70491524736E+02  0.00000000000E+00 0. -1.
          5    1    3    3  501    0  0.27196774945E+02  0.26497606276E+02 -0.28877383370E+03  0.29129745061E+03  0.47000000000E+01 0.  1.
         -5    1    3    3    0  501  0.38203523089E+02 -0.87688111093E+02 -0.21358950522E+03  0.23407537406E+03  0.47000000000E+01 0.  1.
          1    1    1    2  502    0 -0.10693740286E+03 -0.55196671463E+01  0.36562279978E+04  0.36577956813E+04  0.00000000000E+00 0. -1.
          1    1    1    2  503    0  0.17314865417E+02 -0.22806221228E+02 -0.65297727160E+03  0.65360480836E+03  0.00000000000E+00 0. -1.
<mgrwt>
<rscale>  0 0.47376784E+02</rscale>
<asrwt>0</asrwt>
<pdfrwt beam="1">  1        2 0.58911262E+00 0.78386852E+02</pdfrwt>
<pdfrwt beam="2">  1        2 0.17654708E+00 0.28634390E+02</pdfrwt>
<totfact> 0.29562230E+00</totfact>
</mgrwt>
</event>
<event>
13    1  0.3019759E-008  0.9443801E+02  0.7546771E-02  0.1320121E+00
         -1   -1    0    0    0  501 -0.00000000000E+00  0.00000000000E+00  0.13813297875E+04  0.13813297875E+04  0.00000000000E+00 0.  1.
          2   -1    0    0  503    0  0.00000000000E+00 -0.00000000000E+00 -0.84279375820E+03  0.84279375820E+03  0.00000000000E+00 0. -1.
         25    2    1    2    0    0 -0.76158271442E+02 -0.11714216091E+02 -0.10685584452E+02  0.14721296519E+03  0.12498067946E+03 0.  0.
         24    2    1    2    0    0  0.77122118135E+02  0.12633985739E+03  0.98823561482E+02  0.19534085314E+03  0.80513178625E+02 0.  0.
         24    2    1    2    0    0 -0.78792666021E+02 -0.16103814509E+02 -0.11320543877E+03  0.16081061109E+03  0.81098484641E+02 0.  0.
        -11    1    4    4    0    0  0.84883777454E+02  0.82283257563E+02  0.92613632198E+02  0.15017681252E+03  0.00000000000E+00 0.  1.
         12    1    4    4    0    0 -0.77616593199E+01  0.44056599828E+02  0.62099292847E+01  0.45164040624E+02  0.00000000000E+00 0. -1.
        -13    1    5    5    0    0 -0.75561930646E+02 -0.15884433085E+02 -0.12591000285E+03  0.14769986254E+03  0.00000000000E+00 0.  1.
         14    1    5    5    0    0 -0.32307353744E+01 -0.21938142401E+00  0.12704564073E+02  0.13110748551E+02  0.00000000000E+00 0. -1.
          5    1    3    3  502    0 -0.23106818650E+02  0.41228833555E+02  0.35280389900E+02  0.59165342016E+02  0.47000000000E+01 0. -1.
         -5    1    3    3    0  502 -0.53051452792E+02 -0.52943049645E+02 -0.45965974352E+02  0.88047623178E+02  0.47000000000E+01 0. -1.
          1    1    1    2  503    0 -0.12813836911E+02 -0.72228705052E+02 -0.57429111758E+03  0.57895722465E+03  0.00000000000E+00 0. -1.
         -2    1    1    2    0  501  0.90642656239E+02 -0.26293121739E+02  0.11378946086E+04  0.11418018916E+04  0.00000000000E+00 0.  1.
<mgrwt>
<rscale>  0 0.83232473E+02</rscale>
<asrwt>0</asrwt>
<pdfrwt beam="2">  1        2 0.12394026E+00 0.73356528E+02</pdfrwt>
<pdfrwt beam="1">  1       -1 0.20313673E+00 0.94438009E+02</pdfrwt>
<totfact> 0.74391146E+00</totfact>
</mgrwt>
</event>
<event>
13    1  0.3019759E-008  0.9671130E+02  0.7546771E-02  0.1305281E+00
          2   -1    0    0  502    0  0.00000000000E+00  0.00000000000E+00  0.37538322579E+04  0.37538322579E+04  0.00000000000E+00 0. -1.
          2   -1    0    0  503    0 -0.00000000000E+00 -0.00000000000E+00 -0.72779325831E+03  0.72779325831E+03  0.00000000000E+00 0. -1.
         25    2    1    2    0    0 -0.44076180737E+02  0.66500991027E+02 -0.26439884014E+03  0.30314401607E+03  0.12499782516E+03 0.  0.
         24    2    1    2    0    0  0.62426134693E+02  0.32368892024E+02  0.68357873063E+02  0.12855626853E+03  0.83121284307E+02 0.  0.
         24    2    1    2    0    0 -0.80898391021E+02  0.55803037724E+01  0.26362198013E+03  0.28725372929E+03  0.80264980668E+02 0.  0.
        -11    1    4    4    0    0  0.61048573800E+02  0.55357012058E+02  0.38801562891E+02  0.91087257231E+02  0.00000000000E+00 0.  1.
         12    1    4    4    0    0  0.13775608930E+01 -0.22988120034E+02  0.29556310172E+02  0.37469011299E+02  0.00000000000E+00 0. -1.
        -13    1    5    5    0    0 -0.71468961553E+02 -0.16396305691E+02  0.24818407549E+03  0.25878946391E+03  0.00000000000E+00 0.  1.
         14    1    5    5    0    0 -0.94294294678E+01  0.21976609464E+02  0.15437904641E+02  0.28464265375E+02  0.00000000000E+00 0. -1.
          5    1    3    3  501    0 -0.54678346323E+02  0.29010778173E+02 -0.25546248568E+03  0.26289640240E+03  0.47000000000E+01 0. -1.
         -5    1    3    3    0  501  0.10602165586E+02  0.37490212854E+02 -0.89363544653E+01  0.40247613669E+02  0.47000000000E+01 0. -1.
          1    1    1    2  502    0  0.12875490494E+03 -0.33953531445E+02  0.33534092104E+04  0.33560518471E+04  0.00000000000E+00 0. -1.
          1    1    1    2  503    0 -0.66206467872E+02 -0.70496655378E+02 -0.39495122386E+03  0.40661965525E+03  0.00000000000E+00 0. -1.
<mgrwt>
<rscale>  0 0.89004366E+02</rscale>
<asrwt>0</asrwt>
<pdfrwt beam="1">  1        2 0.55203415E+00 0.81911602E+02</pdfrwt>
<pdfrwt beam="2">  1        2 0.10702842E+00 0.96711296E+02</pdfrwt>
<totfact> 0.75264497E+00</totfact>
</mgrwt>
</event>
<event>
13    1  0.3019759E-008  0.7278879E+02  0.7546771E-02  0.1495776E+00
          2   -1    0    0  503    0  0.00000000000E+00  0.00000000000E+00  0.29385427884E+04  0.29385427884E+04  0.00000000000E+00 0. -1.
          2   -1    0    0  502    0 -0.00000000000E+00 -0.00000000000E+00 -0.16517404509E+04  0.16517404509E+04  0.00000000000E+00 0. -1.
         25    2    1    2    0    0  0.74022675459E+02  0.18275010077E+02 -0.60734527404E+03  0.62474521355E+03  0.12499986988E+03 0.  0.
         24    2    1    2    0    0 -0.58588849218E+02  0.86294551320E+02 -0.84813916396E+02  0.15645553084E+03  0.80034554252E+02 0.  0.
         24    2    1    2    0    0 -0.49935901173E+02 -0.62488118044E+02  0.38245306714E+03  0.39860629985E+03  0.78856037114E+02 0.  0.
        -11    1    4    4    0    0 -0.38082639382E+02  0.66079674476E+02 -0.98498459362E+02  0.12457430432E+03  0.00000000000E+00 0.  1.
         12    1    4    4    0    0 -0.20506209836E+02  0.20214876845E+02  0.13684542966E+02  0.31881226512E+02  0.00000000000E+00 0. -1.
        -13    1    5    5    0    0 -0.43985498109E+01 -0.65590433426E+02  0.25050718072E+03  0.25898899550E+03  0.00000000000E+00 0.  1.
         14    1    5    5    0    0 -0.45537351362E+02  0.31023153824E+01  0.13194588642E+03  0.13961730435E+03  0.00000000000E+00 0. -1.
          5    1    3    3  501    0 -0.34714124447E+02  0.22070104345E+01 -0.18535578057E+03  0.18864993168E+03  0.47000000000E+01 0.  1.
         -5    1    3    3    0  501  0.10873679991E+03  0.16067999643E+02 -0.42198949348E+03  0.43609528187E+03  0.47000000000E+01 0.  1.
          1    1    1    2  502    0  0.33193641158E+01  0.23705441406E+02 -0.90629652157E+03  0.90661256948E+03  0.00000000000E+00 0. -1.
          1    1    1    2  503    0  0.31182710817E+02 -0.65786884760E+02  0.25028049824E+04  0.25038636256E+04  0.00000000000E+00 0. -1.
<mgrwt>
<rscale>  0 0.41741157E+02</rscale>
<asrwt>0</asrwt>
<pdfrwt beam="1">  1        2 0.43213865E+00 0.72788789E+02</pdfrwt>
<pdfrwt beam="2">  1        2 0.24290301E+00 0.23936711E+02</pdfrwt>
<totfact> 0.78575785E+00</totfact>
</mgrwt>
</event>
<event>
13    1  0.3019759E-008  0.6597764E+02  0.7546771E-02  0.1419286E+00
          2   -1    0    0  503    0  0.00000000000E+00  0.00000000000E+00  0.13784896022E+04  0.13784896022E+04  0.00000000000E+00 0. -1.
          2   -1    0    0  502    0 -0.00000000000E+00 -0.00000000000E+00 -0.48152511904E+04  0.48152511904E+04  0.00000000000E+00 0. -1.
         25    2    1    2    0    0 -0.88815964260E+02 -0.18088394273E+03 -0.13274821819E+04  0.13484955222E+04  0.12499581555E+03 0.  0.
         24    2    1    2    0    0  0.21923782670E+02  0.12950862683E+03 -0.26817969504E+03  0.30923680113E+03  0.80336253769E+02 0.  0.
         24    2    1    2    0    0  0.93025190471E+02  0.44818661638E+02  0.10823808244E+04  0.10902852165E+04  0.80692042576E+02 0.  0.
        -11    1    5    5    0    0 -0.11072822949E+02  0.41371271975E+01  0.34663332933E+02  0.36623351560E+02  0.00000000000E+00 0.  1.
         12    1    5    5    0    0  0.10409801342E+03  0.40681534441E+02  0.10477174915E+04  0.10536618649E+04  0.00000000000E+00 0. -1.
        -11    1    4    4    0    0  0.59858297576E+00  0.13093801702E+03 -0.24438242991E+03  0.27725059901E+03  0.00000000000E+00 0.  1.
         12    1    4    4    0    0  0.21325199695E+02 -0.14293901865E+01 -0.23797265132E+02  0.31986202120E+02  0.00000000000E+00 0. -1.
          5    1    3    3  501    0 -0.95032809443E+02 -0.54795179479E+02 -0.67945884086E+03  0.68827331271E+03  0.47000000000E+01 0. -1.
         -5    1    3    3    0  501  0.62168451834E+01 -0.12608876325E+03 -0.64802334105E+03  0.66022220951E+03  0.47000000000E+01 0. -1.
          1    1    1    2  502    0 -0.44185580619E+02  0.49014741055E+02 -0.31822192107E+04  0.31829033783E+04  0.00000000000E+00 0. -1.
          1    1    1    2  503    0  0.18052571738E+02 -0.42458086802E+02  0.25873867501E+03  0.26281987449E+03  0.00000000000E+00 0. -1.
<mgrwt>
<rscale>  0 0.55172301E+02</rscale>
<asrwt>0</asrwt>
<pdfrwt beam="1">  1        2 0.20271906E+00 0.46136585E+02</pdfrwt>
<pdfrwt beam="2">  1        2 0.70812518E+00 0.65977636E+02</pdfrwt>
<totfact> 0.58753975E-01</totfact>
</mgrwt>
</event>
<event>
13    1  0.3019759E-008  0.1068605E+03  0.7546771E-02  0.1462799E+00
          2   -1    0    0  502    0  0.00000000000E+00  0.00000000000E+00  0.79854101437E+03  0.79854101437E+03  0.00000000000E+00 0. -1.
          2   -1    0    0  503    0 -0.00000000000E+00 -0.00000000000E+00 -0.20654637489E+04  0.20654637489E+04  0.00000000000E+00 0. -1.
         25    2    1    2    0    0 -0.65565010760E+02  0.90110593450E+02 -0.46503247774E+03  0.49426575092E+03  0.12499894994E+03 0.  0.
         24    2    1    2    0    0 -0.74686370461E+02 -0.31527634069E+02 -0.55519478020E+02  0.12669173631E+03  0.79977109021E+02 0.  0.
         24    2    1    2    0    0 -0.13155595018E+02 -0.11788997076E+02  0.14173494735E+03  0.16408391819E+03  0.80763152327E+02 0.  0.
        -13    1    4    4    0    0 -0.58798723286E+02  0.18297800922E+02 -0.30361649146E+02  0.68658059378E+02  0.00000000000E+00 0.  1.
         14    1    4    4    0    0 -0.15887647175E+02 -0.49825434991E+02 -0.25157828874E+02  0.58033676934E+02  0.00000000000E+00 0. -1.
        -13    1    5    5    0    0 -0.42482019864E+02 -0.26267788328E+02  0.87382788111E+02  0.10065023782E+03  0.00000000000E+00 0.  1.
         14    1    5    5    0    0  0.29326424846E+02  0.14478791252E+02  0.54352159242E+02  0.63433680365E+02  0.00000000000E+00 0. -1.
          5    1    3    3  501    0 -0.65572824877E+02  0.11787537929E+03 -0.33395903250E+03  0.36020150720E+03  0.47000000000E+01 0.  1.
         -5    1    3    3    0  501  0.78141171265E-02 -0.27764785839E+02 -0.13107344525E+03  0.13406424371E+03  0.47000000000E+01 0.  1.
          1    1    1    2  502    0  0.13489146246E+03 -0.55793112360E+02  0.58640914780E+03  0.60430477961E+03  0.00000000000E+00 0. -1.
          1    1    1    2  503    0  0.18515513779E+02  0.89991500547E+01 -0.14745148739E+04  0.14746585782E+04  0.00000000000E+00 0. -1.
<mgrwt>
<rscale>  0 0.46903054E+02</rscale>
<asrwt>0</asrwt>
<pdfrwt beam="1">  1        2 0.11743250E+00 0.10686049E+03</pdfrwt>
<pdfrwt beam="2">  1        2 0.30374466E+00 0.20586621E+02</pdfrwt>
<totfact> 0.62279074E+01</totfact>
</mgrwt>
</event>
<event>
13    1  0.3019759E-008  0.1160380E+03  0.7546771E-02  0.1289121E+00
          2   -1    0    0  503    0  0.00000000000E+00  0.00000000000E+00  0.10755113036E+04  0.10755113036E+04  0.00000000000E+00 0. -1.
          2   -1    0    0  502    0 -0.00000000000E+00 -0.00000000000E+00 -0.35885937703E+03  0.35885937703E+03  0.00000000000E+00 0. -1.
         25    2    1    2    0    0  0.14668950760E+03 -0.60557045802E+02 -0.73404314961E+02  0.21493514288E+03  0.12499581894E+03 0.  0.
         24    2    1    2    0    0 -0.77016704314E+02  0.99781924436E+02  0.25483288277E+03  0.29393713239E+03  0.74640702529E+02 0.  0.
         24    2    1    2    0    0 -0.29622292301E+02 -0.29104005446E+02  0.85827545181E+02  0.12554651733E+03  0.81676417455E+02 0.  0.
        -13    1    5    5    0    0 -0.24105322765E+02  0.14030946191E+02  0.76009981443E+02  0.80965741617E+02  0.00000000000E+00 0.  1.
         14    1    5    5    0    0 -0.55169695357E+01 -0.43134951637E+02  0.98175637375E+01  0.44580775715E+02  0.00000000000E+00 0. -1.
        -13    1    4    4    0    0 -0.39929766600E+02  0.70357981838E+02  0.22211807984E+03  0.23639177917E+03  0.00000000000E+00 0.  1.
         14    1    4    4    0    0 -0.37086937713E+02  0.29423942598E+02  0.32714802929E+02  0.57545353224E+02  0.00000000000E+00 0. -1.
          5    1    3    3  501    0  0.31656245211E+02 -0.49347053993E+02  0.24184761971E+02  0.63594357535E+02  0.47000000000E+01 0.  1.
         -5    1    3    3    0  501  0.11503326239E+03 -0.11209991808E+02 -0.97589076932E+02  0.15134078534E+03  0.47000000000E+01 0.  1.
          1    1    1    2  502    0 -0.10205358156E+03 -0.59538254509E+02 -0.15246737441E+03  0.19288866612E+03  0.00000000000E+00 0. -1.
          1    1    1    2  503    0  0.62003070575E+02  0.49417381321E+02  0.60186318803E+03  0.60706322195E+03  0.00000000000E+00 0. -1.
<mgrwt>
<rscale>  0 0.95918317E+02</rscale>
<asrwt>0</asrwt>
<pdfrwt beam="1">  1        2 0.15816343E+00 0.79287189E+02</pdfrwt>
<pdfrwt beam="2">  1        2 0.52773438E-01 0.11603796E+03</pdfrwt>
<totfact> 0.39508779E+02</totfact>
</mgrwt>
</event>
<event>
13    1  0.3019759E-008  0.9074911E+02  0.7546771E-02  0.1305042E+00
          2   -1    0    0  503    0  0.00000000000E+00  0.00000000000E+00  0.27075484252E+04  0.27075484252E+04  0.00000000000E+00 0. -1.
          2   -1    0    0  502    0 -0.00000000000E+00 -0.00000000000E+00 -0.19254732407E+04  0.19254732407E+04  0.00000000000E+00 0. -1.
         25    2    1    2    0    0  0.14348224931E+02 -0.10941541936E+02 -0.19013828227E+03  0.22826376810E+03  0.12500477007E+03 0.  0.
         24    2    1    2    0    0  0.67861656448E+03  0.22380963336E+03 -0.11710079736E+04  0.13740946093E+04  0.79152557801E+02 0.  0.
         24    2    1    2    0    0 -0.61114397196E+03 -0.58765042709E+02  0.18405198932E+03  0.64905578238E+03  0.10221540573E+03 0.  0.
        -11    1    4    4    0    0  0.13713857134E+03  0.55857039671E+02 -0.18790843168E+03  0.23924166721E+03  0.00000000000E+00 0.  1.
         12    1    4    4    0    0  0.54147799314E+03  0.16795259368E+03 -0.98309954196E+03  0.11348529421E+04  0.00000000000E+00 0. -1.
        -13    1    5    5    0    0 -0.25512490229E+03  0.87499337700E+00  0.31122842687E+02  0.25701772841E+03  0.00000000000E+00 0.  1.
         14    1    5    5    0    0 -0.35601906967E+03 -0.59640036086E+02  0.15292914663E+03  0.39203805397E+03  0.00000000000E+00 0. -1.
          5    1    3    3  501    0 -0.42826270696E+01 -0.64768982093E+02 -0.72173994194E+02  0.97183009697E+02  0.47000000000E+01 0. -1.
         -5    1    3    3    0  501  0.18630852000E+02  0.53827440156E+02 -0.11796428808E+03  0.13108075840E+03  0.47000000000E+01 0. -1.
          1    1    1    2  502    0 -0.53938993701E+02 -0.71181352284E+02 -0.20085317286E+03  0.21981400547E+03  0.00000000000E+00 0. -1.
          1    1    1    2  503    0 -0.27881823750E+02 -0.82921696425E+02  0.21600226239E+04  0.21617935007E+04  0.00000000000E+00 0. -1.
<mgrwt>
<rscale>  0 0.89101465E+02</rscale>
<asrwt>0</asrwt>
<pdfrwt beam="1">  1        2 0.39816889E+00 0.87483735E+02</pdfrwt>
<pdfrwt beam="2">  1        2 0.28315783E+00 0.90749111E+02</pdfrwt>
<totfact> 0.65532716E+00</totfact>
</mgrwt>
</event>
<event>
13    1  0.3019759E-008  0.5643843E+02  0.7546771E-02  0.1520235E+00
          2   -1    0    0  503    0  0.00000000000E+00  0.00000000000E+00  0.28652473833E+04  0.28652473833E+04  0.00000000000E+00 0. -1.
          2   -1    0    0  502    0 -0.00000000000E+00 -0.00000000000E+00 -0.47121193453E+03  0.47121193453E+03  0.00000000000E+00 0. -1.
         25    2    1    2    0    0 -0.13675225016E+03  0.17329544564E+03 -0.20259848224E+03  0.32466049767E+03  0.12500321730E+03 0.  0.
         24    2    1    2    0    0  0.11977787347E+03 -0.12477934844E+03  0.32620316582E+03  0.37753121902E+03  0.78769862121E+02 0.  0.
         24    2    1    2    0    0 -0.15724861087E+02 -0.86158023230E+02  0.26730612318E+03  0.29293164960E+03  0.81767423963E+02 0.  0.
        -13    1    5    5    0    0  0.18169889637E+02 -0.33614379115E+02  0.18849538936E+03  0.19232936120E+03  0.00000000000E+00 0.  1.
         14    1    5    5    0    0 -0.33894750724E+02 -0.52543644114E+02  0.78810733824E+02  0.10060228839E+03  0.00000000000E+00 0. -1.
        -13    1    4    4    0    0  0.55920919482E+02 -0.98273267493E+01  0.12328092602E+03  0.13572734546E+03  0.00000000000E+00 0.  1.
         14    1    4    4    0    0  0.63856953986E+02 -0.11495202169E+03  0.20292223980E+03  0.24180387356E+03  0.00000000000E+00 0. -1.
          5    1    3    3  501    0 -0.13590280909E+03  0.17263801833E+03 -0.13717766258E+03  0.25906227052E+03  0.47000000000E+01 0.  1.
         -5    1    3    3    0  501 -0.84944106805E+00  0.65742730484E+00 -0.65420819654E+02  0.65598227148E+02  0.47000000000E+01 0.  1.
          1    1    1    2  502    0  0.19621519764E+02 -0.17275724552E+02 -0.16772610437E+03  0.16975129096E+03  0.00000000000E+00 0. -1.
          1    1    1    2  503    0  0.13077718018E+02  0.54917650585E+02  0.21708507464E+04  0.21715846606E+04  0.00000000000E+00 0. -1.
<mgrwt>
<rscale>  0 0.38411822E+02</rscale>
<asrwt>0</asrwt>
<pdfrwt beam="1">  1        2 0.42135990E+00 0.56438433E+02</pdfrwt>
<pdfrwt beam="2">  1        2 0.69295874E-01 0.26142966E+02</pdfrwt>
<totfact> 0.41253082E+01</totfact>
</mgrwt>
</event>
<event>
13    1  0.3019759E-008  0.8863685E+02  0.7546771E-02  0.1460632E+00
          2   -1    0    0  502    0  0.00000000000E+00  0.00000000000E+00  0.10752261433E+04  0.10752261433E+04  0.00000000000E+00 0. -1.
          2   -1    0    0  503    0 -0.00000000000E+00 -0.00000000000E+00 -0.51076084959E+03  0.51076084959E+03  0.00000000000E+00 0. -1.
         25    2    1    2    0    0 -0.11947939350E+02  0.20239454944E+03 -0.23478001333E+03  0.33444507895E+03  0.12500219707E+03 0.  0.
         24    2    1    2    0    0  0.29643289236E+02 -0.90510649772E+02  0.12222432582E+03  0.17205150876E+03  0.74779900537E+02 0.  0.
         24    2    1    2    0    0  0.40125066318E+02 -0.18202539364E+02  0.17218744156E+03  0.19492884470E+03  0.80046149670E+02 0.  0.
        -11    1    5    5    0    0 -0.12578126738E+02  0.17082562994E+02  0.81819728694E+02  0.84525092335E+02  0.00000000000E+00 0.  1.
         12    1    5    5    0    0  0.52703193056E+02 -0.35285102357E+02  0.90367712868E+02  0.11040375236E+03  0.00000000000E+00 0. -1.
        -11    1    4    4    0    0 -0.15718401914E+02  0.28972803059E+01  0.86933687810E+01  0.18194423669E+02  0.00000000000E+00 0.  1.
         12    1    4    4    0    0  0.45361691150E+02 -0.93407930078E+02  0.11353095704E+03  0.15385708509E+03  0.00000000000E+00 0. -1.
          5    1    3    3  501    0 -0.16884792442E+02  0.20281122835E+03 -0.24722497656E+03  0.32024954269E+03  0.47000000000E+01 0. -1.
         -5    1    3    3    0  501  0.49368530921E+01 -0.41667891038E+00  0.12444963227E+02  0.14195536252E+02  0.47000000000E+01 0. -1.
          1    1    1    2  502    0 -0.36201517213E+02 -0.80709512046E+02  0.69102869107E+03  0.69666722835E+03  0.00000000000E+00 0. -1.
          1    1    1    2  503    0 -0.21618898992E+02 -0.12971848261E+02 -0.18619515140E+03  0.18789433213E+03  0.00000000000E+00 0. -1.
<mgrwt>
<rscale>  0 0.47272757E+02</rscale>
<asrwt>0</asrwt>
<pdfrwt beam="1">  1        2 0.15812149E+00 0.88636852E+02</pdfrwt>
<pdfrwt beam="2">  1        2 0.75111890E-01 0.25212014E+02</pdfrwt>
<totfact> 0.27397188E+02</totfact>
</mgrwt>
</event>
<event>
13    1  0.3019759E-008  0.1034072E+03  0.7546771E-02  0.1508649E+00
          2   -1    0    0  503    0  0.00000000000E+00  0.00000000000E+00  0.13604378406E+04  0.13604378406E+04  0.00000000000E+00 0. -1.
          2   -1    0    0  502    0 -0.00000000000E+00 -0.00000000000E+00 -0.18254404602E+04  0.18254404602E+04  0.00000000000E+00 0. -1.
         25    2    1    2    0    0 -0.18196991249E+03 -0.45942405212E+02 -0.10701733125E+04  0.10936722641E+04  0.12499739515E+03 0.  0.
         24    2    1    2    0    0  0.17719898562E+03  0.81753675307E+02 -0.96573487793E+02  0.23052537828E+03  0.75712400282E+02 0.  0.
         24    2    1    2    0    0 -0.44843725052E+02  0.65351437342E+02  0.11804641714E+03  0.15949917377E+03  0.72272123209E+02 0.  0.
        -11    1    4    4    0    0  0.10299507034E+02 -0.93001263671E+01 -0.22598593500E+02  0.26519212352E+02  0.00000000000E+00 0.  1.
         12    1    4    4    0    0  0.16689947859E+03  0.91053801674E+02 -0.73974894293E+02  0.20400616593E+03  0.00000000000E+00 0. -1.
        -11    1    5    5    0    0 -0.58169177769E+02  0.28554820207E+02  0.91842330753E+02  0.11240126653E+03  0.00000000000E+00 0.  1.
         12    1    5    5    0    0  0.13325452716E+02  0.36796617135E+02  0.26204086390E+02  0.47097907238E+02  0.00000000000E+00 0. -1.
          5    1    3    3  501    0 -0.16990062257E+03 -0.59026525437E+01 -0.97339801857E+03  0.98814313508E+03  0.47000000000E+01 0. -1.
         -5    1    3    3    0  501 -0.12069289918E+02 -0.40039752668E+02 -0.96775293950E+02  0.10552912902E+03  0.47000000000E+01 0. -1.
          1    1    1    2  502    0 -0.61955450586E+01 -0.14128184023E+02 -0.55679658344E+03  0.55701025636E+03  0.00000000000E+00 0. -1.
          1    1    1    2  503    0  0.55810196977E+02 -0.87034523415E+02  0.11404943471E+04  0.11451712283E+04  0.00000000000E+00 0. -1.
<mgrwt>
<rscale>  0 0.39940657E+02</rscale>
<asrwt>0</asrwt>
<pdfrwt beam="1">  1        2 0.20006439E+00 0.10340718E+03</pdfrwt>
<pdfrwt beam="2">  1        2 0.26844712E+00 0.15426936E+02</pdfrwt>
<totfact> 0.39636734E+01</totfact>
</mgrwt>
</event>
<event>
13    1  0.3019759E-008  0.1264199E+03  0.7546771E-02  0.1394387E+00
          2   -1    0    0  502    0  0.00000000000E+00  0.00000000000E+00  0.73271741418E+03  0.73271741418E+03  0.00000000000E+00 0. -1.
          2   -1    0    0  503    0 -0.00000000000E+00 -0.00000000000E+00 -0.29819503939E+04  0.29819503939E+04  0.00000000000E+00 0. -1.
         25    2    1    2    0    0 -0.28314686518E+02  0.11675470945E+03 -0.52687324338E+03  0.55466536049E+03  0.12499945554E+03 0.  0.
         24    2    1    2    0    0 -0.78455871253E+02 -0.39944185398E+02 -0.11754691458E+03  0.16760561325E+03  0.80768204040E+02 0.  0.
         24    2    1    2    0    0  0.11050889054E+03  0.76052998659E+02 -0.83302450173E+02  0.17648695645E+03  0.78816712060E+02 0.  0.
        -11    1    5    5    0    0  0.76710726844E+02  0.55376768636E+01 -0.34358609702E+02  0.84236070295E+02  0.00000000000E+00 0.  1.
         12    1    5    5    0    0  0.33798163697E+02  0.70515321796E+02 -0.48943840471E+02  0.92250886160E+02  0.00000000000E+00 0. -1.
        -13    1    4    4    0    0 -0.47889194885E+02  0.14877574704E+02 -0.80141651257E+02  0.94537830957E+02  0.00000000000E+00 0.  1.
         14    1    4    4    0    0 -0.30566676368E+02 -0.54821760102E+02 -0.37405263328E+02  0.73067782294E+02  0.00000000000E+00 0. -1.
          5    1    3    3  501    0  0.12098780261E+02  0.15556692594E+02 -0.41459896730E+01  0.20680193390E+02  0.47000000000E+01 0. -1.
         -5    1    3    3    0  501 -0.40413466779E+02  0.10119801685E+03 -0.52272725371E+03  0.53398516710E+03  0.47000000000E+01 0. -1.
          1    1    1    2  502    0  0.70556756436E+01 -0.12565824615E+03  0.64098120632E+03  0.65322024176E+03  0.00000000000E+00 0. -1.
          1    1    1    2  503    0 -0.10794008414E+02 -0.27205276555E+02 -0.21624915779E+04  0.21626896361E+04  0.00000000000E+00 0. -1.
<mgrwt>
<rscale>  0 0.60828497E+02</rscale>
<asrwt>0</asrwt>
<pdfrwt beam="1">  1        2 0.10775256E+00 0.12641994E+03</pdfrwt>
<pdfrwt beam="2">  1        2 0.43852211E+00 0.29268374E+02</pdfrwt>
<totfact> 0.24269562E+01</totfact>
</mgrwt>
</event>
<event>
13    1  0.3019759E-008  0.1124699E+03  0.7546771E-02  0.1285887E+00
          2   -1    0    0  503    0  0.00000000000E+00  0.00000000000E+00  0.92394040960E+03  0.92394040960E+03  0.00000000000E+00 0. -1.
          2   -1    0    0  502    0 -0.00000000000E+00 -0.00000000000E+00 -0.27488133313E+04  0.27488133313E+04  0.00000000000E+00 0. -1.
         25    2    1    2    0    0 -0.18206270836E+02 -0.11217278912E+02 -0.11911097848E+04  0.11978425957E+04  0.12500827554E+03 0.  0.
         24    2    1    2    0    0 -0.30630879232E+02  0.52928887361E+02 -0.70305331957E+02  0.12387101452E+03  0.81617832953E+02 0.  0.
         24    2    1    2    0    0  0.76722060436E+02 -0.98080533171E+02  0.12591445178E+03  0.19521150877E+03  0.82140236444E+02 0.  0.
        -11    1    5    5    0    0  0.63999011031E+02 -0.72415626970E+02  0.13421364739E+03  0.16538802734E+03  0.00000000000E+00 0.  1.
         12    1    5    5    0    0  0.12723049405E+02 -0.25664906202E+02 -0.82991956096E+01  0.29823481424E+02  0.00000000000E+00 0. -1.
        -13    1    4    4    0    0  0.73833736119E+01 -0.42035123869E+01  0.13254690367E+02  0.15743904821E+02  0.00000000000E+00 0.  1.
         14    1    4    4    0    0 -0.38014252844E+02  0.57132399748E+02 -0.83560022324E+02  0.10812710970E+03  0.00000000000E+00 0. -1.
          5    1    3    3  501    0  0.28320812928E+02  0.43890591791E+02 -0.61126334936E+03  0.61350910732E+03  0.47000000000E+01 0. -1.
         -5    1    3    3    0  501 -0.46527083764E+02 -0.55107870703E+02 -0.57984643547E+03  0.58433348840E+03  0.47000000000E+01 0. -1.
          1    1    1    2  502    0  0.40825921930E+02  0.10525662651E+03 -0.14179246840E+04  0.14224120792E+04  0.00000000000E+00 0. -1.
          1    1    1    2  503    0 -0.68710832299E+02 -0.48887701786E+02  0.72855242731E+03  0.73341654276E+03  0.00000000000E+00 0. -1.
<mgrwt>
<rscale>  0 0.97387603E+02</rscale>
<asrwt>0</asrwt>
<pdfrwt beam="1">  1        2 0.13587359E+00 0.84327847E+02</pdfrwt>
<pdfrwt beam="2">  1        2 0.40423725E+00 0.11246991E+03</pdfrwt>
<totfact> 0.19662634E+01</totfact>
</mgrwt>
</event>
<event>
13    1  0.3019759E-008  0.5786277E+02  0.7546771E-02  0.1441836E+00
          2   -1    0    0  502    0  0.00000000000E+00  0.00000000000E+00  0.25537484718E+04  0.25537484718E+04  0.00000000000E+00 0. -1.
          2   -1    0    0  503    0 -0.00000000000E+00 -0.00000000000E+00 -0.63827484055E+03  0.63827484055E+03  0.00000000000E+00 0. -1.
         25    2    1    2    0    0  0.49848054939E+01  0.10683925096E+03  0.40068711350E+03  0.43314538128E+03  0.12500113825E+03 0.  0.
         24    2    1    2    0    0 -0.71315965665E+02 -0.10419403910E+03  0.46160516866E+03  0.48525704183E+03  0.80328700794E+02 0.  0.
         24    2    1    2    0    0 -0.93315376926E+01 -0.99133143231E+01  0.49892297442E+03  0.50458980906E+03  0.74171352991E+02 0.  0.
        -13    1    5    5    0    0  0.23880471344E+02 -0.66290996186E+01  0.67985460268E+02  0.72361900758E+02  0.00000000000E+00 0.  1.
         14    1    5    5    0    0 -0.33212009036E+02 -0.32842147045E+01  0.43093751415E+03  0.43222790830E+03  0.00000000000E+00 0. -1.
        -13    1    4    4    0    0  0.14844692074E+02 -0.23507023437E+01  0.68641708460E+02  0.70267879038E+02  0.00000000000E+00 0.  1.
         14    1    4    4    0    0 -0.86160657739E+02 -0.10184333675E+03  0.39296346020E+03  0.41498916279E+03  0.00000000000E+00 0. -1.
          5    1    3    3  501    0 -0.53599494583E+02  0.23321909770E+02  0.10427112007E+03  0.11963015412E+03  0.47000000000E+01 0.  1.
         -5    1    3    3    0  501  0.58584300077E+02  0.83517341187E+02  0.29641599344E+03  0.31351522716E+03  0.47000000000E+01 0.  1.
          1    1    1    2  502    0  0.32003159795E+02 -0.30698781757E+02  0.11598421354E+04  0.11606896211E+04  0.00000000000E+00 0. -1.
          1    1    1    2  503    0  0.43659538069E+02  0.37966884218E+02 -0.60558376075E+03  0.60834145908E+03  0.00000000000E+00 0. -1.
<mgrwt>
<rscale>  0 0.50655847E+02</rscale>
<asrwt>0</asrwt>
<pdfrwt beam="1">  1        2 0.37555124E+00 0.44346561E+02</pdfrwt>
<pdfrwt beam="2">  1        2 0.93863948E-01 0.57862769E+02</pdfrwt>
<totfact> 0.43932147E+01</totfact>
</mgrwt>
</event>
<event>
13    1  0.3019759E-008  0.1274602E+03  0.7546771E-02  0.1501750E+00
          2   -1    0    0  503    0  0.00000000000E+00  0.00000000000E+00  0.26160886249E+04  0.26160886249E+04  0.00000000000E+00 0. -1.
          2   -1    0    0  502    0 -0.00000000000E+00 -0.00000000000E+00 -0.18541813309E+04  0.18541813309E+04  0.00000000000E+00 0. -1.
         25    2    1    2    0    0 -0.12381930373E+02  0.35940584050E+02 -0.54643757121E+03  0.56183960676E+03  0.12499874684E+03 0.  0.
         24    2    1    2    0    0  0.17582656091E+03 -0.56057939751E+02 -0.32880633369E+02  0.20484713036E+03  0.82605923733E+02 0.  0.
         24    2    1    2    0    0 -0.17703714275E+03 -0.10166376066E+03  0.22721244698E+03  0.31603975406E+03  0.81104623405E+02 0.  0.
        -13    1    4    4    0    0  0.14570475375E+03 -0.73373278997E+02 -0.42908299467E+02  0.16868501860E+03  0.00000000000E+00 0.  1.
         14    1    4    4    0    0  0.30121807159E+02  0.17315339246E+02  0.10027666098E+02  0.36162111762E+02  0.00000000000E+00 0. -1.
        -13    1    5    5    0    0 -0.11974181341E+03 -0.68555142590E+02  0.20325408161E+03  0.24566263685E+03  0.00000000000E+00 0.  1.
         14    1    5    5    0    0 -0.57295329342E+02 -0.33108618070E+02  0.23958365367E+02  0.70377117204E+02  0.00000000000E+00 0. -1.
          5    1    3    3  501    0 -0.10381350773E+02  0.18777541509E+02 -0.84190374823E+01  0.23523152448E+02  0.47000000000E+01 0.  1.
         -5    1    3    3    0  501 -0.20005796001E+01  0.17163042541E+02 -0.53801853373E+03  0.53831645432E+03  0.47000000000E+01 0.  1.
          1    1    1    2  502    0  0.11825193244E+02 -0.56806724649E+01 -0.11349223759E+04  0.11349981958E+04  0.00000000000E+00 0. -1.
          1    1    1    2  503    0  0.17673189694E+01  0.12746178883E+03  0.22489354274E+04  0.22525452688E+04  0.00000000000E+00 0. -1.
<mgrwt>
<rscale>  0 0.40891762E+02</rscale>
<asrwt>0</asrwt>
<pdfrwt beam="1">  1        2 0.38471891E+00 0.12746020E+03</pdfrwt>
<pdfrwt beam="2">  1        2 0.27267373E+00 0.13118888E+02</pdfrwt>
<totfact> 0.92686632E+00</totfact>
</mgrwt>
</event>
<event>
13    1  0.3019759E-008  0.8090816E+02  0.7546771E-02  0.1348748E+00
          2   -1    0    0  503    0  0.00000000000E+00  0.00000000000E+00  0.12818330075E+03  0.12818330075E+03  0.00000000000E+00 0. -1.
          2   -1    0    0  502    0 -0.00000000000E+00 -0.00000000000E+00 -0.44409659057E+04  0.44409659057E+04  0.00000000000E+00 0. -1.
         25    2    1    2    0    0 -0.29815043923E+02 -0.19921275282E+00 -0.99749899251E+03  0.10057427154E+04  0.12500077200E+03 0.  0.
         24    2    1    2    0    0  0.33181976470E+01 -0.46793193288E+02 -0.66437032152E+02  0.11473370622E+03  0.80927935393E+02 0.  0.
         24    2    1    2    0    0 -0.40410251953E+02 -0.13736051468E+02 -0.21280987447E+02  0.91539788602E+02  0.78134402780E+02 0.  0.
        -11    1    5    5    0    0 -0.37488007642E+02 -0.40048624322E+02 -0.31388143557E+02  0.63201729272E+02  0.00000000000E+00 0.  1.
         12    1    5    5    0    0 -0.29222443107E+01  0.26312572853E+02  0.10107156110E+02  0.28338059330E+02  0.00000000000E+00 0. -1.
        -13    1    4    4    0    0 -0.80293646588E+01  0.17595722172E+02 -0.39576983803E+02  0.44050173468E+02  0.00000000000E+00 0.  1.
         14    1    4    4    0    0  0.11347562306E+02 -0.64388915460E+02 -0.26860048349E+02  0.70683532748E+02  0.00000000000E+00 0. -1.
          5    1    3    3  501    0  0.49115044746E+02  0.12462140691E+01 -0.36738022729E+03  0.37068067400E+03  0.47000000000E+01 0.  1.
         -5    1    3    3    0  501 -0.78930088669E+02 -0.14454268219E+01 -0.63011876521E+03  0.63506204140E+03  0.47000000000E+01 0.  1.
          1    1    1    2  502    0  0.33808165479E+01  0.80973960669E+02 -0.32745590664E+04  0.32755618284E+04  0.00000000000E+00 0. -1.
          1    1    1    2  503    0  0.63526281681E+02 -0.20245503160E+02  0.46993473576E+02  0.81571167830E+02  0.00000000000E+00 0. -1.
<mgrwt>
<rscale>  0 0.73447254E+02</rscale>
<asrwt>0</asrwt>
<pdfrwt beam="1">  1        2 0.18850485E-01 0.66674349E+02</pdfrwt>
<pdfrwt beam="2">  1        2 0.65308323E+00 0.80908162E+02</pdfrwt>
<totfact> 0.16312821E+01</totfact>
</mgrwt>
</event>
<event>
13    1  0.3019759E-008  0.5961964E+02  0.7546771E-02  0.1404245E+00
          2   -1    0    0  502    0  0.00000000000E+00  0.00000000000E+00  0.89000849207E+03  0.89000849207E+03  0.00000000000E+00 0. -1.
          4   -1    0    0  503    0 -0.00000000000E+00 -0.00000000000E+00 -0.66733152071E+03  0.66733152071E+03  0.00000000000E+00 0. -1.
         25    2    1    2    0    0 -0.15618806753E+03  0.22714221972E+03 -0.14308344384E+03  0.33479207068E+03  0.12499823305E+03 0.  0.
         24    2    1    2    0    0  0.19875388823E+02 -0.24856454103E+03  0.34193237926E+03  0.43131705235E+03  0.83290368710E+02 0.  0.
         24    2    1    2    0    0  0.36913612811E+02 -0.11797884066E+02  0.85504829467E+02  0.11973020621E+03  0.74313131671E+02 0.  0.
        -11    1    5    5    0    0 -0.87279879228E+00  0.23633127453E+02  0.52731609941E+01  0.24229996240E+02  0.00000000000E+00 0.  1.
         12    1    5    5    0    0  0.37786411603E+02 -0.35431011519E+02  0.80231668473E+02  0.95500209974E+02  0.00000000000E+00 0. -1.
        -13    1    4    4    0    0 -0.85567259724E+01  0.29978626431E-01  0.12906263902E+01  0.86535642694E+01  0.00000000000E+00 0.  1.
         14    1    4    4    0    0  0.28432114795E+02 -0.24859451966E+03  0.34064175287E+03  0.42266348808E+03  0.00000000000E+00 0. -1.
          5    1    3    3  501    0 -0.21756150185E+02  0.48526245411E+01  0.18047719725E+02  0.29063520487E+02  0.47000000000E+01 0. -1.
         -5    1    3    3    0  501 -0.13443191735E+03  0.22228959518E+03 -0.16113116357E+03  0.30572855019E+03  0.47000000000E+01 0. -1.
          1    1    1    2  502    0  0.56797228931E+02 -0.82810446465E+01  0.29975871182E+03  0.30520449903E+03  0.00000000000E+00 0. -1.
          3    1    1    2  503    0  0.42601836967E+02  0.41501250022E+02 -0.36143550535E+03  0.36629618452E+03  0.00000000000E+00 0. -1.
<mgrwt>
<rscale>  0 0.58498144E+02</rscale>
<asrwt>0</asrwt>
<pdfrwt beam="1">  1        2 0.13088360E+00 0.57397743E+02</pdfrwt>
<pdfrwt beam="2">  1        4 0.98136989E-01 0.59619641E+02</pdfrwt>
<totfact> 0.15591773E+01</totfact>
</mgrwt>
</event>
<event>
13    1  0.3019759E-008  0.1423162E+03  0.7546771E-02  0.1278316E+00
          2   -1    0    0  503    0  0.00000000000E+00  0.00000000000E+00  0.26448593879E+03  0.26448593879E+03  0.00000000000E+00 0. -1.
         -3   -1    0    0    0  501 -0.00000000000E+00 -0.00000000000E+00 -0.21881878759E+04  0.21881878759E+04  0.00000000000E+00 0.  1.
         25    2    1    2    0    0  0.72831227164E+02 -0.17935902980E+02 -0.22792211079E+03  0.27055685447E+03  0.12500575446E+03 0.  0.
         24    2    1    2    0    0 -0.24720906977E+02 -0.74709961761E+02 -0.58294481429E+02  0.12678847157E+03  0.80525575621E+02 0.  0.
         24    2    1    2    0    0  0.66597856630E+02  0.13699074725E+03  0.57026308706E+01  0.17229267592E+03  0.80315047385E+02 0.  0.
        -11    1    5    5    0    0  0.58164175943E+02  0.31205293483E+02  0.45893530761E+01  0.66165730300E+02  0.00000000000E+00 0.  1.
         12    1    5    5    0    0  0.84336806865E+01  0.10578545377E+03  0.11132777945E+01  0.10612694562E+03  0.00000000000E+00 0. -1.
        -13    1    4    4    0    0 -0.91611683238E+01  0.16674758023E+02 -0.16159305462E+02  0.24961925270E+02  0.00000000000E+00 0.  1.
         14    1    4    4    0    0 -0.15559738654E+02 -0.91384719784E+02 -0.42135175967E+02  0.10182654630E+03  0.00000000000E+00 0. -1.
          5    1    3    3  502    0 -0.67497015050E+01  0.94802135333E+01 -0.16471088716E+03  0.16518837510E+03  0.47000000000E+01 0. -1.
         -5    1    3    3    0  502  0.79580928669E+02 -0.27416116514E+02 -0.63211223638E+02  0.10536847938E+03  0.47000000000E+01 0. -1.
          1    1    1    2  503    0 -0.17057991031E+03  0.43738951784E+00  0.58128872693E+02  0.18021282683E+03  0.00000000000E+00 0. -1.
         -4    1    1    2    0  501  0.55871733497E+02 -0.44782272029E+02 -0.17013168485E+04  0.17028229859E+04  0.00000000000E+00 0.  1.
<mgrwt>
<rscale>  0 0.10094741E+03</rscale>
<asrwt>0</asrwt>
<pdfrwt beam="1">  1        2 0.38894993E-01 0.14231622E+03</pdfrwt>
<pdfrwt beam="2">  1       -3 0.32179232E+00 0.71603788E+02</pdfrwt>
<totfact> 0.30210903E+00</totfact>
</mgrwt>
</event>
<event>
13    1  0.3019759E-008  0.5646752E+02  0.7546771E-02  0.1426366E+00
          2   -1    0    0  502    0  0.00000000000E+00  0.00000000000E+00  0.35955541276E+04  0.35955541276E+04  0.00000000000E+00 0. -1.
          2   -1    0    0  503    0 -0.00000000000E+00 -0.00000000000E+00 -0.22121828207E+03  0.22121828207E+03  0.00000000000E+00 0. -1.
         25    2    1    2    0    0  0.13726483816E+02 -0.21890810474E+02 -0.61446222439E+02  0.14166069655E+03  0.12499796300E+03 0.  0.
         24    2    1    2    0    0  0.12992883609E+03  0.76359824171E+02  0.73246136508E+03  0.75235540755E+03  0.82623741943E+02 0.  0.
         24    2    1    2    0    0 -0.10204463647E+03 -0.36456736254E+02  0.17364668518E+04  0.17426634713E+04  0.99078985443E+02 0.  0.
        -11    1    5    5    0    0 -0.25595857045E+02 -0.50581964311E+02  0.40745348564E+03  0.41137820308E+03  0.00000000000E+00 0.  1.
         12    1    5    5    0    0 -0.76448779423E+02  0.14125228057E+02  0.13290133662E+04  0.13312852682E+04  0.00000000000E+00 0. -1.
        -11    1    4    4    0    0  0.98930303025E+02  0.19741486145E+02  0.54045087514E+03  0.54978548505E+03  0.00000000000E+00 0.  1.
         12    1    4    4    0    0  0.30998533069E+02  0.56618338025E+02  0.19201048994E+03  0.20256992250E+03  0.00000000000E+00 0. -1.
          5    1    3    3  501    0  0.54855940277E+01 -0.54685570583E+02 -0.84181294340E+02  0.10064384576E+03  0.47000000000E+01 0.  1.
         -5    1    3    3    0  501  0.82408897881E+01  0.32794760109E+02  0.22735071901E+02  0.41016850799E+02  0.47000000000E+01 0.  1.
          1    1    1    2  502    0 -0.76714872411E+01 -0.56162076102E+02  0.10665637795E+04  0.10680689707E+04  0.00000000000E+00 0. -1.
          1    1    1    2  503    0 -0.33939196200E+02  0.38149798659E+02 -0.99709928414E+02  0.11202386353E+03  0.00000000000E+00 0. -1.
<mgrwt>
<rscale>  0 0.53696518E+02</rscale>
<asrwt>0</asrwt>
<pdfrwt beam="1">  1        2 0.52875792E+00 0.56467522E+02</pdfrwt>
<pdfrwt beam="2">  1        2 0.32532102E-01 0.51061494E+02</pdfrwt>
<totfact> 0.35782978E+01</totfact>
</mgrwt>
</event>
<event>
13    1  0.3019759E-008  0.1064499E+03  0.7546771E-02  0.1539009E+00
          2   -1    0    0  502    0  0.00000000000E+00  0.00000000000E+00  0.26940182298E+04  0.26940182298E+04  0.00000000000E+00 0. -1.
          2   -1    0    0  503    0 -0.00000000000E+00 -0.00000000000E+00 -0.39779443651E+03  0.39779443651E+03  0.00000000000E+00 0. -1.
         25    2    1    2    0    0 -0.64268601251E+02  0.10770610822E+03 -0.21876810002E+03  0.28145213780E+03  0.12499906174E+03 0.  0.
         24    2    1    2    0    0  0.12450909519E+02 -0.63348357124E+02 -0.75571208074E+02  0.12844083151E+03  0.81351092260E+02 0.  0.
         24    2    1    2    0    0  0.78408414919E+02  0.49795959929E+02  0.14934058472E+03  0.19380307689E+03  0.81421773570E+02 0.  0.
        -11    1    5    5    0    0  0.18488461122E+02  0.14871210358E+02 -0.53089400796E+01  0.24313801368E+02  0.00000000000E+00 0.  1.
         12    1    5    5    0    0  0.59919953796E+02  0.34924749571E+02  0.15464952480E+03  0.16948927552E+03  0.00000000000E+00 0. -1.
        -13    1    4    4    0    0  0.22756709955E+02 -0.17969375364E+02 -0.76590146674E+02  0.81895157772E+02  0.00000000000E+00 0.  1.
         14    1    4    4    0    0 -0.10305800436E+02 -0.45378981760E+02  0.10189385997E+01  0.46545673742E+02  0.00000000000E+00 0. -1.
          5    1    3    3  501    0 -0.93590403460E+02  0.78511894132E+02 -0.20290916273E+03  0.23689132416E+03  0.47000000000E+01 0. -1.
         -5    1    3    3    0  501  0.29321802209E+02  0.29194214091E+02 -0.15858937282E+02  0.44560813647E+02  0.47000000000E+01 0. -1.
          1    1    1    2  502    0 -0.37677554741E+02 -0.99352504865E+02  0.24618426271E+04  0.24641346634E+04  0.00000000000E+00 0. -1.
          1    1    1    2  503    0  0.11086831554E+02  0.51987938376E+01 -0.20620110503E+02  0.23981956727E+02  0.00000000000E+00 0. -1.
<mgrwt>
<rscale>  0 0.36104037E+02</rscale>
<asrwt>0</asrwt>
<pdfrwt beam="1">  1        2 0.39617914E+00 0.10644986E+03</pdfrwt>
<pdfrwt beam="2">  1        2 0.58499183E-01 0.12245215E+02</pdfrwt>
<totfact> 0.53897067E+01</totfact>
</mgrwt>
</event>
<event>
13    1  0.3019759E-008  0.1665159E+03  0.7546771E-02  0.1280506E+00
          2   -1    0    0  503    0  0.00000000000E+00  0.00000000000E+00  0.25234932693E+04  0.25234932693E+04  0.00000000000E+00 0. -1.
          2   -1    0    0  502    0 -0.00000000000E+00 -0.00000000000E+00 -0.74959366552E+03  0.74959366552E+03  0.00000000000E+00 0. -1.
         25    2    1    2    0    0  0.30917752079E+02  0.20346806594E+03 -0.52405552621E+03  0.57672920314E+03  0.12500887150E+03 0.  0.
         24    2    1    2    0    0  0.46392351209E+02 -0.23040705032E+02  0.84154663566E+02  0.12847476271E+03  0.82101357562E+02 0.  0.
         24    2    1    2    0    0  0.48174890439E+02  0.87998049839E+02  0.22802113826E+03  0.26228071629E+03  0.82055211924E+02 0.  0.
        -11    1    5    5    0    0 -0.11081498233E+02 -0.10092565720E+02  0.27754332640E+02  0.31543025635E+02  0.00000000000E+00 0.  1.
         12    1    5    5    0    0  0.59256388671E+02  0.98090615560E+02  0.20026680562E+03  0.23073769066E+03  0.00000000000E+00 0. -1.
        -11    1    4    4    0    0 -0.15467915412E+02 -0.27197309080E+02  0.46141898611E+02  0.55749662204E+02  0.00000000000E+00 0.  1.
         12    1    4    4    0    0  0.61860266621E+02  0.41566040481E+01  0.38012764955E+02  0.72725100503E+02  0.00000000000E+00 0. -1.
          5    1    3    3  501    0  0.79629464595E+02  0.12991708963E+03 -0.33175124459E+03  0.36510310885E+03  0.47000000000E+01 0.  1.
         -5    1    3    3    0  501 -0.48711712516E+02  0.73550976310E+02 -0.19230428163E+03  0.21162609429E+03  0.47000000000E+01 0.  1.
          1    1    1    2  502    0  0.48790333851E+02 -0.34808875819E+02 -0.14399871171E+03  0.15597366280E+03  0.00000000000E+00 0. -1.
          1    1    1    2  503    0 -0.17427532758E+03 -0.23361653492E+03  0.21297780399E+04  0.21496285898E+04  0.00000000000E+00 0. -1.
<mgrwt>
<rscale>  0 0.99900243E+02</rscale>
<asrwt>0</asrwt>
<pdfrwt beam="1">  1        2 0.37110195E+00 0.16651585E+03</pdfrwt>
<pdfrwt beam="2">  1        2 0.11023436E+00 0.59934585E+02</pdfrwt>
<totfact> 0.31753385E+01</totfact>
</mgrwt>
</event>
<event>
13    1  0.3019759E-008  0.7613804E+02  0.7546771E-02  0.1422652E+00
          2   -1    0    0  503    0  0.00000000000E+00  0.00000000000E+00  0.68432047582E+03  0.68432047582E+03  0.00000000000E+00 0. -1.
          2   -1    0    0  502    0 -0.00000000000E+00 -0.00000000000E+00 -0.26362014491E+04  0.26362014491E+04  0.00000000000E+00 0. -1.
         25    2    1    2    0    0  0.84526245646E+02 -0.49653691299E+02 -0.72901995435E+03  0.74612705878E+03  0.12500127495E+03 0.  0.
         24    2    1    2    0    0 -0.78066933131E+02  0.65438662088E+02  0.11528011490E+03  0.16479554603E+03  0.59088091485E+02 0.  0.
         24    2    1    2    0    0 -0.40041213780E+00 -0.59360579005E+02  0.14480600726E+02  0.10104240381E+03  0.80473852277E+02 0.  0.
        -11    1    4    4    0    0 -0.10873808102E+02  0.46225602183E+02  0.53286053086E+02  0.71375412106E+02  0.00000000000E+00 0.  1.
         12    1    4    4    0    0 -0.67193125028E+02  0.19213059905E+02  0.61994061811E+02  0.93420133921E+02  0.00000000000E+00 0. -1.
        -11    1    5    5    0    0  0.38793537833E+02 -0.41204564501E+02  0.11463008232E+02  0.57742144670E+02  0.00000000000E+00 0.  1.
         12    1    5    5    0    0 -0.39193949971E+02 -0.18156014503E+02  0.30175924939E+01  0.43300259138E+02  0.00000000000E+00 0. -1.
          5    1    3    3  501    0 -0.26412212488E+02 -0.28844457369E+02 -0.10900811469E+03  0.11590714714E+03  0.47000000000E+01 0.  1.
         -5    1    3    3    0  501  0.11093845813E+03 -0.20809233930E+02 -0.62001183966E+03  0.63021991164E+03  0.47000000000E+01 0.  1.
          1    1    1    2  502    0  0.31645464193E+02 -0.22724366813E+02 -0.18273376402E+04  0.18277529055E+04  0.00000000000E+00 0. -1.
          1    1    1    2  503    0 -0.37704364571E+02  0.66299975029E+02  0.47471590562E+03  0.48080401085E+03  0.00000000000E+00 0. -1.
<mgrwt>
<rscale>  0 0.54463657E+02</rscale>
<asrwt>0</asrwt>
<pdfrwt beam="1">  1        2 0.10063536E+00 0.76138042E+02</pdfrwt>
<pdfrwt beam="2">  1        2 0.38767668E+00 0.38959367E+02</pdfrwt>
<totfact> 0.37569821E+01</totfact>
</mgrwt>
</event>
<event>
13    1  0.3019759E-008  0.1609717E+03  0.7546771E-02  0.1365964E+00
          2   -1    0    0  503    0  0.00000000000E+00  0.00000000000E+00  0.24000804345E+04  0.24000804345E+04  0.00000000000E+00 0. -1.
          2   -1    0    0  502    0 -0.00000000000E+00 -0.00000000000E+00 -0.11122956832E+04  0.11122956832E+04  0.00000000000E+00 0. -1.
         25    2    1    2    0    0  0.34059107159E+02  0.37181647144E+02 -0.20894503796E+03  0.24864436913E+03  0.12499398285E+03 0.  0.
         24    2    1    2    0    0 -0.17386366808E+03 -0.48172491618E+02  0.32832416525E+03  0.38337670855E+03  0.81435736287E+02 0.  0.
         24    2    1    2    0    0  0.28145399139E+03  0.95524948986E+02  0.15705130796E+03  0.34571941195E+03  0.80718234104E+02 0.  0.
        -11    1    5    5    0    0  0.87437567066E+02 -0.61434100874E+01  0.30848423730E+02  0.92923058863E+02  0.00000000000E+00 0.  1.
         12    1    5    5    0    0  0.19401642432E+03  0.10166835907E+03  0.12620288423E+03  0.25279635308E+03  0.00000000000E+00 0. -1.
        -13    1    4    4    0    0 -0.14883140532E+03 -0.64474138393E+02  0.23617948096E+03  0.28651081822E+03  0.00000000000E+00 0.  1.
         14    1    4    4    0    0 -0.25032262764E+02  0.16301646775E+02  0.92144684292E+02  0.96865890333E+02  0.00000000000E+00 0. -1.
          5    1    3    3  501    0  0.17690823792E+02  0.46981440224E+02 -0.22026927831E+03  0.22596651508E+03  0.47000000000E+01 0. -1.
         -5    1    3    3    0  501  0.16368283367E+02 -0.97997930794E+01  0.11324240350E+02  0.22677854050E+02  0.47000000000E+01 0. -1.
          1    1    1    2  502    0  0.10164251183E+02 -0.27140540787E+02 -0.75764877562E+03  0.75820286741E+03  0.00000000000E+00 0. -1.
          1    1    1    2  503    0 -0.15181368164E+03 -0.57393563726E+02  0.17690030916E+04  0.17764327607E+04  0.00000000000E+00 0. -1.
<mgrwt>
<rscale>  0 0.68302158E+02</rscale>
<asrwt>0</asrwt>
<pdfrwt beam="1">  1        2 0.35295301E+00 0.16097174E+03</pdfrwt>
<pdfrwt beam="2">  1        2 0.16357289E+00 0.28981390E+02</pdfrwt>
<totfact> 0.23485209E+01</totfact>
</mgrwt>
</event>
<event>
13    1  0.3019759E-008  0.7526676E+02  0.7546771E-02  0.1406299E+00
          2   -1    0    0  503    0  0.00000000000E+00  0.00000000000E+00  0.39631591784E+04  0.39631591784E+04  0.00000000000E+00 0. -1.
          2   -1    0    0  502    0 -0.00000000000E+00 -0.00000000000E+00 -0.17078949691E+04  0.17078949691E+04  0.00000000000E+00 0. -1.
         25    2    1    2    0    0  0.29950125195E+03  0.30317795388E+02  0.14000360861E+03  0.35474739347E+03  0.12499813644E+03 0.  0.
         24    2    1    2    0    0 -0.21788981033E+03 -0.15536988526E+02  0.21496245332E+04  0.21621937740E+04  0.80491708500E+02 0.  0.
         24    2    1    2    0    0 -0.35992711524E+02  0.29997661072E+02  0.89835814360E+03  0.90311266172E+03  0.79810968104E+02 0.  0.
        -11    1    5    5    0    0 -0.15137389948E+01 -0.24749453718E+02  0.36567209846E+03  0.36651181489E+03  0.00000000000E+00 0.  1.
         12    1    5    5    0    0 -0.34478972529E+02  0.54747114790E+02  0.53268604514E+03  0.53660084683E+03  0.00000000000E+00 0. -1.
        -11    1    4    4    0    0 -0.48297898798E+02 -0.43850397891E+01  0.22983797802E+03  0.23489872657E+03  0.00000000000E+00 0.  1.
         12    1    4    4    0    0 -0.16959191153E+03 -0.11151948737E+02  0.19197865552E+04  0.19272950474E+04  0.00000000000E+00 0. -1.
          5    1    3    3  501    0  0.19166651103E+03 -0.15102224151E+02  0.31072852230E+02  0.19481206526E+03  0.47000000000E+01 0. -1.
         -5    1    3    3    0  501  0.10783474092E+03  0.45420019539E+02  0.10893075638E+03  0.15993532821E+03  0.47000000000E+01 0. -1.
          1    1    1    2  502    0 -0.12011819867E+02 -0.74308586617E+02 -0.15902107826E+04  0.15919913263E+04  0.00000000000E+00 0. -1.
          1    1    1    2  503    0 -0.33606910229E+02  0.29530118683E+02  0.65748870650E+03  0.65900899198E+03  0.00000000000E+00 0. -1.
<mgrwt>
<rscale>  0 0.58028043E+02</rscale>
<asrwt>0</asrwt>
<pdfrwt beam="1">  1        2 0.58281752E+00 0.44737594E+02</pdfrwt>
<pdfrwt beam="2">  1        2 0.25116103E+00 0.75266761E+02</pdfrwt>
<totfact> 0.18834069E+00</totfact>
</mgrwt>
</event>
<event>
13    1  0.3019759E-008  0.6752422E+02  0.7546771E-02  0.1474683E+00
         -1   -1    0    0    0  501 -0.00000000000E+00  0.00000000000E+00  0.63685759769E+03  0.63685759769E+03  0.00000000000E+00 0.  1.
          2   -1    0    0  503    0  0.00000000000E+00 -0.00000000000E+00 -0.93795435593E+03  0.93795435593E+03  0.00000000000E+00 0. -1.
         25    2    1    2    0    0  0.97254030237E+02  0.20904403694E+03 -0.15585210885E+02  0.26272633681E+03  0.12499789389E+03 0.  0.
         24    2    1    2    0    0 -0.34791840345E+02 -0.14504992206E+03  0.32799306639E+02  0.17358519766E+03  0.82498935064E+02 0.  0.
         24    2    1    2    0    0 -0.64053821017E+02 -0.10446966756E+02 -0.47266413085E+02  0.11360925609E+03  0.80379836781E+02 0.  0.
        -13    1    4    4    0    0 -0.57468889244E+02 -0.63725096069E+02  0.20938137027E+02  0.88328742106E+02  0.00000000000E+00 0.  1.
         14    1    4    4    0    0  0.22677048898E+02 -0.81324825990E+02  0.11861169612E+02  0.85256455554E+02  0.00000000000E+00 0. -1.
        -13    1    5    5    0    0  0.10174913828E+02  0.21676494827E+01  0.13366413137E+02  0.16937785447E+02  0.00000000000E+00 0.  1.
         14    1    5    5    0    0 -0.74228734845E+02 -0.12614616239E+02 -0.60632826223E+02  0.96671470638E+02  0.00000000000E+00 0. -1.
          5    1    3    3  502    0  0.66273600689E+02  0.11473569971E+03  0.52137386075E+02  0.14246707677E+03  0.47000000000E+01 0.  1.
         -5    1    3    3    0  502  0.30980429548E+02  0.94308337230E+02 -0.67722596960E+02  0.12025926004E+03  0.47000000000E+01 0.  1.
          1    1    1    2  503    0 -0.29131676235E+02  0.68071444868E+01 -0.64457595648E+03  0.64526983150E+03  0.00000000000E+00 0. -1.
         -2    1    1    2    0  501  0.30723307361E+02 -0.60354292612E+02  0.37353151557E+03  0.37962133156E+03  0.00000000000E+00 0.  1.
<mgrwt>
<rscale>  0 0.44945328E+02</rscale>
<asrwt>0</asrwt>
<pdfrwt beam="2">  1        2 0.13793446E+00 0.29916413E+02</pdfrwt>
<pdfrwt beam="1">  1       -1 0.93655529E-01 0.67524220E+02</pdfrwt>
<totfact> 0.47830396E+01</totfact>
</mgrwt>
</event>
<event>
13    1  0.3019759E-008  0.1024911E+03  0.7546771E-02  0.1367571E+00
          2   -1    0    0  503    0  0.00000000000E+00  0.00000000000E+00  0.13389747703E+04  0.13389747703E+04  0.00000000000E+00 0. -1.
         -1   -1    0    0    0  501 -0.00000000000E+00 -0.00000000000E+00 -0.75257576232E+03  0.75257576232E+03  0.00000000000E+00 0.  1.
         25    2    1    2    0    0  0.14391969782E+03  0.20797013505E+02 -0.13364486922E+03  0.23373066656E+03  0.12499471283E+03 0.  0.
         24    2    1    2    0    0 -0.35775553484E+01 -0.54300542517E+02  0.17731846726E+03  0.20259199065E+03  0.81488207889E+02 0.  0.
         24    2    1    2    0    0  0.37452988889E+01  0.40256422984E+02  0.17190246654E+03  0.19220602867E+03  0.75882096711E+02 0.  0.
        -11    1    4    4    0    0 -0.15654870933E+02 -0.71599853230E+02  0.11112840250E+03  0.13312075649E+03  0.00000000000E+00 0.  1.
         12    1    4    4    0    0  0.12077315584E+02  0.17299310714E+02  0.66190064760E+02  0.69471234161E+02  0.00000000000E+00 0. -1.
        -13    1    5    5    0    0  0.31667630030E+02  0.47061482137E+02  0.10380667849E+03  0.11829390682E+03  0.00000000000E+00 0.  1.
         14    1    5    5    0    0 -0.27922331141E+02 -0.68050591523E+01  0.68095788047E+02  0.73912121848E+02  0.00000000000E+00 0. -1.
          5    1    3    3  502    0  0.91738495549E+02 -0.17201565714E+02 -0.14039785474E+03  0.16865791723E+03  0.47000000000E+01 0. -1.
         -5    1    3    3    0  502  0.52181202266E+02  0.37998579219E+02  0.67529855243E+01  0.65072749335E+02  0.47000000000E+01 0. -1.
          1    1    1    2  503    0 -0.12150646920E+03 -0.45576861105E+02  0.91139469087E+03  0.92058750527E+03  0.00000000000E+00 0. -1.
         -2    1    1    2    0  501 -0.22580972157E+02  0.38823967132E+02 -0.54057174743E+03  0.54243434150E+03  0.00000000000E+00 0.  1.
<mgrwt>
<rscale>  0 0.67846958E+02</rscale>
<asrwt>0</asrwt>
<pdfrwt beam="1">  1        2 0.19690805E+00 0.10249111E+03</pdfrwt>
<pdfrwt beam="2">  1       -1 0.11067291E+00 0.44913258E+02</pdfrwt>
<totfact> 0.19378699E+01</totfact>
</mgrwt>
</event>
<event>
13    1  0.3019759E-008  0.9726141E+02  0.7546771E-02  0.1423774E+00
          2   -1    0    0  502    0  0.00000000000E+00  0.00000000000E+00  0.12033855749E+04  0.12033855749E+04  0.00000000000E+00 0. -1.
          2   -1    0    0  503    0 -0.00000000000E+00 -0.00000000000E+00 -0.34558138397E+04  0.34558138397E+04  0.00000000000E+00 0. -1.
         25    2    1    2    0    0  0.71184730667E+03 -0.12459143882E+02 -0.18039577373E+04  0.19433915061E+04  0.12500083840E+03 0.  0.
         24    2    1    2    0    0 -0.75700729436E+03  0.69544385941E+02 -0.79119228906E+03  0.11010017245E+04  0.91230991066E+02 0.  0.
         24    2    1    2    0    0  0.72964655071E+02 -0.12731483102E+03  0.35518022600E+00  0.16814365828E+03  0.82092975222E+02 0.  0.
        -13    1    4    4    0    0 -0.51327924754E+03  0.18919187165E+02 -0.57818224533E+03  0.77337457316E+03  0.00000000000E+00 0.  1.
         14    1    4    4    0    0 -0.24372804681E+03  0.50625198776E+02 -0.21301004373E+03  0.32762715132E+03  0.00000000000E+00 0. -1.
        -13    1    5    5    0    0  0.81667783429E+02 -0.74807583405E+02  0.17718290336E+02  0.11215943651E+03  0.00000000000E+00 0.  1.
         14    1    5    5    0    0 -0.87031283576E+01 -0.52507247613E+02 -0.17363110110E+02  0.55984221775E+02  0.00000000000E+00 0. -1.
          5    1    3    3  501    0  0.13463154068E+02  0.13644001917E+02 -0.23562014230E+02  0.30735546527E+02  0.47000000000E+01 0. -1.
         -5    1    3    3    0  501  0.69838415260E+03 -0.26103145799E+02 -0.17803957231E+04  0.19126559596E+04  0.47000000000E+01 0. -1.
          1    1    1    2  502    0 -0.12737761738E+02  0.96445760858E+02  0.89145233557E+03  0.89674483660E+03  0.00000000000E+00 0. -1.
          1    1    1    2  503    0 -0.15066905649E+02 -0.26216171899E+02 -0.54908575420E+03  0.54991768910E+03  0.00000000000E+00 0. -1.
<mgrwt>
<rscale>  0 0.54230346E+02</rscale>
<asrwt>0</asrwt>
<pdfrwt beam="1">  1        2 0.17696847E+00 0.97261407E+02</pdfrwt>
<pdfrwt beam="2">  1        2 0.50820791E+00 0.30237383E+02</pdfrwt>
<totfact> 0.71984329E+00</totfact>
</mgrwt>
</event>
<event>
13    1  0.3019759E-008  0.1538587E+03  0.7546771E-02  0.1197216E+00
          2   -1    0    0  502    0  0.00000000000E+00  0.00000000000E+00  0.24599332954E+04  0.24599332954E+04  0.00000000000E+00 0. -1.
          2   -1    0    0  503    0 -0.00000000000E+00 -0.00000000000E+00 -0.14678338972E+04  0.14678338972E+04  0.00000000000E+00 0. -1.
         25    2    1    2    0    0 -0.25441944633E+03  0.27350271778E+02 -0.61877790246E+03  0.68116725481E+03  0.12500177766E+03 0.  0.
         24    2    1    2    0    0  0.57953458018E+02  0.35396425695E+02  0.17731951993E+03  0.20641709048E+03  0.80958587226E+02 0.  0.
         24    2    1    2    0    0 -0.12488990812E+03 -0.10562568878E+03  0.11961879991E+03  0.21784884609E+03  0.79969914152E+02 0.  0.
        -11    1    5    5    0    0 -0.38479308757E+02  0.78123472134E+01  0.30154415240E+02  0.49507360360E+02  0.00000000000E+00 0.  1.
         12    1    5    5    0    0 -0.86410599366E+02 -0.11343803600E+03  0.89464384667E+02  0.16834148573E+03  0.00000000000E+00 0. -1.
        -13    1    4    4    0    0  0.70225241451E+02  0.48914695231E+02  0.15890617377E+03  0.18048657570E+03  0.00000000000E+00 0.  1.
         14    1    4    4    0    0 -0.12271783433E+02 -0.13518269536E+02  0.18413346167E+02  0.25930514784E+02  0.00000000000E+00 0. -1.
          5    1    3    3  501    0 -0.89422999805E+02 -0.49838123388E+02 -0.23075857841E+03  0.25249143143E+03  0.47000000000E+01 0. -1.
         -5    1    3    3    0  501 -0.16499644653E+03  0.77188395166E+02 -0.38801932405E+03  0.42867582338E+03  0.47000000000E+01 0. -1.
          1    1    1    2  502    0  0.16957549877E+03  0.66962779096E+02  0.20562323298E+04  0.20642992171E+04  0.00000000000E+00 0. -1.
          1    1    1    2  503    0  0.15178039767E+03 -0.24083787784E+02 -0.74229334898E+03  0.75803478409E+03  0.00000000000E+00 0. -1.
<mgrwt>
<rscale>  0 0.15268125E+03</rscale>
<asrwt>0</asrwt>
<pdfrwt beam="1">  1        2 0.36175490E+00 0.15151278E+03</pdfrwt>
<pdfrwt beam="2">  1        2 0.21585793E+00 0.15385872E+03</pdfrwt>
<totfact> 0.13027093E+01</totfact>
</mgrwt>
</event>
<event>
13    1  0.3019759E-008  0.6069215E+02  0.7546771E-02  0.1482038E+00
          2   -1    0    0  503    0  0.00000000000E+00  0.00000000000E+00  0.90560832336E+03  0.90560832336E+03  0.00000000000E+00 0. -1.
          2   -1    0    0  502    0 -0.00000000000E+00 -0.00000000000E+00 -0.80870042091E+03  0.80870042091E+03  0.00000000000E+00 0. -1.
         25    2    1    2    0    0 -0.19205936058E+02 -0.23887509353E+03 -0.10050484419E+03  0.28836904525E+03  0.12500121704E+03 0.  0.
         24    2    1    2    0    0  0.37499870013E+03  0.15184473979E+02 -0.15635708608E+03  0.41215577114E+03  0.67603609106E+02 0.  0.
         24    2    1    2    0    0 -0.37115618736E+03  0.18090100767E+03  0.16706135953E+03  0.45255035827E+03  0.80063967728E+02 0.  0.
        -11    1    4    4    0    0  0.26790791173E+03  0.11262697606E+02 -0.77543362083E+02  0.27913163656E+03  0.00000000000E+00 0.  1.
         12    1    4    4    0    0  0.10709078841E+03  0.39217763727E+01 -0.78813723995E+02  0.13302413458E+03  0.00000000000E+00 0. -1.
        -13    1    5    5    0    0 -0.20211976816E+03  0.14203444920E+03  0.93194037419E+02  0.26402900229E+03  0.00000000000E+00 0.  1.
         14    1    5    5    0    0 -0.16903641920E+03  0.38866558470E+02  0.73867322111E+02  0.18852135597E+03  0.00000000000E+00 0. -1.
          5    1    3    3  501    0 -0.48045804814E+02 -0.17903445123E+03 -0.24055662572E+02  0.18698261681E+03  0.47000000000E+01 0. -1.
         -5    1    3    3    0  501  0.28839868756E+02 -0.59840642300E+02 -0.76449181618E+02  0.10138642844E+03  0.47000000000E+01 0. -1.
          1    1    1    2  502    0  0.26679418740E+02 -0.16925523500E+02 -0.18343360713E+03  0.18613477095E+03  0.00000000000E+00 0. -1.
          1    1    1    2  503    0 -0.11315995458E+02  0.59715135379E+02  0.37014208032E+03  0.37509879868E+03  0.00000000000E+00 0. -1.
<mgrwt>
<rscale>  0 0.43790276E+02</rscale>
<asrwt>0</asrwt>
<pdfrwt beam="1">  1        2 0.13317769E+00 0.60692148E+02</pdfrwt>
<pdfrwt beam="2">  1        2 0.11892653E+00 0.31595328E+02</pdfrwt>
<totfact> 0.21259652E+02</totfact>
</mgrwt>
</event>
<event>
13    1  0.3019759E-008  0.1715468E+03  0.7546771E-02  0.1280802E+00
          2   -1    0    0  502    0  0.00000000000E+00  0.00000000000E+00  0.30703678232E+03  0.30703678232E+03  0.00000000000E+00 0. -1.
          2   -1    0    0  503    0 -0.00000000000E+00 -0.00000000000E+00 -0.11652465633E+04  0.11652465633E+04  0.00000000000E+00 0. -1.
         25    2    1    2    0    0 -0.96336395032E+02 -0.11224530197E+03 -0.63935688745E+03  0.66804331855E+03  0.12499974842E+03 0.  0.
         24    2    1    2    0    0  0.32608518584E+02 -0.26258716357E+02 -0.61715409786E+02  0.10941645992E+03  0.80064562868E+02 0.  0.
         24    2    1    2    0    0 -0.12286146135E+03 -0.55711960418E+02  0.54008023455E+02  0.16553066758E+03  0.79276567112E+02 0.  0.
        -11    1    5    5    0    0 -0.55135975929E+02  0.85400338918E+01 -0.34686582381E+01  0.55901159294E+02  0.00000000000E+00 0.  1.
         12    1    5    5    0    0 -0.67725485422E+02 -0.64251994310E+02  0.57476681693E+02  0.10962950829E+03  0.00000000000E+00 0. -1.
        -11    1    4    4    0    0 -0.26164813926E+02 -0.40005788917E+01 -0.11019247707E+02  0.28670994738E+02  0.00000000000E+00 0.  1.
         12    1    4    4    0    0  0.58773332510E+02 -0.22258137465E+02 -0.50696162079E+02  0.80745465181E+02  0.00000000000E+00 0. -1.
          5    1    3    3  501    0 -0.21243425538E+02  0.24696003675E+02 -0.65631801570E+02  0.73422061422E+02  0.47000000000E+01 0.  1.
         -5    1    3    3    0  501 -0.75092969494E+02 -0.13694130565E+03 -0.57372508588E+03  0.59462125713E+03  0.47000000000E+01 0.  1.
          1    1    1    2  502    0  0.57902369315E+02 -0.35863378771E+01  0.11378083974E+03  0.12771697493E+03  0.00000000000E+00 0. -1.
          1    1    1    2  503    0  0.12868696848E+03  0.19780231662E+03 -0.32492634694E+03  0.40157592464E+03  0.00000000000E+00 0. -1.
<mgrwt>
<rscale>  0 0.99759718E+02</rscale>
<asrwt>0</asrwt>
<pdfrwt beam="1">  1        2 0.45152469E-01 0.58013328E+02</pdfrwt>
<pdfrwt beam="2">  1        2 0.17135979E+00 0.17154681E+03</pdfrwt>
<totfact> 0.39616328E+02</totfact>
</mgrwt>
</event>
<event>
13    1  0.3019759E-008  0.1506565E+03  0.7546771E-02  0.1260764E+00
          2   -1    0    0  503    0  0.00000000000E+00  0.00000000000E+00  0.46528031441E+04  0.46528031441E+04  0.00000000000E+00 0. -1.
         -1   -1    0    0    0  501 -0.00000000000E+00 -0.00000000000E+00 -0.14342834926E+04  0.14342834926E+04  0.00000000000E+00 0.  1.
         25    2    1    2    0    0 -0.89720782129E+02 -0.26966526813E+03  0.94950431320E+02  0.32469496234E+03  0.12506821570E+03 0.  0.
         24    2    1    2    0    0  0.73905117709E+02 -0.12070206040E+02  0.29142603827E+03  0.31159372011E+03  0.80955878954E+02 0.  0.
         24    2    1    2    0    0 -0.42281121162E+02  0.66709609061E+02  0.11610810855E+04  0.11667242477E+04  0.83056113393E+02 0.  0.
        -11    1    4    4    0    0  0.69900856635E+02 -0.29637285070E+02  0.28033844118E+03  0.29043784194E+03  0.00000000000E+00 0.  1.
         12    1    4    4    0    0  0.40042610734E+01  0.17567079030E+02  0.11087597088E+02  0.21155878180E+02  0.00000000000E+00 0. -1.
        -13    1    5    5    0    0  0.12380135677E+02 -0.89866268154E+01  0.69830160658E+02  0.71486212366E+02  0.00000000000E+00 0.  1.
         14    1    5    5    0    0 -0.54661256840E+02  0.75696235876E+02  0.10912509248E+04  0.10952380353E+04  0.00000000000E+00 0. -1.
          5    1    3    3  502    0 -0.50149124781E+01 -0.20160827189E+03  0.60150414387E+02  0.21050227313E+03  0.47000000000E+01 0.  1.
         -5    1    3    3    0  502 -0.84705869651E+02 -0.68056996240E+02  0.34800016933E+02  0.11419268921E+03  0.47000000000E+01 0.  1.
          1    1    1    2  503    0  0.39101010610E+02  0.13714718400E+03  0.29746283616E+04  0.29780450179E+04  0.00000000000E+00 0. -1.
         -2    1    1    2    0  501  0.18995774972E+02  0.77878681108E+02 -0.13035662651E+04  0.13060286888E+04  0.00000000000E+00 0.  1.
<mgrwt>
<rscale>  0 0.10989500E+03</rscale>
<asrwt>0</asrwt>
<pdfrwt beam="1">  1        2 0.68423575E+00 0.15065653E+03</pdfrwt>
<pdfrwt beam="2">  1       -1 0.21092404E+00 0.80161889E+02</pdfrwt>
<totfact> 0.39641224E-02</totfact>
</mgrwt>
</event>
<event>
13    1  0.3019759E-008  0.6728199E+02  0.7546771E-02  0.1447382E+00
         -1   -1    0    0    0  501 -0.00000000000E+00  0.00000000000E+00  0.16699420915E+04  0.16699420915E+04  0.00000000000E+00 0.  1.
          2   -1    0    0  503    0  0.00000000000E+00 -0.00000000000E+00 -0.33994911633E+03  0.33994911633E+03  0.00000000000E+00 0. -1.
         25    2    1    2    0    0  0.37420558231E+01  0.93780932312E+02  0.36122936804E+03  0.39359756374E+03  0.12499407824E+03 0.  0.
         24    2    1    2    0    0  0.41713234761E+02 -0.60943685605E+02  0.16036052340E+03  0.19972358244E+03  0.93380325275E+02 0.  0.
         24    2    1    2    0    0  0.57654252563E+02 -0.26928440635E+02  0.67496784538E+02  0.12259975840E+03  0.80160657947E+02 0.  0.
        -11    1    4    4    0    0  0.71557004666E+02 -0.37350297760E+02  0.11538593558E+03  0.14081677382E+03  0.00000000000E+00 0.  1.
         12    1    4    4    0    0 -0.29843769906E+02 -0.23593387845E+02  0.44974587815E+02  0.58906808616E+02  0.00000000000E+00 0. -1.
        -13    1    5    5    0    0  0.25609163846E+02  0.26512217856E+02  0.10944560122E+02  0.38451402637E+02  0.00000000000E+00 0.  1.
         14    1    5    5    0    0  0.32045088717E+02 -0.53440658490E+02  0.56552224416E+02  0.84148355760E+02  0.00000000000E+00 0. -1.
          5    1    3    3  502    0  0.20458457243E+02  0.25219900582E+02  0.29462549095E+03  0.29644706404E+03  0.47000000000E+01 0. -1.
         -5    1    3    3    0  502 -0.16716401420E+02  0.68561031730E+02  0.66603877093E+02  0.97150499701E+02  0.47000000000E+01 0. -1.
          1    1    1    2  503    0 -0.67057523963E+02  0.40007085752E+00 -0.27213125109E+03  0.28027181342E+03  0.00000000000E+00 0. -1.
         -2    1    1    2    0  501 -0.36052019184E+02 -0.63088769296E+01  0.10130375502E+04  0.10136984898E+04  0.00000000000E+00 0.  1.
<mgrwt>
<rscale>  0 0.49623700E+02</rscale>
<asrwt>0</asrwt>
<pdfrwt beam="2">  1        2 0.49992518E-01 0.67281988E+02</pdfrwt>
<pdfrwt beam="1">  1       -1 0.24557972E+00 0.36599864E+02</pdfrwt>
<totfact> 0.12006272E+01</totfact>
</mgrwt>
</event>
<event>
13    1  0.3019759E-008  0.1068183E+03  0.7546771E-02  0.1296138E+00
          2   -1    0    0  502    0  0.00000000000E+00  0.00000000000E+00  0.12552363085E+04  0.12552363085E+04  0.00000000000E+00 0. -1.
          2   -1    0    0  503    0 -0.00000000000E+00 -0.00000000000E+00 -0.29057608285E+04  0.29057608285E+04  0.00000000000E+00 0. -1.
         25    2    1    2    0    0 -0.67690609805E+03 -0.28225810202E+03 -0.79279177488E+03  0.10872055304E+04  0.12500226116E+03 0.  0.
         24    2    1    2    0    0  0.58151673160E+03  0.11790102822E+03 -0.24429895800E+03  0.64661633940E+03  0.79801929193E+02 0.  0.
         24    2    1    2    0    0  0.82018221408E+02  0.50162978147E+02  0.26219214444E+03  0.29146231494E+03  0.83440082752E+02 0.  0.
        -11    1    5    5    0    0  0.75543466722E+02  0.10441081922E+02  0.22136630977E+03  0.23413430901E+03  0.00000000000E+00 0.  1.
         12    1    5    5    0    0  0.64747546855E+01  0.39721896224E+02  0.40825834667E+02  0.57328005932E+02  0.00000000000E+00 0. -1.
        -11    1    4    4    0    0  0.45871802298E+03  0.92309165946E+02 -0.22674079853E+03  0.51995634090E+03  0.00000000000E+00 0.  1.
         12    1    4    4    0    0  0.12279870863E+03  0.25591862274E+02 -0.17558159464E+02  0.12665999850E+03  0.00000000000E+00 0. -1.
          5    1    3    3  501    0 -0.39314636137E+03 -0.16908766496E+03 -0.55028563048E+03  0.69713059394E+03  0.47000000000E+01 0.  1.
         -5    1    3    3    0  501 -0.28375973668E+03 -0.11317043706E+03 -0.24250614441E+03  0.39007493647E+03  0.47000000000E+01 0.  1.
          1    1    1    2  502    0 -0.62483135346E+02  0.86724702128E+02  0.62441823017E+03  0.63350094106E+03  0.00000000000E+00 0. -1.
          1    1    1    2  503    0  0.75854280383E+02  0.27469393524E+02 -0.15000441617E+04  0.15022120111E+04  0.00000000000E+00 0. -1.
<mgrwt>
<rscale>  0 0.92830774E+02</rscale>
<asrwt>0</asrwt>
<pdfrwt beam="1">  1        2 0.18459358E+00 0.10681826E+03</pdfrwt>
<pdfrwt beam="2">  1        2 0.42731776E+00 0.80674900E+02</pdfrwt>
<totfact> 0.11082559E+01</totfact>
</mgrwt>
</event>
<event>
13    1  0.3019759E-008  0.1320504E+03  0.7546771E-02  0.1261859E+00
          2   -1    0    0  502    0  0.00000000000E+00  0.00000000000E+00  0.36885663261E+04  0.36885663261E+04  0.00000000000E+00 0. -1.
          2   -1    0    0  503    0 -0.00000000000E+00 -0.00000000000E+00 -0.14011294358E+04  0.14011294358E+04  0.00000000000E+00 0. -1.
         25    2    1    2    0    0  0.32599316019E+02  0.66413175987E+02 -0.13147157034E+03  0.19591560967E+03  0.12499890782E+03 0.  0.
         24    2    1    2    0    0  0.80974995305E+02 -0.25711787935E+02  0.46129376563E+02  0.12200321423E+03  0.74423242310E+02 0.  0.
         24    2    1    2    0    0 -0.54708987484E+02  0.16280455511E+02  0.74353996607E+03  0.74989859858E+03  0.78981646329E+02 0.  0.
        -13    1    5    5    0    0 -0.67339587932E+02  0.83429620875E+01  0.37716926851E+03  0.38322432364E+03  0.00000000000E+00 0.  1.
         14    1    5    5    0    0  0.12630600448E+02  0.79374934234E+01  0.36637069756E+03  0.36667427494E+03  0.00000000000E+00 0. -1.
        -13    1    4    4    0    0  0.42880345554E+02 -0.38754779728E+02  0.56072418020E+02  0.80528088573E+02  0.00000000000E+00 0.  1.
         14    1    4    4    0    0  0.38094649751E+02  0.13042991793E+02 -0.99430414563E+01  0.41475125654E+02  0.00000000000E+00 0. -1.
          5    1    3    3  501    0 -0.23595899075E+02  0.17689699872E+02 -0.11602534475E+03  0.11980677175E+03  0.47000000000E+01 0.  1.
         -5    1    3    3    0  501  0.56195215094E+02  0.48723476116E+02 -0.15446225599E+02  0.76108837920E+02  0.47000000000E+01 0.  1.
          1    1    1    2  502    0 -0.75929770373E+02 -0.14583819473E+03  0.28214511229E+04  0.28262378789E+04  0.00000000000E+00 0. -1.
          1    1    1    2  503    0  0.17064446533E+02  0.88856351165E+02 -0.11922120048E+04  0.11956404606E+04  0.00000000000E+00 0. -1.
<mgrwt>
<rscale>  0 0.10930662E+03</rscale>
<asrwt>0</asrwt>
<pdfrwt beam="1">  1        2 0.54243622E+00 0.13205045E+03</pdfrwt>
<pdfrwt beam="2">  1        2 0.20604845E+00 0.90480089E+02</pdfrwt>
<totfact> 0.31278596E+00</totfact>
</mgrwt>
</event>
<event>
13    1  0.3019759E-008  0.7876916E+02  0.7546771E-02  0.1385202E+00
          2   -1    0    0  503    0  0.00000000000E+00  0.00000000000E+00  0.20209897609E+04  0.20209897609E+04  0.00000000000E+00 0. -1.
          2   -1    0    0  502    0 -0.00000000000E+00 -0.00000000000E+00 -0.41099854260E+04  0.41099854260E+04  0.00000000000E+00 0. -1.
         25    2    1    2    0    0  0.89800162806E+01 -0.14707857864E+03 -0.31943566772E+03  0.37333515345E+03  0.12500896769E+03 0.  0.
         24    2    1    2    0    0 -0.37644067178E+01 -0.10015600436E+02  0.34018316282E+02  0.87700035264E+02  0.80122202495E+02 0.  0.
         24    2    1    2    0    0  0.40173037382E+02  0.65545130132E+02  0.63873084234E+03  0.64813227183E+03  0.78665849078E+02 0.  0.
        -11    1    4    4    0    0 -0.21848636354E+02  0.27640504051E+02  0.28987099352E+02  0.45624689627E+02  0.00000000000E+00 0.  1.
         12    1    4    4    0    0  0.18084229637E+02 -0.37656104487E+02  0.50312169304E+01  0.42075345637E+02  0.00000000000E+00 0. -1.
        -13    1    5    5    0    0  0.48872939192E+02  0.14814500392E+02  0.20102229349E+03  0.20740780141E+03  0.00000000000E+00 0.  1.
         14    1    5    5    0    0 -0.86999018095E+01  0.50730629740E+02  0.43770854885E+03  0.44072447041E+03  0.00000000000E+00 0. -1.
          5    1    3    3  501    0 -0.89624162034E+01 -0.99518620858E+02 -0.78791670783E+02  0.12733616213E+03  0.47000000000E+01 0.  1.
         -5    1    3    3    0  501  0.17942432484E+02 -0.47559957782E+02 -0.24064399694E+03  0.24599899132E+03  0.47000000000E+01 0.  1.
          1    1    1    2  502    0  0.19343584704E+02  0.46727690699E+02 -0.37306852645E+04  0.37310280344E+04  0.00000000000E+00 0. -1.
          1    1    1    2  503    0 -0.64732231650E+02  0.44821358246E+02  0.12883761085E+04  0.12907796919E+04  0.00000000000E+00 0. -1.
<mgrwt>
<rscale>  0 0.63115853E+02</rscale>
<asrwt>0</asrwt>
<pdfrwt beam="1">  1        2 0.29720438E+00 0.78769165E+02</pdfrwt>
<pdfrwt beam="2">  1        2 0.60440962E+00 0.50573228E+02</pdfrwt>
<totfact> 0.10348177E+00</totfact>
</mgrwt>
</event>
<event>
13    1  0.3019759E-008  0.6265371E+02  0.7546771E-02  0.1579289E+00
          2   -1    0    0  503    0  0.00000000000E+00  0.00000000000E+00  0.16542008572E+04  0.16542008572E+04  0.00000000000E+00 0. -1.
          2   -1    0    0  502    0 -0.00000000000E+00 -0.00000000000E+00 -0.40069501535E+04  0.40069501535E+04  0.00000000000E+00 0. -1.
         25    2    1    2    0    0 -0.30805341436E+03 -0.74248955069E+03 -0.68824629669E+03  0.10655976244E+04  0.12501077257E+03 0.  0.
         24    2    1    2    0    0 -0.50989199829E+03  0.45493692053E+03  0.24140611513E+03  0.72924582090E+03  0.81025325008E+02 0.  0.
         24    2    1    2    0    0  0.85580431761E+03  0.24784633950E+03  0.22915183833E+03  0.92443094330E+03  0.90736794495E+02 0.  0.
        -11    1    4    4    0    0 -0.18739666659E+03  0.14170086503E+03  0.11870248485E+03  0.26322409789E+03  0.00000000000E+00 0.  1.
         12    1    4    4    0    0 -0.32249533170E+03  0.31323605550E+03  0.12270363029E+03  0.46602172301E+03  0.00000000000E+00 0. -1.
        -13    1    5    5    0    0  0.36326702202E+03  0.15193656636E+03  0.97014864472E+02  0.40553610618E+03  0.00000000000E+00 0.  1.
         14    1    5    5    0    0  0.49253729559E+03  0.95909773133E+02  0.13213697385E+03  0.51889483712E+03  0.00000000000E+00 0. -1.
          5    1    3    3  501    0 -0.93414600208E+02 -0.15044890327E+03 -0.21050854060E+03  0.27513105185E+03  0.47000000000E+01 0. -1.
         -5    1    3    3    0  501 -0.21463881415E+03 -0.59204064742E+03 -0.47773775609E+03  0.79046657256E+03  0.47000000000E+01 0. -1.
          1    1    1    2  502    0 -0.52814110008E+02  0.33712313169E+02 -0.25379211024E+04  0.25386944228E+04  0.00000000000E+00 0. -1.
          1    1    1    2  503    0  0.14955205050E+02  0.59939774969E+01  0.40286014937E+03  0.40318219935E+03  0.00000000000E+00 0. -1.
<mgrwt>
<rscale>  0 0.31771935E+02</rscale>
<asrwt>0</asrwt>
<pdfrwt beam="1">  1        2 0.24326483E+00 0.16111670E+02</pdfrwt>
<pdfrwt beam="2">  1        2 0.58925737E+00 0.62653707E+02</pdfrwt>
<totfact> 0.20121642E+00</totfact>
</mgrwt>
</event>
<event>
13    1  0.3019759E-008  0.2106988E+03  0.7546771E-02  0.1209892E+00
          2   -1    0    0  503    0  0.00000000000E+00  0.00000000000E+00  0.15952366127E+04  0.15952366127E+04  0.00000000000E+00 0. -1.
          2   -1    0    0  502    0 -0.00000000000E+00 -0.00000000000E+00 -0.11707522193E+04  0.11707522193E+04  0.00000000000E+00 0. -1.
         25    2    1    2    0    0 -0.44915096023E+03  0.56806910087E+02 -0.29083366110E+02  0.47057940384E+03  0.12504208500E+03 0.  0.
         24    2    1    2    0    0  0.21075879758E+03 -0.27199916100E+02 -0.42733640261E+01  0.22748100178E+03  0.81057006710E+02 0.  0.
         24    2    1    2    0    0 -0.44139325616E+02 -0.66357753918E+01  0.95748099071E+02  0.13355734118E+03  0.81716285566E+02 0.  0.
        -11    1    4    4    0    0  0.16194109275E+02 -0.85512420953E+00 -0.25265195390E+02  0.30021833900E+02  0.00000000000E+00 0.  1.
         12    1    4    4    0    0  0.19456468831E+03 -0.26344791891E+02  0.20991831364E+02  0.19745916788E+03  0.00000000000E+00 0. -1.
        -13    1    5    5    0    0  0.96104458009E+01  0.27425006278E+02  0.24303592918E+02  0.37883456370E+02  0.00000000000E+00 0.  1.
         14    1    5    5    0    0 -0.53749771417E+02 -0.34060781669E+02  0.71444506153E+02  0.95673884811E+02  0.00000000000E+00 0. -1.
          5    1    3    3  501    0 -0.41932418741E+03  0.84545624698E+02 -0.18283020571E+02  0.42817881270E+03  0.47000000000E+01 0.  1.
         -5    1    3    3    0  501 -0.29826772823E+02 -0.27738714611E+02 -0.10800345539E+02  0.42400591141E+02  0.47000000000E+01 0.  1.
          1    1    1    2  502    0  0.18298489053E+03 -0.10340249382E+03 -0.76841550386E+03  0.79664165875E+03  0.00000000000E+00 0. -1.
          1    1    1    2  503    0  0.99546597732E+02  0.80431275228E+02  0.11305085283E+04  0.11377294264E+04  0.00000000000E+00 0. -1.
<mgrwt>
<rscale>  0 0.14258540E+03</rscale>
<asrwt>0</asrwt>
<pdfrwt beam="1">  1        2 0.23459362E+00 0.96491251E+02</pdfrwt>
<pdfrwt beam="2">  1        2 0.17216944E+00 0.21069885E+03</pdfrwt>
<totfact> 0.50845662E+01</totfact>
</mgrwt>
</event>
<event>
13    1  0.3019759E-008  0.9751622E+02  0.7546771E-02  0.1501963E+00
          2   -1    0    0  503    0  0.00000000000E+00  0.00000000000E+00  0.15310970531E+04  0.15310970531E+04  0.00000000000E+00 0. -1.
          2   -1    0    0  502    0 -0.00000000000E+00 -0.00000000000E+00 -0.14565926789E+04  0.14565926789E+04  0.00000000000E+00 0. -1.
         25    2    1    2    0    0 -0.12604777132E+03  0.15204089487E+03 -0.56285961567E+03  0.60945799646E+03  0.12499451240E+03 0.  0.
         24    2    1    2    0    0 -0.10820398113E+02  0.11962747582E+02 -0.25064131236E+02  0.66619017177E+02  0.59579312098E+02 0.  0.
         24    2    1    2    0    0  0.11108382984E+03 -0.52327984483E+02  0.46215911408E+03  0.48429784024E+03  0.76651915266E+02 0.  0.
        -11    1    4    4    0    0  0.22528335004E+02 -0.33288446424E+01 -0.18518851254E+02  0.29352256071E+02  0.00000000000E+00 0.  1.
         12    1    4    4    0    0 -0.33348733117E+02  0.15291592225E+02 -0.65452799822E+01  0.37266761106E+02  0.00000000000E+00 0. -1.
        -11    1    5    5    0    0  0.10549519536E+02  0.17434222468E+02  0.42005712510E+02  0.46687518235E+02  0.00000000000E+00 0.  1.
         12    1    5    5    0    0  0.10053431030E+03 -0.69762206951E+02  0.42015340157E+03  0.43761032200E+03  0.00000000000E+00 0. -1.
          5    1    3    3  501    0 -0.71966863151E+02  0.27823501607E+02 -0.95661260159E+02  0.12299001313E+03  0.47000000000E+01 0. -1.
         -5    1    3    3    0  501 -0.54080908164E+02  0.12421739326E+03 -0.46719835551E+03  0.48646798334E+03  0.47000000000E+01 0. -1.
          1    1    1    2  502    0  0.22384925086E+02 -0.94894257059E+02 -0.81052892372E+03  0.81637193796E+03  0.00000000000E+00 0. -1.
          1    1    1    2  503    0  0.33994145033E+01 -0.16781400905E+02  0.10107979308E+04  0.10109429402E+04  0.00000000000E+00 0. -1.
<mgrwt>
<rscale>  0 0.40861927E+02</rscale>
<asrwt>0</asrwt>
<pdfrwt beam="1">  1        2 0.22516133E+00 0.17122250E+02</pdfrwt>
<pdfrwt beam="2">  1        2 0.21420480E+00 0.97516222E+02</pdfrwt>
<totfact> 0.47312329E+01</totfact>
</mgrwt>
</event>
<event>
13    1  0.3019759E-008  0.9501450E+02  0.7546771E-02  0.1312334E+00
          2   -1    0    0  503    0  0.00000000000E+00  0.00000000000E+00  0.14109739755E+04  0.14109739755E+04  0.00000000000E+00 0. -1.
         -3   -1    0    0    0  501 -0.00000000000E+00 -0.00000000000E+00 -0.64313108171E+03  0.64313108171E+03  0.00000000000E+00 0.  1.
         25    2    1    2    0    0 -0.15614555649E+03 -0.75652769829E+01  0.26401234049E+03  0.33130996364E+03  0.12500043140E+03 0.  0.
         24    2    1    2    0    0 -0.28295544247E+02 -0.32786326572E+02  0.13296176229E+03  0.16153507029E+03  0.80865120232E+02 0.  0.
         24    2    1    2    0    0  0.38989301814E+02 -0.49602154530E+02  0.51224350099E+03  0.52591587473E+03  0.10106217689E+03 0.  0.
        -13    1    5    5    0    0  0.47212008249E+02 -0.76878640806E+02  0.40747984707E+03  0.41734772661E+03  0.00000000000E+00 0.  1.
         14    1    5    5    0    0 -0.82227064351E+01  0.27276486275E+02  0.10476365392E+03  0.10856814813E+03  0.00000000000E+00 0. -1.
        -13    1    4    4    0    0 -0.19837864824E+02  0.17464288064E+02  0.96969954890E+01  0.28152690100E+02  0.00000000000E+00 0.  1.
         14    1    4    4    0    0 -0.84576794233E+01 -0.50250614636E+02  0.12326476680E+03  0.13338238019E+03  0.00000000000E+00 0. -1.
          5    1    3    3  502    0 -0.11552275377E+03 -0.54570240885E+02  0.12420396119E+03  0.17824738933E+03  0.47000000000E+01 0.  1.
         -5    1    3    3    0  502 -0.40622802720E+02  0.47004963902E+02  0.13980837930E+03  0.15306257431E+03  0.47000000000E+01 0.  1.
          1    1    1    2  503    0  0.72489639658E+02  0.29323948636E+02  0.43968858261E+03  0.44658783179E+03  0.00000000000E+00 0. -1.
         -4    1    1    2    0  501  0.72962159262E+02  0.60629809449E+02 -0.58106329261E+03  0.58875631674E+03  0.00000000000E+00 0.  1.
<mgrwt>
<rscale>  0 0.86196117E+02</rscale>
<asrwt>0</asrwt>
<pdfrwt beam="1">  1        2 0.20749617E+00 0.78196175E+02</pdfrwt>
<pdfrwt beam="2">  1       -3 0.94578100E-01 0.95014501E+02</pdfrwt>
<totfact> 0.11335768E+01</totfact>
</mgrwt>
</event>
<event>
13    1  0.3019759E-008  0.1825030E+03  0.7546771E-02  0.1260433E+00
          2   -1    0    0  503    0  0.00000000000E+00  0.00000000000E+00  0.14941093616E+04  0.14941093616E+04  0.00000000000E+00 0. -1.
          2   -1    0    0  502    0 -0.00000000000E+00 -0.00000000000E+00 -0.25361636182E+04  0.25361636182E+04  0.00000000000E+00 0. -1.
         25    2    1    2    0    0  0.67988037161E+02 -0.50076677686E+03 -0.18105292280E+04  0.18838895237E+04  0.12503565054E+03 0.  0.
         24    2    1    2    0    0  0.14732021296E+03  0.16165009714E+02 -0.51293427867E+02  0.17606803205E+03  0.80027392082E+02 0.  0.
         24    2    1    2    0    0 -0.19274548259E+03  0.23834870486E+03  0.77777241359E+03  0.83993477629E+03  0.81237767753E+02 0.  0.
        -11    1    4    4    0    0  0.12695388905E+03  0.30823471233E+02 -0.14377067858E+02  0.13143088071E+03  0.00000000000E+00 0.  1.
         12    1    4    4    0    0  0.20366323906E+02 -0.14658461520E+02 -0.36916360009E+02  0.44637151342E+02  0.00000000000E+00 0. -1.
        -13    1    5    5    0    0 -0.83856464074E+01 -0.54842179608E+01  0.13619192511E+02  0.16907930594E+02  0.00000000000E+00 0.  1.
         14    1    5    5    0    0 -0.18435983619E+03  0.24383292282E+03  0.76415322108E+03  0.82302684570E+03  0.00000000000E+00 0. -1.
          5    1    3    3  501    0  0.54092995464E+02 -0.20340891925E+03 -0.95831333196E+03  0.98116653673E+03  0.47000000000E+01 0.  1.
         -5    1    3    3    0  501  0.13895041697E+02 -0.29735785761E+03 -0.85221589609E+03  0.90272298697E+03  0.47000000000E+01 0.  1.
          1    1    1    2  502    0 -0.23330805601E+02  0.17986816842E+03 -0.52709616701E+03  0.55742914687E+03  0.00000000000E+00 0. -1.
          1    1    1    2  503    0  0.76803807722E+00  0.66384893865E+02  0.56909215274E+03  0.57295150085E+03  0.00000000000E+00 0. -1.
<mgrwt>
<rscale>  0 0.11007384E+03</rscale>
<asrwt>0</asrwt>
<pdfrwt beam="1">  1        2 0.21972197E+00 0.66389337E+02</pdfrwt>
<pdfrwt beam="2">  1        2 0.37296523E+00 0.18250295E+03</pdfrwt>
<totfact> 0.12051105E+01</totfact>
</mgrwt>
</event>
<event>
13    1  0.3019759E-008  0.2995765E+03  0.7546771E-02  0.1337933E+00
          2   -1    0    0  503    0  0.00000000000E+00  0.00000000000E+00  0.14321891118E+04  0.14321891118E+04  0.00000000000E+00 0. -1.
          2   -1    0    0  502    0 -0.00000000000E+00 -0.00000000000E+00 -0.33204755950E+04  0.33204755950E+04  0.00000000000E+00 0. -1.
         25    2    1    2    0    0 -0.31477047579E+03 -0.18073238659E+03  0.11068342043E+02  0.38404738569E+03  0.12500095305E+03 0.  0.
         24    2    1    2    0    0  0.12447162099E+02 -0.48710908362E+02  0.12433231958E+03  0.15599144339E+03  0.79668816241E+02 0.  0.
         24    2    1    2    0    0  0.55265197643E+02  0.10170115121E+03  0.14666232176E+03  0.20092856434E+03  0.73926213995E+02 0.  0.
        -13    1    4    4    0    0 -0.31533979444E+02 -0.35451090400E+02  0.73440669501E+02  0.87433995717E+02  0.00000000000E+00 0.  1.
         14    1    4    4    0    0  0.43981141544E+02 -0.13259817961E+02  0.50891650080E+02  0.68557447675E+02  0.00000000000E+00 0. -1.
        -13    1    5    5    0    0  0.36613694488E+01  0.36955497873E+02  0.58717050630E+01  0.37597757508E+02  0.00000000000E+00 0.  1.
         14    1    5    5    0    0  0.51603828194E+02  0.64745653341E+02  0.14079061670E+03  0.16333080684E+03  0.00000000000E+00 0. -1.
          5    1    3    3  501    0 -0.29319388095E+03 -0.19108228873E+03  0.32605048555E+02  0.35151141103E+03  0.47000000000E+01 0. -1.
         -5    1    3    3    0  501 -0.21576594841E+02  0.10349902144E+02 -0.21536706512E+02  0.32535974654E+02  0.47000000000E+01 0. -1.
          1    1    1    2  502    0  0.26633098804E+03  0.13213061556E+03 -0.30837672380E+04  0.30980656986E+04  0.00000000000E+00 0. -1.
          1    1    1    2  503    0 -0.19272871992E+02 -0.43884718239E+01  0.91341777147E+03  0.91363161478E+03  0.00000000000E+00 0. -1.
<mgrwt>
<rscale>  0 0.76951197E+02</rscale>
<asrwt>0</asrwt>
<pdfrwt beam="1">  1        2 0.21061605E+00 0.19766190E+02</pdfrwt>
<pdfrwt beam="2">  1        2 0.48830522E+00 0.29957653E+03</pdfrwt>
<totfact> 0.49698821E+00</totfact>
</mgrwt>
</event>
<event>
13    1  0.3019759E-008  0.5847239E+02  0.7546771E-02  0.1486495E+00
          2   -1    0    0  502    0  0.00000000000E+00  0.00000000000E+00  0.40063784857E+03  0.40063784857E+03  0.00000000000E+00 0. -1.
          2   -1    0    0  503    0 -0.00000000000E+00 -0.00000000000E+00 -0.13107304818E+04  0.13107304818E+04  0.00000000000E+00 0. -1.
         25    2    1    2    0    0 -0.18388371838E+03 -0.89788220821E+02 -0.17064766849E+03  0.29431506713E+03  0.12500234195E+03 0.  0.
         24    2    1    2    0    0  0.71639279754E+02  0.77637416697E+02 -0.12341343572E+01  0.13271942518E+03  0.80331611818E+02 0.  0.
         24    2    1    2    0    0  0.58291193379E+02  0.36398397124E+02  0.11991750085E+03  0.15930036284E+03  0.79206641475E+02 0.  0.
        -11    1    5    5    0    0 -0.14709352283E+02  0.22685246416E+02  0.52206800453E+02  0.58792307857E+02  0.00000000000E+00 0.  1.
         12    1    5    5    0    0  0.73000545662E+02  0.13713150707E+02  0.67710700395E+02  0.10050805499E+03  0.00000000000E+00 0. -1.
        -13    1    4    4    0    0  0.35212542329E+01  0.60624291421E+02 -0.11368070374E+02  0.61781364227E+02  0.00000000000E+00 0.  1.
         14    1    4    4    0    0  0.68118025521E+02  0.17013125276E+02  0.10133936017E+02  0.70938060953E+02  0.00000000000E+00 0. -1.
          5    1    3    3  501    0 -0.18544670366E+03 -0.61604319671E+02 -0.17842985307E+03  0.26465992248E+03  0.47000000000E+01 0.  1.
         -5    1    3    3    0  501  0.15629852794E+01 -0.28183901150E+02  0.77821845823E+01  0.29655144645E+02  0.47000000000E+01 0.  1.
          1    1    1    2  502    0  0.33201601752E+02 -0.48322638747E+02  0.12674439461E+03  0.13964800514E+03  0.00000000000E+00 0. -1.
          1    1    1    2  503    0  0.20751643495E+02  0.24075045747E+02 -0.98487272579E+03  0.98538547003E+03  0.00000000000E+00 0. -1.
<mgrwt>
<rscale>  0 0.43110337E+02</rscale>
<asrwt>0</asrwt>
<pdfrwt beam="1">  1        2 0.58917331E-01 0.58472392E+02</pdfrwt>
<pdfrwt beam="2">  1        2 0.19275448E+00 0.31784250E+02</pdfrwt>
<totfact> 0.28244440E+02</totfact>
</mgrwt>
</event>
<event>
13    1  0.3019759E-008  0.1036171E+03  0.7546771E-02  0.1433817E+00
          2   -1    0    0  503    0  0.00000000000E+00  0.00000000000E+00  0.13277741754E+04  0.13277741754E+04  0.00000000000E+00 0. -1.
         -1   -1    0    0    0  501 -0.00000000000E+00 -0.00000000000E+00 -0.44627404836E+03  0.44627404836E+03  0.00000000000E+00 0.  1.
         25    2    1    2    0    0 -0.10463232543E+03  0.62208948825E+02  0.11220223262E+03  0.20744432297E+03  0.12500371710E+03 0.  0.
         24    2    1    2    0    0  0.93713304965E+02  0.27128790391E+02  0.23725592829E+03  0.26921229750E+03  0.81650050942E+02 0.  0.
         24    2    1    2    0    0  0.43406233176E+02  0.80871455717E+01  0.50001091531E+03  0.50835966861E+03  0.80430928399E+02 0.  0.
        -13    1    5    5    0    0  0.33331879222E+02  0.39573964282E+02  0.20202267766E+03  0.20854322120E+03  0.00000000000E+00 0.  1.
         14    1    5    5    0    0  0.10074353954E+02 -0.31486818710E+02  0.29798823765E+03  0.29981644741E+03  0.00000000000E+00 0. -1.
        -13    1    4    4    0    0  0.56908268679E+01 -0.24425003600E+02  0.51851924162E+02  0.57598509969E+02  0.00000000000E+00 0.  1.
         14    1    4    4    0    0  0.88022478097E+02  0.51553793991E+02  0.18540400413E+03  0.21161378753E+03  0.00000000000E+00 0. -1.
          5    1    3    3  502    0 -0.18779189662E+02  0.71570606798E+02  0.92842463900E+02  0.11881423662E+03  0.47000000000E+01 0. -1.
         -5    1    3    3    0  502 -0.85853135765E+02 -0.93616579726E+01  0.19359768723E+02  0.88630086346E+02  0.47000000000E+01 0. -1.
          1    1    1    2  503    0  0.24305069072E+02 -0.10044182388E+02  0.40292114649E+03  0.40377849407E+03  0.00000000000E+00 0. -1.
         -2    1    1    2    0  501 -0.56792281785E+02 -0.87380702400E+02 -0.37089009568E+03  0.38525344060E+03  0.00000000000E+00 0.  1.
<mgrwt>
<rscale>  0 0.52201489E+02</rscale>
<asrwt>0</asrwt>
<pdfrwt beam="1">  1        2 0.19526091E+00 0.26298707E+02</pdfrwt>
<pdfrwt beam="2">  1       -1 0.65628537E-01 0.10361709E+03</pdfrwt>
<totfact> 0.61690204E+01</totfact>
</mgrwt>
</event>
<event>
13    1  0.3019759E-008  0.1116350E+03  0.7546771E-02  0.1468908E+00
          2   -1    0    0  503    0  0.00000000000E+00  0.00000000000E+00  0.20880487757E+04  0.20880487757E+04  0.00000000000E+00 0. -1.
          2   -1    0    0  502    0 -0.00000000000E+00 -0.00000000000E+00 -0.38130184406E+04  0.38130184406E+04  0.00000000000E+00 0. -1.
         25    2    1    2    0    0  0.24671070632E+03 -0.46112766982E+02 -0.17940317834E+04  0.18158081924E+04  0.12496716371E+03 0.  0.
         24    2    1    2    0    0 -0.25572326018E+03  0.19303726367E+03  0.74736199817E+03  0.81712494157E+03  0.80532247357E+02 0.  0.
         24    2    1    2    0    0  0.11245864961E+03 -0.89337041239E+02  0.33320612483E+03  0.37195042635E+03  0.81809187933E+02 0.  0.
        -11    1    4    4    0    0 -0.23671186177E+02 -0.50314862153E+01  0.74373075526E+02  0.78211222160E+02  0.00000000000E+00 0.  1.
         12    1    4    4    0    0 -0.23205207400E+03  0.19806874989E+03  0.67298892264E+03  0.73891371941E+03  0.00000000000E+00 0. -1.
        -13    1    5    5    0    0  0.11081832885E+03 -0.61403882756E+02  0.20711254505E+03  0.24278950789E+03  0.00000000000E+00 0.  1.
         14    1    5    5    0    0  0.16403207576E+01 -0.27933158483E+02  0.12609357978E+03  0.12916091846E+03  0.00000000000E+00 0. -1.
          5    1    3    3  501    0  0.63882170361E+02 -0.33394509668E+02 -0.23022595667E+03  0.24129278085E+03  0.47000000000E+01 0. -1.
         -5    1    3    3    0  501  0.18282853596E+03 -0.12718257315E+02 -0.15638058267E+04  0.15745154116E+04  0.47000000000E+01 0. -1.
          1    1    1    2  502    0 -0.15346276977E+02  0.10959278309E+02 -0.19504934246E+04  0.19505845825E+04  0.00000000000E+00 0. -1.
          1    1    1    2  503    0 -0.88099818773E+02 -0.68546733762E+02  0.93898742005E+03  0.94559907350E+03  0.00000000000E+00 0. -1.
<mgrwt>
<rscale>  0 0.45882264E+02</rscale>
<asrwt>0</asrwt>
<pdfrwt beam="1">  1        2 0.30706600E+00 0.11163497E+03</pdfrwt>
<pdfrwt beam="2">  1        2 0.56073800E+00 0.18857730E+02</pdfrwt>
<totfact> 0.18150958E+00</totfact>
</mgrwt>
</event>
<event>
13    1  0.3019759E-008  0.6537449E+02  0.7546771E-02  0.1422221E+00
         -1   -1    0    0    0  501 -0.00000000000E+00  0.00000000000E+00  0.22509002069E+03  0.22509002069E+03  0.00000000000E+00 0.  1.
          2   -1    0    0  503    0  0.00000000000E+00 -0.00000000000E+00 -0.73772711997E+03  0.73772711997E+03  0.00000000000E+00 0. -1.
         25    2    1    2    0    0  0.64699845598E+02  0.29880760255E+01  0.12022514604E+03  0.18512865628E+03  0.12499413994E+03 0.  0.
         24    2    1    2    0    0  0.16540526121E+02 -0.26428371972E+02 -0.40659481571E+02  0.89968054735E+02  0.73952752361E+02 0.  0.
         24    2    1    2    0    0 -0.75185704528E+02 -0.73200681546E+02 -0.43257000282E+03  0.45202348649E+03  0.78722265316E+02 0.  0.
        -11    1    5    5    0    0  0.14554132296E+02  0.11822842811E+01 -0.50662228446E+02  0.52724585860E+02  0.00000000000E+00 0.  1.
         12    1    5    5    0    0 -0.89739836824E+02 -0.74382965827E+02 -0.38190777438E+03  0.39929890063E+03  0.00000000000E+00 0. -1.
        -11    1    4    4    0    0  0.17074032250E+02 -0.41728466222E+02 -0.53515706702E+02  0.69976555605E+02  0.00000000000E+00 0.  1.
         12    1    4    4    0    0 -0.53350612883E+00  0.15300094250E+02  0.12856225131E+02  0.19991499130E+02  0.00000000000E+00 0. -1.
          5    1    3    3  502    0 -0.36317052764E+02  0.14587774458E+01  0.50033460088E+02  0.62020105461E+02  0.47000000000E+01 0.  1.
         -5    1    3    3    0  502  0.10101689836E+03  0.15292985797E+01  0.70191685954E+02  0.12310855082E+03  0.47000000000E+01 0.  1.
          1    1    1    2  503    0 -0.27499719597E+02  0.36279747974E+02 -0.16523819178E+03  0.17139461694E+03  0.00000000000E+00 0. -1.
         -2    1    1    2    0  501  0.21445052405E+02  0.60361229519E+02  0.56054308555E+01  0.64302326216E+02  0.00000000000E+00 0.  1.
<mgrwt>
<rscale>  0 0.54553851E+02</rscale>
<asrwt>0</asrwt>
<pdfrwt beam="2">  1        2 0.10848928E+00 0.45524221E+02</pdfrwt>
<pdfrwt beam="1">  1       -1 0.33101474E-01 0.65374489E+02</pdfrwt>
<totfact> 0.42696243E+02</totfact>
</mgrwt>
</event>
<event>
13    1  0.3019759E-008  0.4272939E+02  0.7546771E-02  0.1688538E+00
          2   -1    0    0  502    0  0.00000000000E+00  0.00000000000E+00  0.17521497937E+04  0.17521497937E+04  0.00000000000E+00 0. -1.
          2   -1    0    0  503    0 -0.00000000000E+00 -0.00000000000E+00 -0.11259835215E+04  0.11259835215E+04  0.00000000000E+00 0. -1.
         25    2    1    2    0    0 -0.50424858690E+02  0.40392178811E+02 -0.29954078407E+03  0.33094152926E+03  0.12499367979E+03 0.  0.
         24    2    1    2    0    0 -0.12887421314E+02  0.17511805121E+02 -0.68561149282E+00  0.84108693664E+02  0.81246866648E+02 0.  0.
         24    2    1    2    0    0  0.97872480927E+02 -0.33444598183E+02  0.11624301127E+04  0.11699849025E+04  0.83206620524E+02 0.  0.
        -13    1    4    4    0    0  0.26063472061E+01 -0.29934716222E+02  0.12405722442E+02  0.32508187128E+02  0.00000000000E+00 0.  1.
         14    1    4    4    0    0 -0.15493768520E+02  0.47446521344E+02 -0.13091333935E+02  0.51600506536E+02  0.00000000000E+00 0. -1.
        -13    1    5    5    0    0  0.30151097532E+02 -0.30807976706E+02  0.17497376504E+03  0.18020554532E+03  0.00000000000E+00 0.  1.
         14    1    5    5    0    0  0.67721383395E+02 -0.26366214765E+01  0.98745634762E+03  0.98977935723E+03  0.00000000000E+00 0. -1.
          5    1    3    3  501    0 -0.71006786724E+02 -0.19506790915E+02 -0.19653614896E+03  0.20993100414E+03  0.47000000000E+01 0. -1.
         -5    1    3    3    0  501  0.20581928034E+02  0.59898969726E+02 -0.10300463511E+03  0.12101052512E+03  0.47000000000E+01 0. -1.
          1    1    1    2  502    0  0.60117742431E+01 -0.11050113602E+02  0.52785834249E+03  0.52800821602E+03  0.00000000000E+00 0. -1.
          1    1    1    2  503    0 -0.40571975166E+02 -0.13409272148E+02 -0.76389578739E+03  0.76508997363E+03  0.00000000000E+00 0. -1.
<mgrwt>
<rscale>  0 0.23184451E+02</rscale>
<asrwt>0</asrwt>
<pdfrwt beam="1">  1        2 0.25766909E+00 0.12579604E+02</pdfrwt>
<pdfrwt beam="2">  1        2 0.16558581E+00 0.42729386E+02</pdfrwt>
<totfact> 0.60962454E+01</totfact>
</mgrwt>
</event>
<event>
13    1  0.3019759E-008  0.1300426E+03  0.7546771E-02  0.1314053E+00
          2   -1    0    0  502    0  0.00000000000E+00  0.00000000000E+00  0.20946938014E+04  0.20946938014E+04  0.00000000000E+00 0. -1.
          2   -1    0    0  503    0 -0.00000000000E+00 -0.00000000000E+00 -0.10239284532E+04  0.10239284532E+04  0.00000000000E+00 0. -1.
         25    2    1    2    0    0 -0.97769442614E+02  0.47576184124E+02 -0.17137513093E+03  0.23839222668E+03  0.12505623149E+03 0.  0.
         24    2    1    2    0    0  0.33658242760E+02 -0.24988222677E+02 -0.35629648692E+02  0.95149839604E+02  0.77632026461E+02 0.  0.
         24    2    1    2    0    0  0.89343579552E+02  0.58169842410E+02  0.38186467780E+03  0.40448282662E+03  0.80123149643E+02 0.  0.
        -11    1    4    4    0    0  0.37823766073E+02 -0.44589627974E+02 -0.51830487678E+01  0.58700393503E+02  0.00000000000E+00 0.  1.
         12    1    4    4    0    0 -0.41655233134E+01  0.19601405297E+02 -0.30446599924E+02  0.36449446101E+02  0.00000000000E+00 0. -1.
        -11    1    5    5    0    0  0.69262632789E+02  0.69928194514E+02  0.22076922824E+03  0.24171536324E+03  0.00000000000E+00 0.  1.
         12    1    5    5    0    0  0.20080946762E+02 -0.11758352104E+02  0.16109544956E+03  0.16276746338E+03  0.00000000000E+00 0. -1.
          5    1    3    3  501    0 -0.47060500142E+02  0.79763562092E+02 -0.56253396857E+02  0.10845944481E+03  0.47000000000E+01 0.  1.
         -5    1    3    3    0  501 -0.50708942472E+02 -0.32187377968E+02 -0.11512173407E+03  0.12993278186E+03  0.47000000000E+01 0.  1.
          1    1    1    2  502    0 -0.75029807640E+02 -0.10692396877E+03  0.16345765361E+04  0.16397873825E+04  0.00000000000E+00 0. -1.
          1    1    1    2  503    0  0.49797427942E+02  0.26166164915E+02 -0.73867108612E+03  0.74080997933E+03  0.00000000000E+00 0. -1.
<mgrwt>
<rscale>  0 0.85529788E+02</rscale>
<asrwt>0</asrwt>
<pdfrwt beam="1">  1        2 0.30804321E+00 0.13004257E+03</pdfrwt>
<pdfrwt beam="2">  1        2 0.15057771E+00 0.56253462E+02</pdfrwt>
<totfact> 0.36580482E+01</totfact>
</mgrwt>
</event>
<event>
13    1  0.3019759E-008  0.1089673E+03  0.7546771E-02  0.1336957E+00
          2   -1    0    0  503    0  0.00000000000E+00  0.00000000000E+00  0.41458210350E+04  0.41458210350E+04  0.00000000000E+00 0. -1.
          2   -1    0    0  502    0 -0.00000000000E+00 -0.00000000000E+00 -0.29381453770E+04  0.29381453770E+04  0.00000000000E+00 0. -1.
         25    2    1    2    0    0 -0.40782749059E+03  0.71943224493E+03 -0.99754376236E+03  0.13017783880E+04  0.12500958526E+03 0.  0.
         24    2    1    2    0    0 -0.76038951027E+02 -0.11948936440E+04  0.12302682197E+04  0.17183757208E+04  0.75514786496E+02 0.  0.
         24    2    1    2    0    0  0.38045465162E+03  0.41761923503E+03  0.49584697478E+02  0.57204419359E+03  0.74995665141E+02 0.  0.
        -11    1    4    4    0    0 -0.81550554493E+02 -0.10809061284E+04  0.10857285785E+04  0.15342148147E+04  0.00000000000E+00 0.  1.
         12    1    4    4    0    0  0.55116034655E+01 -0.11398751564E+03  0.14453964112E+03  0.18416090614E+03  0.00000000000E+00 0. -1.
        -13    1    5    5    0    0  0.30405684411E+03  0.35328929200E+03  0.15020744516E+02  0.46635770720E+03  0.00000000000E+00 0.  1.
         14    1    5    5    0    0  0.76397807508E+02  0.64329943023E+02  0.34563952962E+02  0.10568648639E+03  0.00000000000E+00 0. -1.
          5    1    3    3  501    0 -0.24221576735E+02  0.28108390322E+02 -0.93931572037E+02  0.10110389019E+03  0.47000000000E+01 0. -1.
         -5    1    3    3    0  501 -0.38360591386E+03  0.69132385461E+03 -0.90361219032E+03  0.12006744978E+04  0.47000000000E+01 0. -1.
          1    1    1    2  502    0  0.59833161389E+02  0.91076191305E+02 -0.12805463118E+04  0.12851745938E+04  0.00000000000E+00 0. -1.
          1    1    1    2  503    0  0.43578628607E+02 -0.33234027244E+02  0.22059128149E+04  0.22065935159E+04  0.00000000000E+00 0. -1.
<mgrwt>
<rscale>  0 0.77278490E+02</rscale>
<asrwt>0</asrwt>
<pdfrwt beam="1">  1        2 0.60967956E+00 0.54805086E+02</pdfrwt>
<pdfrwt beam="2">  1        2 0.43208020E+00 0.10896735E+03</pdfrwt>
<totfact> 0.32213731E-01</totfact>
</mgrwt>
</event>
<event>
13    1  0.3019759E-008  0.7793209E+02  0.7546771E-02  0.1340655E+00
          2   -1    0    0  503    0  0.00000000000E+00  0.00000000000E+00  0.62143922323E+03  0.62143922323E+03  0.00000000000E+00 0. -1.
          2   -1    0    0  502    0 -0.00000000000E+00 -0.00000000000E+00 -0.12946584175E+04  0.12946584175E+04  0.00000000000E+00 0. -1.
         25    2    1    2    0    0 -0.58306061622E+02  0.77037349538E+02 -0.67776934420E+03  0.69593769573E+03  0.12499456927E+03 0.  0.
         24    2    1    2    0    0 -0.68107457465E+02  0.64093971313E+02 -0.45422614541E+02  0.13170022005E+03  0.80839786793E+02 0.  0.
         24    2    1    2    0    0  0.11523329515E+01 -0.60394385288E+02  0.68078345675E+02  0.12168444944E+03  0.80769019062E+02 0.  0.
        -11    1    5    5    0    0 -0.35861160985E+02 -0.83348280104E+01  0.21569352844E+02  0.42670003600E+02  0.00000000000E+00 0.  1.
         12    1    5    5    0    0  0.37013493936E+02 -0.52059557277E+02  0.46508992831E+02  0.79014445840E+02  0.00000000000E+00 0. -1.
        -13    1    4    4    0    0 -0.13881946906E+01  0.54745187220E+02 -0.30547410285E+02  0.62706513883E+02  0.00000000000E+00 0.  1.
         14    1    4    4    0    0 -0.66719262774E+02  0.93487840929E+01 -0.14875204256E+02  0.68993706168E+02  0.00000000000E+00 0. -1.
          5    1    3    3  501    0 -0.43640237036E+02  0.59142296788E+02 -0.66505811520E+03  0.66912380630E+03  0.47000000000E+01 0. -1.
         -5    1    3    3    0  501 -0.14665824586E+02  0.17895052750E+02 -0.12711229003E+02  0.26813889432E+02  0.47000000000E+01 0. -1.
          1    1    1    2  502    0  0.53232823494E+02 -0.51704639884E+02 -0.48642872249E+03  0.49205691271E+03  0.00000000000E+00 0. -1.
          1    1    1    2  503    0  0.72028362641E+02 -0.29032295679E+02  0.46832314134E+03  0.47471836275E+03  0.00000000000E+00 0. -1.
<mgrwt>
<rscale>  0 0.76048204E+02</rscale>
<asrwt>0</asrwt>
<pdfrwt beam="1">  1        2 0.91388122E-01 0.77932088E+02</pdfrwt>
<pdfrwt beam="2">  1        2 0.19039094E+00 0.74209860E+02</pdfrwt>
<totfact> 0.16940512E+02</totfact>
</mgrwt>
</event>
<event>
13    1  0.3019759E-008  0.1248151E+03  0.7546771E-02  0.1397813E+00
          2   -1    0    0  503    0  0.00000000000E+00  0.00000000000E+00  0.35070162567E+03  0.35070162567E+03  0.00000000000E+00 0. -1.
          2   -1    0    0  502    0 -0.00000000000E+00 -0.00000000000E+00 -0.87011676897E+03  0.87011676897E+03  0.00000000000E+00 0. -1.
         25    2    1    2    0    0  0.21390773139E+03 -0.13474907821E+02 -0.21216254267E+03  0.32645882346E+03  0.12499731282E+03 0.  0.
         24    2    1    2    0    0 -0.73320533424E+02  0.12195079094E+03 -0.56851031101E+02  0.17256207439E+03  0.79358262009E+02 0.  0.
         24    2    1    2    0    0 -0.13349663301E+01 -0.53078523428E+02  0.10341937674E+02  0.98304282230E+02  0.82083277503E+02 0.  0.
        -13    1    5    5    0    0  0.31738020803E+02 -0.56033657979E+02  0.94509576000E+01  0.65087582460E+02  0.00000000000E+00 0.  1.
         14    1    5    5    0    0 -0.33072987133E+02  0.29551345513E+01  0.89098007401E+00  0.33216699770E+02  0.00000000000E+00 0. -1.
        -13    1    4    4    0    0 -0.50566195733E+02  0.21732650583E+02 -0.40879993362E+02  0.68559624485E+02  0.00000000000E+00 0.  1.
         14    1    4    4    0    0 -0.22754337691E+02  0.10021814036E+03 -0.15971037739E+02  0.10400244991E+03  0.00000000000E+00 0. -1.
          5    1    3    3  501    0  0.15613213678E+03 -0.62647028750E+01 -0.67181432150E+02  0.17015265341E+03  0.47000000000E+01 0. -1.
         -5    1    3    3    0  501  0.57775594617E+02 -0.72102049461E+01 -0.14498111052E+03  0.15630617005E+03  0.47000000000E+01 0. -1.
          1    1    1    2  502    0 -0.11126515394E+03 -0.48407080718E+02 -0.43256796847E+03  0.44926409526E+03  0.00000000000E+00 0. -1.
          1    1    1    2  503    0 -0.27987077700E+02 -0.69902789740E+01  0.17182446127E+03  0.17422911929E+03  0.00000000000E+00 0. -1.
<mgrwt>
<rscale>  0 0.60004355E+02</rscale>
<asrwt>0</asrwt>
<pdfrwt beam="1">  1        2 0.51573769E-01 0.28846846E+02</pdfrwt>
<pdfrwt beam="2">  1        2 0.12795835E+00 0.12481512E+03</pdfrwt>
<totfact> 0.51848449E+02</totfact>
</mgrwt>
</event>
<event>
13    1  0.3019759E-008  0.1575983E+03  0.7546771E-02  0.1248602E+00
          2   -1    0    0  503    0  0.00000000000E+00  0.00000000000E+00  0.16880148669E+04  0.16880148669E+04  0.00000000000E+00 0. -1.
          2   -1    0    0  502    0 -0.00000000000E+00 -0.00000000000E+00 -0.14036290867E+04  0.14036290867E+04  0.00000000000E+00 0. -1.
         25    2    1    2    0    0  0.39606196569E+03 -0.96487850646E+02 -0.46443161802E+03  0.63047304905E+03  0.12499820710E+03 0.  0.
         24    2    1    2    0    0 -0.15133796099E+03 -0.10131742838E+03  0.88556594832E+02  0.21801106044E+03  0.80735074502E+02 0.  0.
         24    2    1    2    0    0 -0.60132393976E+02  0.18993325550E+03  0.68657888068E+03  0.71965819501E+03  0.82624523637E+02 0.  0.
        -11    1    4    4    0    0 -0.12940346027E+03 -0.10680348616E+03  0.97080505925E+02  0.19384752982E+03  0.00000000000E+00 0.  1.
         12    1    4    4    0    0 -0.21934500721E+02  0.54860577771E+01 -0.85239110929E+01  0.24163530622E+02  0.00000000000E+00 0. -1.
        -11    1    5    5    0    0 -0.12746737189E+02  0.15528447677E+03  0.46358920320E+03  0.48907126000E+03  0.00000000000E+00 0.  1.
         12    1    5    5    0    0 -0.47385656787E+02  0.34648778728E+02  0.22298967748E+03  0.23058693501E+03  0.00000000000E+00 0. -1.
          5    1    3    3  501    0  0.18896160011E+03  0.46007060703E+01 -0.26582639538E+03  0.32621069157E+03  0.47000000000E+01 0.  1.
         -5    1    3    3    0  501  0.20710036558E+03 -0.10108855672E+03 -0.19860522264E+03  0.30426235748E+03  0.47000000000E+01 0.  1.
          1    1    1    2  502    0 -0.14233291911E+03 -0.67545669022E+02 -0.76435300447E+03  0.78042077926E+03  0.00000000000E+00 0. -1.
          1    1    1    2  503    0 -0.42258691607E+02  0.75417692546E+02  0.73803492716E+03  0.74308086981E+03  0.00000000000E+00 0. -1.
<mgrwt>
<rscale>  0 0.11672358E+03</rscale>
<asrwt>0</asrwt>
<pdfrwt beam="1">  1        2 0.24823748E+00 0.86450132E+02</pdfrwt>
<pdfrwt beam="2">  1        2 0.20641604E+00 0.15759831E+03</pdfrwt>
<totfact> 0.35416861E+01</totfact>
</mgrwt>
</event>
<event>
13    1  0.3019759E-008  0.7221987E+02  0.7546771E-02  0.1417600E+00
          2   -1    0    0  502    0  0.00000000000E+00  0.00000000000E+00  0.16169993743E+04  0.16169993743E+04  0.00000000000E+00 0. -1.
          2   -1    0    0  503    0 -0.00000000000E+00 -0.00000000000E+00 -0.74992366651E+03  0.74992366651E+03  0.00000000000E+00 0. -1.
         25    2    1    2    0    0  0.87357215578E+02  0.26458376916E+02 -0.43371925482E+02  0.16074221401E+03  0.12500242647E+03 0.  0.
         24    2    1    2    0    0 -0.24215408860E+02  0.25927906387E+02  0.79678676388E+02  0.11863255818E+03  0.80413618458E+02 0.  0.
         24    2    1    2    0    0 -0.36532845082E+02 -0.76216196210E+02  0.38345189736E+03  0.40091995399E+03  0.80980828489E+02 0.  0.
        -11    1    4    4    0    0 -0.26370252953E+02  0.26079456946E+02 -0.17937807517E+01  0.37131468660E+02  0.00000000000E+00 0.  1.
         12    1    4    4    0    0  0.21548440937E+01 -0.15155055965E+00  0.81472457139E+02  0.81501089520E+02  0.00000000000E+00 0. -1.
        -11    1    5    5    0    0 -0.49780056384E+02 -0.19200018773E+02  0.12478887740E+03  0.13571646421E+03  0.00000000000E+00 0.  1.
         12    1    5    5    0    0  0.13247211302E+02 -0.57016177437E+02  0.25866301996E+03  0.26520348978E+03  0.00000000000E+00 0. -1.
          5    1    3    3  501    0  0.77259683503E+02  0.66207661488E+02 -0.13905399295E+01  0.10186528720E+03  0.47000000000E+01 0.  1.
         -5    1    3    3    0  501  0.10097532075E+02 -0.39749284572E+02 -0.41981385552E+02  0.58876926812E+02  0.47000000000E+01 0.  1.
          1    1    1    2  502    0  0.19871370349E+01 -0.42653938596E+02  0.10644299571E+04  0.10652860840E+04  0.00000000000E+00 0. -1.
          1    1    1    2  503    0 -0.28596098671E+02  0.66483851503E+02 -0.61711289751E+03  0.62134223070E+03  0.00000000000E+00 0. -1.
<mgrwt>
<rscale>  0 0.55531998E+02</rscale>
<asrwt>0</asrwt>
<pdfrwt beam="1">  1        2 0.23779403E+00 0.42700201E+02</pdfrwt>
<pdfrwt beam="2">  1        2 0.11028289E+00 0.72219866E+02</pdfrwt>
<totfact> 0.99960994E+01</totfact>
</mgrwt>
</event>
<event>
13    1  0.3019759E-008  0.9837609E+02  0.7546771E-02  0.1300149E+00
          2   -1    0    0  503    0  0.00000000000E+00  0.00000000000E+00  0.24749944478E+04  0.24749944478E+04  0.00000000000E+00 0. -1.
          2   -1    0    0  502    0 -0.00000000000E+00 -0.00000000000E+00 -0.78482480176E+03  0.78482480176E+03  0.00000000000E+00 0. -1.
         25    2    1    2    0    0  0.71449252122E+02 -0.21793104245E+02 -0.29829135624E+03  0.33193823961E+03  0.12500130673E+03 0.  0.
         24    2    1    2    0    0  0.23250398677E+02 -0.12386691781E+02  0.79295019945E+02  0.11567935142E+03  0.80000006161E+02 0.  0.
         24    2    1    2    0    0  0.10370546518E+03  0.35008061576E+02  0.96953445963E+03  0.97877734581E+03  0.77637853950E+02 0.  0.
        -13    1    4    4    0    0 -0.16054079981E+02 -0.90205823881E+01  0.73543496037E+02  0.75813918248E+02  0.00000000000E+00 0.  1.
         14    1    4    4    0    0  0.39304478658E+02 -0.33661093925E+01  0.57515239076E+01  0.39865433176E+02  0.00000000000E+00 0. -1.
        -13    1    5    5    0    0  0.24948999772E+02  0.12446398589E+02  0.58252181916E+03  0.58318867892E+03  0.00000000000E+00 0.  1.
         14    1    5    5    0    0  0.78756465413E+02  0.22561662987E+02  0.38701264048E+03  0.39558866689E+03  0.00000000000E+00 0. -1.
          5    1    3    3  501    0  0.91061007150E+01  0.47332976878E+02 -0.67844884467E+02  0.83356764085E+02  0.47000000000E+01 0. -1.
         -5    1    3    3    0  501  0.62343151407E+02 -0.69126081124E+02 -0.23044647178E+03  0.24858147552E+03  0.47000000000E+01 0. -1.
          1    1    1    2  502    0 -0.10552894788E+03  0.21216698764E+02 -0.43874002205E+03  0.45175138528E+03  0.00000000000E+00 0. -1.
          1    1    1    2  503    0 -0.92876168106E+02 -0.22044964315E+02  0.13783715448E+04  0.13816729275E+04  0.00000000000E+00 0. -1.
<mgrwt>
<rscale>  0 0.91125426E+02</rscale>
<asrwt>0</asrwt>
<pdfrwt beam="1">  1        2 0.36396977E+00 0.84409165E+02</pdfrwt>
<pdfrwt beam="2">  1        2 0.11541541E+00 0.98376085E+02</pdfrwt>
<totfact> 0.34119724E+01</totfact>
</mgrwt>
</event>
<event>
13    1  0.3019759E-008  0.1415730E+03  0.7546771E-02  0.1276813E+00
          2   -1    0    0  503    0  0.00000000000E+00  0.00000000000E+00  0.31670155153E+04  0.31670155153E+04  0.00000000000E+00 0. -1.
          2   -1    0    0  502    0 -0.00000000000E+00 -0.00000000000E+00 -0.77743110538E+03  0.77743110538E+03  0.00000000000E+00 0. -1.
         25    2    1    2    0    0 -0.72721638422E+02  0.16294477845E+03  0.28301616821E+03  0.35716035468E+03  0.12500371982E+03 0.  0.
         24    2    1    2    0    0 -0.16129772553E+02 -0.57562163839E+01  0.53479270390E+03  0.54105241525E+03  0.80256939381E+02 0.  0.
         24    2    1    2    0    0  0.26154854430E+02  0.37639831824E+02  0.61996311735E+03  0.62695166391E+03  0.81322128951E+02 0.  0.
        -11    1    4    4    0    0 -0.33721740680E+02  0.18185842887E+02  0.14013575334E+03  0.14527873223E+03  0.00000000000E+00 0.  1.
         12    1    4    4    0    0  0.17591968127E+02 -0.23942059271E+02  0.39465695056E+03  0.39577368302E+03  0.00000000000E+00 0. -1.
        -13    1    5    5    0    0 -0.23259318900E+02  0.33979711306E+02  0.35644125943E+03  0.35881191190E+03  0.00000000000E+00 0.  1.
         14    1    5    5    0    0  0.49414173330E+02  0.36601205186E+01  0.26352185792E+03  0.26813975201E+03  0.00000000000E+00 0. -1.
          5    1    3    3  501    0 -0.66318348064E+01  0.60840094097E+02  0.15578605041E+02  0.63326781204E+02  0.47000000000E+01 0.  1.
         -5    1    3    3    0  501 -0.66089803615E+02  0.10210468435E+03  0.26743756317E+03  0.29383357348E+03  0.47000000000E+01 0.  1.
          1    1    1    2  502    0  0.70010985282E+02 -0.12217480421E+03 -0.72617760895E+03  0.73970408988E+03  0.00000000000E+00 0. -1.
          1    1    1    2  503    0 -0.73144287374E+01 -0.72653589678E+02  0.16779900294E+04  0.16795780970E+04  0.00000000000E+00 0. -1.
<mgrwt>
<rscale>  0 0.10167490E+03</rscale>
<asrwt>0</asrwt>
<pdfrwt beam="1">  1        2 0.46573757E+00 0.73020853E+02</pdfrwt>
<pdfrwt beam="2">  1        2 0.11432811E+00 0.14157304E+03</pdfrwt>
<totfact> 0.15354279E+01</totfact>
</mgrwt>
</event>
<event>
13    1  0.4332914E-008  0.2506903E+02  0.7546771E-02  0.1678537E+00
          2   -1    0    0  502    0  0.00000000000E+00  0.00000000000E+00  0.13397028411E+04  0.13397028411E+04  0.00000000000E+00 0. -1.
          2   -1    0    0  503    0 -0.00000000000E+00 -0.00000000000E+00 -0.15049045712E+04  0.15049045712E+04  0.00000000000E+00 0. -1.
         25    2    1    2    0    0  0.47555012594E+03 -0.88168019373E+02 -0.22976502069E+03  0.54985238254E+03  0.12499662364E+03 0.  0.
         24    2    1    2    0    0 -0.39627266256E+03 -0.61386342840E+03 -0.31505956797E+03  0.80005275645E+03  0.83435902994E+02 0.  0.
         24    2    1    2    0    0 -0.10837554828E+03  0.72519871521E+03  0.41556981668E+03  0.84794061248E+03  0.92986954686E+02 0.  0.
        -11    1    5    5    0    0 -0.34214065144E+02  0.25404013077E+03  0.19697956364E+03  0.32327687636E+03  0.00000000000E+00 0.  1.
         12    1    5    5    0    0 -0.74161483141E+02  0.47115858445E+03  0.21859025304E+03  0.52466373612E+03  0.00000000000E+00 0. -1.
        -13    1    4    4    0    0 -0.28949765679E+03 -0.46930588369E+03 -0.27385776327E+03  0.61567441091E+03  0.00000000000E+00 0.  1.
         14    1    4    4    0    0 -0.10677500577E+03 -0.14455754471E+03 -0.41201804696E+02  0.18437834553E+03  0.00000000000E+00 0. -1.
          5    1    3    3  501    0  0.24513890720E+03 -0.10745090943E+03 -0.13652277396E+03  0.30049848514E+03  0.47000000000E+01 0.  1.
         -5    1    3    3    0  501  0.23041121874E+03  0.19282890058E+02 -0.93242246730E+02  0.24935389739E+03  0.47000000000E+01 0.  1.
          1    1    1    2  502    0  0.64870780747E+01 -0.24212941515E+02  0.30451656369E+03  0.30554653701E+03  0.00000000000E+00 0. -1.
          1    1    1    2  503    0  0.22611006828E+02  0.10456740770E+01 -0.34046352181E+03  0.34121512386E+03  0.00000000000E+00 0. -1.
<mgrwt>
<rscale>  0 0.23821037E+02</rscale>
<asrwt>0</asrwt>
<pdfrwt beam="1">  1        2 0.19701513E+00 0.25069029E+02</pdfrwt>
<pdfrwt beam="2">  1        2 0.22130949E+00 0.22635173E+02</pdfrwt>
<totfact> 0.59876472E+01</totfact>
</mgrwt>
</event>
<event>
13    1  0.3019759E-008  0.4889927E+02  0.7546771E-02  0.1483332E+00
          2   -1    0    0  502    0  0.00000000000E+00  0.00000000000E+00  0.23822771127E+04  0.23822771127E+04  0.00000000000E+00 0. -1.
          2   -1    0    0  503    0 -0.00000000000E+00 -0.00000000000E+00 -0.58319896147E+03  0.58319896147E+03  0.00000000000E+00 0. -1.
         25    2    1    2    0    0  0.77896822487E+01  0.18281835816E+02 -0.13784337766E+03  0.18711053365E+03  0.12495859461E+03 0.  0.
         24    2    1    2    0    0 -0.62015226640E+02 -0.25913776420E+02 -0.13028797685E+02  0.10151936537E+03  0.74960121614E+02 0.  0.
         24    2    1    2    0    0  0.28472357999E+02 -0.34011924225E+02  0.45454569720E+02  0.10294157945E+03  0.81014595667E+02 0.  0.
        -11    1    4    4    0    0 -0.47916290662E+02 -0.43718970629E+02  0.13854329310E+02  0.66326930762E+02  0.00000000000E+00 0.  1.
         12    1    4    4    0    0 -0.14098935978E+02  0.17805194209E+02 -0.26883126995E+02  0.35192434607E+02  0.00000000000E+00 0. -1.
        -13    1    5    5    0    0  0.45236216423E+02 -0.14817457820E+02  0.57589413735E+02  0.74715546621E+02  0.00000000000E+00 0.  1.
         14    1    5    5    0    0 -0.16763858424E+02 -0.19194466405E+02 -0.12134844015E+02  0.28226032826E+02  0.00000000000E+00 0. -1.
          5    1    3    3  501    0 -0.12954999707E+02 -0.13845432064E+01 -0.15353925588E+03  0.15416271298E+03  0.47000000000E+01 0.  1.
         -5    1    3    3    0  501  0.20744681956E+02  0.19666379023E+02  0.15695878224E+02  0.32947820664E+02  0.47000000000E+01 0.  1.
          1    1    1    2  502    0  0.38427171037E+02 -0.57818664982E+01  0.22372305684E+04  0.22375680311E+04  0.00000000000E+00 0. -1.
          1    1    1    2  503    0 -0.12673984645E+02  0.47425731327E+02 -0.33273481156E+03  0.33633656463E+03  0.00000000000E+00 0. -1.
<mgrwt>
<rscale>  0 0.43591417E+02</rscale>
<asrwt>0</asrwt>
<pdfrwt beam="1">  1        2 0.35033487E+00 0.38859715E+02</pdfrwt>
<pdfrwt beam="2">  1        2 0.85764554E-01 0.48899268E+02</pdfrwt>
<totfact> 0.59765838E+01</totfact>
</mgrwt>
</event>
<event>
13    1  0.3019759E-008  0.7389299E+02  0.7546771E-02  0.1359812E+00
         -1   -1    0    0    0  501 -0.00000000000E+00  0.00000000000E+00  0.21469213847E+04  0.21469213847E+04  0.00000000000E+00 0.  1.
          2   -1    0    0  503    0  0.00000000000E+00 -0.00000000000E+00 -0.94618383405E+03  0.94618383405E+03  0.00000000000E+00 0. -1.
         25    2    1    2    0    0 -0.99906794068E+02  0.67915718922E+02  0.12883917114E+04  0.13000663854E+04  0.12500196868E+03 0.  0.
         24    2    1    2    0    0  0.57826384457E+02 -0.19237146662E+02  0.23557575285E+02  0.10463233241E+03  0.81725192450E+02 0.  0.
         24    2    1    2    0    0 -0.89224040437E+02 -0.96334320188E+02 -0.43639200449E+03  0.46439134670E+03  0.89331465165E+02 0.  0.
        -11    1    5    5    0    0 -0.54443805016E+00  0.49154189691E+01 -0.12571555789E+03  0.12581279447E+03  0.00000000000E+00 0.  1.
         12    1    5    5    0    0 -0.88679602386E+02 -0.10124973916E+03 -0.31067644661E+03  0.33857855224E+03  0.00000000000E+00 0. -1.
        -13    1    4    4    0    0 -0.18702781885E+02 -0.15898691704E+02  0.11424382670E+02  0.27075431068E+02  0.00000000000E+00 0.  1.
         14    1    4    4    0    0  0.76529166343E+02 -0.33384549579E+01  0.12133192615E+02  0.77556901341E+02  0.00000000000E+00 0. -1.
          5    1    3    3  502    0  0.18931648033E+02  0.44644607225E+02  0.25678862818E+03  0.26136954263E+03  0.47000000000E+01 0.  1.
         -5    1    3    3    0  502 -0.11883844210E+03  0.23271111697E+02  0.10316030832E+04  0.10386968428E+04  0.47000000000E+01 0.  1.
          1    1    1    2  503    0  0.60358709092E+02  0.27837807186E+02 -0.44519326291E+03  0.45012793582E+03  0.00000000000E+00 0. -1.
         -2    1    1    2    0  501  0.70945740955E+02  0.19817940742E+02  0.77037353139E+03  0.77388721840E+03  0.00000000000E+00 0.  1.
<mgrwt>
<rscale>  0 0.70082717E+02</rscale>
<asrwt>0</asrwt>
<pdfrwt beam="2">  1        2 0.13914468E+00 0.66468920E+02</pdfrwt>
<pdfrwt beam="1">  1       -1 0.31572373E+00 0.73892990E+02</pdfrwt>
<totfact> 0.13529917E+00</totfact>
</mgrwt>
</event>
<event>
13    1  0.3019759E-008  0.5414953E+02  0.7546771E-02  0.1488489E+00
          2   -1    0    0  503    0  0.00000000000E+00  0.00000000000E+00  0.16124778695E+04  0.16124778695E+04  0.00000000000E+00 0. -1.
          2   -1    0    0  502    0 -0.00000000000E+00 -0.00000000000E+00 -0.31630595224E+04  0.31630595224E+04  0.00000000000E+00 0. -1.
         25    2    1    2    0    0  0.95765543502E+02  0.48607675740E+01 -0.36259935111E+03  0.39534490424E+03  0.12499854998E+03 0.  0.
         24    2    1    2    0    0  0.48536300023E+02  0.55454344796E+03  0.52563735435E+03  0.76964798059E+03  0.78671326668E+02 0.  0.
         24    2    1    2    0    0 -0.19402156014E+03 -0.50798148582E+03  0.11678307653E+03  0.56027520533E+03  0.67679117939E+02 0.  0.
        -11    1    5    5    0    0 -0.10775619699E+03 -0.36742719730E+03  0.87645740246E+02  0.39280519229E+03  0.00000000000E+00 0.  1.
         12    1    5    5    0    0 -0.86265363158E+02 -0.14055428852E+03  0.29137336283E+02  0.16747001304E+03  0.00000000000E+00 0. -1.
        -13    1    4    4    0    0 -0.57565218588E+01  0.35661621036E+03  0.32158988997E+03  0.48023777066E+03  0.00000000000E+00 0.  1.
         14    1    4    4    0    0  0.54292821881E+02  0.19792723759E+03  0.20404746438E+03  0.28941020992E+03  0.00000000000E+00 0. -1.
          5    1    3    3  501    0  0.12231969907E+03  0.23254278533E+02 -0.27702689953E+03  0.30375790247E+03  0.47000000000E+01 0.  1.
         -5    1    3    3    0  501 -0.26554155566E+02 -0.18393510959E+02 -0.85572451582E+02  0.91587001768E+02  0.47000000000E+01 0.  1.
          1    1    1    2  502    0  0.15874901353E+02 -0.51767246020E+02 -0.24395658183E+04  0.24401666423E+04  0.00000000000E+00 0. -1.
          1    1    1    2  503    0  0.33844815266E+02  0.34451631152E+00  0.60916308567E+03  0.61010265952E+03  0.00000000000E+00 0. -1.
<mgrwt>
<rscale>  0 0.42810931E+02</rscale>
<asrwt>0</asrwt>
<pdfrwt beam="1">  1        2 0.23712910E+00 0.33846569E+02</pdfrwt>
<pdfrwt beam="2">  1        2 0.46515581E+00 0.54149530E+02</pdfrwt>
<totfact> 0.63331224E+00</totfact>
</mgrwt>
</event>
<event>
13    1  0.1396748E-007  0.2848478E+02  0.7546771E-02  0.1762806E+00
          2   -1    0    0  502    0  0.00000000000E+00  0.00000000000E+00  0.18324315436E+04  0.18324315436E+04  0.00000000000E+00 0. -1.
          2   -1    0    0  503    0 -0.00000000000E+00 -0.00000000000E+00 -0.27201324433E+04  0.27201324433E+04  0.00000000000E+00 0. -1.
         25    2    1    2    0    0 -0.21154256886E+03  0.23204913291E+03 -0.21757463338E+03  0.40194549400E+03  0.12499760212E+03 0.  0.
         24    2    1    2    0    0  0.87384355297E+03 -0.74102003237E+03 -0.16701912358E+04  0.20263036809E+04  0.60453285248E+02 0.  0.
         24    2    1    2    0    0 -0.63541240947E+03  0.48142016946E+03  0.11897486253E+04  0.14343754706E+04  0.80105491004E+02 0.  0.
        -13    1    5    5    0    0 -0.34095869917E+03  0.25245203482E+03  0.56166928985E+03  0.70388724636E+03  0.00000000000E+00 0.  1.
         14    1    5    5    0    0 -0.29445371030E+03  0.22896813464E+03  0.62807933546E+03  0.73048822428E+03  0.00000000000E+00 0. -1.
        -13    1    4    4    0    0  0.29068357032E+03 -0.21134329982E+03 -0.50885726174E+03  0.62297563457E+03  0.00000000000E+00 0.  1.
         14    1    4    4    0    0  0.58315998265E+03 -0.52967673254E+03 -0.11613339740E+04  0.14033280463E+04  0.00000000000E+00 0. -1.
          5    1    3    3  501    0 -0.13365942774E+03  0.12191016493E+03 -0.51927972729E+02  0.18826984700E+03  0.47000000000E+01 0. -1.
         -5    1    3    3    0  501 -0.77883141116E+02  0.11013896798E+03 -0.16564666065E+03  0.21367564700E+03  0.47000000000E+01 0. -1.
          1    1    1    2  502    0 -0.26473698626E+01  0.12597493953E+02  0.24950061529E+03  0.24983246877E+03  0.00000000000E+00 0. -1.
          1    1    1    2  503    0 -0.24241204781E+02  0.14953236042E+02 -0.43918427115E+03  0.44010687259E+03  0.00000000000E+00 0. -1.
<mgrwt>
<rscale>  0 0.19148757E+02</rscale>
<asrwt>0</asrwt>
<pdfrwt beam="1">  1        2 0.26947523E+00 0.12872662E+02</pdfrwt>
<pdfrwt beam="2">  1        2 0.40001947E+00 0.28484777E+02</pdfrwt>
<totfact> 0.10518245E+01</totfact>
</mgrwt>
</event>
<event>
13    1  0.3019759E-008  0.1058307E+03  0.7546771E-02  0.1303644E+00
          2   -1    0    0  503    0  0.00000000000E+00  0.00000000000E+00  0.31179121638E+04  0.31179121638E+04  0.00000000000E+00 0. -1.
         -3   -1    0    0    0  501 -0.00000000000E+00 -0.00000000000E+00 -0.11191581450E+04  0.11191581450E+04  0.00000000000E+00 0.  1.
         25    2    1    2    0    0 -0.14879146108E+02 -0.84088450100E+02 -0.15736174739E+03  0.21835629968E+03  0.12499799054E+03 0.  0.
         24    2    1    2    0    0  0.97749524903E+02  0.31889376980E+02 -0.19712309827E+02  0.13301861873E+03  0.82057758846E+02 0.  0.
         24    2    1    2    0    0  0.96881089308E+01 -0.77937295523E+02  0.52739440859E+03  0.53957784948E+03  0.82651751019E+02 0.  0.
        -11    1    5    5    0    0 -0.23254785559E+02 -0.22187241143E+02  0.63351719381E+02  0.71038715286E+02  0.00000000000E+00 0.  1.
         12    1    5    5    0    0  0.32942894489E+02 -0.55750054380E+02  0.46404268921E+03  0.46853913419E+03  0.00000000000E+00 0. -1.
        -11    1    4    4    0    0  0.30516362023E+02 -0.23618307008E+02 -0.24486689271E+02  0.45701977293E+02  0.00000000000E+00 0.  1.
         12    1    4    4    0    0  0.67233162880E+02  0.55507683988E+02  0.47743794437E+01  0.87316641436E+02  0.00000000000E+00 0. -1.
          5    1    3    3  502    0 -0.51722953721E+02  0.57120511935E+01 -0.38929167604E+02  0.65157206514E+02  0.47000000000E+01 0. -1.
         -5    1    3    3    0  502  0.36843807613E+02 -0.89800501293E+02 -0.11843257979E+03  0.15319909317E+03  0.47000000000E+01 0. -1.
          1    1    1    2  503    0 -0.21407577124E+02  0.10347205279E+03  0.24944545185E+04  0.24966914297E+04  0.00000000000E+00 0. -1.
         -4    1    1    2    0  501 -0.71150910602E+02  0.26664315857E+02 -0.84602085116E+03  0.84942611122E+03  0.00000000000E+00 0.  1.
<mgrwt>
<rscale>  0 0.89673571E+02</rscale>
<asrwt>0</asrwt>
<pdfrwt beam="1">  1        2 0.45851649E+00 0.10583070E+03</pdfrwt>
<pdfrwt beam="2">  1       -3 0.16458208E+00 0.75983142E+02</pdfrwt>
<totfact> 0.42095284E-01</totfact>
</mgrwt>
</event>
<event>
13    1  0.3019759E-008  0.1885693E+03  0.7546771E-02  0.1165674E+00
         -3   -1    0    0    0  501 -0.00000000000E+00  0.00000000000E+00  0.95924272029E+03  0.95924272029E+03  0.00000000000E+00 0.  1.
          2   -1    0    0  503    0  0.00000000000E+00 -0.00000000000E+00 -0.23796945741E+04  0.23796945741E+04  0.00000000000E+00 0. -1.
         25    2    1    2    0    0  0.20563067428E+03 -0.26065909532E+03 -0.19029874948E+03  0.40257848325E+03  0.12501473091E+03 0.  0.
         24    2    1    2    0    0 -0.87148339802E+02  0.24606475174E+02 -0.25832819756E+03  0.28414059935E+03  0.76171587844E+02 0.  0.
         24    2    1    2    0    0 -0.11825654903E+03 -0.18675191048E+03 -0.35251334762E+03  0.42368382755E+03  0.79883903415E+02 0.  0.
        -13    1    5    5    0    0 -0.24320683901E+02 -0.72911999139E+02 -0.18554248147E+03  0.20083243690E+03  0.00000000000E+00 0.  1.
         14    1    5    5    0    0 -0.93935865124E+02 -0.11383991134E+03 -0.16697086615E+03  0.22285139065E+03  0.00000000000E+00 0. -1.
        -13    1    4    4    0    0 -0.10723503927E+02  0.34092929570E+02 -0.12664723177E+03  0.13159347513E+03  0.00000000000E+00 0.  1.
         14    1    4    4    0    0 -0.76424835875E+02 -0.94864543957E+01 -0.13168096579E+03  0.15254712422E+03  0.00000000000E+00 0. -1.
          5    1    3    3  502    0  0.15636231585E+03 -0.22220113686E+03 -0.20228118879E+03  0.33876583118E+03  0.47000000000E+01 0. -1.
         -5    1    3    3    0  502  0.49268358433E+02 -0.38457958464E+02  0.11982439313E+02  0.63812652067E+02  0.47000000000E+01 0. -1.
          1    1    1    2  503    0  0.58729893339E+02  0.24397140716E+03 -0.14016080558E+04  0.14238947960E+04  0.00000000000E+00 0. -1.
         -4    1    1    2    0  501 -0.58955678794E+02  0.17883312346E+03  0.78229649672E+03  0.80463958820E+03  0.00000000000E+00 0.  1.
<mgrwt>
<rscale>  0 0.18221778E+03</rscale>
<asrwt>0</asrwt>
<pdfrwt beam="2">  1        2 0.34995508E+00 0.17608025E+03</pdfrwt>
<pdfrwt beam="1">  1       -3 0.14106511E+00 0.18856926E+03</pdfrwt>
<totfact> 0.13816152E+00</totfact>
</mgrwt>
</event>
<event>
13    1  0.3019759E-008  0.1077347E+03  0.7546771E-02  0.1456152E+00
         -1   -1    0    0    0  501  0.00000000000E+00  0.00000000000E+00  0.12714783717E+04  0.12714783717E+04  0.00000000000E+00 0.  1.
         -3   -1    0    0    0  502 -0.00000000000E+00 -0.00000000000E+00 -0.94600107936E+03  0.94600107936E+03  0.00000000000E+00 0.  1.
         25    2    1    2    0    0  0.42939554653E+01  0.49216024595E+02 -0.41991601722E+03  0.44089922170E+03  0.12498802760E+03 0.  0.
         24    2    1    2    0    0 -0.42419069982E+02  0.57664562500E+02 -0.37510486745E+02  0.11342469686E+03  0.79583578554E+02 0.  0.
         24    2    1    2    0    0  0.10013853683E+02 -0.37317563622E+02  0.47663339709E+03  0.48516462695E+03  0.81929495310E+02 0.  0.
        -11    1    5    5    0    0  0.43627052201E+02 -0.28471076366E+02  0.21443001840E+03  0.22066752064E+03  0.00000000000E+00 0.  1.
         12    1    5    5    0    0 -0.33613198518E+02 -0.88464872557E+01  0.26220337868E+03  0.26449710631E+03  0.00000000000E+00 0. -1.
        -11    1    4    4    0    0 -0.18635372274E+02 -0.15169618880E+02  0.67256946445E+01  0.24952543061E+02  0.00000000000E+00 0.  1.
         12    1    4    4    0    0 -0.23783697708E+02  0.72834181380E+02 -0.44236181390E+02  0.88472153799E+02  0.00000000000E+00 0. -1.
          5    1    3    3  503    0 -0.43617997216E+02  0.66341136372E+02 -0.30378394778E+03  0.31402301346E+03  0.47000000000E+01 0.  1.
         -5    1    3    3    0  503  0.47911952682E+02 -0.17125111776E+02 -0.11613206945E+03  0.12687620824E+03  0.47000000000E+01 0.  1.
         -2    1    1    2    0  501  0.44265109554E+02 -0.83645620361E+02  0.73884732611E+03  0.74488345466E+03  0.00000000000E+00 0.  1.
         -4    1    1    2    0  502 -0.16153848721E+02  0.14082596887E+02 -0.43257692687E+03  0.43310745090E+03  0.00000000000E+00 0.  1.
<mgrwt>
<rscale>  0 0.48050070E+02</rscale>
<asrwt>0</asrwt>
<pdfrwt beam="1">  1       -1 0.18698211E+00 0.10773473E+03</pdfrwt>
<pdfrwt beam="2">  1       -3 0.13911781E+00 0.21430501E+02</pdfrwt>
<totfact> 0.40913672E-01</totfact>
</mgrwt>
</event>
<event>
13    1  0.3019759E-008  0.9903409E+02  0.7546771E-02  0.1295216E+00
          2   -1    0    0  502    0  0.00000000000E+00  0.00000000000E+00  0.23090857735E+04  0.23090857735E+04  0.00000000000E+00 0. -1.
          2   -1    0    0  503    0 -0.00000000000E+00 -0.00000000000E+00 -0.40300535764E+03  0.40300535764E+03  0.00000000000E+00 0. -1.
         25    2    1    2    0    0  0.10293638618E+03 -0.37763991716E+02  0.50085810472E+02  0.17365400752E+03  0.12500042899E+03 0.  0.
         24    2    1    2    0    0  0.63166576805E+02  0.31852153811E+01  0.65945590678E+02  0.12066281032E+03  0.78806921286E+02 0.  0.
         24    2    1    2    0    0 -0.22055311050E+01 -0.32811885814E+02  0.22052767020E+03  0.23700093401E+03  0.80346158470E+02 0.  0.
        -11    1    5    5    0    0 -0.28888238969E+02 -0.97015855998E+01  0.18284579015E+03  0.18536783456E+03  0.00000000000E+00 0.  1.
         12    1    5    5    0    0  0.26682707864E+02 -0.23110300214E+02  0.37681880048E+02  0.51633099451E+02  0.00000000000E+00 0. -1.
        -11    1    4    4    0    0  0.18205968453E+02 -0.63448609805E+00  0.72780305874E+02  0.75025547536E+02  0.00000000000E+00 0.  1.
         12    1    4    4    0    0  0.44960608353E+02  0.38197014792E+01 -0.68347151960E+01  0.45637262787E+02  0.00000000000E+00 0. -1.
          5    1    3    3  501    0  0.75390643579E+02  0.35698380422E+02  0.65490002427E+01  0.83803955206E+02  0.47000000000E+01 0.  1.
         -5    1    3    3    0  501  0.27545742599E+02 -0.73462372138E+02  0.43536810230E+02  0.89850052312E+02  0.47000000000E+01 0.  1.
          1    1    1    2  502    0 -0.10994861017E+03 -0.19287344528E+01  0.18671847566E+04  0.18704200951E+04  0.00000000000E+00 0. -1.
          1    1    1    2  503    0 -0.53948821707E+02  0.69319396601E+02 -0.29766341209E+03  0.31035328419E+03  0.00000000000E+00 0. -1.
<mgrwt>
<rscale>  0 0.93228887E+02</rscale>
<asrwt>0</asrwt>
<pdfrwt beam="1">  1        2 0.33957143E+00 0.99034087E+02</pdfrwt>
<pdfrwt beam="2">  1        2 0.59265495E-01 0.87763977E+02</pdfrwt>
<totfact> 0.84357000E+01</totfact>
</mgrwt>
</event>
<event>
13    1  0.3019759E-008  0.1096931E+03  0.7546771E-02  0.1267691E+00
          2   -1    0    0  503    0  0.00000000000E+00  0.00000000000E+00  0.24310034849E+04  0.24310034849E+04  0.00000000000E+00 0. -1.
          2   -1    0    0  502    0 -0.00000000000E+00 -0.00000000000E+00 -0.20243833984E+04  0.20243833984E+04  0.00000000000E+00 0. -1.
         25    2    1    2    0    0 -0.59035429895E+02 -0.12307850843E+03 -0.15097440076E+03  0.23885597860E+03  0.12500163041E+03 0.  0.
         24    2    1    2    0    0  0.25467687853E+02 -0.42284025758E+01  0.10503373708E+03  0.13243747093E+03  0.76427189318E+02 0.  0.
         24    2    1    2    0    0 -0.88685461570E+02  0.18701673709E+02  0.10616787206E+04  0.10686228588E+04  0.81106379863E+02 0.  0.
        -11    1    4    4    0    0  0.44174484728E+02 -0.14014490015E+02  0.31759212928E+02  0.56182191459E+02  0.00000000000E+00 0.  1.
         12    1    4    4    0    0 -0.18706796875E+02  0.97860874387E+01  0.73274524155E+02  0.76255279469E+02  0.00000000000E+00 0. -1.
        -13    1    5    5    0    0  0.12715794155E+02 -0.14448391066E+01  0.47684215511E+02  0.49371686116E+02  0.00000000000E+00 0.  1.
         14    1    5    5    0    0 -0.10140125572E+03  0.20146512815E+02  0.10139945051E+04  0.10192511727E+04  0.00000000000E+00 0. -1.
          5    1    3    3  501    0  0.16196474993E+02 -0.10217934719E+03 -0.63371292752E+02  0.12141233685E+03  0.47000000000E+01 0. -1.
         -5    1    3    3    0  501 -0.75231904888E+02 -0.20899161240E+02 -0.87603108005E+02  0.11744364174E+03  0.47000000000E+01 0. -1.
          1    1    1    2  502    0  0.10749990789E+03 -0.21731908865E+02 -0.18070517469E+04  0.18103769005E+04  0.00000000000E+00 0. -1.
          1    1    1    2  503    0  0.14753295720E+02  0.13033714617E+03  0.11979337764E+04  0.12050936744E+04  0.00000000000E+00 0. -1.
<mgrwt>
<rscale>  0 0.10624240E+03</rscale>
<asrwt>0</asrwt>
<pdfrwt beam="1">  1        2 0.35750051E+00 0.10290026E+03</pdfrwt>
<pdfrwt beam="2">  1        2 0.29770344E+00 0.10969310E+03</pdfrwt>
<totfact> 0.77504849E+00</totfact>
</mgrwt>
</event>
<event>
13    1  0.3019759E-008  0.1374817E+03  0.7546771E-02  0.1307401E+00
          4   -1    0    0  503    0 -0.00000000000E+00  0.00000000000E+00  0.16627050232E+04  0.16627050232E+04  0.00000000000E+00 0. -1.
          2   -1    0    0  502    0  0.00000000000E+00 -0.00000000000E+00 -0.30520818493E+04  0.30520818493E+04  0.00000000000E+00 0. -1.
         25    2    1    2    0    0 -0.36151325701E+03 -0.63716086916E+02  0.16919529116E+03  0.42308920178E+03  0.12500340551E+03 0.  0.
         24    2    1    2    0    0  0.50254239838E+02 -0.25959068929E+03 -0.89859044210E+02  0.28500211486E+03  0.56909955705E+02 0.  0.
         24    2    1    2    0    0  0.26257112541E+03  0.21051907276E+03 -0.52519065103E+03  0.62859316584E+03  0.77732054624E+02 0.  0.
        -11    1    5    5    0    0  0.23025522782E+02  0.12400820253E+02 -0.12414147491E+02  0.28949371328E+02  0.00000000000E+00 0.  1.
         12    1    5    5    0    0  0.23954560263E+03  0.19811825251E+03 -0.51277650354E+03  0.59964379451E+03  0.00000000000E+00 0. -1.
        -13    1    4    4    0    0 -0.88118286843E+01 -0.54390698923E+02 -0.32215440663E+02  0.63826570260E+02  0.00000000000E+00 0.  1.
         14    1    4    4    0    0  0.59066068523E+02 -0.20519999037E+03 -0.57643603548E+02  0.22117554460E+03  0.00000000000E+00 0. -1.
          5    1    3    3  501    0 -0.30833891878E+03 -0.25419755008E+02  0.17774158656E+03  0.35683779840E+03  0.47000000000E+01 0. -1.
         -5    1    3    3    0  501 -0.53174338235E+02 -0.38296331908E+02 -0.85462954076E+01  0.66251403378E+02  0.47000000000E+01 0. -1.
          1    1    1    2  502    0 -0.52873986029E+02  0.19960377137E+02 -0.21565529221E+04  0.21572933461E+04  0.00000000000E+00 0. -1.
          3    1    1    2  503    0  0.10156187779E+03  0.92827326311E+02  0.12130305002E+04  0.12208090440E+04  0.00000000000E+00 0. -1.
<mgrwt>
<rscale>  0 0.88147251E+02</rscale>
<asrwt>0</asrwt>
<pdfrwt beam="2">  1        2 0.44883556E+00 0.56516149E+02</pdfrwt>
<pdfrwt beam="1">  1        4 0.24451545E+00 0.13748173E+03</pdfrwt>
<totfact> 0.12419002E-01</totfact>
</mgrwt>
</event>
<event>
13    1  0.3019759E-008  0.7842820E+02  0.7546771E-02  0.1427253E+00
         -3   -1    0    0    0  501 -0.00000000000E+00  0.00000000000E+00  0.18788017171E+04  0.18788017171E+04  0.00000000000E+00 0.  1.
          2   -1    0    0  503    0  0.00000000000E+00 -0.00000000000E+00 -0.81952240168E+03  0.81952240168E+03  0.00000000000E+00 0. -1.
         25    2    1    2    0    0  0.27705321532E+02 -0.64889228407E+02  0.52187105315E+03  0.54125363599E+03  0.12501162169E+03 0.  0.
         24    2    1    2    0    0 -0.30639754200E+02  0.34406698757E+02 -0.11678775913E+03  0.14941908784E+03  0.81018934021E+02 0.  0.
         24    2    1    2    0    0  0.10104125331E+03  0.54769960564E+02 -0.16551161172E+03  0.21706501794E+03  0.80709633567E+02 0.  0.
        -13    1    5    5    0    0  0.35853130711E+02 -0.63418193132E+01 -0.10078800348E+02  0.37778934215E+02  0.00000000000E+00 0.  1.
         14    1    5    5    0    0  0.65188122595E+02  0.61111779878E+02 -0.15543281138E+03  0.17928608373E+03  0.00000000000E+00 0. -1.
        -13    1    4    4    0    0 -0.55779503321E+02  0.26909551052E+02 -0.57169473670E+02  0.84284195720E+02  0.00000000000E+00 0.  1.
         14    1    4    4    0    0  0.25139749120E+02  0.74971477046E+01 -0.59618285461E+02  0.65134892115E+02  0.00000000000E+00 0. -1.
          5    1    3    3  502    0 -0.48327984749E+02 -0.11089709231E+02  0.16110593791E+03  0.16862914632E+03  0.47000000000E+01 0. -1.
         -5    1    3    3    0  502  0.76033306281E+02 -0.53799519176E+02  0.36076511524E+03  0.37262448967E+03  0.47000000000E+01 0. -1.
          1    1    1    2  503    0 -0.78082307111E+02  0.62487205386E+01 -0.48202169621E+03  0.48834496907E+03  0.00000000000E+00 0. -1.
         -4    1    1    2    0  501 -0.20024513526E+02 -0.30536151453E+02  0.13017293293E+04  0.13022414079E+04  0.00000000000E+00 0.  1.
<mgrwt>
<rscale>  0 0.53515464E+02</rscale>
<asrwt>0</asrwt>
<pdfrwt beam="2">  1        2 0.12051800E+00 0.78428195E+02</pdfrwt>
<pdfrwt beam="1">  1       -3 0.27629437E+00 0.36516266E+02</pdfrwt>
<totfact> 0.15804144E+00</totfact>
</mgrwt>
</event>
<event>
13    1  0.3019759E-008  0.5370835E+02  0.7546771E-02  0.1444632E+00
          2   -1    0    0  503    0  0.00000000000E+00  0.00000000000E+00  0.23855810749E+04  0.23855810749E+04  0.00000000000E+00 0. -1.
         -3   -1    0    0    0  501 -0.00000000000E+00 -0.00000000000E+00 -0.69786440510E+03  0.69786440510E+03  0.00000000000E+00 0.  1.
         25    2    1    2    0    0 -0.10614986439E+03 -0.82305237001E+02 -0.34168506838E+03  0.38783766986E+03  0.12500970547E+03 0.  0.
         24    2    1    2    0    0  0.93033525478E+02  0.43448355089E+02  0.39048633857E+02  0.13516529221E+03  0.78751914197E+02 0.  0.
         24    2    1    2    0    0 -0.65362293566E+02 -0.13529070255E+02 -0.96387094747E+01  0.10999380109E+03  0.86893419754E+02 0.  0.
        -13    1    4    4    0    0  0.11449577462E+02  0.36091262296E+02 -0.10674992129E+02  0.39339896990E+02  0.00000000000E+00 0.  1.
         14    1    4    4    0    0  0.81583948016E+02  0.73570927933E+01  0.49723625987E+02  0.95825395222E+02  0.00000000000E+00 0. -1.
        -13    1    5    5    0    0 -0.41161105426E+02 -0.17611100621E+02 -0.47244408010E+02  0.65087798804E+02  0.00000000000E+00 0.  1.
         14    1    5    5    0    0 -0.24201188140E+02  0.40820303658E+01  0.37605698535E+02  0.44906002289E+02  0.00000000000E+00 0. -1.
          5    1    3    3  502    0 -0.62964516325E+02 -0.23531229055E+02 -0.42068583178E+02  0.79436167755E+02  0.47000000000E+01 0. -1.
         -5    1    3    3    0  502 -0.43185348063E+02 -0.58774007946E+02 -0.29961648520E+03  0.30840150210E+03  0.47000000000E+01 0. -1.
          1    1    1    2  503    0  0.51851191607E+02  0.13907332859E+02  0.22224621756E+04  0.22231104520E+04  0.00000000000E+00 0. -1.
         -4    1    1    2    0  501  0.26627440868E+02  0.38478619307E+02 -0.22247036182E+03  0.22733826479E+03  0.00000000000E+00 0.  1.
<mgrwt>
<rscale>  0 0.50131804E+02</rscale>
<asrwt>0</asrwt>
<pdfrwt beam="1">  1        2 0.35082074E+00 0.53708351E+02</pdfrwt>
<pdfrwt beam="2">  1       -3 0.10262712E+00 0.46793426E+02</pdfrwt>
<totfact> 0.33122943E+00</totfact>
</mgrwt>
</event>
<event>
13    1  0.3019759E-008  0.4145076E+02  0.7546771E-02  0.1721235E+00
          4   -1    0    0  503    0 -0.00000000000E+00  0.00000000000E+00  0.12353965197E+04  0.12353965197E+04  0.00000000000E+00 0. -1.
          2   -1    0    0  502    0  0.00000000000E+00 -0.00000000000E+00 -0.25374804867E+04  0.25374804867E+04  0.00000000000E+00 0. -1.
         25    2    1    2    0    0 -0.92053789405E+03 -0.46305369875E+03  0.25017939454E+03  0.10677191594E+04  0.12500292647E+03 0.  0.
         24    2    1    2    0    0  0.94552416803E+03  0.77618715928E+03 -0.45039438330E+03  0.13081230128E+04  0.10884970205E+03 0.  0.
         24    2    1    2    0    0  0.17704128065E+02 -0.29505267091E+03 -0.10000952771E+04  0.10458973217E+04  0.79631210285E+02 0.  0.
        -11    1    4    4    0    0  0.79888960537E+03  0.65987155191E+03 -0.42201871578E+03  0.11188185121E+04  0.00000000000E+00 0.  1.
         12    1    4    4    0    0  0.14663456266E+03  0.11631560737E+03 -0.28375667524E+02  0.18930450072E+03  0.00000000000E+00 0. -1.
        -13    1    5    5    0    0  0.34734450449E+02 -0.95559101297E+02 -0.25930948187E+03  0.27853084439E+03  0.00000000000E+00 0.  1.
         14    1    5    5    0    0 -0.17030322384E+02 -0.19949356962E+03 -0.74078579519E+03  0.76736647734E+03  0.00000000000E+00 0. -1.
          5    1    3    3  501    0 -0.77509577672E+03 -0.38559089717E+03  0.25595274221E+03  0.90276669152E+03  0.47000000000E+01 0. -1.
         -5    1    3    3    0  501 -0.14544211733E+03 -0.77462801586E+02 -0.57733476744E+01  0.16495246790E+03  0.47000000000E+01 0. -1.
          1    1    1    2  502    0 -0.90393885468E+01  0.61123598355E+01 -0.22287426903E+03  0.22314123618E+03  0.00000000000E+00 0. -1.
          3    1    1    2  503    0 -0.33651013503E+02 -0.24193149451E+02  0.12110056788E+03  0.12799627624E+03  0.00000000000E+00 0. -1.
<mgrwt>
<rscale>  0 0.21267585E+02</rscale>
<asrwt>0</asrwt>
<pdfrwt beam="2">  1        2 0.37315889E+00 0.10911988E+02</pdfrwt>
<pdfrwt beam="1">  1        4 0.18167596E+00 0.41450756E+02</pdfrwt>
<totfact> 0.70429235E-01</totfact>
</mgrwt>
</event>
<event>
13    1  0.3019759E-008  0.1157252E+03  0.7546771E-02  0.1263999E+00
          4   -1    0    0  503    0  0.00000000000E+00  0.00000000000E+00  0.17850502658E+04  0.17850502658E+04  0.00000000000E+00 0. -1.
         -1   -1    0    0    0  501 -0.00000000000E+00 -0.00000000000E+00 -0.28987110720E+03  0.28987110720E+03  0.00000000000E+00 0.  1.
         25    2    1    2    0    0 -0.15910269295E+03  0.94773089865E+02 -0.69078689788E+02  0.23386114192E+03  0.12499425127E+03 0.  0.
         24    2    1    2    0    0  0.50554659995E+02 -0.34325385875E+02  0.22737217534E+03  0.24877818471E+03  0.80364627201E+02 0.  0.
         24    2    1    2    0    0  0.68149663772E+00  0.57431960179E+02  0.25933388007E+03  0.27724817903E+03  0.79458145831E+02 0.  0.
        -11    1    4    4    0    0  0.63147535943E+02 -0.40098230159E+02  0.22139541632E+03  0.23369084219E+03  0.00000000000E+00 0.  1.
         12    1    4    4    0    0 -0.12592875948E+02  0.57728442842E+01  0.59767590204E+01  0.15087342515E+02  0.00000000000E+00 0. -1.
        -11    1    5    5    0    0  0.37143287454E+02  0.26516919536E+02  0.16889878398E+03  0.17495590888E+03  0.00000000000E+00 0.  1.
         12    1    5    5    0    0 -0.36461790816E+02  0.30915040643E+02  0.90435096091E+02  0.10229227015E+03  0.00000000000E+00 0. -1.
          5    1    3    3  502    0 -0.83367837350E+02  0.10096392693E+03 -0.84873394639E+02  0.15610731554E+03  0.47000000000E+01 0. -1.
         -5    1    3    3    0  502 -0.75734855603E+02 -0.61908370662E+01  0.15794704852E+02  0.77753826389E+02  0.47000000000E+01 0. -1.
          3    1    1    2  503    0 -0.75425772335E+01 -0.14737502518E+03  0.11605226009E+04  0.11698670847E+04  0.00000000000E+00 0. -1.
         -2    1    1    2    0  501  0.11540911355E+03  0.29495361010E+02 -0.82970807959E+02  0.14516678265E+03  0.00000000000E+00 0.  1.
<mgrwt>
<rscale>  0 0.10816870E+03</rscale>
<asrwt>0</asrwt>
<pdfrwt beam="1">  1        4 0.26250739E+00 0.10110562E+03</pdfrwt>
<pdfrwt beam="2">  1       -1 0.42628105E-01 0.11572520E+03</pdfrwt>
<totfact> 0.13583985E+00</totfact>
</mgrwt>
</event>
<event>
13    1  0.3019759E-008  0.1040292E+03  0.7546771E-02  0.1482027E+00
          2   -1    0    0  502    0  0.00000000000E+00  0.00000000000E+00  0.29984234818E+04  0.29984234818E+04  0.00000000000E+00 0. -1.
          4   -1    0    0  503    0 -0.00000000000E+00 -0.00000000000E+00 -0.99057117814E+03  0.99057117814E+03  0.00000000000E+00 0. -1.
         25    2    1    2    0    0 -0.10848952554E+03  0.11788855957E+03  0.17730434490E+03  0.26967993713E+03  0.12499099224E+03 0.  0.
         24    2    1    2    0    0  0.20100471805E+02  0.27602334341E+02  0.69278146635E+03  0.69839706200E+03  0.81525322913E+02 0.  0.
         24    2    1    2    0    0  0.36615523792E+02 -0.20790337826E+02  0.35238484541E+03  0.36387533703E+03  0.80356996554E+02 0.  0.
        -11    1    5    5    0    0 -0.12504446840E+01  0.11325860874E+02  0.41627646890E+01  0.12131254935E+02  0.00000000000E+00 0.  1.
         12    1    5    5    0    0  0.37865968476E+02 -0.32116198701E+02  0.34822208072E+03  0.35174408210E+03  0.00000000000E+00 0. -1.
        -13    1    4    4    0    0  0.37389816549E+02  0.46316136888E+02  0.38638857234E+03  0.39094668659E+03  0.00000000000E+00 0.  1.
         14    1    4    4    0    0 -0.17289344744E+02 -0.18713802547E+02  0.30639289400E+03  0.30745037542E+03  0.00000000000E+00 0. -1.
          5    1    3    3  501    0 -0.95094728756E+02  0.27745548182E+02  0.44867906819E+02  0.10884871126E+03  0.47000000000E+01 0.  1.
         -5    1    3    3    0  501 -0.13394796784E+02  0.90143011387E+02  0.13243643808E+03  0.16083122587E+03  0.47000000000E+01 0.  1.
          1    1    1    2  502    0  0.63557179730E+02 -0.11052382514E+03  0.17187598605E+04  0.17234820827E+04  0.00000000000E+00 0. -1.
          3    1    1    2  503    0 -0.11783649788E+02 -0.14176730941E+02 -0.93337821359E+03  0.93356024107E+03  0.00000000000E+00 0. -1.
<mgrwt>
<rscale>  0 0.43791956E+02</rscale>
<asrwt>0</asrwt>
<pdfrwt beam="1">  1        2 0.44094463E+00 0.10402919E+03</pdfrwt>
<pdfrwt beam="2">  1        4 0.14567223E+00 0.18434590E+02</pdfrwt>
<totfact> 0.47087143E-01</totfact>
</mgrwt>
</event>
<event>
13    1  0.3019759E-008  0.9021643E+02  0.7546771E-02  0.1407328E+00
          2   -1    0    0  502    0  0.00000000000E+00  0.00000000000E+00  0.63102100327E+03  0.63102100327E+03  0.00000000000E+00 0. -1.
          2   -1    0    0  503    0 -0.00000000000E+00 -0.00000000000E+00 -0.24606185789E+04  0.24606185789E+04  0.00000000000E+00 0. -1.
         25    2    1    2    0    0  0.54219510880E+02  0.23642725960E+02 -0.10689714052E+04  0.10778792391E+04  0.12500022039E+03 0.  0.
         24    2    1    2    0    0  0.26916925613E+02  0.23656566364E+01 -0.38993513992E+03  0.39896507660E+03  0.79960001177E+02 0.  0.
         24    2    1    2    0    0 -0.21828833551E+02  0.42391629406E+02 -0.35757058740E+03  0.36953790461E+03  0.80174745100E+02 0.  0.
        -13    1    4    4    0    0 -0.21574912714E+02 -0.21138685992E+02 -0.15684248139E+03  0.15972440287E+03  0.00000000000E+00 0.  1.
         14    1    4    4    0    0  0.48491838327E+02  0.23504342628E+02 -0.23309265853E+03  0.23924067373E+03  0.00000000000E+00 0. -1.
        -13    1    5    5    0    0 -0.39620247319E+02  0.21243657191E+02 -0.90598906268E+02  0.10113960048E+03  0.00000000000E+00 0.  1.
         14    1    5    5    0    0  0.17791413768E+02  0.21147972215E+02 -0.26697168114E+03  0.26839830413E+03  0.00000000000E+00 0. -1.
          5    1    3    3  501    0 -0.14675651512E+02  0.41039226273E+02 -0.15334849534E+03  0.15949120309E+03  0.47000000000E+01 0.  1.
         -5    1    3    3    0  501  0.68895162392E+02 -0.17396500313E+02 -0.91562290988E+03  0.91838803603E+03  0.47000000000E+01 0.  1.
          1    1    1    2  502    0 -0.26830342364E+02 -0.86176704425E+02  0.61221221905E+03  0.61882961534E+03  0.00000000000E+00 0. -1.
          1    1    1    2  503    0 -0.32477260578E+02  0.17776692423E+02 -0.62533266215E+03  0.62642774651E+03  0.00000000000E+00 0. -1.
<mgrwt>
<rscale>  0 0.57794301E+02</rscale>
<asrwt>0</asrwt>
<pdfrwt beam="1">  1        2 0.92797205E-01 0.90216430E+02</pdfrwt>
<pdfrwt beam="2">  1        2 0.36185568E+00 0.37024090E+02</pdfrwt>
<totfact> 0.50094180E+01</totfact>
</mgrwt>
</event>
<event>
13    1  0.3019759E-008  0.1020263E+03  0.7546771E-02  0.1397541E+00
          2   -1    0    0  502    0  0.00000000000E+00  0.00000000000E+00  0.10504159285E+04  0.10504159285E+04  0.00000000000E+00 0. -1.
          2   -1    0    0  503    0 -0.00000000000E+00 -0.00000000000E+00 -0.20650465738E+04  0.20650465738E+04  0.00000000000E+00 0. -1.
         25    2    1    2    0    0 -0.69754714366E+02 -0.23869492738E+02 -0.77689700489E+03  0.79033473996E+03  0.12499828847E+03 0.  0.
         24    2    1    2    0    0 -0.11587778106E+03  0.21004323786E+03 -0.92234324448E+02  0.26955100590E+03  0.81269626926E+02 0.  0.
         24    2    1    2    0    0  0.56018942466E+02 -0.14129533134E+03  0.41139608851E+03  0.44585007722E+03  0.80206341084E+02 0.  0.
        -11    1    4    4    0    0 -0.69206889146E+02  0.18135715198E+03 -0.50196723720E+02  0.20049868117E+03  0.00000000000E+00 0.  1.
         12    1    4    4    0    0 -0.46670891912E+02  0.28686085878E+02 -0.42037600729E+02  0.69052324724E+02  0.00000000000E+00 0. -1.
        -13    1    5    5    0    0  0.54766098281E+02 -0.55098931007E+02  0.12896963465E+03  0.15056023506E+03  0.00000000000E+00 0.  1.
         14    1    5    5    0    0  0.12528441851E+01 -0.86196400329E+02  0.28242645386E+03  0.29528984217E+03  0.00000000000E+00 0. -1.
          5    1    3    3  501    0 -0.10537927339E+02  0.65395420178E-01 -0.62973812507E+03  0.62984382854E+03  0.47000000000E+01 0.  1.
         -5    1    3    3    0  501 -0.59216787028E+02 -0.23934888158E+02 -0.14715887982E+03  0.16049091141E+03  0.47000000000E+01 0.  1.
          1    1    1    2  502    0  0.96778628669E+02 -0.31738288401E+02  0.52119651103E+03  0.53105482300E+03  0.00000000000E+00 0. -1.
          1    1    1    2  503    0  0.32834924288E+02 -0.13140125384E+02 -0.10780919155E+04  0.10786718562E+04  0.00000000000E+00 0. -1.
<mgrwt>
<rscale>  0 0.60069313E+02</rscale>
<asrwt>0</asrwt>
<pdfrwt beam="1">  1        2 0.15447293E+00 0.10202632E+03</pdfrwt>
<pdfrwt beam="2">  1        2 0.30368332E+00 0.35366582E+02</pdfrwt>
<totfact> 0.41053741E+01</totfact>
</mgrwt>
</event>
<event>
13    1  0.3019759E-008  0.7418021E+02  0.7546771E-02  0.1362385E+00
          2   -1    0    0  502    0  0.00000000000E+00  0.00000000000E+00  0.29253253784E+04  0.29253253784E+04  0.00000000000E+00 0. -1.
          2   -1    0    0  503    0 -0.00000000000E+00 -0.00000000000E+00 -0.26764266009E+04  0.26764266009E+04  0.00000000000E+00 0. -1.
         25    2    1    2    0    0 -0.68606106637E+02 -0.16029003135E+03 -0.13060229435E+04  0.13235258280E+04  0.12499998482E+03 0.  0.
         24    2    1    2    0    0  0.15443295854E+02  0.82172222718E+02 -0.19723821951E+03  0.22861183129E+03  0.79810303820E+02 0.  0.
         24    2    1    2    0    0 -0.13526860125E+02 -0.20060203952E+02 -0.13398977800E+03  0.15795080264E+03  0.80061274776E+02 0.  0.
        -11    1    4    4    0    0  0.26743634960E+02  0.91141544204E+02 -0.19011412332E+03  0.21252148827E+03  0.00000000000E+00 0.  1.
         12    1    4    4    0    0 -0.11300339107E+02 -0.89693214856E+01 -0.71240961861E+01  0.16090343014E+02  0.00000000000E+00 0. -1.
        -11    1    5    5    0    0 -0.22128219108E+02 -0.30746326654E+02 -0.13844005039E+03  0.14352923826E+03  0.00000000000E+00 0.  1.
         12    1    5    5    0    0  0.86013589824E+01  0.10686122702E+02  0.44502723920E+01  0.14421564378E+02  0.00000000000E+00 0. -1.
          5    1    3    3  501    0 -0.56641138195E+02 -0.55293610236E+01 -0.27429230492E+03  0.28017343005E+03  0.47000000000E+01 0.  1.
         -5    1    3    3    0  501 -0.11964968441E+02 -0.15476067033E+03 -0.10317306386E+04  0.10433523979E+04  0.47000000000E+01 0.  1.
          1    1    1    2  502    0  0.66235275503E+02  0.33381788948E+02  0.28873830600E+04  0.28883355744E+04  0.00000000000E+00 0. -1.
          1    1    1    2  503    0  0.45439540525E+00  0.64796223639E+02 -0.10012333414E+04  0.10033279429E+04  0.00000000000E+00 0. -1.
<mgrwt>
<rscale>  0 0.69330482E+02</rscale>
<asrwt>0</asrwt>
<pdfrwt beam="1">  1        2 0.43019491E+00 0.74180211E+02</pdfrwt>
<pdfrwt beam="2">  1        2 0.39359214E+00 0.64797817E+02</pdfrwt>
<totfact> 0.23424313E+00</totfact>
</mgrwt>
</event>
<event>
13    1  0.3019759E-008  0.5268418E+02  0.7546771E-02  0.1494720E+00
          2   -1    0    0  502    0  0.00000000000E+00  0.00000000000E+00  0.13378161251E+04  0.13378161251E+04  0.00000000000E+00 0. -1.
          2   -1    0    0  503    0 -0.00000000000E+00 -0.00000000000E+00 -0.26786064758E+03  0.26786064758E+03  0.00000000000E+00 0. -1.
         25    2    1    2    0    0 -0.62470411779E+02  0.36853115353E+02 -0.11537713984E+03  0.18491962663E+03  0.12499071747E+03 0.  0.
         24    2    1    2    0    0 -0.27999666548E+02  0.51692396113E+02  0.40612172463E+02  0.10818341564E+03  0.81229414159E+02 0.  0.
         24    2    1    2    0    0  0.84318168873E+02 -0.10702156943E+03  0.15152146018E+03  0.21937683692E+03  0.81266682940E+02 0.  0.
        -13    1    4    4    0    0  0.87424294590E+01 -0.17001450317E+02 -0.22805170081E+01  0.19253055434E+02  0.00000000000E+00 0.  1.
         14    1    4    4    0    0 -0.36742096007E+02  0.68693846430E+02  0.42892689472E+02  0.88930360206E+02  0.00000000000E+00 0. -1.
        -13    1    5    5    0    0  0.40083155494E+02 -0.93470179000E+02  0.63389283300E+02  0.11983962180E+03  0.00000000000E+00 0.  1.
         14    1    5    5    0    0  0.44235013379E+02 -0.13551390430E+02  0.88132176884E+02  0.99537215118E+02  0.00000000000E+00 0. -1.
          5    1    3    3  501    0 -0.60801411619E+02  0.55458661237E+02 -0.16348209595E+02  0.84034687588E+02  0.47000000000E+01 0. -1.
         -5    1    3    3    0  501 -0.16690001602E+01 -0.18605545884E+02 -0.99028930246E+02  0.10088493904E+03  0.47000000000E+01 0. -1.
          1    1    1    2  502    0  0.16486572278E+02  0.50145889756E+02  0.10369020014E+04  0.10382447582E+04  0.00000000000E+00 0. -1.
          1    1    1    2  503    0 -0.10334662825E+02 -0.31669831791E+02 -0.43703016740E+02  0.54952135295E+02  0.00000000000E+00 0. -1.
<mgrwt>
<rscale>  0 0.41893793E+02</rscale>
<asrwt>0</asrwt>
<pdfrwt beam="1">  1        2 0.19673766E+00 0.52684181E+02</pdfrwt>
<pdfrwt beam="2">  1        2 0.39391272E-01 0.33313413E+02</pdfrwt>
<totfact> 0.39512500E+02</totfact>
</mgrwt>
</event>
<event>
13    1  0.3019759E-008  0.1137617E+03  0.7546771E-02  0.1377503E+00
          2   -1    0    0  503    0  0.00000000000E+00  0.00000000000E+00  0.49055654413E+03  0.49055654413E+03  0.00000000000E+00 0. -1.
          2   -1    0    0  502    0 -0.00000000000E+00 -0.00000000000E+00 -0.45519840655E+04  0.45519840655E+04  0.00000000000E+00 0. -1.
         25    2    1    2    0    0  0.85171424896E+02 -0.21650260089E+02 -0.11601282025E+04  0.11701469950E+04  0.12499455362E+03 0.  0.
         24    2    1    2    0    0  0.14006924865E+03  0.32360550120E+02 -0.80901917035E+03  0.82614623513E+03  0.85667871518E+02 0.  0.
         24    2    1    2    0    0 -0.32671900927E+03 -0.97885020461E+02  0.57881372214E+02  0.35504054155E+03  0.79854521760E+02 0.  0.
        -13    1    4    4    0    0  0.69511219270E+02  0.52529770736E+02 -0.31990151404E+03  0.33155416617E+03  0.00000000000E+00 0.  1.
         14    1    4    4    0    0  0.70558029381E+02 -0.20169220616E+02 -0.48911765630E+03  0.49459206896E+03  0.00000000000E+00 0. -1.
        -13    1    5    5    0    0 -0.19816767382E+03 -0.21910924311E+02  0.49788160890E+02  0.20549787472E+03  0.00000000000E+00 0.  1.
         14    1    5    5    0    0 -0.12855133545E+03 -0.75974096149E+02  0.80932113241E+01  0.14954266683E+03  0.00000000000E+00 0. -1.
          5    1    3    3  501    0  0.64954150191E+02  0.34130820684E+02 -0.33986178838E+03  0.34772414317E+03  0.47000000000E+01 0.  1.
         -5    1    3    3    0  501  0.20217274705E+02 -0.55781080773E+02 -0.82026641409E+03  0.82242285185E+03  0.47000000000E+01 0.  1.
          1    1    1    2  502    0 -0.65790474447E+00  0.37276022176E+02 -0.24085921339E+04  0.24088806533E+04  0.00000000000E+00 0. -1.
          1    1    1    2  503    0  0.10213624047E+03  0.49898708254E+02  0.25843061311E+03  0.28232618457E+03  0.00000000000E+00 0. -1.
<mgrwt>
<rscale>  0 0.65124835E+02</rscale>
<asrwt>0</asrwt>
<pdfrwt beam="1">  1        2 0.72140669E-01 0.11376170E+03</pdfrwt>
<pdfrwt beam="2">  1        2 0.66940942E+00 0.37281828E+02</pdfrwt>
<totfact> 0.39393867E+00</totfact>
</mgrwt>
</event>
<event>
13    1  0.3019759E-008  0.7218241E+02  0.7546771E-02  0.1522260E+00
          2   -1    0    0  503    0  0.00000000000E+00  0.00000000000E+00  0.11341568050E+04  0.11341568050E+04  0.00000000000E+00 0. -1.
          2   -1    0    0  502    0 -0.00000000000E+00 -0.00000000000E+00 -0.23766500228E+03  0.23766500228E+03  0.00000000000E+00 0. -1.
         25    2    1    2    0    0  0.25136947289E+02 -0.21261587846E+02  0.76141364296E+01  0.12948582151E+03  0.12499872664E+03 0.  0.
         24    2    1    2    0    0 -0.21325453277E+02 -0.12227217158E+02  0.51869652770E+02  0.98671605946E+02  0.80257991157E+02 0.  0.
         24    2    1    2    0    0  0.44165565129E+02  0.12188843447E+02  0.25350378534E+03  0.26924204338E+03  0.78281183509E+02 0.  0.
        -11    1    5    5    0    0  0.58563115815E+02  0.11510467375E+02  0.11114997772E+03  0.12616040163E+03  0.00000000000E+00 0.  1.
         12    1    5    5    0    0 -0.14397550685E+02  0.67837607209E+00  0.14235380762E+03  0.14308164174E+03  0.00000000000E+00 0. -1.
        -13    1    4    4    0    0 -0.56613024213E+01 -0.30765013262E+02 -0.94877008708E+01  0.32688726710E+02  0.00000000000E+00 0.  1.
         14    1    4    4    0    0 -0.15664150856E+02  0.18537796105E+02  0.61357353641E+02  0.65982879236E+02  0.00000000000E+00 0. -1.
          5    1    3    3  501    0 -0.43330820730E+02  0.16369039614E+01  0.30934276736E+02  0.53472039020E+02  0.47000000000E+01 0.  1.
         -5    1    3    3    0  501  0.68467768019E+02 -0.22898491808E+02 -0.23320140307E+02  0.76013782491E+02  0.47000000000E+01 0.  1.
          1    1    1    2  502    0  0.19226164113E+02 -0.60857665310E+01 -0.14294346398E+03  0.14435898252E+03  0.00000000000E+00 0. -1.
          1    1    1    2  503    0 -0.67203223254E+02  0.27385728088E+02  0.72644769220E+03  0.73006335398E+03  0.00000000000E+00 0. -1.
<mgrwt>
<rscale>  0 0.38153064E+02</rscale>
<asrwt>0</asrwt>
<pdfrwt beam="1">  1        2 0.16678776E+00 0.72182414E+02</pdfrwt>
<pdfrwt beam="2">  1        2 0.34950736E-01 0.20166357E+02</pdfrwt>
<totfact> 0.54688939E+02</totfact>
</mgrwt>
</event>
<event>
13    1  0.3019760E-008  0.8717961E+02  0.7546771E-02  0.1380095E+00
          2   -1    0    0  502    0  0.00000000000E+00  0.00000000000E+00  0.31927947934E+04  0.31927947934E+04  0.00000000000E+00 0. -1.
          2   -1    0    0  503    0 -0.00000000000E+00 -0.00000000000E+00 -0.36563590527E+04  0.36563590527E+04  0.00000000000E+00 0. -1.
         25    2    1    2    0    0  0.10363412144E+03  0.49166963302E+02 -0.15654649214E+03  0.23084254288E+03  0.12499621594E+03 0.  0.
         24    2    1    2    0    0 -0.12357168788E+04 -0.19352260185E+03 -0.82917828698E+03  0.15042396010E+04  0.10369640157E+03 0.  0.
         24    2    1    2    0    0  0.12002657608E+04  0.24469984057E+03  0.15666752063E+04  0.19903202270E+04  0.79921808461E+02 0.  0.
        -11    1    4    4    0    0 -0.11060194176E+04 -0.15494631184E+03 -0.70600531491E+03  0.13212610704E+04  0.00000000000E+00 0.  1.
         12    1    4    4    0    0 -0.12969746119E+03 -0.38576290005E+02 -0.12317297208E+03  0.18297853054E+03  0.00000000000E+00 0. -1.
        -11    1    5    5    0    0  0.70294404278E+03  0.16680967318E+03  0.97461800474E+03  0.12131925031E+04  0.00000000000E+00 0.  1.
         12    1    5    5    0    0  0.49732171798E+03  0.77890167386E+02  0.59205720159E+03  0.77712772393E+03  0.00000000000E+00 0. -1.
          5    1    3    3  501    0  0.11236639580E+03  0.19736530285E+02 -0.59109430292E+02  0.12857586198E+03  0.47000000000E+01 0. -1.
         -5    1    3    3    0  501 -0.87322743649E+01  0.29430433018E+02 -0.97437061844E+02  0.10226668091E+03  0.47000000000E+01 0. -1.
          1    1    1    2  502    0  0.12271194590E+01 -0.47614075342E+02  0.10381607006E+04  0.10392527346E+04  0.00000000000E+00 0. -1.
          1    1    1    2  503    0 -0.69410122892E+02 -0.52730126684E+02 -0.20826753872E+04  0.20844987406E+04  0.00000000000E+00 0. -1.
<mgrwt>
<rscale>  0 0.64438769E+02</rscale>
<asrwt>0</asrwt>
<pdfrwt beam="1">  1        2 0.46952864E+00 0.47629886E+02</pdfrwt>
<pdfrwt beam="2">  1        2 0.53769986E+00 0.87179613E+02</pdfrwt>
<totfact> 0.50623556E-01</totfact>
</mgrwt>
</event>
<event>
13    1  0.3019759E-008  0.4225162E+02  0.7546771E-02  0.1577330E+00
          2   -1    0    0  502    0  0.00000000000E+00  0.00000000000E+00  0.44958147010E+04  0.44958147010E+04  0.00000000000E+00 0. -1.
          2   -1    0    0  503    0 -0.00000000000E+00 -0.00000000000E+00 -0.31487651147E+03  0.31487651147E+03  0.00000000000E+00 0. -1.
         25    2    1    2    0    0  0.12197535023E+03 -0.75219671490E+02 -0.32830989118E+02  0.19297515491E+03  0.12500220608E+03 0.  0.
         24    2    1    2    0    0 -0.12074276726E+03 -0.22529078533E+02  0.21130232190E+04  0.21180533853E+04  0.78718762763E+02 0.  0.
         24    2    1    2    0    0  0.28621567486E+02  0.39787986257E+02  0.64047194547E+03  0.64756390427E+03  0.82051320549E+02 0.  0.
        -11    1    5    5    0    0 -0.10757462983E+02 -0.20663536319E+02  0.17147597894E+03  0.17305119502E+03  0.00000000000E+00 0.  1.
         12    1    5    5    0    0  0.39379030469E+02  0.60451522576E+02  0.46899596653E+03  0.47451270925E+03  0.00000000000E+00 0. -1.
        -13    1    4    4    0    0 -0.79490355596E+02 -0.45291206739E+02  0.10470209831E+04  0.10510104420E+04  0.00000000000E+00 0.  1.
         14    1    4    4    0    0 -0.41252411661E+02  0.22762128205E+02  0.10660022359E+04  0.10670429433E+04  0.00000000000E+00 0. -1.
          5    1    3    3  501    0 -0.13748823678E+02  0.14638729465E+02 -0.21415956962E+02  0.29733075278E+02  0.47000000000E+01 0. -1.
         -5    1    3    3    0  501  0.13572417390E+03 -0.89858400955E+02 -0.11415032156E+02  0.16324207963E+03  0.47000000000E+01 0. -1.
          1    1    1    2  502    0 -0.24465628740E+02  0.34385712539E+02  0.16551701353E+04  0.16557080422E+04  0.00000000000E+00 0. -1.
          1    1    1    2  503    0 -0.53885217141E+01  0.23575051227E+02 -0.19489612106E+03  0.19639072587E+03  0.00000000000E+00 0. -1.
<mgrwt>
<rscale>  0 0.31965174E+02</rscale>
<asrwt>0</asrwt>
<pdfrwt beam="1">  1        2 0.66114918E+00 0.42251616E+02</pdfrwt>
<pdfrwt beam="2">  1        2 0.46305372E-01 0.24183036E+02</pdfrwt>
<totfact> 0.66135819E+00</totfact>
</mgrwt>
</event>
<event>
13    1  0.3019759E-008  0.5402337E+02  0.7546771E-02  0.1442545E+00
          2   -1    0    0  502    0  0.00000000000E+00  0.00000000000E+00  0.10622856615E+04  0.10622856615E+04  0.00000000000E+00 0. -1.
          2   -1    0    0  503    0 -0.00000000000E+00 -0.00000000000E+00 -0.90478241522E+03  0.90478241522E+03  0.00000000000E+00 0. -1.
         25    2    1    2    0    0 -0.24396670481E+02 -0.28549373304E+02 -0.19566343700E+03  0.23520207021E+03  0.12500227599E+03 0.  0.
         24    2    1    2    0    0 -0.19978682798E+02  0.90466336432E+02 -0.47546204977E+02  0.12753627856E+03  0.73631209062E+02 0.  0.
         24    2    1    2    0    0  0.42210373742E+02 -0.53408935346E+02  0.17209318434E+02  0.10684442856E+03  0.80531616438E+02 0.  0.
        -13    1    5    5    0    0 -0.17183329854E+02  0.40410657129E+01  0.16568178099E+02  0.24209534537E+02  0.00000000000E+00 0.  1.
         14    1    5    5    0    0  0.59393703596E+02 -0.57450001058E+02  0.64114033522E+00  0.82634894018E+02  0.00000000000E+00 0. -1.
        -13    1    4    4    0    0  0.28011512991E+02  0.38337386816E+02 -0.18436733879E+02  0.50934401381E+02  0.00000000000E+00 0.  1.
         14    1    4    4    0    0 -0.47990195790E+02  0.52128949616E+02 -0.29109471098E+02  0.76601877181E+02  0.00000000000E+00 0. -1.
          5    1    3    3  501    0  0.41341533887E+02 -0.36667965769E+02 -0.48203019378E+02  0.73479815017E+02  0.47000000000E+01 0. -1.
         -5    1    3    3    0  501 -0.65738204368E+02  0.81185924649E+01 -0.14746041763E+03  0.16172225519E+03  0.47000000000E+01 0. -1.
          1    1    1    2  502    0 -0.19517268875E+02 -0.50487257176E+02  0.93871140241E+03  0.94027069716E+03  0.00000000000E+00 0. -1.
          1    1    1    2  503    0  0.21682248413E+02  0.41979229393E+02 -0.55520783258E+03  0.55721460224E+03  0.00000000000E+00 0. -1.
<mgrwt>
<rscale>  0 0.50522245E+02</rscale>
<asrwt>0</asrwt>
<pdfrwt beam="1">  1        2 0.15621848E+00 0.54023366E+02</pdfrwt>
<pdfrwt beam="2">  1        2 0.13305624E+00 0.47248022E+02</pdfrwt>
<totfact> 0.15031733E+02</totfact>
</mgrwt>
</event>
<event>
13    1  0.3019759E-008  0.1551540E+03  0.7546771E-02  0.1230745E+00
          2   -1    0    0  503    0  0.00000000000E+00  0.00000000000E+00  0.27852868776E+04  0.27852868776E+04  0.00000000000E+00 0. -1.
          2   -1    0    0  502    0 -0.00000000000E+00 -0.00000000000E+00 -0.24559411981E+04  0.24559411981E+04  0.00000000000E+00 0. -1.
         25    2    1    2    0    0 -0.16952650830E+02  0.80845091315E+02 -0.12172260751E+03  0.19303933097E+03  0.12499787583E+03 0.  0.
         24    2    1    2    0    0 -0.20500023386E+03 -0.16420527405E+02 -0.71985779566E+02  0.23240957697E+03  0.80854989978E+02 0.  0.
         24    2    1    2    0    0 -0.22521679701E+02 -0.22753663924E+02 -0.46352035878E+02  0.97780517330E+02  0.79922231329E+02 0.  0.
        -11    1    4    4    0    0 -0.18660521961E+02 -0.26904377899E+02 -0.10810324330E+01  0.32760177978E+02  0.00000000000E+00 0.  1.
         12    1    4    4    0    0 -0.18633971189E+03  0.10483850494E+02 -0.70904747133E+02  0.19964939899E+03  0.00000000000E+00 0. -1.
        -13    1    5    5    0    0  0.21220321150E+02  0.22063346513E+01 -0.42151657727E+02  0.47243329597E+02  0.00000000000E+00 0.  1.
         14    1    5    5    0    0 -0.43742000851E+02 -0.24959998575E+02 -0.42003781515E+01  0.50537187733E+02  0.00000000000E+00 0. -1.
          5    1    3    3  501    0 -0.55505505017E+02  0.93415879965E+02 -0.93287422288E+02  0.14328998874E+03  0.47000000000E+01 0. -1.
         -5    1    3    3    0  501  0.38552854187E+02 -0.12570788651E+02 -0.28435185218E+02  0.49749342223E+02  0.47000000000E+01 0. -1.
          1    1    1    2  502    0  0.10812232213E+03 -0.11576490476E+03 -0.20689888985E+04  0.20750438578E+04  0.00000000000E+00 0. -1.
          1    1    1    2  503    0  0.13635224225E+03  0.74094004775E+02  0.26383950009E+04  0.26429547927E+04  0.00000000000E+00 0. -1.
<mgrwt>
<rscale>  0 0.12780827E+03</rscale>
<asrwt>0</asrwt>
<pdfrwt beam="1">  1        2 0.40960101E+00 0.15515398E+03</pdfrwt>
<pdfrwt beam="2">  1        2 0.36116782E+00 0.10528221E+03</pdfrwt>
<totfact> 0.29989449E+00</totfact>
</mgrwt>
</event>
<event>
13    1  0.3019759E-008  0.1017650E+03  0.7546771E-02  0.1318281E+00
          2   -1    0    0  503    0  0.00000000000E+00  0.00000000000E+00  0.36565407761E+04  0.36565407761E+04  0.00000000000E+00 0. -1.
          2   -1    0    0  502    0 -0.00000000000E+00 -0.00000000000E+00 -0.66631813604E+03  0.66631813604E+03  0.00000000000E+00 0. -1.
         25    2    1    2    0    0  0.26184476781E+02  0.42977046699E+02  0.39388197766E+01  0.13484851635E+03  0.12504381110E+03 0.  0.
         24    2    1    2    0    0 -0.16365466603E+03  0.72700120455E+02  0.23936656951E+03  0.30977373549E+03  0.81211177659E+02 0.  0.
         24    2    1    2    0    0  0.14175376320E+03 -0.15912934777E+03  0.78158849759E+03  0.81400221956E+03  0.79389893400E+02 0.  0.
        -13    1    4    4    0    0  0.35736840249E+01 -0.95553183914E+01  0.14264802983E+02  0.17537386670E+02  0.00000000000E+00 0.  1.
         14    1    4    4    0    0 -0.16722835005E+03  0.82255438847E+02  0.22510176653E+03  0.29223634882E+03  0.00000000000E+00 0. -1.
        -13    1    5    5    0    0  0.80694022749E+02 -0.41865545358E+02  0.24368854894E+03  0.26009297968E+03  0.00000000000E+00 0.  1.
         14    1    5    5    0    0  0.61059740453E+02 -0.11726380241E+03  0.53789994865E+03  0.55390923987E+03  0.00000000000E+00 0. -1.
          5    1    3    3  501    0  0.27808425486E+02  0.36138375785E+01  0.59867131835E+02  0.66276178407E+02  0.47000000000E+01 0. -1.
         -5    1    3    3    0  501 -0.16239487045E+01  0.39363209121E+02 -0.55928312059E+02  0.68572337946E+02  0.47000000000E+01 0. -1.
          1    1    1    2  502    0 -0.49508639860E+02 -0.48354588274E+02 -0.54622746608E+03  0.55059396685E+03  0.00000000000E+00 0. -1.
          1    1    1    2  503    0  0.45225065901E+02  0.91806768891E+02  0.25115562193E+04  0.25136404739E+04  0.00000000000E+00 0. -1.
<mgrwt>
<rscale>  0 0.83920206E+02</rscale>
<asrwt>0</asrwt>
<pdfrwt beam="1">  1        2 0.53772658E+00 0.10176498E+03</pdfrwt>
<pdfrwt beam="2">  1        2 0.97987963E-01 0.69204564E+02</pdfrwt>
<totfact> 0.92518033E+00</totfact>
</mgrwt>
</event>
<event>
13    1  0.3019759E-008  0.6304219E+02  0.7546771E-02  0.1407763E+00
          2   -1    0    0  502    0  0.00000000000E+00  0.00000000000E+00  0.11861886691E+04  0.11861886691E+04  0.00000000000E+00 0. -1.
          2   -1    0    0  503    0 -0.00000000000E+00 -0.00000000000E+00 -0.17810668039E+04  0.17810668039E+04  0.00000000000E+00 0. -1.
         25    2    1    2    0    0 -0.37115753966E+02 -0.61396167720E+01 -0.49012777410E+03  0.50721461189E+03  0.12500461386E+03 0.  0.
         24    2    1    2    0    0 -0.17477645602E+03 -0.96686871855E+02  0.39471535296E+02  0.21864383367E+03  0.79699204106E+02 0.  0.
         24    2    1    2    0    0  0.23202441362E+03  0.93813464241E+02  0.65811623788E+03  0.70875417171E+03  0.81112260309E+02 0.  0.
        -13    1    4    4    0    0 -0.14021295233E+03 -0.68887779529E+02  0.62985409936E+02  0.16844096899E+03  0.00000000000E+00 0.  1.
         14    1    4    4    0    0 -0.34563503688E+02 -0.27799092325E+02 -0.23513874640E+02  0.50202864678E+02  0.00000000000E+00 0. -1.
        -13    1    5    5    0    0  0.18125151054E+03  0.61572128435E+02  0.57594585355E+03  0.60692410011E+03  0.00000000000E+00 0.  1.
         14    1    5    5    0    0  0.50772903082E+02  0.32241335806E+02  0.82170384325E+02  0.10183007160E+03  0.00000000000E+00 0. -1.
          5    1    3    3  501    0 -0.22495674582E+02 -0.12832864461E+02 -0.12231431087E+02  0.29024742748E+02  0.47000000000E+01 0. -1.
         -5    1    3    3    0  501 -0.14620079384E+02  0.66932476895E+01 -0.47789634301E+03  0.47818986914E+03  0.47000000000E+01 0. -1.
          1    1    1    2  502    0 -0.55682509345E+02 -0.30029896520E+02  0.36180922889E+03  0.36729859058E+03  0.00000000000E+00 0. -1.
          1    1    1    2  503    0  0.35550305704E+02  0.39042920906E+02 -0.11641473628E+04  0.11653442651E+04  0.00000000000E+00 0. -1.
<mgrwt>
<rscale>  0 0.57695989E+02</rscale>
<asrwt>0</asrwt>
<pdfrwt beam="1">  1        2 0.17443951E+00 0.63042194E+02</pdfrwt>
<pdfrwt beam="2">  1        2 0.26192159E+00 0.52803162E+02</pdfrwt>
<totfact> 0.46072870E+01</totfact>
</mgrwt>
</event>
<event>
13    1  0.3019759E-008  0.5140120E+02  0.7546771E-02  0.1495043E+00
          2   -1    0    0  502    0  0.00000000000E+00  0.00000000000E+00  0.15050109516E+04  0.15050109516E+04  0.00000000000E+00 0. -1.
          2   -1    0    0  503    0 -0.00000000000E+00 -0.00000000000E+00 -0.18247290301E+04  0.18247290301E+04  0.00000000000E+00 0. -1.
         25    2    1    2    0    0  0.40179149878E+02  0.50836861919E+02 -0.97699053250E+02  0.17136118685E+03  0.12498320182E+03 0.  0.
         24    2    1    2    0    0 -0.10798566550E+03 -0.32739199048E+02  0.12281315277E+02  0.14232742283E+03  0.85869118298E+02 0.  0.
         24    2    1    2    0    0  0.48262723836E+01  0.11713631815E+02  0.47451893981E+02  0.94202237499E+02  0.80385802428E+02 0.  0.
        -11    1    4    4    0    0 -0.75222893531E+02 -0.59114879467E+02  0.24056739214E+02  0.98649781486E+02  0.00000000000E+00 0.  1.
         12    1    4    4    0    0 -0.32762771971E+02  0.26375680420E+02 -0.11775423937E+02  0.43677641348E+02  0.00000000000E+00 0. -1.
        -13    1    5    5    0    0 -0.14141446695E+02 -0.29369208014E+02  0.33754583415E+02  0.46924437083E+02  0.00000000000E+00 0.  1.
         14    1    5    5    0    0  0.18967719079E+02  0.41082839829E+02  0.13697310566E+02  0.47277800416E+02  0.00000000000E+00 0. -1.
          5    1    3    3  501    0  0.52990257221E+02  0.86916351719E+02 -0.75800087058E+02  0.12700457769E+03  0.47000000000E+01 0. -1.
         -5    1    3    3    0  501 -0.12811107343E+02 -0.36079489800E+02 -0.21898966192E+02  0.44356609157E+02  0.47000000000E+01 0. -1.
          1    1    1    2  502    0  0.30834890381E+02 -0.41096552009E+02  0.13193672443E+04  0.13203672377E+04  0.00000000000E+00 0. -1.
          1    1    1    2  503    0  0.32145352859E+02  0.11285257323E+02 -0.16011194788E+04  0.16014818969E+04  0.00000000000E+00 0. -1.
<mgrwt>
<rscale>  0 0.41847048E+02</rscale>
<asrwt>0</asrwt>
<pdfrwt beam="1">  1        2 0.22132514E+00 0.51401200E+02</pdfrwt>
<pdfrwt beam="2">  1        2 0.26834250E+00 0.34068765E+02</pdfrwt>
<totfact> 0.32442713E+01</totfact>
</mgrwt>
</event>
<event>
13    1  0.3019759E-008  0.1015068E+03  0.7546771E-02  0.1323760E+00
          2   -1    0    0  503    0  0.00000000000E+00  0.00000000000E+00  0.50220791067E+03  0.50220791067E+03  0.00000000000E+00 0. -1.
          2   -1    0    0  502    0 -0.00000000000E+00 -0.00000000000E+00 -0.13267954071E+04  0.13267954071E+04  0.00000000000E+00 0. -1.
         25    2    1    2    0    0  0.15482008427E+02  0.59445492484E+02 -0.58284846681E+03  0.59925837573E+03  0.12499922583E+03 0.  0.
         24    2    1    2    0    0  0.64307884713E+02 -0.11336406147E+03 -0.17261086229E+03  0.22990671030E+03  0.77946591909E+02 0.  0.
         24    2    1    2    0    0  0.17144574861E+02 -0.75940194864E+02  0.12260298418E+02  0.11282041236E+03  0.80729677838E+02 0.  0.
        -11    1    4    4    0    0  0.39340070968E+01  0.92918992182E+01 -0.49337627331E+00  0.10102436492E+02  0.00000000000E+00 0.  1.
         12    1    4    4    0    0  0.60373877616E+02 -0.12265596069E+03 -0.17211748602E+03  0.21980427381E+03  0.00000000000E+00 0. -1.
        -11    1    5    5    0    0 -0.65503373348E+01 -0.82680291882E+02  0.22814318747E+02  0.86019943762E+02  0.00000000000E+00 0.  1.
         12    1    5    5    0    0  0.23694912196E+02  0.67400970188E+01 -0.10554020328E+02  0.26800468594E+02  0.00000000000E+00 0. -1.
          5    1    3    3  501    0  0.48124491249E+00  0.59294236467E+02 -0.10144056200E+03  0.11759385908E+03  0.47000000000E+01 0. -1.
         -5    1    3    3    0  501  0.15000763514E+02  0.15125601714E+00 -0.48140790481E+03  0.48166451665E+03  0.47000000000E+01 0. -1.
          1    1    1    2  502    0  0.13439998461E+02  0.64689934373E+02 -0.47164514123E+03  0.47625052274E+03  0.00000000000E+00 0. -1.
          1    1    1    2  503    0 -0.11037446646E+03  0.65168829478E+02  0.39025667551E+03  0.41076729661E+03  0.00000000000E+00 0. -1.
<mgrwt>
<rscale>  0 0.81894399E+02</rscale>
<asrwt>0</asrwt>
<pdfrwt beam="1">  1        2 0.73854104E-01 0.10150684E+03</pdfrwt>
<pdfrwt beam="2">  1        2 0.19511697E+00 0.66071334E+02</pdfrwt>
<totfact> 0.20668104E+02</totfact>
</mgrwt>
</event>
<event>
13    1  0.3019759E-008  0.1230464E+03  0.7546771E-02  0.1325049E+00
          2   -1    0    0  502    0  0.00000000000E+00  0.00000000000E+00  0.20137482187E+04  0.20137482187E+04  0.00000000000E+00 0. -1.
          2   -1    0    0  503    0 -0.00000000000E+00 -0.00000000000E+00 -0.14304289907E+04  0.14304289907E+04  0.00000000000E+00 0. -1.
         25    2    1    2    0    0 -0.19413013929E+03  0.73961748361E+02 -0.11216301460E+03  0.26713487902E+03  0.12499460207E+03 0.  0.
         24    2    1    2    0    0  0.27255358007E+03  0.78858232402E+02  0.10281322503E+04  0.10695092132E+04  0.79309256616E+02 0.  0.
         24    2    1    2    0    0 -0.55359618040E+02 -0.42766948308E+02  0.17271489350E+03  0.20292345626E+03  0.80335518223E+02 0.  0.
        -11    1    5    5    0    0 -0.28501491505E+02 -0.44659440879E+02  0.16726225552E+03  0.17545216670E+03  0.00000000000E+00 0.  1.
         12    1    5    5    0    0 -0.26858126535E+02  0.18924925706E+01  0.54526379712E+01  0.27471289557E+02  0.00000000000E+00 0. -1.
        -11    1    4    4    0    0  0.50709241346E+01  0.18425533065E+02  0.46000086202E+02  0.49811870783E+02  0.00000000000E+00 0.  1.
         12    1    4    4    0    0  0.26748265594E+03  0.60432699338E+02  0.98213216414E+03  0.10196973425E+04  0.00000000000E+00 0. -1.
          5    1    3    3  501    0 -0.10372206286E+02  0.46746266498E+02 -0.54218683115E+02  0.72488286594E+02  0.47000000000E+01 0.  1.
         -5    1    3    3    0  501 -0.18375793300E+03  0.27215481863E+02 -0.57944331484E+02  0.19464659243E+03  0.47000000000E+01 0.  1.
          1    1    1    2  502    0  0.52305579590E+02 -0.12952479777E+02  0.69544272441E+03  0.69752722049E+03  0.00000000000E+00 0. -1.
          1    1    1    2  503    0 -0.75369402338E+02 -0.97100552678E+02 -0.12008076256E+04  0.12070824404E+04  0.00000000000E+00 0. -1.
<mgrwt>
<rscale>  0 0.81427336E+02</rscale>
<asrwt>0</asrwt>
<pdfrwt beam="1">  1        2 0.29613944E+00 0.53885438E+02</pdfrwt>
<pdfrwt beam="2">  1        2 0.21035721E+00 0.12304644E+03</pdfrwt>
<totfact> 0.25678676E+01</totfact>
</mgrwt>
</event>
<event>
13    1  0.3019759E-008  0.5962283E+02  0.7546771E-02  0.1463942E+00
          2   -1    0    0  502    0  0.00000000000E+00  0.00000000000E+00  0.45296969428E+03  0.45296969428E+03  0.00000000000E+00 0. -1.
          2   -1    0    0  503    0 -0.00000000000E+00 -0.00000000000E+00 -0.18907147084E+04  0.18907147084E+04  0.00000000000E+00 0. -1.
         25    2    1    2    0    0 -0.90078080888E+02 -0.19917649775E+03 -0.10386469271E+04  0.10687368433E+04  0.12500265300E+03 0.  0.
         24    2    1    2    0    0  0.40509917636E+02  0.17055801936E+03 -0.20053040974E+03  0.27872623841E+03  0.82126605651E+02 0.  0.
         24    2    1    2    0    0  0.15518294857E+02  0.21811134627E+02 -0.28400869506E+02  0.90032319371E+02  0.81133630966E+02 0.  0.
        -13    1    5    5    0    0 -0.28959462187E+02  0.24557714338E+02 -0.24741845882E+02  0.45319871153E+02  0.00000000000E+00 0.  1.
         14    1    5    5    0    0  0.44477757044E+02 -0.27465797110E+01 -0.36590236242E+01  0.44712448218E+02  0.00000000000E+00 0. -1.
        -13    1    4    4    0    0  0.17547002899E+02  0.17709573427E+02  0.75679976470E+00  0.24941913470E+02  0.00000000000E+00 0.  1.
         14    1    4    4    0    0  0.22962914738E+02  0.15284844593E+03 -0.20128720951E+03  0.25378432494E+03  0.00000000000E+00 0. -1.
          5    1    3    3  501    0 -0.10629020034E+03 -0.84692469875E+02 -0.57659057342E+03  0.59240965598E+03  0.47000000000E+01 0.  1.
         -5    1    3    3    0  501  0.16212119450E+02 -0.11448402788E+03 -0.46205635364E+03  0.47632718733E+03  0.47000000000E+01 0.  1.
          1    1    1    2  502    0  0.54980083607E+02 -0.23209415355E+02  0.36496270959E+03  0.36980976995E+03  0.00000000000E+00 0. -1.
          1    1    1    2  503    0 -0.20930215212E+02  0.30016759125E+02 -0.53512951742E+03  0.53637923165E+03  0.00000000000E+00 0. -1.
<mgrwt>
<rscale>  0 0.46709790E+02</rscale>
<asrwt>0</asrwt>
<pdfrwt beam="1">  1        2 0.66613190E-01 0.59622832E+02</pdfrwt>
<pdfrwt beam="2">  1        2 0.27804628E+00 0.36593438E+02</pdfrwt>
<totfact> 0.13212533E+02</totfact>
</mgrwt>
</event>
<event>
13    1  0.3019759E-008  0.8674657E+02  0.7546771E-02  0.1446312E+00
          2   -1    0    0  502    0  0.00000000000E+00  0.00000000000E+00  0.31420965656E+04  0.31420965656E+04  0.00000000000E+00 0. -1.
          2   -1    0    0  503    0 -0.00000000000E+00 -0.00000000000E+00 -0.23549071822E+04  0.23549071822E+04  0.00000000000E+00 0. -1.
         25    2    1    2    0    0  0.25912087154E+03  0.24816133124E+02 -0.11866249789E+04  0.12212566377E+04  0.12501787048E+03 0.  0.
         24    2    1    2    0    0 -0.46909354890E+02  0.87603645999E+02  0.26202374704E+02  0.13054613155E+03  0.80503674779E+02 0.  0.
         24    2    1    2    0    0 -0.15803628938E+03 -0.17819367945E+02  0.93314031216E+03  0.94903680504E+03  0.68022176645E+02 0.  0.
        -11    1    4    4    0    0  0.19860014626E+02  0.35916658508E+02 -0.31248768152E+01  0.41160556294E+02  0.00000000000E+00 0.  1.
         12    1    4    4    0    0 -0.66769369516E+02  0.51686987492E+02  0.29327251519E+02  0.89385575252E+02  0.00000000000E+00 0. -1.
        -13    1    5    5    0    0 -0.14754908281E+03 -0.35728087347E+02  0.84049459678E+03  0.85409507392E+03  0.00000000000E+00 0.  1.
         14    1    5    5    0    0 -0.10487206573E+02  0.17908719401E+02  0.92645715372E+02  0.94941731125E+02  0.00000000000E+00 0. -1.
          5    1    3    3  501    0  0.63162968049E+02  0.21579194857E+02 -0.57745988326E+03  0.58132368690E+03  0.47000000000E+01 0. -1.
         -5    1    3    3    0  501  0.19595790349E+03  0.32369382671E+01 -0.60916509568E+03  0.63993295078E+03  0.47000000000E+01 0. -1.
          1    1    1    2  502    0 -0.56201754871E+02 -0.66059273541E+02  0.21042367912E+04  0.21060234895E+04  0.00000000000E+00 0. -1.
          1    1    1    2  503    0  0.20265276034E+01 -0.28541137637E+02 -0.10897651158E+04  0.10901406840E+04  0.00000000000E+00 0. -1.
<mgrwt>
<rscale>  0 0.49820468E+02</rscale>
<asrwt>0</asrwt>
<pdfrwt beam="1">  1        2 0.46207302E+00 0.86746570E+02</pdfrwt>
<pdfrwt beam="2">  1        2 0.34630988E+00 0.28612993E+02</pdfrwt>
<totfact> 0.28121960E+00</totfact>
</mgrwt>
</event>
<event>
13    1  0.3019759E-008  0.1844947E+03  0.7546771E-02  0.1168115E+00
          2   -1    0    0  503    0  0.00000000000E+00  0.00000000000E+00  0.10171634708E+04  0.10171634708E+04  0.00000000000E+00 0. -1.
          2   -1    0    0  502    0 -0.00000000000E+00 -0.00000000000E+00 -0.10770936556E+04  0.10770936556E+04  0.00000000000E+00 0. -1.
         25    2    1    2    0    0 -0.22786479101E+03  0.24002630118E+02 -0.25432291358E+03  0.36442261357E+03  0.12500083072E+03 0.  0.
         24    2    1    2    0    0  0.56957711797E+02 -0.88817069452E+01  0.25244682504E+02  0.10332988016E+03  0.81955503092E+02 0.  0.
         24    2    1    2    0    0  0.54351750901E+02 -0.26000382946E+03  0.31410671073E+03  0.41921037704E+03  0.80735434137E+02 0.  0.
        -11    1    5    5    0    0  0.44654899079E+02 -0.67783966553E+02  0.12742637005E+03  0.15108344025E+03  0.00000000000E+00 0.  1.
         12    1    5    5    0    0  0.96968518215E+01 -0.19221986291E+03  0.18668034068E+03  0.26812693678E+03  0.00000000000E+00 0. -1.
        -13    1    4    4    0    0 -0.12675219563E+02 -0.23115012813E+02 -0.36391088089E+01  0.26612179941E+02  0.00000000000E+00 0.  1.
         14    1    4    4    0    0  0.69632931360E+02  0.14233305868E+02  0.28883791313E+02  0.76717700216E+02  0.00000000000E+00 0. -1.
          5    1    3    3  501    0 -0.75807130665E+02  0.37378312979E+02 -0.23855900816E+02  0.87949152040E+02  0.47000000000E+01 0. -1.
         -5    1    3    3    0  501 -0.15205766034E+03 -0.13375682861E+02 -0.23046701276E+03  0.27647346153E+03  0.47000000000E+01 0. -1.
          1    1    1    2  502    0  0.15213585464E+03 -0.10303986712E+03 -0.60335583707E+03  0.63071451435E+03  0.00000000000E+00 0. -1.
          1    1    1    2  503    0 -0.35580526332E+02  0.34792277341E+03  0.45839717262E+03  0.57657974121E+03  0.00000000000E+00 0. -1.
<mgrwt>
<rscale>  0 0.17967803E+03</rscale>
<asrwt>0</asrwt>
<pdfrwt beam="1">  1        2 0.14958286E+00 0.17498713E+03</pdfrwt>
<pdfrwt beam="2">  1        2 0.15839613E+00 0.18449469E+03</pdfrwt>
<totfact> 0.11201416E+02</totfact>
</mgrwt>
</event>
<event>
13    1  0.3019759E-008  0.9691369E+02  0.7546771E-02  0.1440998E+00
         -1   -1    0    0    0  501 -0.00000000000E+00  0.00000000000E+00  0.80645161699E+03  0.80645161699E+03  0.00000000000E+00 0.  1.
          2   -1    0    0  503    0  0.00000000000E+00 -0.00000000000E+00 -0.20081670428E+04  0.20081670428E+04  0.00000000000E+00 0. -1.
         25    2    1    2    0    0 -0.17882162228E+02 -0.77481826744E+02  0.80206407914E+02  0.16846543161E+03  0.12499731428E+03 0.  0.
         24    2    1    2    0    0  0.21977782836E+02  0.12188639048E+02 -0.34085236404E+02  0.91165762111E+02  0.80732936155E+02 0.  0.
         24    2    1    2    0    0 -0.66281877895E+02  0.11820937222E+02 -0.32763458941E+03  0.34395325770E+03  0.80164814065E+02 0.  0.
        -11    1    4    4    0    0  0.46577397685E+02  0.12384971702E+01 -0.42386081074E+02  0.62988631666E+02  0.00000000000E+00 0.  1.
         12    1    4    4    0    0 -0.24599614848E+02  0.10950141878E+02  0.83008446705E+01  0.28177130445E+02  0.00000000000E+00 0. -1.
        -13    1    5    5    0    0  0.78899757919E+01  0.20600469299E+02 -0.14449010418E+03  0.14616436384E+03  0.00000000000E+00 0.  1.
         14    1    5    5    0    0 -0.74171853687E+02 -0.87795320779E+01 -0.18314448523E+03  0.19778889386E+03  0.00000000000E+00 0. -1.
          5    1    3    3  502    0  0.15160735499E+02  0.21849869425E+02 -0.11367930270E+02  0.29301613154E+02  0.47000000000E+01 0. -1.
         -5    1    3    3    0  502 -0.33042897728E+02 -0.99331696169E+02  0.91574338184E+02  0.13916381846E+03  0.47000000000E+01 0. -1.
          1    1    1    2  503    0  0.55618104453E+02  0.79293332207E+02 -0.15638442993E+04  0.15668407062E+04  0.00000000000E+00 0. -1.
         -2    1    1    2    0  501  0.65681528337E+01 -0.25821081733E+02  0.64364229143E+03  0.64419350214E+03  0.00000000000E+00 0.  1.
<mgrwt>
<rscale>  0 0.50814434E+02</rscale>
<asrwt>0</asrwt>
<pdfrwt beam="2">  1        2 0.29531868E+00 0.96913685E+02</pdfrwt>
<pdfrwt beam="1">  1       -1 0.11859583E+00 0.26643365E+02</pdfrwt>
<totfact> 0.80666322E+00</totfact>
</mgrwt>
</event>
<event>
13    1  0.3019759E-008  0.1443414E+03  0.7546771E-02  0.1252189E+00
          2   -1    0    0  503    0  0.00000000000E+00  0.00000000000E+00  0.32011398874E+03  0.32011398874E+03  0.00000000000E+00 0. -1.
          2   -1    0    0  502    0 -0.00000000000E+00 -0.00000000000E+00 -0.51864671072E+04  0.51864671072E+04  0.00000000000E+00 0. -1.
         25    2    1    2    0    0 -0.10806917999E+03 -0.48763685164E+02 -0.21249392990E+04  0.21319127969E+04  0.12501321701E+03 0.  0.
         24    2    1    2    0    0 -0.86207464376E+01 -0.21712003973E+01 -0.72934340240E+03  0.73403096113E+03  0.82344531590E+02 0.  0.
         24    2    1    2    0    0 -0.12055317429E+03 -0.45767332298E+02  0.47108150812E+02  0.15868692077E+03  0.79590479411E+02 0.  0.
        -13    1    5    5    0    0 -0.65624067146E+02 -0.72215545847E+01  0.61308462554E+02  0.90096596052E+02  0.00000000000E+00 0.  1.
         14    1    5    5    0    0 -0.54929107141E+02 -0.38545777713E+02 -0.14200311742E+02  0.68590324714E+02  0.00000000000E+00 0. -1.
        -13    1    4    4    0    0  0.26432299077E+01 -0.38368579181E+02 -0.50894147515E+03  0.51039255447E+03  0.00000000000E+00 0.  1.
         14    1    4    4    0    0 -0.11263976345E+02  0.36197378784E+02 -0.22040192725E+03  0.22363840665E+03  0.00000000000E+00 0. -1.
          5    1    3    3  501    0  0.78035995986E+01 -0.39766121934E+01 -0.13232292559E+02  0.16549718354E+02  0.47000000000E+01 0.  1.
         -5    1    3    3    0  501 -0.11587277959E+03 -0.44787072970E+02 -0.21117070064E+04  0.21153630785E+04  0.47000000000E+01 0.  1.
          1    1    1    2  502    0  0.99468781685E+02  0.32374102135E+02 -0.22418430754E+04  0.22442821783E+04  0.00000000000E+00 0. -1.
          1    1    1    2  503    0  0.13777431903E+03  0.64328115724E+02  0.18266450754E+03  0.23766823888E+03  0.00000000000E+00 0. -1.
<mgrwt>
<rscale>  0 0.11465268E+03</rscale>
<asrwt>0</asrwt>
<pdfrwt beam="1">  1        2 0.47075590E-01 0.14434143E+03</pdfrwt>
<pdfrwt beam="2">  1        2 0.76271569E+00 0.91070439E+02</pdfrwt>
<totfact> 0.12669904E+00</totfact>
</mgrwt>
</event>
<event>
13    1  0.3019759E-008  0.5541792E+02  0.7546771E-02  0.1593402E+00
          2   -1    0    0  503    0  0.00000000000E+00  0.00000000000E+00  0.12017183711E+04  0.12017183711E+04  0.00000000000E+00 0. -1.
          2   -1    0    0  502    0 -0.00000000000E+00 -0.00000000000E+00 -0.15526227243E+04  0.15526227243E+04  0.00000000000E+00 0. -1.
         25    2    1    2    0    0 -0.35477762028E+02  0.97943642683E+02 -0.24713642117E+03  0.29589286638E+03  0.12499819584E+03 0.  0.
         24    2    1    2    0    0 -0.71150748252E+03  0.62425160401E+02 -0.66990694343E+02  0.71989058493E+03  0.60124061792E+02 0.  0.
         24    2    1    2    0    0  0.72807626855E+03 -0.11645634577E+03 -0.65099274318E+02  0.74312664705E+03  0.65895104110E+02 0.  0.
        -13    1    5    5    0    0  0.46169784350E+03 -0.10338843288E+03 -0.53905016690E+02  0.47619304654E+03  0.00000000000E+00 0.  1.
         14    1    5    5    0    0  0.26637842505E+03 -0.13067912884E+02 -0.11194257628E+02  0.26693360051E+03  0.00000000000E+00 0. -1.
        -13    1    4    4    0    0 -0.80294474326E+02  0.23817656398E+02 -0.17524467102E+02  0.85566291907E+02  0.00000000000E+00 0.  1.
         14    1    4    4    0    0 -0.63121300820E+03  0.38607504003E+02 -0.49466227242E+02  0.63432429302E+03  0.00000000000E+00 0. -1.
          5    1    3    3  501    0  0.60821292884E+01  0.27347110726E+02  0.66464898551E+01  0.29174005367E+02  0.47000000000E+01 0.  1.
         -5    1    3    3    0  501 -0.41559891316E+02  0.70596531957E+02 -0.25378291103E+03  0.26671886102E+03  0.47000000000E+01 0.  1.
          1    1    1    2  502    0  0.64659986234E+01 -0.55061673940E+02 -0.48182821337E+03  0.48500724146E+03  0.00000000000E+00 0. -1.
          1    1    1    2  503    0  0.12442977380E+02  0.11149216623E+02  0.51015025001E+03  0.51042375562E+03  0.00000000000E+00 0. -1.
<mgrwt>
<rscale>  0 0.30428308E+02</rscale>
<asrwt>0</asrwt>
<pdfrwt beam="1">  1        2 0.17672329E+00 0.16707265E+02</pdfrwt>
<pdfrwt beam="2">  1        2 0.22832687E+00 0.55417921E+02</pdfrwt>
<totfact> 0.62978623E+01</totfact>
</mgrwt>
</event>
<event>
13    1  0.3019759E-008  0.2012518E+03  0.7546771E-02  0.1247476E+00
          2   -1    0    0  502    0  0.00000000000E+00  0.00000000000E+00  0.16366853046E+04  0.16366853046E+04  0.00000000000E+00 0. -1.
          4   -1    0    0  503    0 -0.00000000000E+00 -0.00000000000E+00 -0.36975489935E+03  0.36975489935E+03  0.00000000000E+00 0. -1.
         25    2    1    2    0    0  0.10172316546E+03 -0.10219486215E+03 -0.32363351228E+01  0.19084396750E+03  0.12497821340E+03 0.  0.
         24    2    1    2    0    0 -0.56413878948E+02  0.54970497892E+01  0.43093701845E+02  0.10538031031E+03  0.77686545604E+02 0.  0.
         24    2    1    2    0    0  0.91162004872E+02 -0.73856068212E+01  0.43077819128E+03  0.44750477818E+03  0.79533754411E+02 0.  0.
        -13    1    4    4    0    0 -0.59138828490E+02 -0.24976776434E+02  0.20652585292E+02  0.67437153524E+02  0.00000000000E+00 0.  1.
         14    1    4    4    0    0  0.27249495424E+01  0.30473826223E+02  0.22441116553E+02  0.37943156785E+02  0.00000000000E+00 0. -1.
        -13    1    5    5    0    0  0.10102744644E+03 -0.15767956766E+02  0.41326316257E+03  0.42572481127E+03  0.00000000000E+00 0.  1.
         14    1    5    5    0    0 -0.98654415633E+01  0.83823499448E+01  0.17515028707E+02  0.21779966907E+02  0.00000000000E+00 0. -1.
          5    1    3    3  501    0 -0.25492669123E+02 -0.26393589742E+02 -0.19453955212E+02  0.41797657014E+02  0.47000000000E+01 0. -1.
         -5    1    3    3    0  501  0.12721583458E+03 -0.75801272406E+02  0.16217620089E+02  0.14904631048E+03  0.47000000000E+01 0. -1.
          1    1    1    2  502    0  0.43508254292E+02 -0.52864674306E+02  0.96684204625E+03  0.96926321729E+03  0.00000000000E+00 0. -1.
          3    1    1    2  503    0 -0.17997954568E+03  0.15694809349E+03 -0.17054719903E+03  0.29344793066E+03  0.00000000000E+00 0. -1.
<mgrwt>
<rscale>  0 0.11738390E+03</rscale>
<asrwt>0</asrwt>
<pdfrwt beam="1">  1        2 0.24068901E+00 0.68466357E+02</pdfrwt>
<pdfrwt beam="2">  1        4 0.54375721E-01 0.20125185E+03</pdfrwt>
<totfact> 0.24320205E+01</totfact>
</mgrwt>
</event>
<event>
13    1  0.3019759E-008  0.5158177E+02  0.7546771E-02  0.1646280E+00
          2   -1    0    0  503    0  0.00000000000E+00  0.00000000000E+00  0.22973634244E+04  0.22973634244E+04  0.00000000000E+00 0. -1.
         -1   -1    0    0    0  501 -0.00000000000E+00 -0.00000000000E+00 -0.23189578417E+03  0.23189578417E+03  0.00000000000E+00 0.  1.
         25    2    1    2    0    0 -0.63099738978E+02 -0.17024410325E+03  0.29356761834E+03  0.36711287446E+03  0.12500113721E+03 0.  0.
         24    2    1    2    0    0  0.51778371268E+02  0.47013328262E+02  0.44063262766E+03  0.45331868248E+03  0.80308545982E+02 0.  0.
         24    2    1    2    0    0 -0.56950501429E+00  0.59685394360E+02  0.78321848577E+03  0.78876697384E+03  0.71829464294E+02 0.  0.
        -13    1    5    5    0    0 -0.16648926837E+02  0.70384779215E+02  0.54714621231E+03  0.55190595354E+03  0.00000000000E+00 0.  1.
         14    1    5    5    0    0  0.16079421823E+02 -0.10699384854E+02  0.23607227346E+03  0.23686102030E+03  0.00000000000E+00 0. -1.
        -13    1    4    4    0    0  0.64358006508E+02  0.92139263295E+01  0.31011203432E+03  0.31685378848E+03  0.00000000000E+00 0.  1.
         14    1    4    4    0    0 -0.12579635240E+02  0.37799401932E+02  0.13052059334E+03  0.13646489400E+03  0.00000000000E+00 0. -1.
          5    1    3    3  502    0 -0.87011545412E+01 -0.13690765822E+03  0.12068729768E+03  0.18277562964E+03  0.47000000000E+01 0. -1.
         -5    1    3    3    0  502 -0.54398584437E+02 -0.33336445038E+02  0.17288032065E+03  0.18433724482E+03  0.47000000000E+01 0. -1.
          1    1    1    2  503    0  0.35634434976E+01  0.12670468207E+02  0.73042243125E+03  0.73054100977E+03  0.00000000000E+00 0. -1.
         -2    1    1    2    0  501  0.83274292274E+01  0.50874912425E+02 -0.18237352273E+03  0.18951966807E+03  0.00000000000E+00 0.  1.
<mgrwt>
<rscale>  0 0.26056103E+02</rscale>
<asrwt>0</asrwt>
<pdfrwt beam="1">  1        2 0.33784755E+00 0.13162025E+02</pdfrwt>
<pdfrwt beam="2">  1       -1 0.34102323E-01 0.51581769E+02</pdfrwt>
<totfact> 0.79998676E+01</totfact>
</mgrwt>
</event>
<event>
13    1  0.3019759E-008  0.7168029E+02  0.7546771E-02  0.1446988E+00
         -1   -1    0    0    0  501 -0.00000000000E+00  0.00000000000E+00  0.63205485949E+03  0.63205485949E+03  0.00000000000E+00 0.  1.
          2   -1    0    0  503    0  0.00000000000E+00 -0.00000000000E+00 -0.61908790339E+03  0.61908790339E+03  0.00000000000E+00 0. -1.
         25    2    1    2    0    0  0.22284684028E+02 -0.46113285071E+02  0.16926305203E+03  0.21656514860E+03  0.12500976203E+03 0.  0.
         24    2    1    2    0    0 -0.66261932211E+01 -0.58969696500E+01 -0.34641628082E+02  0.92682152662E+02  0.85505896512E+02 0.  0.
         24    2    1    2    0    0  0.33557782255E+01  0.53360642878E+01 -0.22783106909E+03  0.24312697629E+03  0.84640390628E+02 0.  0.
        -11    1    5    5    0    0 -0.29975168929E+02 -0.22016654114E+01 -0.18910807889E+03  0.19148165339E+03  0.00000000000E+00 0.  1.
         12    1    5    5    0    0  0.33330947155E+02  0.75377296992E+01 -0.38722990206E+02  0.51645322903E+02  0.00000000000E+00 0. -1.
        -11    1    4    4    0    0 -0.26881769112E+02 -0.37630426440E+02 -0.89496114569E+01  0.47103864490E+02  0.00000000000E+00 0.  1.
         12    1    4    4    0    0  0.20255575891E+02  0.31733456790E+02 -0.25692016625E+02  0.45578288173E+02  0.00000000000E+00 0. -1.
          5    1    3    3  502    0  0.70227151276E+02 -0.50227744520E+02  0.11512856424E+03  0.14398387202E+03  0.47000000000E+01 0.  1.
         -5    1    3    3    0  502 -0.47942467248E+02  0.41144594487E+01  0.54134487784E+02  0.72581276581E+02  0.47000000000E+01 0.  1.
          1    1    1    2  503    0 -0.53417570810E+02  0.48547509572E+02 -0.29114311721E+03  0.29995768411E+03  0.00000000000E+00 0. -1.
         -2    1    1    2    0  501  0.34403301777E+02 -0.18733191388E+01  0.39731971846E+03  0.39881080122E+03  0.00000000000E+00 0.  1.
<mgrwt>
<rscale>  0 0.49695993E+02</rscale>
<asrwt>0</asrwt>
<pdfrwt beam="2">  1        2 0.91042339E-01 0.71680288E+02</pdfrwt>
<pdfrwt beam="1">  1       -1 0.92949244E-01 0.34454267E+02</pdfrwt>
<totfact> 0.77956921E+01</totfact>
</mgrwt>
</event>
<event>
13    1  0.3019759E-008  0.9849381E+02  0.7546771E-02  0.1288746E+00
          2   -1    0    0  503    0  0.00000000000E+00  0.00000000000E+00  0.39118793128E+03  0.39118793128E+03  0.00000000000E+00 0. -1.
          2   -1    0    0  502    0 -0.00000000000E+00 -0.00000000000E+00 -0.22307496581E+04  0.22307496581E+04  0.00000000000E+00 0. -1.
         25    2    1    2    0    0 -0.42383181580E+02 -0.13114372079E+03 -0.71555368806E+03  0.73934942322E+03  0.12500191814E+03 0.  0.
         24    2    1    2    0    0  0.24429255520E+02  0.10670882499E+02 -0.12239330340E+03  0.14885155456E+03  0.80411493705E+02 0.  0.
         24    2    1    2    0    0 -0.19668535647E+02  0.15022608819E+02 -0.15362370876E+03  0.17494784003E+03  0.79962320907E+02 0.  0.
        -11    1    4    4    0    0  0.38960240964E+02 -0.58625865099E+01 -0.20124906770E+02  0.44241181823E+02  0.00000000000E+00 0.  1.
         12    1    4    4    0    0 -0.14530985444E+02  0.16533469009E+02 -0.10226839663E+03  0.10461037274E+03  0.00000000000E+00 0. -1.
        -13    1    5    5    0    0 -0.13286853818E+02 -0.75041400818E+01 -0.15056425236E+03  0.15133554339E+03  0.00000000000E+00 0.  1.
         14    1    5    5    0    0 -0.63816818290E+01  0.22526748901E+02 -0.30594564001E+01  0.23612296637E+02  0.00000000000E+00 0. -1.
          5    1    3    3  501    0  0.28782088436E+02 -0.31315670405E+02 -0.68504530364E+02  0.80771532783E+02  0.47000000000E+01 0. -1.
         -5    1    3    3    0  501 -0.71165270016E+02 -0.99828050386E+02 -0.64704915770E+03  0.65857789044E+03  0.47000000000E+01 0. -1.
          1    1    1    2  502    0 -0.51763680767E+02  0.75277450591E+02 -0.11953552743E+04  0.11988412760E+04  0.00000000000E+00 0. -1.
          1    1    1    2  503    0  0.89386142473E+02  0.30172778882E+02  0.34736424766E+03  0.35994749563E+03  0.00000000000E+00 0. -1.
<mgrwt>
<rscale>  0 0.96087129E+02</rscale>
<asrwt>0</asrwt>
<pdfrwt beam="1">  1        2 0.57527637E-01 0.98493808E+02</pdfrwt>
<pdfrwt beam="2">  1        2 0.32805142E+00 0.93739257E+02</pdfrwt>
<totfact> 0.95604990E+01</totfact>
</mgrwt>
</event>
<event>
13    1  0.3019759E-008  0.2296871E+03  0.7546771E-02  0.1209402E+00
          2   -1    0    0  502    0  0.00000000000E+00  0.00000000000E+00  0.17491042284E+04  0.17491042284E+04  0.00000000000E+00 0. -1.
          2   -1    0    0  503    0 -0.00000000000E+00 -0.00000000000E+00 -0.43201605839E+03  0.43201605839E+03  0.00000000000E+00 0. -1.
         25    2    1    2    0    0 -0.45966931125E+02 -0.26619524400E+03  0.42509268755E+02  0.30067357245E+03  0.12499877023E+03 0.  0.
         24    2    1    2    0    0 -0.14175777116E+03 -0.36693094516E+02  0.13858957907E+03  0.21021602155E+03  0.59515169675E+02 0.  0.
         24    2    1    2    0    0  0.10624795721E+02  0.10678691941E+03  0.49759379433E+03  0.51528973053E+03  0.80047422126E+02 0.  0.
        -13    1    5    5    0    0 -0.13375589371E+02 -0.56200442489E+01  0.11180550464E+03  0.11274290291E+03  0.00000000000E+00 0.  1.
         14    1    5    5    0    0  0.24000385092E+02  0.11240696365E+03  0.38578828969E+03  0.40254682761E+03  0.00000000000E+00 0. -1.
        -13    1    4    4    0    0 -0.61322058507E+01 -0.18660005366E+02  0.28460396052E+02  0.34580252924E+02  0.00000000000E+00 0.  1.
         14    1    4    4    0    0 -0.13562556531E+03 -0.18033089150E+02  0.11012918302E+03  0.17563576863E+03  0.00000000000E+00 0. -1.
          5    1    3    3  501    0 -0.80236336208E+02 -0.22455289420E+03  0.12623823738E+02  0.23883744026E+03  0.47000000000E+01 0. -1.
         -5    1    3    3    0  501  0.34269405083E+02 -0.41642349790E+02  0.29885445017E+02  0.61836132194E+02  0.47000000000E+01 0. -1.
          1    1    1    2  502    0  0.88804749346E+02 -0.55671685586E+01  0.84699678621E+03  0.85165769692E+03  0.00000000000E+00 0. -1.
          1    1    1    2  503    0  0.88295157220E+02  0.20166858766E+03 -0.20860125836E+03  0.30328326533E+03  0.00000000000E+00 0. -1.
<mgrwt>
<rscale>  0 0.14295924E+03</rscale>
<asrwt>0</asrwt>
<pdfrwt beam="1">  1        2 0.25722121E+00 0.88979081E+02</pdfrwt>
<pdfrwt beam="2">  1        2 0.63531774E-01 0.22968708E+03</pdfrwt>
<totfact> 0.14657500E+02</totfact>
</mgrwt>
</event>
<event>
13    1  0.3019759E-008  0.1191915E+03  0.7546771E-02  0.1538711E+00
          2   -1    0    0  503    0  0.00000000000E+00  0.00000000000E+00  0.20553405942E+04  0.20553405942E+04  0.00000000000E+00 0. -1.
         -1   -1    0    0    0  501 -0.00000000000E+00 -0.00000000000E+00 -0.17748329317E+04  0.17748329317E+04  0.00000000000E+00 0.  1.
         25    2    1    2    0    0 -0.69832797052E+02 -0.24026030304E+02 -0.11791234443E+04  0.11880286537E+04  0.12500446191E+03 0.  0.
         24    2    1    2    0    0  0.61271705938E+02 -0.76312925184E+02  0.17086077984E+03  0.21355971769E+03  0.82682902906E+02 0.  0.
         24    2    1    2    0    0 -0.10557783966E+03  0.38053223048E+02  0.67411377410E+03  0.68815092503E+03  0.80793484811E+02 0.  0.
        -11    1    4    4    0    0 -0.11653873589E+02 -0.33174753479E+02  0.19785320241E+02  0.40346448853E+02  0.00000000000E+00 0.  1.
         12    1    4    4    0    0  0.72925579528E+02 -0.43138171705E+02  0.15107545960E+03  0.17321326883E+03  0.00000000000E+00 0. -1.
        -11    1    5    5    0    0 -0.64533622454E+02  0.61732931960E+02  0.48767488406E+03  0.49578456597E+03  0.00000000000E+00 0.  1.
         12    1    5    5    0    0 -0.41044217204E+02 -0.23679708912E+02  0.18643889004E+03  0.19236635906E+03  0.00000000000E+00 0. -1.
          5    1    3    3  502    0 -0.28354341791E+02  0.51054082453E+02 -0.53626220188E+03  0.53945317425E+03  0.47000000000E+01 0.  1.
         -5    1    3    3    0  502 -0.41478455262E+02 -0.75080112757E+02 -0.64286124240E+03  0.64857547946E+03  0.47000000000E+01 0.  1.
          1    1    1    2  503    0  0.10525438861E+03  0.55872309212E+02  0.11744768519E+04  0.11805067034E+04  0.00000000000E+00 0. -1.
         -2    1    1    2    0  501  0.88845421590E+01  0.64134232275E+01 -0.55982029905E+03  0.55992752595E+03  0.00000000000E+00 0.  1.
<mgrwt>
<rscale>  0 0.36139213E+02</rscale>
<asrwt>0</asrwt>
<pdfrwt beam="1">  1        2 0.30225597E+00 0.11919153E+03</pdfrwt>
<pdfrwt beam="2">  1       -1 0.26100484E+00 0.10957513E+02</pdfrwt>
<totfact> 0.96127690E-01</totfact>
</mgrwt>
</event>
<event>
13    1  0.3019759E-008  0.1710641E+03  0.7546771E-02  0.1245694E+00
          2   -1    0    0  503    0  0.00000000000E+00  0.00000000000E+00  0.29498274569E+04  0.29498274569E+04  0.00000000000E+00 0. -1.
          2   -1    0    0  502    0 -0.00000000000E+00 -0.00000000000E+00 -0.73825505181E+03  0.73825505181E+03  0.00000000000E+00 0. -1.
         25    2    1    2    0    0  0.90469234662E+02  0.13597568076E+03 -0.90683183450E+02  0.22477369663E+03  0.12500282701E+03 0.  0.
         24    2    1    2    0    0  0.16093094085E+02 -0.10475705775E+03  0.27974005084E+02  0.13757348526E+03  0.83131763246E+02 0.  0.
         24    2    1    2    0    0 -0.38502858435E+02 -0.50466867253E+01  0.19249221175E+03  0.21209992053E+03  0.80157255132E+02 0.  0.
        -11    1    4    4    0    0 -0.30470371819E+02 -0.70099873417E+02  0.12017678839E+02  0.77374804791E+02  0.00000000000E+00 0.  1.
         12    1    4    4    0    0  0.46563465904E+02 -0.34657184332E+02  0.15956326245E+02  0.60198680468E+02  0.00000000000E+00 0. -1.
        -13    1    5    5    0    0 -0.35190452418E+01 -0.39641994459E+02  0.90260936142E+02  0.98645364804E+02  0.00000000000E+00 0.  1.
         14    1    5    5    0    0 -0.34983813194E+02  0.34595307734E+02  0.10223127561E+03  0.11345455573E+03  0.00000000000E+00 0. -1.
          5    1    3    3  501    0  0.93882053773E+02  0.31935546978E+02 -0.60621669687E+02  0.11632194985E+03  0.47000000000E+01 0. -1.
         -5    1    3    3    0  501 -0.34128191106E+01  0.10404013378E+03 -0.30061513764E+02  0.10845174678E+03  0.47000000000E+01 0. -1.
          1    1    1    2  502    0 -0.17965575522E+03 -0.34358781318E+02 -0.49846019227E+03  0.53096071372E+03  0.00000000000E+00 0. -1.
          1    1    1    2  503    0  0.11159628491E+03  0.81868450351E+01  0.25802495640E+04  0.25826746925E+04  0.00000000000E+00 0. -1.
<mgrwt>
<rscale>  0 0.11843926E+03</rscale>
<asrwt>0</asrwt>
<pdfrwt beam="1">  1        2 0.43379815E+00 0.82003530E+02</pdfrwt>
<pdfrwt beam="2">  1        2 0.10856692E+00 0.17106407E+03</pdfrwt>
<totfact> 0.20811907E+01</totfact>
</mgrwt>
</event>
<event>
13    1  0.3019759E-008  0.1671710E+03  0.7546771E-02  0.1222644E+00
          2   -1    0    0  503    0  0.00000000000E+00  0.00000000000E+00  0.22209357304E+04  0.22209357304E+04  0.00000000000E+00 0. -1.
          2   -1    0    0  502    0 -0.00000000000E+00 -0.00000000000E+00 -0.57278751511E+03  0.57278751511E+03  0.00000000000E+00 0. -1.
         25    2    1    2    0    0  0.16952213709E+03 -0.14650456176E+03 -0.22059739198E+03  0.33834954696E+03  0.12496345466E+03 0.  0.
         24    2    1    2    0    0  0.76094981606E+02  0.97340847355E+02  0.64300043232E+02  0.15976383008E+03  0.78257900899E+02 0.  0.
         24    2    1    2    0    0  0.48179905762E+02  0.11937826819E+01  0.60920826606E+02  0.11352457639E+03  0.82787401781E+02 0.  0.
        -11    1    4    4    0    0 -0.12143376050E+02  0.38019083728E+02  0.16483062743E+02  0.43181056805E+02  0.00000000000E+00 0.  1.
         12    1    4    4    0    0  0.88238357656E+02  0.59321763627E+02  0.47816980490E+02  0.11658277328E+03  0.00000000000E+00 0. -1.
        -13    1    5    5    0    0 -0.10689813781E+02 -0.27959710528E+02  0.15997715985E+02  0.33940307132E+02  0.00000000000E+00 0.  1.
         14    1    5    5    0    0  0.58869719543E+02  0.29153493209E+02  0.44923110621E+02  0.79584269257E+02  0.00000000000E+00 0. -1.
          5    1    3    3  501    0  0.61151112339E+02 -0.11366980967E+03 -0.17185167703E+03  0.21497761062E+03  0.47000000000E+01 0.  1.
         -5    1    3    3    0  501  0.10837102475E+03 -0.32834752090E+02 -0.48745714945E+02  0.12337193633E+03  0.47000000000E+01 0.  1.
          1    1    1    2  502    0 -0.13672711556E+03 -0.76775744869E+01 -0.19396901135E+03  0.23743889033E+03  0.00000000000E+00 0. -1.
          1    1    1    2  503    0 -0.15706990890E+03  0.55647506208E+02  0.19374937488E+04  0.19446464018E+04  0.00000000000E+00 0. -1.
<mgrwt>
<rscale>  0 0.13329730E+03</rscale>
<asrwt>0</asrwt>
<pdfrwt beam="1">  1        2 0.32660819E+00 0.16717097E+03</pdfrwt>
<pdfrwt beam="2">  1        2 0.84233459E-01 0.10628742E+03</pdfrwt>
<totfact> 0.60114736E+01</totfact>
</mgrwt>
</event>
<event>
13    1  0.3019759E-008  0.8056620E+02  0.7546771E-02  0.1424926E+00
          2   -1    0    0  502    0  0.00000000000E+00  0.00000000000E+00  0.27043198806E+04  0.27043198806E+04  0.00000000000E+00 0. -1.
          2   -1    0    0  503    0 -0.00000000000E+00 -0.00000000000E+00 -0.16495330529E+04  0.16495330529E+04  0.00000000000E+00 0. -1.
         25    2    1    2    0    0  0.18625268145E+03 -0.15567716939E+03 -0.18373137572E+03  0.32910575133E+03  0.12501173832E+03 0.  0.
         24    2    1    2    0    0 -0.27839703617E+02  0.59618758522E+02  0.25394070770E+03  0.27349698448E+03  0.77364539848E+02 0.  0.
         24    2    1    2    0    0 -0.74737238438E+02  0.62590238098E+02  0.69003211165E+03  0.70142341247E+03  0.79669917405E+02 0.  0.
        -11    1    4    4    0    0 -0.17412430458E+01 -0.12634809181E+02  0.63220237810E+01  0.14235108538E+02  0.00000000000E+00 0.  1.
         12    1    4    4    0    0 -0.26098460571E+02  0.72253567703E+02  0.24761868392E+03  0.25926187594E+03  0.00000000000E+00 0. -1.
        -11    1    5    5    0    0 -0.38590072713E+02  0.55920909105E+02  0.22739856627E+03  0.23733193997E+03  0.00000000000E+00 0.  1.
         12    1    5    5    0    0 -0.36147165724E+02  0.66693289932E+01  0.46263354538E+03  0.46409147251E+03  0.00000000000E+00 0. -1.
          5    1    3    3  501    0  0.66678628035E+02 -0.55799369998E+02  0.14137069021E+01  0.87084428550E+02  0.47000000000E+01 0. -1.
         -5    1    3    3    0  501  0.11957405342E+03 -0.99877799393E+02 -0.18514508262E+03  0.24202132278E+03  0.47000000000E+01 0. -1.
          1    1    1    2  502    0 -0.80517738790E+02 -0.25771855315E+01  0.16709779426E+04  0.16729187168E+04  0.00000000000E+00 0. -1.
          1    1    1    2  503    0 -0.31580006095E+01  0.36045358302E+02 -0.13764325585E+04  0.13769080685E+04  0.00000000000E+00 0. -1.
<mgrwt>
<rscale>  0 0.53992237E+02</rscale>
<asrwt>0</asrwt>
<pdfrwt beam="1">  1        2 0.39769410E+00 0.80566200E+02</pdfrwt>
<pdfrwt beam="2">  1        2 0.24257839E+00 0.36183433E+02</pdfrwt>
<totfact> 0.98200449E+00</totfact>
</mgrwt>
</event>
<event>
13    1  0.3019759E-008  0.3182331E+02  0.7546771E-02  0.1711519E+00
          2   -1    0    0  502    0  0.00000000000E+00  0.00000000000E+00  0.29145360586E+04  0.29145360586E+04  0.00000000000E+00 0. -1.
          2   -1    0    0  503    0 -0.00000000000E+00 -0.00000000000E+00 -0.46303471923E+03  0.46303471923E+03  0.00000000000E+00 0. -1.
         25    2    1    2    0    0 -0.29482419339E+02 -0.85092243811E+02  0.83097162651E+02  0.17504165456E+03  0.12499815752E+03 0.  0.
         24    2    1    2    0    0  0.15251301676E+02  0.14171685949E+02  0.33815307367E+03  0.34897804433E+03  0.83694296757E+02 0.  0.
         24    2    1    2    0    0 -0.26141373149E+02  0.54336563089E+02  0.69973855511E+03  0.70661461172E+03  0.77680953270E+02 0.  0.
        -13    1    5    5    0    0 -0.43414380126E+02  0.31554927048E+02  0.23732306076E+03  0.24331616673E+03  0.00000000000E+00 0.  1.
         14    1    5    5    0    0  0.17273006977E+02  0.22781636040E+02  0.46241549435E+03  0.46329844499E+03  0.00000000000E+00 0. -1.
        -13    1    4    4    0    0  0.42913257953E+02  0.30869289476E+02  0.18223913549E+03  0.18975131948E+03  0.00000000000E+00 0.  1.
         14    1    4    4    0    0 -0.27661956277E+02 -0.16697603527E+02  0.15591393818E+03  0.15922672485E+03  0.00000000000E+00 0. -1.
          5    1    3    3  501    0 -0.37063932049E+02  0.21323062527E+02  0.62321417028E+01  0.43466511761E+02  0.47000000000E+01 0. -1.
         -5    1    3    3    0  501  0.75815127101E+01 -0.10641530634E+03  0.76865020948E+02  0.13157514280E+03  0.47000000000E+01 0. -1.
          1    1    1    2  502    0  0.31464216000E+02  0.45772644401E+01  0.17384422006E+04  0.17387329390E+04  0.00000000000E+00 0. -1.
          1    1    1    2  503    0  0.89082748113E+01  0.12006730334E+02 -0.40792965267E+03  0.40820352823E+03  0.00000000000E+00 0. -1.
<mgrwt>
<rscale>  0 0.21812289E+02</rscale>
<asrwt>0</asrwt>
<pdfrwt beam="1">  1        2 0.42860824E+00 0.31823309E+02</pdfrwt>
<pdfrwt beam="2">  1        2 0.68093342E-01 0.14950550E+02</pdfrwt>
<totfact> 0.43623894E+01</totfact>
</mgrwt>
</event>
<event>
13    1  0.3019759E-008  0.2512578E+02  0.7546771E-02  0.1741849E+00
          2   -1    0    0  503    0  0.00000000000E+00  0.00000000000E+00  0.21799724973E+04  0.21799724973E+04  0.00000000000E+00 0. -1.
         -3   -1    0    0    0  501 -0.00000000000E+00 -0.00000000000E+00 -0.62694367428E+03  0.62694367428E+03  0.00000000000E+00 0.  1.
         25    2    1    2    0    0 -0.84832281991E+02 -0.11089738674E+03 -0.47093510847E+03  0.50685345646E+03  0.12500321388E+03 0.  0.
         24    2    1    2    0    0  0.59677973892E+02 -0.10599278112E+02 -0.23461338199E+02  0.10418498763E+03  0.81426482139E+02 0.  0.
         24    2    1    2    0    0  0.15797992017E+02  0.97845611811E+02  0.11074317505E+04  0.11142403201E+04  0.72822170743E+02 0.  0.
        -13    1    5    5    0    0 -0.24813833451E+02  0.63687961127E+02  0.70974252427E+03  0.71302618008E+03  0.00000000000E+00 0.  1.
         14    1    5    5    0    0  0.40611825467E+02  0.34157650684E+02  0.39768922622E+03  0.40121413998E+03  0.00000000000E+00 0. -1.
        -13    1    4    4    0    0  0.74812661159E+02 -0.25874282649E+02 -0.12817181861E+02  0.80191601326E+02  0.00000000000E+00 0.  1.
         14    1    4    4    0    0 -0.15134687268E+02  0.15275004537E+02 -0.10644156338E+02  0.23993386307E+02  0.00000000000E+00 0. -1.
          5    1    3    3  502    0 -0.32552980521E+01 -0.10284126472E+03 -0.30069974319E+03  0.31785114165E+03  0.47000000000E+01 0.  1.
         -5    1    3    3    0  502 -0.81576983939E+02 -0.80561220234E+01 -0.17023536529E+03  0.18900231481E+03  0.47000000000E+01 0.  1.
          1    1    1    2  503    0 -0.68365199313E+01  0.24179254513E+02  0.10097305422E+04  0.10100431388E+04  0.00000000000E+00 0. -1.
         -4    1    1    2    0  501  0.16192836014E+02 -0.52820146805E+00 -0.69737022962E+02  0.71594268671E+02  0.00000000000E+00 0.  1.
<mgrwt>
<rscale>  0 0.20176077E+02</rscale>
<asrwt>0</asrwt>
<pdfrwt beam="1">  1        2 0.32058419E+00 0.25125783E+02</pdfrwt>
<pdfrwt beam="2">  1       -3 0.92197600E-01 0.16201449E+02</pdfrwt>
<totfact> 0.53999353E+00</totfact>
</mgrwt>
</event>
<event>
13    1  0.3019759E-008  0.7595558E+02  0.7546771E-02  0.1358452E+00
         -1   -1    0    0    0  501 -0.00000000000E+00  0.00000000000E+00  0.23102825510E+03  0.23102825510E+03  0.00000000000E+00 0.  1.
          2   -1    0    0  503    0  0.00000000000E+00 -0.00000000000E+00 -0.80788228571E+03  0.80788228571E+03  0.00000000000E+00 0. -1.
         25    2    1    2    0    0 -0.39385008551E+02 -0.19126078537E+03 -0.11035378443E+03  0.25677522257E+03  0.12499476097E+03 0.  0.
         24    2    1    2    0    0 -0.11379732778E+02  0.80187834095E+02 -0.99115576489E+02  0.15419622551E+03  0.85982506379E+02 0.  0.
         24    2    1    2    0    0  0.66760233557E+02  0.18076084738E+02 -0.10116609508E+03  0.14708695541E+03  0.81340764891E+02 0.  0.
        -11    1    5    5    0    0  0.26994489236E+02  0.41747652462E+02 -0.84229973595E+02  0.97807246086E+02  0.00000000000E+00 0.  1.
         12    1    5    5    0    0  0.39765744321E+02 -0.23671567723E+02 -0.16936121487E+02  0.49279709322E+02  0.00000000000E+00 0. -1.
        -11    1    4    4    0    0  0.63659346126E+01  0.82713139499E+02 -0.10633969996E+03  0.13487075427E+03  0.00000000000E+00 0.  1.
         12    1    4    4    0    0 -0.17745667390E+02 -0.25253054043E+01  0.72241234755E+01  0.19325471236E+02  0.00000000000E+00 0. -1.
          5    1    3    3  502    0 -0.72879023626E+02 -0.75750111599E+02 -0.81265450002E+02  0.13294959517E+03  0.47000000000E+01 0. -1.
         -5    1    3    3    0  502  0.33494015075E+02 -0.11551067377E+03 -0.29088334425E+02  0.12382562740E+03  0.47000000000E+01 0. -1.
          1    1    1    2  503    0 -0.58298679016E+02  0.29656270292E+02 -0.35666103006E+03  0.36260904664E+03  0.00000000000E+00 0. -1.
         -2    1    1    2    0  501  0.42303186788E+02  0.63340596247E+02  0.90442455445E+02  0.11824309067E+03  0.00000000000E+00 0.  1.
<mgrwt>
<rscale>  0 0.70484868E+02</rscale>
<asrwt>0</asrwt>
<pdfrwt beam="2">  1        2 0.11880622E+00 0.65408183E+02</pdfrwt>
<pdfrwt beam="1">  1       -1 0.33974744E-01 0.75955584E+02</pdfrwt>
<totfact> 0.36445482E+02</totfact>
</mgrwt>
</event>
<event>
13    1  0.3019759E-008  0.6505885E+02  0.7546771E-02  0.1580084E+00
          2   -1    0    0  502    0  0.00000000000E+00  0.00000000000E+00  0.81131912182E+03  0.81131912182E+03  0.00000000000E+00 0. -1.
          2   -1    0    0  503    0 -0.00000000000E+00 -0.00000000000E+00 -0.66717143613E+03  0.66717143613E+03  0.00000000000E+00 0. -1.
         25    2    1    2    0    0 -0.15972223016E+03  0.28312008281E+02 -0.21656893977E+03  0.29805984071E+03  0.12499920941E+03 0.  0.
         24    2    1    2    0    0  0.15205358066E+02  0.68784489972E+02 -0.73884829031E+02  0.12892748868E+03  0.78745288124E+02 0.  0.
         24    2    1    2    0    0  0.80997879315E+02 -0.49852417259E+02  0.12204039386E+03  0.17457165443E+03  0.80842345560E+02 0.  0.
        -13    1    4    4    0    0 -0.15280910803E+02  0.70099848910E+02 -0.65822389970E+02  0.97365713029E+02  0.00000000000E+00 0.  1.
         14    1    4    4    0    0  0.30486268868E+02 -0.13153589379E+01 -0.80624390607E+01  0.31561775651E+02  0.00000000000E+00 0. -1.
        -13    1    5    5    0    0  0.52602705359E+00 -0.37577956302E+02  0.15891769716E+02  0.40803527409E+02  0.00000000000E+00 0.  1.
         14    1    5    5    0    0  0.80471852262E+02 -0.12274460957E+02  0.10614862415E+03  0.13376812702E+03  0.00000000000E+00 0. -1.
          5    1    3    3  501    0 -0.60634616780E+02  0.39999486530E+01 -0.26452493134E+01  0.61005275880E+02  0.47000000000E+01 0.  1.
         -5    1    3    3    0  501 -0.99087613377E+02  0.24312059628E+02 -0.21392369046E+03  0.23705456483E+03  0.47000000000E+01 0.  1.
          1    1    1    2  502    0  0.85871255128E+01 -0.12831860350E+02  0.59092167081E+03  0.59112335125E+03  0.00000000000E+00 0. -1.
          1    1    1    2  503    0  0.54931867264E+02 -0.34412220644E+02 -0.27836061017E+03  0.28580822288E+03  0.00000000000E+00 0. -1.
<mgrwt>
<rscale>  0 0.31694044E+02</rscale>
<asrwt>0</asrwt>
<pdfrwt beam="1">  1        2 0.11931164E+00 0.15440057E+02</pdfrwt>
<pdfrwt beam="2">  1        2 0.98113446E-01 0.65058854E+02</pdfrwt>
<totfact> 0.31009931E+02</totfact>
</mgrwt>
</event>
<event>
13    1  0.3019759E-008  0.1323379E+03  0.7546771E-02  0.1368888E+00
          2   -1    0    0  502    0  0.00000000000E+00  0.00000000000E+00  0.19219086805E+04  0.19219086805E+04  0.00000000000E+00 0. -1.
          2   -1    0    0  503    0 -0.00000000000E+00 -0.00000000000E+00 -0.21584708183E+04  0.21584708183E+04  0.00000000000E+00 0. -1.
         25    2    1    2    0    0  0.57669509747E+02 -0.10366491351E+03 -0.55695807643E+03  0.58300904957E+03  0.12500026532E+03 0.  0.
         24    2    1    2    0    0  0.17697119212E+02 -0.15417859791E+02  0.95995121382E+02  0.12715064721E+03  0.80008282863E+02 0.  0.
         24    2    1    2    0    0 -0.29515504454E+02 -0.74474781880E+02  0.19702817278E+03  0.22449784058E+03  0.71843729122E+02 0.  0.
        -11    1    5    5    0    0 -0.61754964766E+01  0.14360621493E+02  0.32621094557E+02  0.36173194724E+02  0.00000000000E+00 0.  1.
         12    1    5    5    0    0 -0.23340007978E+02 -0.88835403374E+02  0.16440707823E+03  0.18832464585E+03  0.00000000000E+00 0. -1.
        -13    1    4    4    0    0  0.21837861558E+02  0.28653683174E+02  0.60487211204E+02  0.70403327166E+02  0.00000000000E+00 0.  1.
         14    1    4    4    0    0 -0.41407423458E+01 -0.44071542964E+02  0.35507910178E+02  0.56747320039E+02  0.00000000000E+00 0. -1.
          5    1    3    3  501    0  0.13815353716E+02 -0.12315421032E+03 -0.39226372586E+03  0.41140095302E+03  0.47000000000E+01 0. -1.
         -5    1    3    3    0  501  0.43854156031E+02  0.19489296814E+02 -0.16469435057E+03  0.17160809655E+03  0.47000000000E+01 0. -1.
          1    1    1    2  502    0 -0.34710293313E+02  0.22610970550E+03  0.15781095392E+04  0.15946034369E+04  0.00000000000E+00 0. -1.
          1    1    1    2  503    0 -0.11140831193E+02 -0.32552150316E+02 -0.15507368947E+04  0.15511185246E+04  0.00000000000E+00 0. -1.
<mgrwt>
<rscale>  0 0.67477361E+02</rscale>
<asrwt>0</asrwt>
<pdfrwt beam="1">  1        2 0.28263363E+00 0.13233790E+03</pdfrwt>
<pdfrwt beam="2">  1        2 0.31742218E+00 0.34405822E+02</pdfrwt>
<totfact> 0.13214220E+01</totfact>
</mgrwt>
</event>
<event>
13    1  0.3019759E-008  0.1996320E+03  0.7546771E-02  0.1235195E+00
          2   -1    0    0  502    0  0.00000000000E+00  0.00000000000E+00  0.11807798597E+04  0.11807798597E+04  0.00000000000E+00 0. -1.
          2   -1    0    0  503    0 -0.00000000000E+00 -0.00000000000E+00 -0.11880202013E+04  0.11880202013E+04  0.00000000000E+00 0. -1.
         25    2    1    2    0    0 -0.97226858092E+01  0.41875231853E+02 -0.74777220332E+02  0.15186798146E+03  0.12499674176E+03 0.  0.
         24    2    1    2    0    0 -0.16459776425E+03 -0.40053870601E+03  0.10618928466E+03  0.45127422734E+03  0.69631782106E+02 0.  0.
         24    2    1    2    0    0  0.25096420843E+03  0.96265660346E+02  0.17738265069E+03  0.32695582173E+03  0.56439288816E+02 0.  0.
        -11    1    4    4    0    0 -0.13878170940E+03 -0.37351742167E+03  0.11088902135E+03  0.41360851322E+03  0.00000000000E+00 0.  1.
         12    1    4    4    0    0 -0.25816054848E+02 -0.27021284340E+02 -0.46997366843E+01  0.37665714120E+02  0.00000000000E+00 0. -1.
        -13    1    5    5    0    0  0.74311133145E+02  0.53571864068E+02  0.44672639831E+02  0.10192023292E+03  0.00000000000E+00 0.  1.
         14    1    5    5    0    0  0.17665307529E+03  0.42693796278E+02  0.13271001086E+03  0.22503558881E+03  0.00000000000E+00 0. -1.
          5    1    3    3  501    0  0.34091258835E+02 -0.26673005459E+02 -0.36327834412E+01  0.43691535390E+02  0.47000000000E+01 0. -1.
         -5    1    3    3    0  501 -0.43813944644E+02  0.68548237312E+02 -0.71144436890E+02  0.10817644607E+03  0.47000000000E+01 0. -1.
          1    1    1    2  502    0 -0.76836293087E+01  0.77789748625E+02  0.59701474541E+03  0.60211036313E+03  0.00000000000E+00 0. -1.
          1    1    1    2  503    0 -0.68960129069E+02  0.18460806518E+03 -0.81304980209E+03  0.83659166731E+03  0.00000000000E+00 0. -1.
<mgrwt>
<rscale>  0 0.12491955E+03</rscale>
<asrwt>0</asrwt>
<pdfrwt beam="1">  1        2 0.17364410E+00 0.78168300E+02</pdfrwt>
<pdfrwt beam="2">  1        2 0.17470885E+00 0.19963199E+03</pdfrwt>
<totfact> 0.81901899E+01</totfact>
</mgrwt>
</event>
<event>
13    1  0.3019759E-008  0.7379602E+02  0.7546771E-02  0.1481460E+00
          2   -1    0    0  502    0  0.00000000000E+00  0.00000000000E+00  0.15833632558E+04  0.15833632558E+04  0.00000000000E+00 0. -1.
          2   -1    0    0  503    0 -0.00000000000E+00 -0.00000000000E+00 -0.68861433147E+03  0.68861433147E+03  0.00000000000E+00 0. -1.
         25    2    1    2    0    0  0.12502909827E+03  0.93295586619E+02  0.24594444427E+03  0.31693658740E+03  0.12499515538E+03 0.  0.
         24    2    1    2    0    0 -0.80133288432E+02  0.16620413980E+02  0.24557399156E+03  0.27120306872E+03  0.80913145282E+02 0.  0.
         24    2    1    2    0    0 -0.11809754707E+02 -0.34366615175E+02  0.57911659250E+03  0.58560318639E+03  0.78959037836E+02 0.  0.
        -11    1    5    5    0    0  0.17921534198E+02 -0.47279690095E+02  0.43254012230E+03  0.43548537045E+03  0.00000000000E+00 0.  1.
         12    1    5    5    0    0 -0.29731288905E+02  0.12913074920E+02  0.14657647020E+03  0.15011781594E+03  0.00000000000E+00 0. -1.
        -13    1    4    4    0    0 -0.85404225868E+01 -0.28935596799E+02  0.60708222939E+02  0.67791562252E+02  0.00000000000E+00 0.  1.
         14    1    4    4    0    0 -0.71592865845E+02  0.45556010779E+02  0.18486576862E+03  0.20341150647E+03  0.00000000000E+00 0. -1.
          5    1    3    3  501    0  0.51547598224E+02  0.65466602970E+02  0.32712272036E+02  0.89639353684E+02  0.47000000000E+01 0. -1.
         -5    1    3    3    0  501  0.73481500044E+02  0.27828983649E+02  0.21323217224E+03  0.22729723372E+03  0.47000000000E+01 0. -1.
          1    1    1    2  502    0 -0.26006250069E+02 -0.21025356080E+01  0.45866573299E+03  0.45940722711E+03  0.00000000000E+00 0. -1.
          1    1    1    2  503    0 -0.70798050604E+01 -0.73446849816E+02 -0.63455183703E+03  0.63882751762E+03  0.00000000000E+00 0. -1.
<mgrwt>
<rscale>  0 0.43879605E+02</rscale>
<asrwt>0</asrwt>
<pdfrwt beam="1">  1        2 0.23284754E+00 0.26091104E+02</pdfrwt>
<pdfrwt beam="2">  1        2 0.10126681E+00 0.73796025E+02</pdfrwt>
<totfact> 0.11954857E+02</totfact>
</mgrwt>
</event>
<event>
13    1  0.3019759E-008  0.1032115E+03  0.7546771E-02  0.1330554E+00
          2   -1    0    0  502    0  0.00000000000E+00  0.00000000000E+00  0.18578707511E+04  0.18578707511E+04  0.00000000000E+00 0. -1.
          2   -1    0    0  503    0 -0.00000000000E+00 -0.00000000000E+00 -0.62766848833E+03  0.62766848833E+03  0.00000000000E+00 0. -1.
         25    2    1    2    0    0 -0.86155426351E+02 -0.17820907484E+03 -0.11906658311E+03  0.26264312043E+03  0.12499330242E+03 0.  0.
         24    2    1    2    0    0 -0.17810414484E+02  0.12975364443E+03  0.53043673798E+03  0.55206359717E+03  0.79106657171E+02 0.  0.
         24    2    1    2    0    0 -0.50650372626E+02  0.86982284731E+02  0.39522182428E+03  0.41501194344E+03  0.76832575837E+02 0.  0.
        -11    1    5    5    0    0 -0.65625752312E+02  0.74705949900E+02  0.37048516256E+03  0.38359741135E+03  0.00000000000E+00 0.  1.
         12    1    5    5    0    0  0.14975379686E+02  0.12276334831E+02  0.24736661717E+02  0.31414532091E+02  0.00000000000E+00 0. -1.
        -11    1    4    4    0    0 -0.11172681092E+02 -0.87692728454E+01  0.43218043989E+02  0.45492068268E+02  0.00000000000E+00 0.  1.
         12    1    4    4    0    0 -0.66377333923E+01  0.13852291728E+03  0.48721869399E+03  0.50657152890E+03  0.00000000000E+00 0. -1.
          5    1    3    3  501    0 -0.34876139609E+02 -0.15493586738E+03 -0.12975256084E+03  0.20513236010E+03  0.47000000000E+01 0.  1.
         -5    1    3    3    0  501 -0.51279286742E+02 -0.23273207461E+02  0.10685977724E+02  0.57510760334E+02  0.47000000000E+01 0.  1.
          1    1    1    2  502    0  0.10217781105E+03 -0.69847048065E+01  0.83431725979E+03  0.84057978869E+03  0.00000000000E+00 0. -1.
          1    1    1    2  503    0  0.52438402412E+02 -0.31542149516E+02 -0.41070697612E+03  0.41524078975E+03  0.00000000000E+00 0. -1.
<mgrwt>
<rscale>  0 0.79472710E+02</rscale>
<asrwt>0</asrwt>
<pdfrwt beam="1">  1        2 0.27321629E+00 0.10321146E+03</pdfrwt>
<pdfrwt beam="2">  1        2 0.92304190E-01 0.61193899E+02</pdfrwt>
<totfact> 0.86851238E+01</totfact>
</mgrwt>
</event>
<event>
13    1  0.3019759E-008  0.1428555E+03  0.7546771E-02  0.1358253E+00
          2   -1    0    0  502    0  0.00000000000E+00  0.00000000000E+00  0.25735956395E+04  0.25735956395E+04  0.00000000000E+00 0. -1.
          2   -1    0    0  503    0 -0.00000000000E+00 -0.00000000000E+00 -0.16924992927E+04  0.16924992927E+04  0.00000000000E+00 0. -1.
         25    2    1    2    0    0 -0.13051388682E+03 -0.27729229078E+01  0.16566786702E+03  0.24517525107E+03  0.12499399114E+03 0.  0.
         24    2    1    2    0    0  0.80398475399E+02  0.11369926936E+03  0.48499624219E+02  0.16383322705E+03  0.71397997439E+02 0.  0.
         24    2    1    2    0    0 -0.39452662270E+02 -0.14973410131E+02  0.17358471136E+04  0.17382071596E+04  0.80113745701E+02 0.  0.
        -11    1    5    5    0    0 -0.10535436010E+02 -0.31787709382E+02  0.28291943796E+03  0.28489447565E+03  0.00000000000E+00 0.  1.
         12    1    5    5    0    0 -0.28917226261E+02  0.16814299251E+02  0.14529276757E+04  0.14533126840E+04  0.00000000000E+00 0. -1.
        -11    1    4    4    0    0  0.90525070982E+02  0.11361830170E+03  0.49914759129E+02  0.15360791040E+03  0.00000000000E+00 0.  1.
         12    1    4    4    0    0 -0.10126595583E+02  0.80967653740E-01 -0.14151349091E+01  0.10225316654E+02  0.00000000000E+00 0. -1.
          5    1    3    3  501    0 -0.53833458188E+02  0.14670238996E+02  0.15607283441E+03  0.16581337935E+03  0.47000000000E+01 0. -1.
         -5    1    3    3    0  501 -0.76680428631E+02 -0.17443161904E+02  0.95950326182E+01  0.79361871721E+02  0.47000000000E+01 0. -1.
          1    1    1    2  502    0 -0.30286116120E+02 -0.17212425510E+02  0.52117228464E+03  0.52233520530E+03  0.00000000000E+00 0. -1.
          1    1    1    2  503    0  0.11985418981E+03 -0.78740510807E+02 -0.15900905427E+04  0.15965440892E+04  0.00000000000E+00 0. -1.
<mgrwt>
<rscale>  0 0.70543980E+02</rscale>
<asrwt>0</asrwt>
<pdfrwt beam="1">  1        2 0.37846995E+00 0.34835563E+02</pdfrwt>
<pdfrwt beam="2">  1        2 0.24889695E+00 0.14285554E+03</pdfrwt>
<totfact> 0.10869287E+01</totfact>
</mgrwt>
</event>
<event>
13    1  0.3019759E-008  0.1109679E+03  0.7546771E-02  0.1260068E+00
          2   -1    0    0  503    0  0.00000000000E+00  0.00000000000E+00  0.27907390554E+04  0.27907390554E+04  0.00000000000E+00 0. -1.
          2   -1    0    0  502    0 -0.00000000000E+00 -0.00000000000E+00 -0.23252548669E+04  0.23252548669E+04  0.00000000000E+00 0. -1.
         25    2    1    2    0    0  0.13775908560E+03 -0.23686255059E+03  0.52977923735E+03  0.60940306350E+03  0.12499847976E+03 0.  0.
         24    2    1    2    0    0 -0.42442366166E+02 -0.17434837780E+02  0.20869179667E+03  0.22855213167E+03  0.81107847204E+02 0.  0.
         24    2    1    2    0    0  0.34875642818E+02  0.13159181710E+03  0.61733044194E+03  0.63729847397E+03  0.80744991140E+02 0.  0.
        -11    1    5    5    0    0 -0.14783403612E+02  0.67420359085E+01  0.24262529655E+02  0.29200589306E+02  0.00000000000E+00 0.  1.
         12    1    5    5    0    0  0.49659046430E+02  0.12484978119E+03  0.59306791228E+03  0.60809788466E+03  0.00000000000E+00 0. -1.
        -13    1    4    4    0    0  0.24544209755E+02 -0.41969946775E+01  0.54785576498E+02  0.60178836720E+02  0.00000000000E+00 0.  1.
         14    1    4    4    0    0 -0.66986575921E+02 -0.13237843103E+02  0.15390622017E+03  0.16837329495E+03  0.00000000000E+00 0. -1.
          5    1    3    3  501    0  0.43845268301E+02 -0.12613505593E+03  0.37034995917E+03  0.39371771885E+03  0.47000000000E+01 0. -1.
         -5    1    3    3    0  501  0.93913817294E+02 -0.11072749466E+03  0.15942927819E+03  0.21568534465E+03  0.47000000000E+01 0. -1.
          1    1    1    2  502    0 -0.29769517818E+02  0.10690317762E+03 -0.22622881766E+04  0.22650082356E+04  0.00000000000E+00 0. -1.
          1    1    1    2  503    0 -0.10042284443E+03  0.15802393649E+02  0.13719708891E+04  0.13757320175E+04  0.00000000000E+00 0. -1.
<mgrwt>
<rscale>  0 0.11027128E+03</rscale>
<asrwt>0</asrwt>
<pdfrwt beam="1">  1        2 0.41040280E+00 0.10957902E+03</pdfrwt>
<pdfrwt beam="2">  1        2 0.34194924E+00 0.11096792E+03</pdfrwt>
<totfact> 0.36039213E+00</totfact>
</mgrwt>
</event>
<event>
13    1  0.3019759E-008  0.7355484E+02  0.7546771E-02  0.1384298E+00
          2   -1    0    0  503    0  0.00000000000E+00  0.00000000000E+00  0.23548310197E+04  0.23548310197E+04  0.00000000000E+00 0. -1.
          2   -1    0    0  502    0 -0.00000000000E+00 -0.00000000000E+00 -0.29718316958E+04  0.29718316958E+04  0.00000000000E+00 0. -1.
         25    2    1    2    0    0  0.69997256821E+02  0.18722720239E+03 -0.16607949404E+04  0.16774440495E+04  0.12500025661E+03 0.  0.
         24    2    1    2    0    0 -0.86675701798E+02 -0.12474150540E+03  0.60042888422E+03  0.62476760786E+03  0.82137679384E+02 0.  0.
         24    2    1    2    0    0 -0.27703157857E+02  0.52206072356E+02  0.40576331468E+03  0.41814699853E+03  0.81915236045E+02 0.  0.
        -13    1    4    4    0    0 -0.35063939206E+02 -0.10698488509E+02  0.62429884317E+02  0.72397706765E+02  0.00000000000E+00 0.  1.
         14    1    4    4    0    0 -0.51611762592E+02 -0.11404301689E+03  0.53799899990E+03  0.55236990109E+03  0.00000000000E+00 0. -1.
        -13    1    5    5    0    0 -0.77286446330E+01  0.72187767361E+02  0.28136322077E+03  0.29057884938E+03  0.00000000000E+00 0.  1.
         14    1    5    5    0    0 -0.19974513224E+02 -0.19981695005E+02  0.12440009391E+03  0.12756814915E+03  0.00000000000E+00 0. -1.
          5    1    3    3  501    0  0.70366722311E+02  0.18296600621E+03 -0.16593903596E+04  0.16709358129E+04  0.47000000000E+01 0. -1.
         -5    1    3    3    0  501 -0.36946548978E+00  0.42611961891E+01 -0.14045807169E+01  0.65082366814E+01  0.47000000000E+01 0. -1.
          1    1    1    2  502    0  0.21326464653E+01 -0.54514900809E+02 -0.12827483291E+04  0.12839079790E+04  0.00000000000E+00 0. -1.
          1    1    1    2  503    0  0.42248956369E+02 -0.60176868546E+02  0.13203503945E+04  0.13223960806E+04  0.00000000000E+00 0. -1.
<mgrwt>
<rscale>  0 0.63347470E+02</rscale>
<asrwt>0</asrwt>
<pdfrwt beam="1">  1        2 0.34629868E+00 0.73554841E+02</pdfrwt>
<pdfrwt beam="2">  1        2 0.43703407E+00 0.54556600E+02</pdfrwt>
<totfact> 0.32902238E+00</totfact>
</mgrwt>
</event>
<event>
13    1  0.3019759E-008  0.8932707E+02  0.7546771E-02  0.1482244E+00
          2   -1    0    0  503    0  0.00000000000E+00  0.00000000000E+00  0.98241596215E+03  0.98241596215E+03  0.00000000000E+00 0. -1.
          2   -1    0    0  502    0 -0.00000000000E+00 -0.00000000000E+00 -0.15372127722E+04  0.15372127722E+04  0.00000000000E+00 0. -1.
         25    2    1    2    0    0  0.32051204027E+02  0.65066782361E+02 -0.17776793794E+03  0.22909952160E+03  0.12499674072E+03 0.  0.
         24    2    1    2    0    0 -0.23909590908E+02  0.81123919168E+02 -0.11240150478E+03  0.16211284803E+03  0.80583611381E+02 0.  0.
         24    2    1    2    0    0  0.73629227125E+01 -0.37729216564E+02 -0.30989402792E+02  0.96251098814E+02  0.82620969033E+02 0.  0.
        -11    1    5    5    0    0 -0.35239606996E+02 -0.16162920498E+01 -0.11903160654E+02  0.37230733740E+02  0.00000000000E+00 0.  1.
         12    1    5    5    0    0  0.42602529708E+02 -0.36112924514E+02 -0.19086242138E+02  0.59020365074E+02  0.00000000000E+00 0. -1.
        -13    1    4    4    0    0 -0.47889075361E+01  0.86975104713E+02 -0.59312567029E+02  0.10538303034E+03  0.00000000000E+00 0.  1.
         14    1    4    4    0    0 -0.19120683372E+02 -0.58511855448E+01 -0.53088937749E+02  0.56729817699E+02  0.00000000000E+00 0. -1.
          5    1    3    3  501    0 -0.34367228851E+02 -0.17061023555E+02 -0.43320703769E+02  0.58059954518E+02  0.47000000000E+01 0.  1.
         -5    1    3    3    0  501  0.66418432878E+02  0.82127805916E+02 -0.13444723417E+03  0.17103956708E+03  0.47000000000E+01 0.  1.
          1    1    1    2  502    0  0.31150174527E+01 -0.21208359766E+02 -0.11305869035E+04  0.11307900973E+04  0.00000000000E+00 0. -1.
          1    1    1    2  503    0 -0.18619553284E+02 -0.87253125199E+02  0.89694893891E+03  0.90137516863E+03  0.00000000000E+00 0. -1.
<mgrwt>
<rscale>  0 0.43758500E+02</rscale>
<asrwt>0</asrwt>
<pdfrwt beam="1">  1        2 0.14447294E+00 0.89327073E+02</pdfrwt>
<pdfrwt beam="2">  1        2 0.22606070E+00 0.21435901E+02</pdfrwt>
<totfact> 0.82489423E+01</totfact>
</mgrwt>
</event>
<event>
13    1  0.3019759E-008  0.4461692E+02  0.7546771E-02  0.1560219E+00
          2   -1    0    0  502    0  0.00000000000E+00  0.00000000000E+00  0.15104616028E+04  0.15104616028E+04  0.00000000000E+00 0. -1.
          2   -1    0    0  503    0 -0.00000000000E+00 -0.00000000000E+00 -0.26780448685E+04  0.26780448685E+04  0.00000000000E+00 0. -1.
         25    2    1    2    0    0  0.21795193384E+02 -0.78111677009E+02 -0.21460890414E+03  0.26126439851E+03  0.12500255859E+03 0.  0.
         24    2    1    2    0    0  0.41602285333E+02  0.54999590373E+02  0.31366925313E+03  0.33106815625E+03  0.80386681973E+02 0.  0.
         24    2    1    2    0    0 -0.87544496277E+02  0.66952392439E+01  0.40685626183E+03  0.42458313115E+03  0.83844811506E+02 0.  0.
        -11    1    4    4    0    0 -0.23043624767E+02  0.61066839390E+01  0.53629205947E+02  0.58688942413E+02  0.00000000000E+00 0.  1.
         12    1    4    4    0    0  0.64645910100E+02  0.48892906434E+02  0.26004004718E+03  0.27237921384E+03  0.00000000000E+00 0. -1.
        -13    1    5    5    0    0 -0.60045399611E+02 -0.19064686347E+02  0.12258923688E+03  0.13782972567E+03  0.00000000000E+00 0.  1.
         14    1    5    5    0    0 -0.27499096666E+02  0.25759925591E+02  0.28426702495E+03  0.28675340548E+03  0.00000000000E+00 0. -1.
          5    1    3    3  501    0  0.97170313132E+01  0.30630554821E+02 -0.88345729605E+02  0.94126030011E+02  0.47000000000E+01 0. -1.
         -5    1    3    3    0  501  0.12078162071E+02 -0.10874223183E+03 -0.12626317453E+03  0.16713836850E+03  0.47000000000E+01 0. -1.
          1    1    1    2  502    0  0.17601479092E+02  0.41055007692E+02  0.74831235404E+03  0.74964438565E+03  0.00000000000E+00 0. -1.
          1    1    1    2  503    0  0.65455384673E+01 -0.24638160300E+02 -0.24218122306E+04  0.24219463997E+04  0.00000000000E+00 0. -1.
<mgrwt>
<rscale>  0 0.33725514E+02</rscale>
<asrwt>0</asrwt>
<pdfrwt beam="1">  1        2 0.22212671E+00 0.44616918E+02</pdfrwt>
<pdfrwt beam="2">  1        2 0.39383012E+00 0.25492803E+02</pdfrwt>
<totfact> 0.13775220E+01</totfact>
</mgrwt>
</event>
<event>
13    1  0.3019759E-008  0.7283908E+02  0.7546771E-02  0.1399511E+00
         -1   -1    0    0    0  501 -0.00000000000E+00  0.00000000000E+00  0.55079527205E+03  0.55079527205E+03  0.00000000000E+00 0.  1.
          2   -1    0    0  503    0  0.00000000000E+00 -0.00000000000E+00 -0.36365546215E+04  0.36365546215E+04  0.00000000000E+00 0. -1.
         25    2    1    2    0    0  0.43899489115E+02  0.13782265498E+03  0.16132279339E+03  0.25014407163E+03  0.12499905413E+03 0.  0.
         24    2    1    2    0    0 -0.63632396944E+02 -0.17954809353E+02 -0.49066722762E+03  0.50121590844E+03  0.78048712344E+02 0.  0.
         24    2    1    2    0    0 -0.29640057605E+02 -0.95546418679E+01 -0.29138692871E+03  0.30391796708E+03  0.80560314643E+02 0.  0.
        -13    1    4    4    0    0  0.12613834366E+02  0.66467229159E+01 -0.25639514953E+02  0.29337219874E+02  0.00000000000E+00 0.  1.
         14    1    4    4    0    0 -0.76246231310E+02 -0.24601532269E+02 -0.46502771266E+03  0.47187868857E+03  0.00000000000E+00 0. -1.
        -13    1    5    5    0    0  0.27375940055E+01  0.16956970833E+02 -0.10936663914E+02  0.20362806740E+02  0.00000000000E+00 0.  1.
         14    1    5    5    0    0 -0.32377651610E+02 -0.26511612701E+02 -0.28045026479E+03  0.28355516034E+03  0.00000000000E+00 0. -1.
          5    1    3    3  502    0  0.77231404319E+02  0.13060026764E+03  0.10659387083E+03  0.18548709664E+03  0.47000000000E+01 0. -1.
         -5    1    3    3    0  502 -0.33331915203E+02  0.72223873380E+01  0.54728922565E+02  0.64656974992E+02  0.47000000000E+01 0. -1.
          1    1    1    2  503    0  0.24004755380E+02 -0.68660208659E+02 -0.27962916470E+04  0.27972374636E+04  0.00000000000E+00 0. -1.
         -2    1    1    2    0  501  0.25368210053E+02 -0.41652995098E+02  0.33126366052E+03  0.33483448279E+03  0.00000000000E+00 0.  1.
<mgrwt>
<rscale>  0 0.59601726E+02</rscale>
<asrwt>0</asrwt>
<pdfrwt beam="2">  1        2 0.53478746E+00 0.72839078E+02</pdfrwt>
<pdfrwt beam="1">  1       -1 0.80999303E-01 0.48770053E+02</pdfrwt>
<totfact> 0.25849604E+00</totfact>
</mgrwt>
</event>
<event>
13    1  0.3019759E-008  0.4453558E+02  0.7546771E-02  0.1536943E+00
         -1   -1    0    0    0  501  0.00000000000E+00  0.00000000000E+00  0.94921659510E+03  0.94921659510E+03  0.00000000000E+00 0.  1.
         -3   -1    0    0    0  502 -0.00000000000E+00 -0.00000000000E+00 -0.28105978712E+03  0.28105978712E+03  0.00000000000E+00 0.  1.
         25    2    1    2    0    0 -0.29413045457E+01  0.44289266333E+02 -0.68358504197E+02  0.14922342807E+03  0.12499822400E+03 0.  0.
         24    2    1    2    0    0  0.30499733223E+02 -0.15790260298E+02 -0.75378263579E+01  0.85193798788E+02  0.77598959264E+02 0.  0.
         24    2    1    2    0    0  0.42880213018E+02 -0.21303179277E+02  0.15294175922E+03  0.17977837769E+03  0.81464994055E+02 0.  0.
        -13    1    4    4    0    0  0.13124875848E+02 -0.37098880717E+02  0.21799348665E+02  0.44986674901E+02  0.00000000000E+00 0.  1.
         14    1    4    4    0    0  0.17374857375E+02  0.21308620419E+02 -0.29337175023E+02  0.40207123887E+02  0.00000000000E+00 0. -1.
        -13    1    5    5    0    0  0.32281001989E+02  0.56488682558E+01  0.10485648867E+02  0.34408162319E+02  0.00000000000E+00 0.  1.
         14    1    5    5    0    0  0.10599211029E+02 -0.26952047533E+02  0.14245611035E+03  0.14537021537E+03  0.00000000000E+00 0. -1.
          5    1    3    3  503    0  0.56850747623E+01  0.72329929962E+02 -0.87588087566E+02  0.11383190206E+03  0.47000000000E+01 0. -1.
         -5    1    3    3    0  503 -0.86263793080E+01 -0.28040663630E+02  0.19229583368E+02  0.35391526009E+02  0.47000000000E+01 0. -1.
         -2    1    1    2    0  501 -0.41821137227E+02 -0.15014093608E+02  0.70092423549E+03  0.70233127114E+03  0.00000000000E+00 0.  1.
         -4    1    1    2    0  502 -0.28617504468E+02  0.78182668498E+01 -0.10981285617E+03  0.11374950654E+03  0.00000000000E+00 0.  1.
<mgrwt>
<rscale>  0 0.36348370E+02</rscale>
<asrwt>0</asrwt>
<pdfrwt beam="1">  1       -1 0.13959067E+00 0.44535580E+02</pdfrwt>
<pdfrwt beam="2">  1       -3 0.41332322E-01 0.29666258E+02</pdfrwt>
<totfact> 0.11883064E+01</totfact>
</mgrwt>
</event>
<event>
13    1  0.3019759E-008  0.5190444E+02  0.7546771E-02  0.1490270E+00
         -1   -1    0    0    0  501 -0.00000000000E+00  0.00000000000E+00  0.21874727562E+03  0.21874727562E+03  0.00000000000E+00 0.  1.
          2   -1    0    0  503    0  0.00000000000E+00 -0.00000000000E+00 -0.36278932225E+04  0.36278932225E+04  0.00000000000E+00 0. -1.
         25    2    1    2    0    0  0.28632876641E+02 -0.79610025879E+02 -0.53680478249E+02  0.16020017651E+03  0.12499961986E+03 0.  0.
         24    2    1    2    0    0 -0.94884684766E+02  0.11491293885E+03 -0.96752690525E+02  0.19513459922E+03  0.80674294376E+02 0.  0.
         24    2    1    2    0    0  0.78467727183E+02  0.28681496964E+02 -0.38848184826E+03  0.40524512997E+03  0.79533995618E+02 0.  0.
        -11    1    4    4    0    0 -0.30940731573E+02  0.37217651440E+02 -0.79452541617E+02  0.93033267268E+02  0.00000000000E+00 0.  1.
         12    1    4    4    0    0 -0.63943953192E+02  0.77695287407E+02 -0.17300148908E+02  0.10210133196E+03  0.00000000000E+00 0. -1.
        -13    1    5    5    0    0 -0.76769690596E+01 -0.92385301538E+01 -0.12276087189E+03  0.12334714412E+03  0.00000000000E+00 0.  1.
         14    1    5    5    0    0  0.86144696243E+02  0.37920027118E+02 -0.26572097637E+03  0.28189798585E+03  0.00000000000E+00 0. -1.
          5    1    3    3  502    0  0.46468063353E+02 -0.86174103785E+02 -0.80609824846E+02  0.12690662290E+03  0.47000000000E+01 0.  1.
         -5    1    3    3    0  502 -0.17835186712E+02  0.65640779055E+01  0.26929346597E+02  0.33293553609E+02  0.47000000000E+01 0.  1.
          1    1    1    2  503    0  0.18941953044E+02 -0.48317576198E+02 -0.29750958845E+04  0.29755485054E+04  0.00000000000E+00 0. -1.
         -2    1    1    2    0  501 -0.31157872102E+02 -0.15666833734E+02  0.10486495465E+03  0.11051208707E+03  0.00000000000E+00 0.  1.
<mgrwt>
<rscale>  0 0.42546034E+02</rscale>
<asrwt>0</asrwt>
<pdfrwt beam="2">  1        2 0.53351373E+00 0.51904437E+02</pdfrwt>
<pdfrwt beam="1">  1       -1 0.32168716E-01 0.34874958E+02</pdfrwt>
<totfact> 0.14561396E+01</totfact>
</mgrwt>
</event>
<event>
13    1  0.3019759E-008  0.8513882E+02  0.7546771E-02  0.1328638E+00
          2   -1    0    0  502    0  0.00000000000E+00  0.00000000000E+00  0.44709298696E+04  0.44709298696E+04  0.00000000000E+00 0. -1.
          2   -1    0    0  503    0 -0.00000000000E+00 -0.00000000000E+00 -0.46724892630E+03  0.46724892630E+03  0.00000000000E+00 0. -1.
         25    2    1    2    0    0 -0.10572647455E+02 -0.11118881893E+03 -0.28612268042E+03  0.33161418355E+03  0.12500817635E+03 0.  0.
         24    2    1    2    0    0  0.43083559812E+02 -0.57222420136E+02  0.41222970854E+02  0.11547245213E+03  0.80647103998E+02 0.  0.
         24    2    1    2    0    0  0.67983020531E+02  0.45225300035E+02  0.72458049978E+03  0.73359143791E+03  0.80451713889E+02 0.  0.
        -11    1    5    5    0    0 -0.13211501730E+02 -0.97386423859E+01  0.11849036998E+03  0.11962170669E+03  0.00000000000E+00 0.  1.
         12    1    5    5    0    0  0.81194522261E+02  0.54963942420E+02  0.60609012980E+03  0.61396973122E+03  0.00000000000E+00 0. -1.
        -13    1    4    4    0    0  0.17224717938E+02 -0.30360589794E+02  0.63194685442E+02  0.72194352887E+02  0.00000000000E+00 0.  1.
         14    1    4    4    0    0  0.25858841874E+02 -0.26861830343E+02 -0.21971714588E+02  0.43278099246E+02  0.00000000000E+00 0. -1.
          5    1    3    3  501    0 -0.15506576450E+02 -0.75721118451E+02 -0.48735327809E+02  0.91495157627E+02  0.47000000000E+01 0.  1.
         -5    1    3    3    0  501  0.49339289943E+01 -0.35467700478E+02 -0.23738735261E+03  0.24011902592E+03  0.47000000000E+01 0.  1.
          1    1    1    2  502    0 -0.44830265031E+02  0.72258725120E+02  0.36280115292E+04  0.36290079543E+04  0.00000000000E+00 0. -1.
          1    1    1    2  503    0 -0.55663667857E+02  0.50927213911E+02 -0.10401137621E+03  0.12849276796E+03  0.00000000000E+00 0. -1.
<mgrwt>
<rscale>  0 0.80145752E+02</rscale>
<asrwt>0</asrwt>
<pdfrwt beam="1">  1        2 0.65748966E+00 0.85138818E+02</pdfrwt>
<pdfrwt beam="2">  1        2 0.68713080E-01 0.75445510E+02</pdfrwt>
<totfact> 0.38950451E+00</totfact>
</mgrwt>
</event>
<event>
13    1  0.3019759E-008  0.3412145E+02  0.7546771E-02  0.1706023E+00
          2   -1    0    0  502    0  0.00000000000E+00  0.00000000000E+00  0.30740860670E+04  0.30740860670E+04  0.00000000000E+00 0. -1.
          2   -1    0    0  503    0 -0.00000000000E+00 -0.00000000000E+00 -0.22580223403E+04  0.22580223403E+04  0.00000000000E+00 0. -1.
         25    2    1    2    0    0  0.80995240350E+02 -0.53786051621E+02 -0.12474098938E+04  0.12574219583E+04  0.12500147912E+03 0.  0.
         24    2    1    2    0    0 -0.18141527201E+03  0.10500102059E+03 -0.17669459263E+03  0.28545292251E+03  0.79534122608E+02 0.  0.
         24    2    1    2    0    0  0.13177306222E+03 -0.70305587944E+02  0.34036972882E+03  0.38120972363E+03  0.84630286932E+02 0.  0.
        -11    1    4    4    0    0 -0.50076951018E+02  0.30803911091E+02 -0.10054934051E+03  0.11647640035E+03  0.00000000000E+00 0.  1.
         12    1    4    4    0    0 -0.13133832100E+03  0.74197109497E+02 -0.76145252119E+02  0.16897652216E+03  0.00000000000E+00 0. -1.
        -13    1    5    5    0    0  0.10977468186E+03 -0.90015783193E+02  0.27517814834E+03  0.30963904037E+03  0.00000000000E+00 0.  1.
         14    1    5    5    0    0  0.21998380365E+02  0.19710195249E+02  0.65191580483E+02  0.71570683253E+02  0.00000000000E+00 0. -1.
          5    1    3    3  501    0  0.89205764655E+02  0.30548700121E+01 -0.96886978017E+03  0.97298393697E+03  0.47000000000E+01 0. -1.
         -5    1    3    3    0  501 -0.82105243053E+01 -0.56840921633E+02 -0.27854011359E+03  0.28443802130E+03  0.47000000000E+01 0. -1.
          1    1    1    2  502    0 -0.33761665466E+02  0.49421702437E+01  0.26537331698E+04  0.26539525263E+04  0.00000000000E+00 0. -1.
          1    1    1    2  503    0  0.24086349086E+01  0.14148448733E+02 -0.75393468556E+03  0.75407127661E+03  0.00000000000E+00 0. -1.
<mgrwt>
<rscale>  0 0.22129422E+02</rscale>
<asrwt>0</asrwt>
<pdfrwt beam="1">  1        2 0.45207148E+00 0.34121451E+02</pdfrwt>
<pdfrwt beam="2">  1        2 0.33206211E+00 0.14352008E+02</pdfrwt>
<totfact> 0.43998945E+00</totfact>
</mgrwt>
</event>
<event>
13    1  0.3019759E-008  0.8771215E+02  0.7546771E-02  0.1451669E+00
          2   -1    0    0  503    0  0.00000000000E+00  0.00000000000E+00  0.11275617502E+04  0.11275617502E+04  0.00000000000E+00 0. -1.
          2   -1    0    0  502    0 -0.00000000000E+00 -0.00000000000E+00 -0.25432226368E+04  0.25432226368E+04  0.00000000000E+00 0. -1.
         25    2    1    2    0    0  0.22939675428E+02  0.60238180554E+02 -0.21258275055E+04  0.21304736705E+04  0.12498244055E+03 0.  0.
         24    2    1    2    0    0 -0.39373579347E+02 -0.64542357596E+02  0.96021820583E+01  0.10537743939E+03  0.72775051745E+02 0.  0.
         24    2    1    2    0    0  0.11741641860E+02  0.11821244894E+03 -0.51734768324E+02  0.15579155169E+03  0.86501283741E+02 0.  0.
        -13    1    4    4    0    0 -0.24845781527E+02 -0.23678730908E+01 -0.22775376887E+02  0.33788126243E+02  0.00000000000E+00 0.  1.
         14    1    4    4    0    0 -0.14527797820E+02 -0.62174484505E+02  0.32377558945E+02  0.71589313142E+02  0.00000000000E+00 0. -1.
        -13    1    5    5    0    0  0.45960278031E+02  0.73852929192E+02 -0.48687313208E+02  0.99684787076E+02  0.00000000000E+00 0.  1.
         14    1    5    5    0    0 -0.34218636171E+02  0.44359519743E+02 -0.30474551154E+01  0.56106764618E+02  0.00000000000E+00 0. -1.
          5    1    3    3  501    0 -0.40033986498E+02  0.55282359756E+02 -0.72686396341E+03  0.73007682519E+03  0.47000000000E+01 0. -1.
         -5    1    3    3    0  501  0.62973661926E+02  0.49558207977E+01 -0.13989635421E+04  0.14003968453E+04  0.47000000000E+01 0. -1.
          1    1    1    2  502    0  0.71260080958E+01 -0.26251518969E+02 -0.26081997846E+03  0.26223459612E+03  0.00000000000E+00 0. -1.
          1    1    1    2  503    0 -0.24337460368E+01 -0.87656752925E+02  0.10131191836E+04  0.10169071293E+04  0.00000000000E+00 0. -1.
<mgrwt>
<rscale>  0 0.48845707E+02</rscale>
<asrwt>0</asrwt>
<pdfrwt beam="1">  1        2 0.16581791E+00 0.87712151E+02</pdfrwt>
<pdfrwt beam="2">  1        2 0.37400332E+00 0.27201512E+02</pdfrwt>
<totfact> 0.23443162E+01</totfact>
</mgrwt>
</event>
<event>
13    1  0.3019759E-008  0.3799736E+03  0.7546771E-02  0.1300024E+00
          2   -1    0    0  502    0  0.00000000000E+00  0.00000000000E+00  0.33438001795E+04  0.33438001795E+04  0.00000000000E+00 0. -1.
          2   -1    0    0  503    0 -0.00000000000E+00 -0.00000000000E+00 -0.22806298482E+04  0.22806298482E+04  0.00000000000E+00 0. -1.
         25    2    1    2    0    0  0.11235384404E+03  0.82739464725E+02 -0.22780997069E+03  0.29494064599E+03  0.12499358630E+03 0.  0.
         24    2    1    2    0    0 -0.73430640558E+03  0.61108751871E+03 -0.93085593477E+03  0.13363061468E+04  0.81163378123E+02 0.  0.
         24    2    1    2    0    0  0.32119054577E+03 -0.43667821090E+03  0.55950309501E+03  0.78143103619E+03  0.61151651035E+02 0.  0.
        -13    1    4    4    0    0 -0.14076084629E+03  0.12270274216E+03 -0.22849064325E+03  0.29508905916E+03  0.00000000000E+00 0.  1.
         14    1    4    4    0    0 -0.59354555929E+03  0.48838477655E+03 -0.70236529152E+03  0.10412170877E+04  0.00000000000E+00 0. -1.
        -13    1    5    5    0    0  0.60403145427E+02 -0.50254789318E+02  0.66805985941E+02  0.10313643190E+03  0.00000000000E+00 0.  1.
         14    1    5    5    0    0  0.26078740035E+03 -0.38642342158E+03  0.49269710907E+03  0.67829460429E+03  0.00000000000E+00 0. -1.
          5    1    3    3  501    0  0.58239731159E+02  0.64940374987E+02 -0.35463602858E+02  0.94280834301E+02  0.47000000000E+01 0.  1.
         -5    1    3    3    0  501  0.54114112886E+02  0.17799089739E+02 -0.19234636783E+03  0.20065981169E+03  0.47000000000E+01 0.  1.
          1    1    1    2  502    0  0.27888399799E+03 -0.25733759350E+03  0.24221123492E+04  0.24516580417E+04  0.00000000000E+00 0. -1.
          1    1    1    2  503    0  0.21878017772E+02  0.18882096674E+00 -0.75977920750E+03  0.76009415697E+03  0.00000000000E+00 0. -1.
<mgrwt>
<rscale>  0 0.91177734E+02</rscale>
<asrwt>0</asrwt>
<pdfrwt beam="1">  1        2 0.49173532E+00 0.37997362E+03</pdfrwt>
<pdfrwt beam="2">  1        2 0.33538674E+00 0.21878833E+02</pdfrwt>
<totfact> 0.19289349E+00</totfact>
</mgrwt>
</event>
<event>
13    1  0.3019759E-008  0.1187234E+03  0.7546771E-02  0.1344703E+00
          2   -1    0    0  503    0  0.00000000000E+00  0.00000000000E+00  0.13752292962E+04  0.13752292962E+04  0.00000000000E+00 0. -1.
          2   -1    0    0  502    0 -0.00000000000E+00 -0.00000000000E+00 -0.12985930751E+04  0.12985930751E+04  0.00000000000E+00 0. -1.
         25    2    1    2    0    0 -0.20651917158E+02 -0.74392495238E+02 -0.52720452404E+03  0.54729382662E+03  0.12500070980E+03 0.  0.
         24    2    1    2    0    0  0.60518284039E+02 -0.96309812636E+02 -0.23500608457E+03  0.27351760976E+03  0.81522882384E+02 0.  0.
         24    2    1    2    0    0  0.72457054805E+02 -0.12666456300E+02  0.80481406001E+02  0.13635205687E+03  0.81878952088E+02 0.  0.
        -11    1    5    5    0    0  0.62485003092E+02 -0.22205599058E+02  0.13129134144E+02  0.67600579911E+02  0.00000000000E+00 0.  1.
         12    1    5    5    0    0  0.99720517127E+01  0.95391427582E+01  0.67352271857E+02  0.68751476960E+02  0.00000000000E+00 0. -1.
        -13    1    4    4    0    0  0.64075660646E+02 -0.51397745272E+02 -0.90820558017E+02  0.12245730793E+03  0.00000000000E+00 0.  1.
         14    1    4    4    0    0 -0.35573766062E+01 -0.44912067364E+02 -0.14418552655E+03  0.15106030184E+03  0.00000000000E+00 0. -1.
          5    1    3    3  501    0 -0.20844544552E+02 -0.41972026095E+02 -0.48987259744E+02  0.67955777012E+02  0.47000000000E+01 0.  1.
         -5    1    3    3    0  501  0.19262739479E+00 -0.32420469142E+02 -0.47821726430E+03  0.47933804961E+03  0.47000000000E+01 0.  1.
          1    1    1    2  502    0  0.33406126466E+01  0.46922260581E+02 -0.47150648391E+03  0.47384725661E+03  0.00000000000E+00 0. -1.
          1    1    1    2  503    0 -0.11566403433E+03  0.13644650359E+03  0.12298719076E+04  0.12428116214E+04  0.00000000000E+00 0. -1.
<mgrwt>
<rscale>  0 0.74731981E+02</rscale>
<asrwt>0</asrwt>
<pdfrwt beam="1">  1        2 0.20223960E+00 0.11872337E+03</pdfrwt>
<pdfrwt beam="2">  1        2 0.19096957E+00 0.47041027E+02</pdfrwt>
<totfact> 0.60619914E+01</totfact>
</mgrwt>
</event>
<event>
13    1  0.3019759E-008  0.1298933E+03  0.7546771E-02  0.1264815E+00
          2   -1    0    0  503    0  0.00000000000E+00  0.00000000000E+00  0.96941323347E+03  0.96941323347E+03  0.00000000000E+00 0. -1.
          2   -1    0    0  502    0 -0.00000000000E+00 -0.00000000000E+00 -0.33305705987E+04  0.33305705987E+04  0.00000000000E+00 0. -1.
         25    2    1    2    0    0 -0.19040982976E+03 -0.51213529385E+02  0.43000827700E+02  0.23737686953E+03  0.12497991097E+03 0.  0.
         24    2    1    2    0    0  0.39147181145E+02 -0.18374973504E+02  0.31346857570E+02  0.96739338686E+02  0.80658122511E+02 0.  0.
         24    2    1    2    0    0 -0.33143973178E+02  0.33826857055E+02  0.12893576227E+03  0.15882900489E+03  0.79746114549E+02 0.  0.
        -13    1    5    5    0    0 -0.12833329361E+02  0.31354866595E+02  0.62529388664E+01  0.34451723413E+02  0.00000000000E+00 0.  1.
         14    1    5    5    0    0 -0.20310643817E+02  0.24719904605E+01  0.12268282340E+03  0.12437728148E+03  0.00000000000E+00 0. -1.
        -13    1    4    4    0    0 -0.22961994467E+02 -0.13573450869E+02  0.20190633307E+02  0.33453750638E+02  0.00000000000E+00 0.  1.
         14    1    4    4    0    0  0.62109175612E+02 -0.48015226345E+01  0.11156224263E+02  0.63285588048E+02  0.00000000000E+00 0. -1.
          5    1    3    3  501    0 -0.10061868762E+03  0.14268324037E+02 -0.27875060757E+02  0.10548371619E+03  0.47000000000E+01 0.  1.
         -5    1    3    3    0  501 -0.89791142143E+02 -0.65481853422E+02  0.70875888457E+02  0.13189315335E+03  0.47000000000E+01 0.  1.
          1    1    1    2  502    0  0.12559713026E+03 -0.31522733128E+02 -0.31812023421E+04  0.31838367834E+04  0.00000000000E+00 0. -1.
          1    1    1    2  503    0  0.58809491528E+02  0.67284378962E+02  0.61676152933E+03  0.62320183569E+03  0.00000000000E+00 0. -1.
<mgrwt>
<rscale>  0 0.10773883E+03</rscale>
<asrwt>0</asrwt>
<pdfrwt beam="1">  1        2 0.14256077E+00 0.89362990E+02</pdfrwt>
<pdfrwt beam="2">  1        2 0.48978979E+00 0.12989331E+03</pdfrwt>
<totfact> 0.87281241E+00</totfact>
</mgrwt>
</event>
<event>
13    1  0.3019759E-008  0.1686568E+03  0.7546771E-02  0.1261333E+00
          2   -1    0    0  502    0  0.00000000000E+00  0.00000000000E+00  0.98918816184E+03  0.98918816184E+03  0.00000000000E+00 0. -1.
          2   -1    0    0  503    0 -0.00000000000E+00 -0.00000000000E+00 -0.28054454973E+04  0.28054454973E+04  0.00000000000E+00 0. -1.
         25    2    1    2    0    0 -0.79622285252E+01  0.27785242595E+03 -0.36646041119E+03  0.47663864732E+03  0.12500319780E+03 0.  0.
         24    2    1    2    0    0  0.36439050030E+02 -0.52915822383E+02 -0.29454757286E+02  0.10698420495E+03  0.80312818131E+02 0.  0.
         24    2    1    2    0    0  0.11985057500E+02 -0.88169311265E+02  0.42312077238E+01  0.11990231682E+03  0.80257045847E+02 0.  0.
        -11    1    5    5    0    0  0.36173046478E+02 -0.84071412371E+02  0.15634421279E+02  0.92848946135E+02  0.00000000000E+00 0.  1.
         12    1    5    5    0    0 -0.24187988978E+02 -0.40978988942E+01 -0.11403213555E+02  0.27053370687E+02  0.00000000000E+00 0. -1.
        -13    1    4    4    0    0  0.49501277084E+02 -0.48090398435E+02 -0.47800600267E+02  0.83952130649E+02  0.00000000000E+00 0.  1.
         14    1    4    4    0    0 -0.13062227054E+02 -0.48254239471E+01  0.18345842981E+02  0.23032074300E+02  0.00000000000E+00 0. -1.
          5    1    3    3  501    0  0.46735991954E+02  0.19369762550E+03 -0.28230183034E+03  0.34557117426E+03  0.47000000000E+01 0.  1.
         -5    1    3    3    0  501 -0.54698220480E+02  0.84154800458E+02 -0.84158580845E+02  0.13106747306E+03  0.47000000000E+01 0.  1.
          1    1    1    2  502    0 -0.67044098679E+02  0.23993612111E+02  0.82879904614E+03  0.83185242890E+03  0.00000000000E+00 0. -1.
          1    1    1    2  503    0  0.26582219675E+02 -0.16076090442E+03 -0.22533724208E+04  0.22592560611E+04  0.00000000000E+00 0. -1.
<mgrwt>
<rscale>  0 0.10958898E+03</rscale>
<asrwt>0</asrwt>
<pdfrwt beam="1">  1        2 0.14546885E+00 0.71208178E+02</pdfrwt>
<pdfrwt beam="2">  1        2 0.41256551E+00 0.16865683E+03</pdfrwt>
<totfact> 0.16043426E+01</totfact>
</mgrwt>
</event>
<event>
13    1  0.3019759E-008  0.7469079E+02  0.7546771E-02  0.1458839E+00
         -3   -1    0    0    0  501 -0.00000000000E+00  0.00000000000E+00  0.16600973430E+04  0.16600973430E+04  0.00000000000E+00 0.  1.
          2   -1    0    0  503    0  0.00000000000E+00 -0.00000000000E+00 -0.65464943086E+03  0.65464943086E+03  0.00000000000E+00 0. -1.
         25    2    1    2    0    0 -0.55091364545E+02  0.65545814052E+02  0.80386342644E+02  0.17150462846E+03  0.12498224399E+03 0.  0.
         24    2    1    2    0    0  0.80546313596E+02 -0.24453623628E+02  0.20131350716E+03  0.23268441151E+03  0.80803581912E+02 0.  0.
         24    2    1    2    0    0 -0.10519729175E+03  0.13760208232E+01 -0.28963831985E+03  0.31849088024E+03  0.80484289442E+02 0.  0.
        -13    1    5    5    0    0 -0.11726344327E+03  0.59538938214E+01 -0.27475437380E+03  0.29879111416E+03  0.00000000000E+00 0.  1.
         14    1    5    5    0    0  0.12066151519E+02 -0.45778729982E+01 -0.14883946052E+02  0.19699766083E+02  0.00000000000E+00 0. -1.
        -13    1    4    4    0    0  0.75578374368E+02  0.13581594712E+02  0.11560934016E+03  0.13878785941E+03  0.00000000000E+00 0.  1.
         14    1    4    4    0    0  0.49679392286E+01 -0.38035218341E+02  0.85704167004E+02  0.93896552100E+02  0.00000000000E+00 0. -1.
          5    1    3    3  502    0 -0.93990131267E+02  0.39380430760E+02  0.40452674664E+02  0.10974275370E+03  0.47000000000E+01 0.  1.
         -5    1    3    3    0  502  0.38898766722E+02  0.26165383293E+02  0.39933667979E+02  0.61761874758E+02  0.47000000000E+01 0.  1.
          1    1    1    2  503    0  0.61888153013E+01 -0.29673377898E+02 -0.28747310236E+03  0.28906676629E+03  0.00000000000E+00 0. -1.
         -4    1    1    2    0  501  0.73553527397E+02 -0.12794833349E+02  0.13008594846E+04  0.13030000874E+04  0.00000000000E+00 0.  1.
<mgrwt>
<rscale>  0 0.47581712E+02</rscale>
<asrwt>0</asrwt>
<pdfrwt beam="2">  1        2 0.96271976E-01 0.30311892E+02</pdfrwt>
<pdfrwt beam="1">  1       -3 0.24413196E+00 0.74690795E+02</pdfrwt>
<totfact> 0.29440217E+00</totfact>
</mgrwt>
</event>
<event>
13    1  0.3019759E-008  0.1145059E+03  0.7546771E-02  0.1431840E+00
          2   -1    0    0  502    0  0.00000000000E+00  0.00000000000E+00  0.12516925171E+04  0.12516925171E+04  0.00000000000E+00 0. -1.
          2   -1    0    0  503    0 -0.00000000000E+00 -0.00000000000E+00 -0.19429969948E+03  0.19429969948E+03  0.00000000000E+00 0. -1.
         25    2    1    2    0    0  0.40873833484E+02  0.12190437251E+03  0.39563373387E+03  0.43437544093E+03  0.12499850400E+03 0.  0.
         24    2    1    2    0    0 -0.50311230557E+02 -0.49969251606E+02  0.13163250035E+03  0.16775609476E+03  0.76071322817E+02 0.  0.
         24    2    1    2    0    0  0.21126038010E+02  0.32927078430E+02  0.28927559632E+03  0.30361944043E+03  0.83509831799E+02 0.  0.
        -13    1    4    4    0    0 -0.16376616494E+02  0.13881630273E+02  0.51719712860E+01  0.22082629232E+02  0.00000000000E+00 0.  1.
         14    1    4    4    0    0 -0.33934614063E+02 -0.63850881879E+02  0.12646052906E+03  0.14567346553E+03  0.00000000000E+00 0. -1.
        -13    1    5    5    0    0  0.58162485218E+01  0.37660921655E+02  0.28429603839E+03  0.28683865013E+03  0.00000000000E+00 0.  1.
         14    1    5    5    0    0  0.15309789488E+02 -0.47338432251E+01  0.49795579282E+01  0.16780790298E+02  0.00000000000E+00 0. -1.
          5    1    3    3  501    0  0.63873324718E+02  0.13091128298E+03  0.37331979727E+03  0.40075843928E+03  0.47000000000E+01 0. -1.
         -5    1    3    3    0  501 -0.22999491233E+02 -0.90069104653E+01  0.22313936603E+02  0.33617001649E+02  0.47000000000E+01 0. -1.
          1    1    1    2  502    0  0.23944671110E+02  0.31848830128E+01  0.36847628780E+03  0.36926720058E+03  0.00000000000E+00 0. -1.
          1    1    1    2  503    0 -0.35633312048E+02 -0.10804708235E+03 -0.12762530071E+03  0.17097403988E+03  0.00000000000E+00 0. -1.
<mgrwt>
<rscale>  0 0.52592343E+02</rscale>
<asrwt>0</asrwt>
<pdfrwt beam="1">  1        2 0.18407242E+00 0.24155553E+02</pdfrwt>
<pdfrwt beam="2">  1        2 0.28573486E-01 0.11450595E+03</pdfrwt>
<totfact> 0.66219794E+02</totfact>
</mgrwt>
</event>
<event>
13    1  0.3019759E-008  0.1517568E+03  0.7546771E-02  0.1275508E+00
          2   -1    0    0  503    0  0.00000000000E+00  0.00000000000E+00  0.14755261518E+04  0.14755261518E+04  0.00000000000E+00 0. -1.
         -1   -1    0    0    0  501 -0.00000000000E+00 -0.00000000000E+00 -0.57711757171E+03  0.57711757171E+03  0.00000000000E+00 0.  1.
         25    2    1    2    0    0 -0.14994645606E+02  0.53861467547E+01  0.34369870513E+02  0.13061059098E+03  0.12499595395E+03 0.  0.
         24    2    1    2    0    0 -0.15184007738E+03 -0.57613380808E+02  0.17687737365E+03  0.25288038282E+03  0.79297994644E+02 0.  0.
         24    2    1    2    0    0  0.49232950548E+01 -0.17222940229E+02  0.14751716726E+03  0.17204962015E+03  0.86711525495E+02 0.  0.
        -13    1    5    5    0    0  0.20838286937E+02  0.21446241675E+02  0.15730669800E+02  0.33788007589E+02  0.00000000000E+00 0.  1.
         14    1    5    5    0    0 -0.15914991882E+02 -0.38669181904E+02  0.13178649746E+03  0.13826161256E+03  0.00000000000E+00 0. -1.
        -13    1    4    4    0    0 -0.13006603860E+03 -0.75737572928E+02  0.13416918154E+03  0.20163016547E+03  0.00000000000E+00 0.  1.
         14    1    4    4    0    0 -0.21774038781E+02  0.18124192120E+02  0.42708192108E+02  0.51250217346E+02  0.00000000000E+00 0. -1.
          5    1    3    3  502    0  0.47421258740E+02  0.32009518195E+02  0.21989502985E+02  0.61473679547E+02  0.47000000000E+01 0. -1.
         -5    1    3    3    0  502 -0.62415904346E+02 -0.26623371440E+02  0.12380367527E+02  0.69136911431E+02  0.47000000000E+01 0. -1.
          1    1    1    2  503    0  0.10571866251E+03  0.10945301194E+03  0.10101603679E+04  0.10215578135E+04  0.00000000000E+00 0. -1.
         -2    1    1    2    0  501  0.56192765426E+02 -0.40002837659E+02 -0.47051619924E+03  0.47554531608E+03  0.00000000000E+00 0.  1.
<mgrwt>
<rscale>  0 0.10231205E+03</rscale>
<asrwt>0</asrwt>
<pdfrwt beam="1">  1        2 0.21698914E+00 0.15175677E+03</pdfrwt>
<pdfrwt beam="2">  1       -1 0.84870231E-01 0.68977198E+02</pdfrwt>
<totfact> 0.27775271E+01</totfact>
</mgrwt>
</event>
<event>
13    1  0.3019759E-008  0.2080283E+03  0.7546771E-02  0.1370893E+00
          2   -1    0    0  502    0  0.00000000000E+00  0.00000000000E+00  0.24674350352E+04  0.24674350352E+04  0.00000000000E+00 0. -1.
          2   -1    0    0  503    0 -0.00000000000E+00 -0.00000000000E+00 -0.10523448358E+04  0.10523448358E+04  0.00000000000E+00 0. -1.
         25    2    1    2    0    0 -0.21088442837E+03 -0.18293670483E+03 -0.37854276042E+03  0.48668095756E+03  0.12500261147E+03 0.  0.
         24    2    1    2    0    0  0.23969215357E+02  0.37562841602E+02  0.36376698400E+02  0.80642505373E+02  0.56519546463E+02 0.  0.
         24    2    1    2    0    0  0.17990471496E+02  0.41969026028E+02  0.23862464153E+03  0.25618373666E+03  0.81260883391E+02 0.  0.
        -11    1    4    4    0    0  0.23829193651E+01 -0.60971523313E+01 -0.10932867202E+02  0.12742886506E+02  0.00000000000E+00 0.  1.
         12    1    4    4    0    0  0.21586295992E+02  0.43659993934E+02  0.47309565602E+02  0.67899618868E+02  0.00000000000E+00 0. -1.
        -13    1    5    5    0    0 -0.25290854859E+02 -0.79192312272E+01  0.55239573508E+02  0.61267871222E+02  0.00000000000E+00 0.  1.
         14    1    5    5    0    0  0.43281326355E+02  0.49888257255E+02  0.18338506803E+03  0.19491586543E+03  0.00000000000E+00 0. -1.
          5    1    3    3  501    0 -0.71748102748E+02 -0.13565397765E+03 -0.23842197135E+03  0.28357876917E+03  0.47000000000E+01 0. -1.
         -5    1    3    3    0  501 -0.13913632562E+03 -0.47282727182E+02 -0.14012078907E+03  0.20310218839E+03  0.47000000000E+01 0. -1.
          1    1    1    2  502    0  0.18856769643E+02 -0.10384202672E+02  0.20923362980E+04  0.20924470348E+04  0.00000000000E+00 0. -1.
          1    1    1    2  503    0  0.15006797188E+03  0.11378903987E+03 -0.57370467806E+03  0.60382563659E+03  0.00000000000E+00 0. -1.
<mgrwt>
<rscale>  0 0.66919461E+02</rscale>
<asrwt>0</asrwt>
<pdfrwt beam="1">  1        2 0.36285809E+00 0.21526947E+02</pdfrwt>
<pdfrwt beam="2">  1        2 0.15475659E+00 0.20802831E+03</pdfrwt>
<totfact> 0.27769052E+01</totfact>
</mgrwt>
</event>
<event>
13    1  0.3019759E-008  0.6629850E+02  0.7546771E-02  0.1374449E+00
          2   -1    0    0  503    0  0.00000000000E+00  0.00000000000E+00  0.31303872936E+03  0.31303872936E+03  0.00000000000E+00 0. -1.
          2   -1    0    0  502    0 -0.00000000000E+00 -0.00000000000E+00 -0.23784798533E+04  0.23784798533E+04  0.00000000000E+00 0. -1.
         25    2    1    2    0    0  0.25046419341E+02 -0.60230115615E+02 -0.97204402770E+03  0.98221625947E+03  0.12499679453E+03 0.  0.
         24    2    1    2    0    0  0.15981814965E+02  0.25809952927E+02 -0.41549403318E+02  0.92621721065E+02  0.77012065401E+02 0.  0.
         24    2    1    2    0    0 -0.59377049982E+02 -0.45929984992E+02  0.12389002605E+03  0.16541101589E+03  0.79855294359E+02 0.  0.
        -11    1    4    4    0    0  0.27824086836E+01  0.52689901215E+02 -0.24663142072E+02  0.58242922875E+02  0.00000000000E+00 0.  1.
         12    1    4    4    0    0  0.13199406282E+02 -0.26879948288E+02 -0.16886261246E+02  0.34378798191E+02  0.00000000000E+00 0. -1.
        -13    1    5    5    0    0 -0.35397398521E+01  0.50046693634E+01  0.75324760034E+02  0.75573778176E+02  0.00000000000E+00 0.  1.
         14    1    5    5    0    0 -0.55837310130E+02 -0.50934654355E+02  0.48565266016E+02  0.89837237714E+02  0.00000000000E+00 0. -1.
          5    1    3    3  501    0 -0.89209768139E+01 -0.70668674655E+02 -0.88777824321E+03  0.89064355638E+03  0.47000000000E+01 0. -1.
         -5    1    3    3    0  501  0.33967396155E+02  0.10438559040E+02 -0.84265784481E+02  0.91572703087E+02  0.47000000000E+01 0. -1.
          1    1    1    2  502    0  0.59545756972E+02  0.29306356103E+02 -0.13048042823E+04  0.13064910160E+04  0.00000000000E+00 0. -1.
          1    1    1    2  503    0 -0.41196941296E+02  0.51043791577E+02  0.12906656335E+03  0.14477857025E+03  0.00000000000E+00 0. -1.
<mgrwt>
<rscale>  0 0.65945630E+02</rscale>
<asrwt>0</asrwt>
<pdfrwt beam="1">  1        2 0.46035105E-01 0.65594639E+02</pdfrwt>
<pdfrwt beam="2">  1        2 0.34977647E+00 0.66298499E+02</pdfrwt>
<totfact> 0.10660519E+02</totfact>
</mgrwt>
</event>
<event>
13    1  0.3019759E-008  0.4251302E+02  0.7546771E-02  0.1710821E+00
          2   -1    0    0  503    0  0.00000000000E+00  0.00000000000E+00  0.40237659643E+03  0.40237659643E+03  0.00000000000E+00 0. -1.
          2   -1    0    0  502    0 -0.00000000000E+00 -0.00000000000E+00 -0.85262570847E+03  0.85262570847E+03  0.00000000000E+00 0. -1.
         25    2    1    2    0    0  0.89641540789E+02  0.40294342328E+02 -0.49751634937E+03  0.52230917844E+03  0.12500048052E+03 0.  0.
         24    2    1    2    0    0  0.70049897532E+02 -0.10519014091E+03 -0.12820795336E+03  0.19703485336E+03  0.80084332072E+02 0.  0.
         24    2    1    2    0    0 -0.11553092747E+03  0.69823071314E+02  0.71110966315E+02  0.17256559428E+03  0.80619217989E+02 0.  0.
        -11    1    5    5    0    0 -0.95938857899E+02  0.87769385320E+02  0.53029153203E+02  0.14042727849E+03  0.00000000000E+00 0.  1.
         12    1    5    5    0    0 -0.19592069575E+02 -0.17946314006E+02  0.18081813112E+02  0.32138315794E+02  0.00000000000E+00 0. -1.
        -13    1    4    4    0    0 -0.96475790996E+01 -0.53927956162E+02 -0.44012211836E+02  0.70273572764E+02  0.00000000000E+00 0.  1.
         14    1    4    4    0    0  0.79697476631E+02 -0.51262184746E+02 -0.84195741527E+02  0.12676128059E+03  0.00000000000E+00 0. -1.
          5    1    3    3  501    0  0.12759247014E+02 -0.28393870850E+02 -0.29824671961E+02  0.43366016001E+02  0.47000000000E+01 0. -1.
         -5    1    3    3    0  501  0.76882293775E+02  0.68688213179E+02 -0.46769167741E+03  0.47894316244E+03  0.47000000000E+01 0. -1.
          1    1    1    2  502    0 -0.20899880361E+01 -0.11036112542E+02 -0.12718159778E+03  0.12767663312E+03  0.00000000000E+00 0. -1.
          1    1    1    2  503    0 -0.42070522811E+02  0.61088398073E+01  0.23154582217E+03  0.23541604571E+03  0.00000000000E+00 0. -1.
<mgrwt>
<rscale>  0 0.21852177E+02</rscale>
<asrwt>0</asrwt>
<pdfrwt beam="1">  1        2 0.59173030E-01 0.42513023E+02</pdfrwt>
<pdfrwt beam="2">  1        2 0.12538613E+00 0.11232267E+02</pdfrwt>
<totfact> 0.51006238E+02</totfact>
</mgrwt>
</event>
<event>
13    1  0.3019759E-008  0.5127138E+02  0.7546771E-02  0.1563095E+00
          2   -1    0    0  502    0  0.00000000000E+00  0.00000000000E+00  0.25600720769E+04  0.25600720769E+04  0.00000000000E+00 0. -1.
          2   -1    0    0  503    0 -0.00000000000E+00 -0.00000000000E+00 -0.33330758247E+04  0.33330758247E+04  0.00000000000E+00 0. -1.
         25    2    1    2    0    0 -0.23295427683E+03 -0.58270902338E+03 -0.10756118233E+04  0.12515527634E+04  0.12500409642E+03 0.  0.
         24    2    1    2    0    0  0.57773878784E+03 -0.12453009997E+03 -0.15996826667E+03  0.62030123886E+03  0.99468225156E+02 0.  0.
         24    2    1    2    0    0 -0.40330247143E+03  0.74021770617E+03  0.13175238090E+04  0.15661458022E+04  0.79803199464E+02 0.  0.
        -11    1    5    5    0    0 -0.34283205875E+03  0.56466209550E+03  0.10493791319E+04  0.12399893810E+04  0.00000000000E+00 0.  1.
         12    1    5    5    0    0 -0.60470412673E+02  0.17555561066E+03  0.26814467707E+03  0.32615642120E+03  0.00000000000E+00 0. -1.
        -11    1    4    4    0    0  0.70522635939E+02  0.17318033475E+02 -0.21204677136E+02  0.75650477828E+02  0.00000000000E+00 0.  1.
         12    1    4    4    0    0  0.50721615190E+03 -0.14184813345E+03 -0.13876358954E+03  0.54465076103E+03  0.00000000000E+00 0. -1.
          5    1    3    3  501    0 -0.30720900310E+02 -0.10415288899E+03 -0.10770022357E+03  0.15301315681E+03  0.47000000000E+01 0. -1.
         -5    1    3    3    0  501 -0.20223337652E+03 -0.47855613439E+03 -0.96791159969E+03  0.10985396065E+04  0.47000000000E+01 0. -1.
          1    1    1    2  502    0  0.89571779641E+01 -0.19857418470E+02  0.79955489495E+03  0.79985159758E+03  0.00000000000E+00 0. -1.
          1    1    1    2  503    0  0.49560782453E+02 -0.13121164342E+02 -0.16545023618E+04  0.16552964995E+04  0.00000000000E+00 0. -1.
<mgrwt>
<rscale>  0 0.33420085E+02</rscale>
<asrwt>0</asrwt>
<pdfrwt beam="1">  1        2 0.37648119E+00 0.21784125E+02</pdfrwt>
<pdfrwt beam="2">  1        2 0.49015821E+00 0.51271375E+02</pdfrwt>
<totfact> 0.20335723E+00</totfact>
</mgrwt>
</event>
<event>
13    1  0.3019759E-008  0.6798593E+02  0.7546771E-02  0.1452572E+00
         -3   -1    0    0    0  501 -0.00000000000E+00  0.00000000000E+00  0.50494211420E+03  0.50494211420E+03  0.00000000000E+00 0.  1.
          2   -1    0    0  503    0  0.00000000000E+00 -0.00000000000E+00 -0.20593085359E+04  0.20593085359E+04  0.00000000000E+00 0. -1.
         25    2    1    2    0    0 -0.18237140806E+01  0.10437920574E+03 -0.91829744453E+02  0.18696840094E+03  0.12500454575E+03 0.  0.
         24    2    1    2    0    0  0.72383897232E+02 -0.10517696713E+03 -0.14334454684E+03  0.20877391392E+03  0.82080844488E+02 0.  0.
         24    2    1    2    0    0 -0.40286232085E+02  0.29186671763E+02 -0.10089668967E+03  0.13987569257E+03  0.83127763601E+02 0.  0.
        -11    1    5    5    0    0 -0.54856662705E+02  0.29570091947E+02 -0.33166713846E+02  0.70595146350E+02  0.00000000000E+00 0.  1.
         12    1    5    5    0    0  0.14570430620E+02 -0.38342018416E+00 -0.67729975820E+02  0.69280546216E+02  0.00000000000E+00 0. -1.
        -13    1    4    4    0    0  0.69178439894E+02 -0.33197551735E+02 -0.94491759972E+02  0.12172274516E+03  0.00000000000E+00 0.  1.
         14    1    4    4    0    0  0.32054573383E+01 -0.71979415397E+02 -0.48852786873E+02  0.87051168762E+02  0.00000000000E+00 0. -1.
          5    1    3    3  502    0  0.33721859281E+02  0.28298877693E+02 -0.92840585955E+02  0.10285647608E+03  0.47000000000E+01 0.  1.
         -5    1    3    3    0  502 -0.35545573362E+02  0.76080328051E+02  0.10108415019E+01  0.84111924854E+02  0.47000000000E+01 0.  1.
          1    1    1    2  503    0 -0.26120062219E+02 -0.63002567934E+02 -0.16219961663E+04  0.16234294394E+04  0.00000000000E+00 0. -1.
         -4    1    1    2    0  501 -0.41538888472E+01  0.34613657560E+02  0.40370072559E+03  0.40520320325E+03  0.00000000000E+00 0.  1.
<mgrwt>
<rscale>  0 0.48683946E+02</rscale>
<asrwt>0</asrwt>
<pdfrwt beam="2">  1        2 0.30283949E+00 0.67985932E+02</pdfrwt>
<pdfrwt beam="1">  1       -3 0.74256194E-01 0.34862015E+02</pdfrwt>
<totfact> 0.90606227E+00</totfact>
</mgrwt>
</event>
<event>
13    1  0.3019759E-008  0.1006701E+03  0.7546771E-02  0.1454831E+00
          2   -1    0    0  503    0  0.00000000000E+00  0.00000000000E+00  0.47809247632E+03  0.47809247632E+03  0.00000000000E+00 0. -1.
          2   -1    0    0  502    0 -0.00000000000E+00 -0.00000000000E+00 -0.19241407142E+04  0.19241407142E+04  0.00000000000E+00 0. -1.
         25    2    1    2    0    0  0.12529309442E+03  0.20676748538E+03 -0.16475576123E+03  0.31815172947E+03  0.12499963834E+03 0.  0.
         24    2    1    2    0    0  0.38833102137E+01 -0.89253019657E+02  0.47262780947E+02  0.12861316240E+03  0.79538628752E+02 0.  0.
         24    2    1    2    0    0 -0.72937724958E+02 -0.73465499010E+01  0.91842149038E+02  0.14248884365E+03  0.80586641000E+02 0.  0.
        -11    1    4    4    0    0 -0.27271915032E+02 -0.82932110473E+02  0.39872073381E+02  0.95975385036E+02  0.00000000000E+00 0.  1.
         12    1    4    4    0    0  0.31155225245E+02 -0.63209091835E+01  0.73907075658E+01  0.32637777365E+02  0.00000000000E+00 0. -1.
        -13    1    5    5    0    0  0.18218092476E+01  0.26063370596E+02  0.14644191956E+02  0.29951137437E+02  0.00000000000E+00 0.  1.
         14    1    5    5    0    0 -0.74759534206E+02 -0.33409920497E+02  0.77197957082E+02  0.11253770621E+03  0.00000000000E+00 0. -1.
          5    1    3    3  501    0 -0.75700034649E+01  0.70864172974E+02 -0.87472381414E+02  0.11292716004E+03  0.47000000000E+01 0. -1.
         -5    1    3    3    0  501  0.13286309788E+03  0.13590331240E+03 -0.77283379815E+02  0.20522456943E+03  0.47000000000E+01 0. -1.
          1    1    1    2  502    0 -0.45252085516E+02 -0.89783156967E+02 -0.16144361195E+04  0.16175638319E+04  0.00000000000E+00 0. -1.
          1    1    1    2  503    0 -0.10986594158E+02 -0.20384758855E+02  0.19403871286E+03  0.19541562305E+03  0.00000000000E+00 0. -1.
<mgrwt>
<rscale>  0 0.48282619E+02</rscale>
<asrwt>0</asrwt>
<pdfrwt beam="1">  1        2 0.70307718E-01 0.23156935E+02</pdfrwt>
<pdfrwt beam="2">  1        2 0.28296187E+00 0.10067011E+03</pdfrwt>
<totfact> 0.10887446E+02</totfact>
</mgrwt>
</event>
<event>
13    1  0.3019759E-008  0.7583868E+02  0.7546771E-02  0.1371397E+00
         -1   -1    0    0    0  501 -0.00000000000E+00  0.00000000000E+00  0.41400694802E+03  0.41400694802E+03  0.00000000000E+00 0.  1.
          2   -1    0    0  503    0  0.00000000000E+00 -0.00000000000E+00 -0.15144514182E+04  0.15144514182E+04  0.00000000000E+00 0. -1.
         25    2    1    2    0    0 -0.13790920212E+03 -0.11966040697E+02  0.99627285821E+02  0.21145188071E+03  0.12499667042E+03 0.  0.
         24    2    1    2    0    0  0.21325235769E+02 -0.13341268586E+02 -0.18964746535E+02  0.89953622948E+02  0.84256973255E+02 0.  0.
         24    2    1    2    0    0 -0.72190937353E+00  0.78136574304E+02 -0.37807359723E+03  0.39448215850E+03  0.81059749878E+02 0.  0.
        -11    1    4    4    0    0  0.49410251204E+02 -0.15944939729E+02  0.60282822931E+01  0.52268099395E+02  0.00000000000E+00 0.  1.
         12    1    4    4    0    0 -0.28085015435E+02  0.26036711429E+01 -0.24993028828E+02  0.37685523552E+02  0.00000000000E+00 0. -1.
        -13    1    5    5    0    0 -0.22440173755E+02  0.56608312255E+01 -0.28002589835E+02  0.36328383474E+02  0.00000000000E+00 0.  1.
         14    1    5    5    0    0  0.21718264382E+02  0.72475743079E+02 -0.35007100740E+03  0.35815377502E+03  0.00000000000E+00 0. -1.
          5    1    3    3  502    0 -0.11215638366E+03  0.37821210590E+02  0.10027395637E+03  0.15519811433E+03  0.47000000000E+01 0. -1.
         -5    1    3    3    0  502 -0.25752818459E+02 -0.49787251286E+02 -0.64667054605E+00  0.56253766381E+02  0.47000000000E+01 0. -1.
          1    1    1    2  503    0  0.58499199737E+02 -0.59784034803E+01 -0.10103402527E+04  0.10120500599E+04  0.00000000000E+00 0. -1.
         -2    1    1    2    0  501  0.58806675983E+02 -0.46850861542E+02  0.20730684046E+03  0.22052064409E+03  0.00000000000E+00 0.  1.
<mgrwt>
<rscale>  0 0.66780307E+02</rscale>
<asrwt>0</asrwt>
<pdfrwt beam="2">  1        2 0.22271345E+00 0.58803892E+02</pdfrwt>
<pdfrwt beam="1">  1       -1 0.60883373E-01 0.75838678E+02</pdfrwt>
<totfact> 0.54653413E+01</totfact>
</mgrwt>
</event>
<event>
13    1  0.3019759E-008  0.9645485E+02  0.7546771E-02  0.1340307E+00
          2   -1    0    0  502    0  0.00000000000E+00  0.00000000000E+00  0.15331131933E+04  0.15331131933E+04  0.00000000000E+00 0. -1.
          2   -1    0    0  503    0 -0.00000000000E+00 -0.00000000000E+00 -0.85834895004E+03  0.85834895004E+03  0.00000000000E+00 0. -1.
         25    2    1    2    0    0 -0.47984684028E+02  0.20875163548E+03 -0.11060934203E+03  0.27155316739E+03  0.12500768359E+03 0.  0.
         24    2    1    2    0    0 -0.13214627044E+02 -0.89965899880E+01 -0.11194796186E+02  0.82868292301E+02  0.80537354115E+02 0.  0.
         24    2    1    2    0    0  0.56379469837E+02 -0.74600794476E+02  0.72592378794E+03  0.73624966039E+03  0.79713821778E+02 0.  0.
        -13    1    5    5    0    0  0.54765858550E+02 -0.21641128237E+02  0.22674493753E+03  0.23426673769E+03  0.00000000000E+00 0.  1.
         14    1    5    5    0    0  0.16136112866E+01 -0.52959666239E+02  0.49917885041E+03  0.50198292270E+03  0.00000000000E+00 0. -1.
        -13    1    4    4    0    0 -0.23528462552E+02 -0.24598645858E+02  0.24927833444E+02  0.42190980177E+02  0.00000000000E+00 0.  1.
         14    1    4    4    0    0  0.10313835508E+02  0.15602055870E+02 -0.36122629629E+02  0.40677312124E+02  0.00000000000E+00 0. -1.
          5    1    3    3  501    0  0.93117327850E+01  0.78666344429E+02 -0.10177676004E+03  0.12905696803E+03  0.47000000000E+01 0.  1.
         -5    1    3    3    0  501 -0.57296416813E+02  0.13008529105E+03 -0.88325819959E+01  0.14249619936E+03  0.47000000000E+01 0.  1.
          1    1    1    2  502    0 -0.52177519585E+02 -0.29904922903E+02  0.67937063509E+03  0.68202731455E+03  0.00000000000E+00 0. -1.
          1    1    1    2  503    0  0.56997360820E+02 -0.95249328114E+02 -0.60872604152E+03  0.61876370875E+03  0.00000000000E+00 0. -1.
<mgrwt>
<rscale>  0 0.76162835E+02</rscale>
<asrwt>0</asrwt>
<pdfrwt beam="1">  1        2 0.22545782E+00 0.60139820E+02</pdfrwt>
<pdfrwt beam="2">  1        2 0.12622779E+00 0.96454851E+02</pdfrwt>
<totfact> 0.89509235E+01</totfact>
</mgrwt>
</event>
<event>
13    1  0.3019759E-008  0.9454841E+02  0.7546771E-02  0.1323267E+00
          2   -1    0    0  503    0  0.00000000000E+00  0.00000000000E+00  0.29492563714E+03  0.29492563714E+03  0.00000000000E+00 0. -1.
          2   -1    0    0  502    0 -0.00000000000E+00 -0.00000000000E+00 -0.29618571213E+04  0.29618571213E+04  0.00000000000E+00 0. -1.
         25    2    1    2    0    0 -0.10133160509E+02 -0.15966544660E+02 -0.36670878140E+03  0.38788959181E+03  0.12500157433E+03 0.  0.
         24    2    1    2    0    0  0.74442373999E+01 -0.58595578098E+02 -0.35405626585E+03  0.36757948531E+03  0.79183206477E+02 0.  0.
         24    2    1    2    0    0  0.34982718700E+02 -0.27294525036E+02  0.55057332537E+02  0.10881032949E+03  0.82701851444E+02 0.  0.
        -13    1    4    4    0    0 -0.22787158118E+02 -0.63319854625E+01 -0.21075866568E+03  0.21208150267E+03  0.00000000000E+00 0.  1.
         14    1    4    4    0    0  0.30231395518E+02 -0.52263592636E+02 -0.14329760017E+03  0.15549798264E+03  0.00000000000E+00 0. -1.
        -13    1    5    5    0    0 -0.16207965349E+02 -0.37883263541E+02  0.19477996587E+02  0.45576662321E+02  0.00000000000E+00 0.  1.
         14    1    5    5    0    0  0.51190684049E+02  0.10588738505E+02  0.35579335950E+02  0.63233667166E+02  0.00000000000E+00 0. -1.
          5    1    3    3  501    0  0.31660715771E+02 -0.58447314079E+02 -0.19548505453E+03  0.20653083545E+03  0.47000000000E+01 0.  1.
         -5    1    3    3    0  501 -0.41793876279E+02  0.42480769419E+02 -0.17122372687E+03  0.18135875636E+03  0.47000000000E+01 0.  1.
          1    1    1    2  502    0 -0.80679793142E+02  0.49562208502E+02 -0.21893198407E+04  0.21913664702E+04  0.00000000000E+00 0. -1.
          1    1    1    2  503    0  0.48385997550E+02  0.52294439292E+02  0.18809607129E+03  0.20113688168E+03  0.00000000000E+00 0. -1.
<mgrwt>
<rscale>  0 0.82074012E+02</rscale>
<asrwt>0</asrwt>
<pdfrwt beam="1">  1        2 0.43371420E-01 0.71245443E+02</pdfrwt>
<pdfrwt beam="2">  1        2 0.43556720E+00 0.94548410E+02</pdfrwt>
<totfact> 0.54886166E+01</totfact>
</mgrwt>
</event>
<event>
13    1  0.3019759E-008  0.9694432E+02  0.7546771E-02  0.1428182E+00
          2   -1    0    0  502    0  0.00000000000E+00  0.00000000000E+00  0.37778162393E+04  0.37778162393E+04  0.00000000000E+00 0. -1.
          2   -1    0    0  503    0 -0.00000000000E+00 -0.00000000000E+00 -0.78554646483E+03  0.78554646483E+03  0.00000000000E+00 0. -1.
         25    2    1    2    0    0 -0.38560621458E+02  0.21928867281E+03 -0.31336353310E+03  0.40422272871E+03  0.12499946792E+03 0.  0.
         24    2    1    2    0    0  0.46252019990E+02 -0.23537967011E+02  0.17538122723E+03  0.20050839969E+03  0.82169083226E+02 0.  0.
         24    2    1    2    0    0  0.66253522466E+02 -0.95502490906E+02  0.73468222729E+03  0.74766442854E+03  0.75722305759E+02 0.  0.
        -11    1    4    4    0    0  0.21442754623E+02 -0.53844971410E+02  0.10813696229E+03  0.12268934463E+03  0.00000000000E+00 0.  1.
         12    1    4    4    0    0  0.24809265367E+02  0.30307004399E+02  0.67244264941E+02  0.77819055065E+02  0.00000000000E+00 0. -1.
        -13    1    5    5    0    0  0.13958317338E+02 -0.78612717546E+02  0.51825142362E+03  0.52436564730E+03  0.00000000000E+00 0.  1.
         14    1    5    5    0    0  0.52295205128E+02 -0.16889773360E+02  0.21643080367E+03  0.22329878124E+03  0.00000000000E+00 0. -1.
          5    1    3    3  501    0 -0.59047623087E+02  0.22101719187E+03 -0.30555282845E+03  0.38173268378E+03  0.47000000000E+01 0.  1.
         -5    1    3    3    0  501  0.20487001629E+02 -0.17285190548E+01 -0.78107046475E+01  0.22490044930E+02  0.47000000000E+01 0.  1.
          1    1    1    2  502    0 -0.64160521771E+02 -0.72594564220E+02  0.28019025177E+04  0.28035770476E+04  0.00000000000E+00 0. -1.
          1    1    1    2  503    0 -0.97843992269E+01 -0.27653650675E+02 -0.40633266465E+03  0.40739009957E+03  0.00000000000E+00 0. -1.
<mgrwt>
<rscale>  0 0.53326577E+02</rscale>
<asrwt>0</asrwt>
<pdfrwt beam="1">  1        2 0.55556120E+00 0.96944317E+02</pdfrwt>
<pdfrwt beam="2">  1        2 0.11552154E+00 0.29333579E+02</pdfrwt>
<totfact> 0.66923335E+00</totfact>
</mgrwt>
</event>
<event>
13    1  0.3019759E-008  0.6528555E+02  0.7546771E-02  0.1382706E+00
          2   -1    0    0  502    0  0.00000000000E+00  0.00000000000E+00  0.65384654160E+03  0.65384654160E+03  0.00000000000E+00 0. -1.
          2   -1    0    0  503    0 -0.00000000000E+00 -0.00000000000E+00 -0.15119994865E+04  0.15119994865E+04  0.00000000000E+00 0. -1.
         25    2    1    2    0    0  0.22596274822E+02 -0.93615051549E+02 -0.62752439617E+03  0.64706008808E+03  0.12500208117E+03 0.  0.
         24    2    1    2    0    0 -0.79956176323E+02 -0.72430073901E+02 -0.97978067449E+02  0.16601619964E+03  0.79514596806E+02 0.  0.
         24    2    1    2    0    0  0.59605288178E+02  0.15971088964E+03  0.14090707579E+03  0.23514595398E+03  0.79865242863E+02 0.  0.
        -13    1    4    4    0    0 -0.48601034510E+02  0.65337275338E+01 -0.34424301163E+02  0.59914795014E+02  0.00000000000E+00 0.  1.
         14    1    4    4    0    0 -0.31355141813E+02 -0.78963801435E+02 -0.63553766286E+02  0.10610140463E+03  0.00000000000E+00 0. -1.
        -13    1    5    5    0    0  0.40136049419E+02  0.16687354791E+02  0.39591928310E+02  0.58795331959E+02  0.00000000000E+00 0.  1.
         14    1    5    5    0    0  0.19469238759E+02  0.14302353485E+03  0.10131514748E+03  0.17635062202E+03  0.00000000000E+00 0. -1.
          5    1    3    3  501    0 -0.26974083530E+02 -0.35296244474E+02 -0.46730274084E+03  0.46943302787E+03  0.47000000000E+01 0.  1.
         -5    1    3    3    0  501  0.49570358351E+02 -0.58318807076E+02 -0.16022165533E+03  0.17762706022E+03  0.47000000000E+01 0.  1.
          1    1    1    2  502    0  0.61569268812E+02 -0.92883710287E+01  0.41817147054E+03  0.42278177287E+03  0.00000000000E+00 0. -1.
          1    1    1    2  503    0 -0.63814655489E+02  0.15622606838E+02 -0.69172902759E+03  0.69484201349E+03  0.00000000000E+00 0. -1.
<mgrwt>
<rscale>  0 0.63757875E+02</rscale>
<asrwt>0</asrwt>
<pdfrwt beam="1">  1        2 0.96153905E-01 0.62265951E+02</pdfrwt>
<pdfrwt beam="2">  1        2 0.22235286E+00 0.65285547E+02</pdfrwt>
<totfact> 0.12682938E+02</totfact>
</mgrwt>
</event>
<event>
13    1  0.3019759E-008  0.1207525E+03  0.7546771E-02  0.1405893E+00
          2   -1    0    0  502    0  0.00000000000E+00  0.00000000000E+00  0.27585384347E+04  0.27585384347E+04  0.00000000000E+00 0. -1.
          2   -1    0    0  503    0 -0.00000000000E+00 -0.00000000000E+00 -0.25356807241E+04  0.25356807241E+04  0.00000000000E+00 0. -1.
         25    2    1    2    0    0  0.12598646911E+03 -0.11533808150E+03 -0.81857336731E+03  0.84549564619E+03  0.12500026644E+03 0.  0.
         24    2    1    2    0    0 -0.11850804336E+02  0.34707329171E+02  0.15106875641E+03  0.17463142082E+03  0.79557046914E+02 0.  0.
         24    2    1    2    0    0  0.36560698931E+02  0.30157058757E+02  0.91485621907E+03  0.91954939011E+03  0.79768705629E+02 0.  0.
        -11    1    5    5    0    0  0.47785457654E+02  0.20046551971E+02  0.29552123371E+03  0.30003018812E+03  0.00000000000E+00 0.  1.
         12    1    5    5    0    0 -0.11224758723E+02  0.10110506785E+02  0.61933498536E+03  0.61951920200E+03  0.00000000000E+00 0. -1.
        -13    1    4    4    0    0 -0.39420620360E+02  0.43321963057E+02  0.10583460995E+03  0.12096173963E+03  0.00000000000E+00 0.  1.
         14    1    4    4    0    0  0.27569816025E+02 -0.86146338855E+01  0.45234146465E+02  0.53669681190E+02  0.00000000000E+00 0. -1.
          5    1    3    3  501    0  0.49429169247E+02 -0.21127161077E+02 -0.52518129081E+03  0.52794609377E+03  0.47000000000E+01 0.  1.
         -5    1    3    3    0  501  0.76557299866E+02 -0.94210920421E+02 -0.29339207650E+03  0.31754955242E+03  0.47000000000E+01 0.  1.
          1    1    1    2  502    0 -0.15259836876E+03  0.22564041705E+02  0.16613352801E+04  0.16684814386E+04  0.00000000000E+00 0. -1.
          1    1    1    2  503    0  0.19020050519E+01  0.27909651865E+02 -0.16858291777E+04  0.16860612630E+04  0.00000000000E+00 0. -1.
<mgrwt>
<rscale>  0 0.58120370E+02</rscale>
<asrwt>0</asrwt>
<pdfrwt beam="1">  1        2 0.40566741E+00 0.12075251E+03</pdfrwt>
<pdfrwt beam="2">  1        2 0.37289423E+00 0.27974386E+02</pdfrwt>
<totfact> 0.35327378E+00</totfact>
</mgrwt>
</event>
<event>
13    1  0.3019759E-008  0.5383272E+02  0.7546771E-02  0.1575534E+00
          2   -1    0    0  502    0  0.00000000000E+00  0.00000000000E+00  0.19108148902E+03  0.19108148902E+03  0.00000000000E+00 0. -1.
          2   -1    0    0  503    0 -0.00000000000E+00 -0.00000000000E+00 -0.66810058591E+03  0.66810058591E+03  0.00000000000E+00 0. -1.
         25    2    1    2    0    0 -0.76952278591E+02  0.22314647564E+02 -0.28655945250E+03  0.32274001233E+03  0.12500079625E+03 0.  0.
         24    2    1    2    0    0  0.23487785028E+02 -0.50940022852E+01 -0.12856604178E+03  0.15319794109E+03  0.79766892581E+02 0.  0.
         24    2    1    2    0    0  0.15003308794E+02  0.42220650725E+02 -0.53012837150E+02  0.10535149015E+03  0.79252084842E+02 0.  0.
        -11    1    5    5    0    0  0.29600992044E+02  0.60425654401E+02 -0.43670959380E+02  0.80216152569E+02  0.00000000000E+00 0.  1.
         12    1    5    5    0    0 -0.14597683250E+02 -0.18205003675E+02 -0.93418777697E+01  0.25135337582E+02  0.00000000000E+00 0. -1.
        -11    1    4    4    0    0 -0.26476998740E+02  0.13603394314E+02 -0.51129761897E+02  0.59163640446E+02  0.00000000000E+00 0.  1.
         12    1    4    4    0    0  0.49964783768E+02 -0.18697396599E+02 -0.77436279879E+02  0.94034300647E+02  0.00000000000E+00 0. -1.
          5    1    3    3  501    0 -0.11014503022E+03  0.29076522035E+02 -0.21210771857E+03  0.24080935632E+03  0.47000000000E+01 0.  1.
         -5    1    3    3    0  501  0.33192751633E+02 -0.67618744715E+01 -0.74451733933E+02  0.81930656002E+02  0.47000000000E+01 0.  1.
          1    1    1    2  502    0  0.35173815879E+02 -0.40531751434E+02  0.12845896514E+03  0.13921826720E+03  0.00000000000E+00 0. -1.
          1    1    1    2  503    0  0.32873688892E+01 -0.18909544570E+02 -0.13733973061E+03  0.13867436416E+03  0.00000000000E+00 0. -1.
<mgrwt>
<rscale>  0 0.32143745E+02</rscale>
<asrwt>0</asrwt>
<pdfrwt beam="1">  1        2 0.28100219E-01 0.53832717E+02</pdfrwt>
<pdfrwt beam="2">  1        2 0.98250086E-01 0.19193167E+02</pdfrwt>
<totfact> 0.14039370E+03</totfact>
</mgrwt>
</event>
<event>
13    1  0.3019759E-008  0.1302999E+03  0.7546771E-02  0.1275078E+00
          2   -1    0    0  503    0  0.00000000000E+00  0.00000000000E+00  0.19418735281E+04  0.19418735281E+04  0.00000000000E+00 0. -1.
         -3   -1    0    0    0  501 -0.00000000000E+00 -0.00000000000E+00 -0.49656996892E+04  0.49656996892E+04  0.00000000000E+00 0.  1.
         25    2    1    2    0    0  0.71649455477E+02 -0.29751874798E+02 -0.16789073815E+04  0.16853398590E+04  0.12498650381E+03 0.  0.
         24    2    1    2    0    0  0.11232951511E+03 -0.37337728449E+02  0.60227855378E+03  0.61927830322E+03  0.82183541976E+02 0.  0.
         24    2    1    2    0    0 -0.11947041530E+02 -0.62568084560E+01  0.38425821977E+03  0.39180906229E+03  0.75353051517E+02 0.  0.
        -11    1    5    5    0    0 -0.27455865380E+02  0.27712058110E+02  0.18220669625E+03  0.18633588723E+03  0.00000000000E+00 0.  1.
         12    1    5    5    0    0  0.15508823850E+02 -0.33968866566E+02  0.20205152352E+03  0.20547317506E+03  0.00000000000E+00 0. -1.
        -13    1    4    4    0    0  0.17096968066E+02 -0.49868440595E+01  0.14525501885E+02  0.22981843611E+02  0.00000000000E+00 0.  1.
         14    1    4    4    0    0  0.95232547046E+02 -0.32350884389E+02  0.58775305189E+03  0.59629645961E+03  0.00000000000E+00 0. -1.
          5    1    3    3  502    0  0.77358414048E+02 -0.21194049764E+02 -0.16669340703E+04  0.16688693169E+04  0.47000000000E+01 0.  1.
         -5    1    3    3    0  502 -0.57089585708E+01 -0.85578250339E+01 -0.11973311152E+02  0.16470542104E+02  0.47000000000E+01 0.  1.
          1    1    1    2  503    0 -0.56654341596E+02 -0.52327705713E+02  0.93603389373E+03  0.93920570347E+03  0.00000000000E+00 0. -1.
         -4    1    1    2    0  501 -0.11537758746E+03  0.12567411742E+03 -0.32674894469E+04  0.32719402894E+04  0.00000000000E+00 0.  1.
<mgrwt>
<rscale>  0 0.10252313E+03</rscale>
<asrwt>0</asrwt>
<pdfrwt beam="1">  1        2 0.28556965E+00 0.80667723E+02</pdfrwt>
<pdfrwt beam="2">  1       -3 0.73024993E+00 0.13029986E+03</pdfrwt>
<totfact> 0.15349985E-03</totfact>
</mgrwt>
</event>
<event>
13    1  0.3019759E-008  0.1536135E+03  0.7546771E-02  0.1225870E+00
          2   -1    0    0  502    0  0.00000000000E+00  0.00000000000E+00  0.16665527237E+04  0.16665527237E+04  0.00000000000E+00 0. -1.
          2   -1    0    0  503    0 -0.00000000000E+00 -0.00000000000E+00 -0.25418901753E+04  0.25418901753E+04  0.00000000000E+00 0. -1.
         25    2    1    2    0    0 -0.12778528612E+02 -0.55724536639E+02 -0.24803545280E+03  0.28357169261E+03  0.12499121659E+03 0.  0.
         24    2    1    2    0    0 -0.83017694400E+02  0.97091426985E+02  0.85048121416E+02  0.17327832479E+03  0.80458138850E+02 0.  0.
         24    2    1    2    0    0  0.51205216115E+02  0.21521550920E+03  0.31492247419E+03  0.39317091618E+03  0.80420861844E+02 0.  0.
        -13    1    5    5    0    0  0.58240741653E+02  0.75694962659E+02  0.12033420323E+03  0.15362952785E+03  0.00000000000E+00 0.  1.
         14    1    5    5    0    0 -0.70355255375E+01  0.13952054654E+03  0.19458827096E+03  0.23954138833E+03  0.00000000000E+00 0. -1.
        -13    1    4    4    0    0 -0.77880114049E+02  0.33015792205E+02  0.33894260825E+02  0.91127249580E+02  0.00000000000E+00 0.  1.
         14    1    4    4    0    0 -0.51375803514E+01  0.64075634780E+02  0.51153860591E+02  0.82151075207E+02  0.00000000000E+00 0. -1.
          5    1    3    3  501    0  0.27208316137E+02 -0.75379864874E+02 -0.20992789817E+03  0.22475370725E+03  0.47000000000E+01 0.  1.
         -5    1    3    3    0  501 -0.39986844748E+02  0.19655328236E+02 -0.38107554632E+02  0.58817985353E+02  0.47000000000E+01 0.  1.
          1    1    1    2  502    0  0.51620218136E+02 -0.14496066667E+03  0.11590603790E+04  0.11692301758E+04  0.00000000000E+00 0. -1.
          1    1    1    2  503    0 -0.70292112392E+01 -0.11162173287E+03 -0.21863329735E+04  0.21891917897E+04  0.00000000000E+00 0. -1.
<mgrwt>
<rscale>  0 0.13107466E+03</rscale>
<asrwt>0</asrwt>
<pdfrwt beam="1">  1        2 0.24508129E+00 0.15361346E+03</pdfrwt>
<pdfrwt beam="2">  1        2 0.37380737E+00 0.11184284E+03</pdfrwt>
<totfact> 0.97855738E+00</totfact>
</mgrwt>
</event>
<event>
13    1  0.3019759E-008  0.1244197E+03  0.7546771E-02  0.1377979E+00
          2   -1    0    0  503    0  0.00000000000E+00  0.00000000000E+00  0.45652995529E+04  0.45652995529E+04  0.00000000000E+00 0. -1.
          2   -1    0    0  502    0 -0.00000000000E+00 -0.00000000000E+00 -0.54678757358E+03  0.54678757358E+03  0.00000000000E+00 0. -1.
         25    2    1    2    0    0  0.11094948640E+03 -0.51646188434E+02 -0.32210356825E+03  0.36654074343E+03  0.12499716237E+03 0.  0.
         24    2    1    2    0    0  0.43430128615E+02  0.44438078385E+02  0.71661148217E+02  0.12293520426E+03  0.78210136181E+02 0.  0.
         24    2    1    2    0    0 -0.62860906728E+02 -0.97103818163E+02  0.12062576588E+03  0.18330015235E+03  0.75284296894E+02 0.  0.
        -11    1    5    5    0    0 -0.10386877840E+02  0.12460876315E+02  0.18397318846E+02  0.24527984233E+02  0.00000000000E+00 0.  1.
         12    1    5    5    0    0 -0.52474028888E+02 -0.10956469448E+03  0.10222844704E+03  0.15877216811E+03  0.00000000000E+00 0. -1.
        -13    1    4    4    0    0  0.21660179211E+02  0.53922836828E+02  0.79009137735E+02  0.98077925858E+02  0.00000000000E+00 0.  1.
         14    1    4    4    0    0  0.21769949403E+02 -0.94847584431E+01 -0.73479895178E+01  0.24857278405E+02  0.00000000000E+00 0. -1.
          5    1    3    3  501    0  0.10667669507E+03  0.12837718391E+02 -0.23028279981E+03  0.25415936373E+03  0.47000000000E+01 0. -1.
         -5    1    3    3    0  501  0.42727913336E+01 -0.64483906825E+02 -0.91820768442E+02  0.11238137970E+03  0.47000000000E+01 0. -1.
          1    1    1    2  502    0 -0.33480162764E+02 -0.56614865593E+01 -0.14259697880E+03  0.14658401035E+03  0.00000000000E+00 0. -1.
          1    1    1    2  503    0 -0.58038545527E+02  0.10997341477E+03  0.42909256123E+04  0.42927270161E+04  0.00000000000E+00 0. -1.
<mgrwt>
<rscale>  0 0.64997926E+02</rscale>
<asrwt>0</asrwt>
<pdfrwt beam="1">  1        2 0.67136756E+00 0.12441974E+03</pdfrwt>
<pdfrwt beam="2">  1        2 0.80409940E-01 0.33955467E+02</pdfrwt>
<totfact> 0.25601428E+00</totfact>
</mgrwt>
</event>
<event>
13    1  0.3019759E-008  0.5193192E+02  0.7546771E-02  0.1520939E+00
         -1   -1    0    0    0  501 -0.00000000000E+00  0.00000000000E+00  0.20140456165E+03  0.20140456165E+03  0.00000000000E+00 0.  1.
          2   -1    0    0  503    0  0.00000000000E+00 -0.00000000000E+00 -0.11332223243E+04  0.11332223243E+04  0.00000000000E+00 0. -1.
         25    2    1    2    0    0  0.94403117509E+02 -0.28454205744E+02 -0.67411384841E+02  0.17289016572E+03  0.12500049670E+03 0.  0.
         24    2    1    2    0    0  0.91022736247E+02 -0.61838533831E+02 -0.32765719751E+02  0.13964439100E+03  0.79484720337E+02 0.  0.
         24    2    1    2    0    0 -0.14146792287E+03  0.75696233712E+02 -0.74185647738E+03  0.76319082387E+03  0.79787891349E+02 0.  0.
        -11    1    5    5    0    0 -0.25784255722E+01  0.63494033842E+01 -0.18804197288E+01  0.71062775152E+01  0.00000000000E+00 0.  1.
         12    1    5    5    0    0 -0.13888949730E+03  0.69346830328E+02 -0.73997605765E+03  0.75608454635E+03  0.00000000000E+00 0. -1.
        -13    1    4    4    0    0  0.72091107677E+02 -0.11558927212E+02 -0.43313892805E+02  0.84893049859E+02  0.00000000000E+00 0.  1.
         14    1    4    4    0    0  0.18931628570E+02 -0.50279606620E+02  0.10548173053E+02  0.54751341142E+02  0.00000000000E+00 0. -1.
          5    1    3    3  502    0  0.11551537141E+03  0.67188487028E+01 -0.61666269046E+02  0.13120122978E+03  0.47000000000E+01 0.  1.
         -5    1    3    3    0  502 -0.21112253897E+02 -0.35173054447E+02 -0.57451157946E+01  0.41688935933E+02  0.47000000000E+01 0.  1.
          1    1    1    2  503    0 -0.11300001124E+02 -0.25922291998E+02 -0.16501740282E+03  0.16742281351E+03  0.00000000000E+00 0. -1.
         -2    1    1    2    0  501 -0.32657929758E+02  0.40518797861E+02  0.75233222123E+02  0.91478691876E+02  0.00000000000E+00 0.  1.
<mgrwt>
<rscale>  0 0.38321533E+02</rscale>
<asrwt>0</asrwt>
<pdfrwt beam="2">  1        2 0.16665034E+00 0.28278176E+02</pdfrwt>
<pdfrwt beam="1">  1       -1 0.29618318E-01 0.51931917E+02</pdfrwt>
<totfact> 0.30985572E+02</totfact>
</mgrwt>
</event>
<event>
13    1  0.3019759E-008  0.1667846E+03  0.7546771E-02  0.1257180E+00
          2   -1    0    0  502    0  0.00000000000E+00  0.00000000000E+00  0.38032689137E+04  0.38032689137E+04  0.00000000000E+00 0. -1.
          2   -1    0    0  503    0 -0.00000000000E+00 -0.00000000000E+00 -0.20886172267E+04  0.20886172267E+04  0.00000000000E+00 0. -1.
         25    2    1    2    0    0  0.50166000784E+03 -0.29588510655E+03 -0.77316074121E+03  0.97602037092E+03  0.12500989145E+03 0.  0.
         24    2    1    2    0    0 -0.23738848343E+03  0.29367688385E+03  0.78188737336E+03  0.87513900022E+03  0.10918333622E+03 0.  0.
         24    2    1    2    0    0 -0.14430779655E+03 -0.52091139080E+02  0.39124734808E+03  0.42792789062E+03  0.80681876980E+02 0.  0.
        -13    1    5    5    0    0  0.29292359386E+01 -0.14912444194E+02  0.11862329685E+02  0.19278907660E+02  0.00000000000E+00 0.  1.
         14    1    5    5    0    0 -0.14723703249E+03 -0.37178694886E+02  0.37938501840E+03  0.40864898296E+03  0.00000000000E+00 0. -1.
        -13    1    4    4    0    0 -0.17618078230E+03  0.13257677206E+03  0.45471884941E+03  0.50535680519E+03  0.00000000000E+00 0.  1.
         14    1    4    4    0    0 -0.61207701125E+02  0.16110011179E+03  0.32716852395E+03  0.36978219503E+03  0.00000000000E+00 0. -1.
          5    1    3    3  501    0  0.14040712783E+03 -0.14990943751E+03 -0.28753192333E+03  0.35338887636E+03  0.47000000000E+01 0.  1.
         -5    1    3    3    0  501  0.36125288001E+03 -0.14597566904E+03 -0.48562881788E+03  0.62263149457E+03  0.47000000000E+01 0.  1.
          1    1    1    2  502    0 -0.10694593118E+03  0.12817215745E+03  0.24596821103E+04  0.24653400613E+04  0.00000000000E+00 0. -1.
          1    1    1    2  503    0 -0.13017796681E+02 -0.73872795670E+02 -0.11450044036E+04  0.11474588173E+04  0.00000000000E+00 0. -1.
<mgrwt>
<rscale>  0 0.11185116E+03</rscale>
<asrwt>0</asrwt>
<pdfrwt beam="1">  1        2 0.55930426E+00 0.16678458E+03</pdfrwt>
<pdfrwt beam="2">  1        2 0.30714959E+00 0.75011019E+02</pdfrwt>
<totfact> 0.12024500E+00</totfact>
</mgrwt>
</event>
<event>
13    1  0.3019759E-008  0.5220900E+02  0.7546771E-02  0.1476282E+00
          2   -1    0    0  503    0  0.00000000000E+00  0.00000000000E+00  0.20322790503E+03  0.20322790503E+03  0.00000000000E+00 0. -1.
          2   -1    0    0  502    0 -0.00000000000E+00 -0.00000000000E+00 -0.14020132259E+04  0.14020132259E+04  0.00000000000E+00 0. -1.
         25    2    1    2    0    0  0.12162958709E+03  0.14823891152E+03 -0.49809864764E+03  0.54817514247E+03  0.12500077079E+03 0.  0.
         24    2    1    2    0    0 -0.40025575694E+02 -0.13126644076E+03  0.10341415015E+02  0.15842570539E+03  0.78478239560E+02 0.  0.
         24    2    1    2    0    0 -0.21335529480E+02  0.47802782378E+02 -0.40195892304E+02  0.10387152067E+03  0.80207681850E+02 0.  0.
        -11    1    5    5    0    0 -0.22021505044E+02  0.67746842598E+02 -0.16931173738E+02  0.73220529980E+02  0.00000000000E+00 0.  1.
         12    1    5    5    0    0  0.68597556354E+00 -0.19944060221E+02 -0.23264718565E+02  0.30650990693E+02  0.00000000000E+00 0. -1.
        -11    1    4    4    0    0 -0.49135638774E+01  0.79573532914E+00  0.20789121142E+02  0.21376713091E+02  0.00000000000E+00 0.  1.
         12    1    4    4    0    0 -0.35112011817E+02 -0.13206217608E+03 -0.10447706127E+02  0.13704899230E+03  0.00000000000E+00 0. -1.
          5    1    3    3  501    0  0.61545444430E+02  0.12644670492E+02 -0.26079737660E+03  0.26830037470E+03  0.47000000000E+01 0. -1.
         -5    1    3    3    0  501  0.60084142660E+02  0.13559424103E+03 -0.23730127104E+03  0.27987476777E+03  0.47000000000E+01 0. -1.
          1    1    1    2  502    0 -0.28493503883E+02 -0.43472946791E+02 -0.72587728057E+03  0.72773594340E+03  0.00000000000E+00 0. -1.
          1    1    1    2  503    0 -0.31774978032E+02 -0.21302306349E+02  0.55045084615E+02  0.67032819014E+02  0.00000000000E+00 0. -1.
<mgrwt>
<rscale>  0 0.44690605E+02</rscale>
<asrwt>0</asrwt>
<pdfrwt beam="1">  1        2 0.29886458E-01 0.38254901E+02</pdfrwt>
<pdfrwt beam="2">  1        2 0.20617841E+00 0.52209001E+02</pdfrwt>
<totfact> 0.48951659E+02</totfact>
</mgrwt>
</event>
<event>
13    1  0.3019759E-008  0.9331944E+02  0.7546771E-02  0.1336410E+00
          2   -1    0    0  502    0  0.00000000000E+00  0.00000000000E+00  0.32045120283E+04  0.32045120283E+04  0.00000000000E+00 0. -1.
          2   -1    0    0  503    0 -0.00000000000E+00 -0.00000000000E+00 -0.64894980773E+03  0.64894980773E+03  0.00000000000E+00 0. -1.
         25    2    1    2    0    0  0.99605917580E+02  0.96416963300E+02 -0.33604880877E+03  0.38441062791E+03  0.12500063739E+03 0.  0.
         24    2    1    2    0    0 -0.44534498436E+01 -0.95678087241E+02  0.27633251732E+03  0.30322008672E+03  0.80053927264E+02 0.  0.
         24    2    1    2    0    0  0.48885323214E+02 -0.63716315004E+02  0.15053292848E+04  0.15094270453E+04  0.76838831353E+02 0.  0.
        -13    1    5    5    0    0  0.37940752074E+02  0.41477258765E+01  0.75201611135E+03  0.75298402109E+03  0.00000000000E+00 0.  1.
         14    1    5    5    0    0  0.10944571141E+02 -0.67864040880E+02  0.75331317341E+03  0.75644302423E+03  0.00000000000E+00 0. -1.
        -13    1    4    4    0    0  0.30574877612E+02 -0.50071166051E+02  0.83891175307E+02  0.10237027940E+03  0.00000000000E+00 0.  1.
         14    1    4    4    0    0 -0.35028327455E+02 -0.45606921190E+02  0.19244134201E+03  0.20084980732E+03  0.00000000000E+00 0. -1.
          5    1    3    3  501    0  0.12400487429E+02 -0.98052373334E+01  0.45421636539E+01  0.17106607446E+02  0.47000000000E+01 0. -1.
         -5    1    3    3    0  501  0.87205430151E+02  0.10622220063E+03 -0.34059097242E+03  0.36730402046E+03  0.47000000000E+01 0. -1.
          1    1    1    2  502    0 -0.56128729689E+02  0.31370222578E+02  0.13744178613E+04  0.13759211397E+04  0.00000000000E+00 0. -1.
          1    1    1    2  503    0 -0.87909061262E+02  0.31607216367E+02 -0.26446863407E+03  0.28048293635E+03  0.00000000000E+00 0. -1.
<mgrwt>
<rscale>  0 0.77462674E+02</rscale>
<asrwt>0</asrwt>
<pdfrwt beam="1">  1        2 0.47125176E+00 0.64300273E+02</pdfrwt>
<pdfrwt beam="2">  1        2 0.95433797E-01 0.93319445E+02</pdfrwt>
<totfact> 0.18718229E+01</totfact>
</mgrwt>
</event>
<event>
13    1  0.3019759E-008  0.2135533E+03  0.7546771E-02  0.1229003E+00
          2   -1    0    0  503    0  0.00000000000E+00  0.00000000000E+00  0.47023045760E+03  0.47023045760E+03  0.00000000000E+00 0. -1.
          2   -1    0    0  502    0 -0.00000000000E+00 -0.00000000000E+00 -0.15064259632E+04  0.15064259632E+04  0.00000000000E+00 0. -1.
         25    2    1    2    0    0 -0.58560166786E+01  0.76256906915E+02 -0.51927004900E+03  0.53955044662E+03  0.12499556744E+03 0.  0.
         24    2    1    2    0    0  0.54850210797E+02  0.15800953585E+02 -0.63022560569E+02  0.11853090054E+03  0.82580357736E+02 0.  0.
         24    2    1    2    0    0  0.34753402828E+02  0.25936956967E+02 -0.79149616930E+02  0.12384305540E+03  0.84805163552E+02 0.  0.
        -13    1    4    4    0    0 -0.51297719333E+01  0.32860987740E+02 -0.55345682877E+01  0.33716324258E+02  0.00000000000E+00 0.  1.
         14    1    4    4    0    0  0.59979982730E+02 -0.17060034154E+02 -0.57487992281E+02  0.84814576284E+02  0.00000000000E+00 0. -1.
        -13    1    5    5    0    0  0.41118408160E+02 -0.20466442837E+02 -0.25167128635E+02  0.52373496501E+02  0.00000000000E+00 0.  1.
         14    1    5    5    0    0 -0.63650053321E+01  0.46403399804E+02 -0.53982488295E+02  0.71469558896E+02  0.00000000000E+00 0. -1.
          5    1    3    3  501    0  0.23773563215E+01  0.30902836716E+02 -0.47310823120E+03  0.47414567969E+03  0.47000000000E+01 0.  1.
         -5    1    3    3    0  501 -0.82333730001E+01  0.45354070199E+02 -0.46161817793E+02  0.65404766926E+02  0.47000000000E+01 0.  1.
          1    1    1    2  502    0  0.38063376795E+02  0.67944269671E+02 -0.75245484367E+03  0.75647441213E+03  0.00000000000E+00 0. -1.
          1    1    1    2  503    0 -0.12181097374E+03 -0.18593908714E+03  0.37770156457E+03  0.43825760613E+03  0.00000000000E+00 0. -1.
<mgrwt>
<rscale>  0 0.12896303E+03</rscale>
<asrwt>0</asrwt>
<pdfrwt beam="1">  1        2 0.69151539E-01 0.21355330E+03</pdfrwt>
<pdfrwt beam="2">  1        2 0.22153323E+00 0.77879679E+02</pdfrwt>
<totfact> 0.17719159E+02</totfact>
</mgrwt>
</event>
<event>
13    1  0.3019759E-008  0.7385178E+02  0.7546771E-02  0.1543493E+00
          2   -1    0    0  503    0  0.00000000000E+00  0.00000000000E+00  0.13558684888E+04  0.13558684888E+04  0.00000000000E+00 0. -1.
         -1   -1    0    0    0  501 -0.00000000000E+00 -0.00000000000E+00 -0.54248650630E+03  0.54248650630E+03  0.00000000000E+00 0.  1.
         25    2    1    2    0    0  0.17928293668E+03 -0.25020355353E+03 -0.36306908246E+03  0.49212368301E+03  0.12498948418E+03 0.  0.
         24    2    1    2    0    0 -0.25601980157E+03  0.60625103828E+02  0.95128409576E+03  0.99060432405E+03  0.84462737105E+02 0.  0.
         24    2    1    2    0    0  0.52334870906E+02  0.10232673832E+03  0.22186795412E+03  0.26251681409E+03  0.80498375944E+02 0.  0.
        -11    1    5    5    0    0 -0.18155651842E+02  0.18174850254E+02  0.19353913645E+02  0.32164061450E+02  0.00000000000E+00 0.  1.
         12    1    5    5    0    0  0.70490522748E+02  0.84151888063E+02  0.20251404047E+03  0.23035275264E+03  0.00000000000E+00 0. -1.
        -11    1    4    4    0    0 -0.57522704831E+02 -0.14160745302E+02  0.29509879595E+03  0.30098619179E+03  0.00000000000E+00 0.  1.
         12    1    4    4    0    0 -0.19849709674E+03  0.74785849130E+02  0.65618529982E+03  0.68961813226E+03  0.00000000000E+00 0. -1.
          5    1    3    3  502    0 -0.12603144918E+02 -0.57428850512E+02 -0.49539679486E+02  0.77027150905E+02  0.47000000000E+01 0.  1.
         -5    1    3    3    0  502  0.19188608160E+03 -0.19277470302E+03 -0.31352940297E+03  0.41509653210E+03  0.47000000000E+01 0.  1.
          1    1    1    2  503    0  0.65791491051E+01  0.15830660918E+02  0.58589981860E+02  0.61046547834E+02  0.00000000000E+00 0. -1.
         -2    1    1    2    0  501  0.17822844880E+02  0.71421050466E+02 -0.55290966773E+02  0.92063626129E+02  0.00000000000E+00 0.  1.
<mgrwt>
<rscale>  0 0.35581852E+02</rscale>
<asrwt>0</asrwt>
<pdfrwt beam="1">  1        2 0.19939242E+00 0.17143367E+02</pdfrwt>
<pdfrwt beam="2">  1       -1 0.79777428E-01 0.73851784E+02</pdfrwt>
<totfact> 0.42506417E+01</totfact>
</mgrwt>
</event>
<event>
13    1  0.3019759E-008  0.6925273E+02  0.7546771E-02  0.1421555E+00
          2   -1    0    0  502    0  0.00000000000E+00  0.00000000000E+00  0.12560470430E+04  0.12560470430E+04  0.00000000000E+00 0. -1.
          2   -1    0    0  503    0 -0.00000000000E+00 -0.00000000000E+00 -0.20166867539E+04  0.20166867539E+04  0.00000000000E+00 0. -1.
         25    2    1    2    0    0 -0.91054294953E+02 -0.14964708152E+03 -0.23202328130E+03  0.31645485630E+03  0.12499495738E+03 0.  0.
         24    2    1    2    0    0  0.11446194627E+02  0.36640957728E+02 -0.42237761640E+02  0.98555887478E+02  0.80347117518E+02 0.  0.
         24    2    1    2    0    0  0.22386054535E+02  0.16449042774E+02  0.70158437406E+02  0.10995129355E+03  0.79971083327E+02 0.  0.
        -11    1    5    5    0    0 -0.24814957376E+02 -0.12396652183E+02  0.33932227388E+02  0.43827561539E+02  0.00000000000E+00 0.  1.
         12    1    5    5    0    0  0.47201011912E+02  0.28845694956E+02  0.36226210018E+02  0.66123732013E+02  0.00000000000E+00 0. -1.
        -13    1    4    4    0    0  0.41870372143E+02  0.95390857088E+01 -0.47782084355E+01  0.43208257260E+02  0.00000000000E+00 0.  1.
         14    1    4    4    0    0 -0.30424177516E+02  0.27101872019E+02 -0.37459553205E+02  0.55347630218E+02  0.00000000000E+00 0. -1.
          5    1    3    3  501    0 -0.12866980453E+02 -0.45046120598E+02  0.33889523239E+01  0.47204736677E+02  0.47000000000E+01 0.  1.
         -5    1    3    3    0  501 -0.78187314501E+02 -0.10460096093E+03 -0.23541223363E+03  0.26925011962E+03  0.47000000000E+01 0.  1.
          1    1    1    2  502    0  0.36996381623E+02  0.58390350001E+02  0.10942442439E+04  0.10964253876E+04  0.00000000000E+00 0. -1.
          1    1    1    2  503    0  0.20225664167E+02  0.38166731020E+02 -0.16507813493E+04  0.16513463719E+04  0.00000000000E+00 0. -1.
<mgrwt>
<rscale>  0 0.54693204E+02</rscale>
<asrwt>0</asrwt>
<pdfrwt beam="1">  1        2 0.18471280E+00 0.69252728E+02</pdfrwt>
<pdfrwt beam="2">  1        2 0.29657158E+00 0.43194639E+02</pdfrwt>
<totfact> 0.33491657E+01</totfact>
</mgrwt>
</event>
<event>
13    1  0.3019759E-008  0.9469687E+02  0.7546771E-02  0.1436348E+00
          2   -1    0    0  502    0  0.00000000000E+00  0.00000000000E+00  0.21490427659E+03  0.21490427659E+03  0.00000000000E+00 0. -1.
          2   -1    0    0  503    0 -0.00000000000E+00 -0.00000000000E+00 -0.17986794571E+04  0.17986794571E+04  0.00000000000E+00 0. -1.
         25    2    1    2    0    0 -0.32135853616E+02 -0.99617302951E+02 -0.75009237429E+03  0.76760577572E+03  0.12499494715E+03 0.  0.
         24    2    1    2    0    0  0.22148317323E+02 -0.36633206279E+02 -0.86919004769E+02  0.12659509154E+03  0.81479224653E+02 0.  0.
         24    2    1    2    0    0 -0.76798947268E+02  0.93603151839E+02 -0.21127885466E+03  0.25637371421E+03  0.80181659854E+02 0.  0.
        -11    1    4    4    0    0 -0.23054333583E+02 -0.12573815318E+01 -0.57780800950E+02  0.62223020368E+02  0.00000000000E+00 0.  1.
         12    1    4    4    0    0  0.45202650906E+02 -0.35375824747E+02 -0.29138203819E+02  0.64372071175E+02  0.00000000000E+00 0. -1.
        -11    1    5    5    0    0 -0.12541575743E+02  0.47244554486E+02 -0.27137193165E+02  0.55908553045E+02  0.00000000000E+00 0.  1.
         12    1    5    5    0    0 -0.64257371525E+02  0.46358597353E+02 -0.18414166149E+03  0.20046516117E+03  0.00000000000E+00 0. -1.
          5    1    3    3  501    0 -0.74621389112E+02 -0.49783577036E+02 -0.31388890272E+03  0.32648903428E+03  0.47000000000E+01 0.  1.
         -5    1    3    3    0  501  0.42485535497E+02 -0.49833725916E+02 -0.43620347157E+03  0.44111674144E+03  0.47000000000E+01 0.  1.
          1    1    1    2  502    0  0.69267983717E+02  0.64788018613E+02  0.14971433928E+03  0.17722845232E+03  0.00000000000E+00 0. -1.
          1    1    1    2  503    0  0.17518499843E+02 -0.22140661222E+02 -0.68519928606E+03  0.68578069988E+03  0.00000000000E+00 0. -1.
<mgrwt>
<rscale>  0 0.51706712E+02</rscale>
<asrwt>0</asrwt>
<pdfrwt beam="1">  1        2 0.31603570E-01 0.94696865E+02</pdfrwt>
<pdfrwt beam="2">  1        2 0.26451169E+00 0.28233078E+02</pdfrwt>
<totfact> 0.32695368E+02</totfact>
</mgrwt>
</event>
<event>
13    1  0.3019759E-008  0.1277901E+03  0.7546771E-02  0.1359614E+00
          2   -1    0    0  503    0  0.00000000000E+00  0.00000000000E+00  0.16731089608E+04  0.16731089608E+04  0.00000000000E+00 0. -1.
          2   -1    0    0  502    0 -0.00000000000E+00 -0.00000000000E+00 -0.13462668744E+04  0.13462668744E+04  0.00000000000E+00 0. -1.
         25    2    1    2    0    0  0.49036104491E+02 -0.11606874368E+02 -0.69367476137E+03  0.70664780573E+03  0.12500875053E+03 0.  0.
         24    2    1    2    0    0 -0.41773106813E+02 -0.11292424496E+03  0.20475219618E+03  0.25010330912E+03  0.78302783075E+02 0.  0.
         24    2    1    2    0    0 -0.90534408385E+02 -0.47645332989E+01  0.20734395514E+03  0.24005996885E+03  0.80113001641E+02 0.  0.
        -11    1    5    5    0    0 -0.32750264339E+01  0.26505467756E+02  0.31640118820E+02  0.41404863700E+02  0.00000000000E+00 0.  1.
         12    1    5    5    0    0 -0.87259381951E+02 -0.31270001055E+02  0.17570383632E+03  0.19865510515E+03  0.00000000000E+00 0. -1.
        -13    1    4    4    0    0 -0.43477397758E+02 -0.57235531079E+02  0.55557564625E+02  0.90845105101E+02  0.00000000000E+00 0.  1.
         14    1    4    4    0    0  0.17042909450E+01 -0.55688713886E+02  0.14919463155E+03  0.15925820402E+03  0.00000000000E+00 0. -1.
          5    1    3    3  501    0  0.72623889220E+02 -0.50674050746E+02 -0.47617257223E+03  0.48435988402E+03  0.47000000000E+01 0. -1.
         -5    1    3    3    0  501 -0.23587784729E+02  0.39067176378E+02 -0.21750218914E+03  0.22228792171E+03  0.47000000000E+01 0. -1.
          1    1    1    2  502    0 -0.37844833766E+02 -0.70651609220E+01 -0.59960967317E+03  0.60084432934E+03  0.00000000000E+00 0. -1.
          1    1    1    2  503    0  0.12111624447E+03  0.13636081355E+03  0.12080303696E+04  0.12217204222E+04  0.00000000000E+00 0. -1.
<mgrwt>
<rscale>  0 0.70140934E+02</rscale>
<asrwt>0</asrwt>
<pdfrwt beam="1">  1        2 0.24604544E+00 0.12779013E+03</pdfrwt>
<pdfrwt beam="2">  1        2 0.19798042E+00 0.38498675E+02</pdfrwt>
<totfact> 0.41153570E+01</totfact>
</mgrwt>
</event>
<event>
13    1  0.3019759E-008  0.2456994E+02  0.7546771E-02  0.1750852E+00
          2   -1    0    0  502    0  0.00000000000E+00  0.00000000000E+00  0.35384435705E+04  0.35384435705E+04  0.00000000000E+00 0. -1.
          4   -1    0    0  503    0 -0.00000000000E+00 -0.00000000000E+00 -0.14244597066E+04  0.14244597066E+04  0.00000000000E+00 0. -1.
         25    2    1    2    0    0  0.13235292183E+03  0.92356331151E+02 -0.56407301721E+03  0.59987540700E+03  0.12500058943E+03 0.  0.
         24    2    1    2    0    0  0.54024299127E+03  0.80086247054E+03  0.45315908727E+03  0.10718600311E+04  0.10142771573E+03 0.  0.
         24    2    1    2    0    0 -0.70781763610E+03 -0.87458985549E+03  0.18781884635E+04  0.21908912982E+04  0.80619816543E+02 0.  0.
        -13    1    4    4    0    0  0.36208247892E+03  0.61613877590E+03  0.32811290547E+03  0.78637700338E+03  0.00000000000E+00 0.  1.
         14    1    4    4    0    0  0.17816051235E+03  0.18472369463E+03  0.12504618180E+03  0.28548302770E+03  0.00000000000E+00 0. -1.
        -13    1    5    5    0    0 -0.16576233289E+03 -0.24567671513E+03  0.44760260570E+03  0.53682612827E+03  0.00000000000E+00 0.  1.
         14    1    5    5    0    0 -0.54205530322E+03 -0.62891314036E+03  0.14305858578E+04  0.16540651699E+04  0.00000000000E+00 0. -1.
          5    1    3    3  501    0  0.18478012684E+02  0.36580451763E+02 -0.30183744736E+02  0.51114722441E+02  0.47000000000E+01 0.  1.
         -5    1    3    3    0  501  0.11387490915E+03  0.55775879388E+02 -0.53388927247E+03  0.54876068456E+03  0.47000000000E+01 0.  1.
          1    1    1    2  502    0  0.23049857528E+02 -0.84994192723E+01  0.72311786300E+03  0.72353505779E+03  0.00000000000E+00 0. -1.
          3    1    1    2  503    0  0.12171865469E+02 -0.10129526921E+02 -0.37640853263E+03  0.37674148307E+03  0.00000000000E+00 0. -1.
<mgrwt>
<rscale>  0 0.19725015E+02</rscale>
<asrwt>0</asrwt>
<pdfrwt beam="1">  1        2 0.52035935E+00 0.24569942E+02</pdfrwt>
<pdfrwt beam="2">  1        4 0.20947937E+00 0.15835455E+02</pdfrwt>
<totfact> 0.12612658E-01</totfact>
</mgrwt>
</event>
<event>
13    1  0.3019759E-008  0.2657539E+03  0.7546771E-02  0.1207462E+00
          2   -1    0    0  503    0  0.00000000000E+00  0.00000000000E+00  0.21333441037E+04  0.21333441037E+04  0.00000000000E+00 0. -1.
          2   -1    0    0  502    0 -0.00000000000E+00 -0.00000000000E+00 -0.21666476261E+04  0.21666476261E+04  0.00000000000E+00 0. -1.
         25    2    1    2    0    0  0.21796929238E+03  0.12266157155E+03 -0.87410098550E+02  0.29295132321E+03  0.12499391540E+03 0.  0.
         24    2    1    2    0    0 -0.33620669564E+02 -0.17341184740E+02  0.11922743555E+03  0.14852035613E+03  0.80075268875E+02 0.  0.
         24    2    1    2    0    0 -0.11764301258E+02 -0.58977280763E+02  0.43487437555E+03  0.44632274929E+03  0.80445979348E+02 0.  0.
        -11    1    5    5    0    0  0.20784820360E+02  0.15162192979E+01  0.21400563693E+03  0.21501795347E+03  0.00000000000E+00 0.  1.
         12    1    5    5    0    0 -0.32549121618E+02 -0.60493500061E+02  0.22086873862E+03  0.23130479582E+03  0.00000000000E+00 0. -1.
        -11    1    4    4    0    0 -0.54071538825E+00 -0.42332585554E+02  0.84204459762E+02  0.94248242512E+02  0.00000000000E+00 0.  1.
         12    1    4    4    0    0 -0.33079954176E+02  0.24991400814E+02  0.35022975790E+02  0.54272113614E+02  0.00000000000E+00 0. -1.
          5    1    3    3  501    0  0.56246752330E+02  0.52247793045E+02  0.28290831001E+02  0.81951144864E+02  0.47000000000E+01 0.  1.
         -5    1    3    3    0  501  0.16172254005E+03  0.70413778500E+02 -0.11570092955E+03  0.21100017834E+03  0.47000000000E+01 0.  1.
          1    1    1    2  502    0 -0.26483568549E+03 -0.43647355300E+02 -0.19454101260E+04  0.19638389930E+04  0.00000000000E+00 0. -1.
          1    1    1    2  503    0  0.92251363932E+02 -0.26957507423E+01  0.14454148911E+04  0.14483583081E+04  0.00000000000E+00 0. -1.
<mgrwt>
<rscale>  0 0.14445145E+03</rscale>
<asrwt>0</asrwt>
<pdfrwt beam="1">  1        2 0.31372707E+00 0.78517080E+02</pdfrwt>
<pdfrwt beam="2">  1        2 0.31862465E+00 0.26575393E+03</pdfrwt>
<totfact> 0.86749783E+00</totfact>
</mgrwt>
</event>
<event>
13    1  0.3019759E-008  0.7181745E+02  0.7546771E-02  0.1378375E+00
          2   -1    0    0  502    0  0.00000000000E+00  0.00000000000E+00  0.13722520358E+04  0.13722520358E+04  0.00000000000E+00 0. -1.
          2   -1    0    0  503    0 -0.00000000000E+00 -0.00000000000E+00 -0.88938763180E+03  0.88938763180E+03  0.00000000000E+00 0. -1.
         25    2    1    2    0    0 -0.63266369189E+02 -0.53218816192E+01 -0.19775815174E+03  0.24242683737E+03  0.12502611328E+03 0.  0.
         24    2    1    2    0    0 -0.22675495933E+02 -0.42364318607E+02  0.27238623173E+01  0.92709644048E+02  0.79238532715E+02 0.  0.
         24    2    1    2    0    0  0.23681499690E+02 -0.56373647142E+02  0.48790595747E+03  0.49709409311E+03  0.72880124497E+02 0.  0.
        -13    1    4    4    0    0  0.22443596437E+02 -0.22124309699E+01 -0.18000273064E+02  0.28855150358E+02  0.00000000000E+00 0.  1.
         14    1    4    4    0    0 -0.45119092370E+02 -0.40151887637E+02  0.20724135381E+02  0.63854493690E+02  0.00000000000E+00 0. -1.
        -13    1    5    5    0    0  0.30129490898E+01 -0.49090166161E+02  0.13799511386E+03  0.14649769187E+03  0.00000000000E+00 0.  1.
         14    1    5    5    0    0  0.20668550600E+02 -0.72834809813E+01  0.34991084362E+03  0.35059640124E+03  0.00000000000E+00 0. -1.
          5    1    3    3  501    0 -0.34164249694E+02  0.15032748417E+02 -0.20279137071E+03  0.20625132609E+03  0.47000000000E+01 0. -1.
         -5    1    3    3    0  501 -0.29102119495E+02 -0.20354630036E+02  0.50332189634E+01  0.36175511277E+02  0.47000000000E+01 0. -1.
          1    1    1    2  502    0  0.47872087149E+02  0.33859120758E+02  0.80656145936E+03  0.80869002993E+03  0.00000000000E+00 0. -1.
          1    1    1    2  503    0  0.14388278283E+02  0.70200726610E+02 -0.61656872345E+03  0.62071906310E+03  0.00000000000E+00 0. -1.
<mgrwt>
<rscale>  0 0.64892878E+02</rscale>
<asrwt>0</asrwt>
<pdfrwt beam="1">  1        2 0.20180177E+00 0.58635968E+02</pdfrwt>
<pdfrwt beam="2">  1        2 0.13079230E+00 0.71817449E+02</pdfrwt>
<totfact> 0.10398369E+02</totfact>
</mgrwt>
</event>
<event>
13    1  0.3019759E-008  0.8965073E+02  0.7546771E-02  0.1361027E+00
         -3   -1    0    0    0  501 -0.00000000000E+00  0.00000000000E+00  0.49290025432E+03  0.49290025432E+03  0.00000000000E+00 0.  1.
          2   -1    0    0  503    0  0.00000000000E+00 -0.00000000000E+00 -0.33790763716E+04  0.33790763716E+04  0.00000000000E+00 0. -1.
         25    2    1    2    0    0 -0.24232390805E+03 -0.22663456262E+03 -0.64322898084E+02  0.36034145434E+03  0.12499770843E+03 0.  0.
         24    2    1    2    0    0  0.15876911007E+03  0.32500707820E+03  0.11558227920E+03  0.38816758898E+03  0.80483431036E+02 0.  0.
         24    2    1    2    0    0 -0.14063687882E+02 -0.63459739177E+02 -0.45057307899E+03  0.46214933662E+03  0.79630295842E+02 0.  0.
        -11    1    5    5    0    0  0.97027119789E+01  0.15000445872E+02 -0.45866451974E+02  0.49222834262E+02  0.00000000000E+00 0.  1.
         12    1    5    5    0    0 -0.23766399861E+02 -0.78460185049E+02 -0.40470662701E+03  0.41292650236E+03  0.00000000000E+00 0. -1.
        -11    1    4    4    0    0  0.15167551193E+03  0.23310202949E+03  0.93260721102E+02  0.29332504014E+03  0.00000000000E+00 0.  1.
         12    1    4    4    0    0  0.70935981317E+01  0.91905048712E+02  0.22321558103E+02  0.94842548834E+02  0.00000000000E+00 0. -1.
          5    1    3    3  502    0  0.46523158921E+01 -0.50866783546E+02 -0.12119485970E+02  0.52707168883E+02  0.47000000000E+01 0. -1.
         -5    1    3    3    0  502 -0.24697622394E+03 -0.17576777908E+03 -0.52203412114E+02  0.30763428546E+03  0.47000000000E+01 0. -1.
          1    1    1    2  503    0  0.56166692578E+02 -0.69878379902E+02 -0.25648021224E+04  0.25663685652E+04  0.00000000000E+00 0. -1.
         -4    1    1    2    0  501  0.41451793288E+02  0.34965603497E+02  0.77939702942E+02  0.94949680828E+02  0.00000000000E+00 0.  1.
<mgrwt>
<rscale>  0 0.69726027E+02</rscale>
<asrwt>0</asrwt>
<pdfrwt beam="2">  1        2 0.49692298E+00 0.89650725E+02</pdfrwt>
<pdfrwt beam="1">  1       -3 0.72485333E-01 0.54229555E+02</pdfrwt>
<totfact> 0.19881964E+00</totfact>
</mgrwt>
</event>
<event>
13    1  0.3019759E-008  0.1443079E+03  0.7546771E-02  0.1517515E+00
          2   -1    0    0  503    0  0.00000000000E+00  0.00000000000E+00  0.28910617777E+04  0.28910617777E+04  0.00000000000E+00 0. -1.
          2   -1    0    0  502    0 -0.00000000000E+00 -0.00000000000E+00 -0.16293662074E+04  0.16293662074E+04  0.00000000000E+00 0. -1.
         25    2    1    2    0    0  0.10120629162E+03 -0.39084656896E+02 -0.60200477229E+03  0.62434570753E+03  0.12500997074E+03 0.  0.
         24    2    1    2    0    0 -0.44365695091E+02 -0.18190213605E+03 -0.14621017174E+03  0.25057359766E+03  0.79705781013E+02 0.  0.
         24    2    1    2    0    0  0.25159315062E+02  0.44578604084E+02  0.24591984239E+03  0.26381219405E+03  0.80622960584E+02 0.  0.
        -11    1    5    5    0    0  0.23220418881E+02  0.64255007180E+02  0.13676198080E+03  0.15287816454E+03  0.00000000000E+00 0.  1.
         12    1    5    5    0    0  0.19388961812E+01 -0.19676403095E+02  0.10915786159E+03  0.11093402951E+03  0.00000000000E+00 0. -1.
        -11    1    4    4    0    0  0.12639517233E+02 -0.45713259104E+00 -0.14444832216E+02  0.19199467280E+02  0.00000000000E+00 0.  1.
         12    1    4    4    0    0 -0.57005212324E+02 -0.18144500346E+03 -0.13176533952E+03  0.23137413038E+03  0.00000000000E+00 0. -1.
          5    1    3    3  501    0  0.98596821390E+02  0.17699680607E+02 -0.46942241170E+03  0.48001468987E+03  0.47000000000E+01 0.  1.
         -5    1    3    3    0  501  0.26094702339E+01 -0.56784337503E+02 -0.13258236059E+03  0.14433101767E+03  0.47000000000E+01 0.  1.
          1    1    1    2  502    0  0.70336590092E+01  0.76775471211E+01 -0.80528255230E+03  0.80534986566E+03  0.00000000000E+00 0. -1.
          1    1    1    2  503    0 -0.89033570604E+02  0.16873064174E+03  0.25692732242E+04  0.25763466201E+04  0.00000000000E+00 0. -1.
<mgrwt>
<rscale>  0 0.38763183E+02</rscale>
<asrwt>0</asrwt>
<pdfrwt beam="1">  1        2 0.42515615E+00 0.14430786E+03</pdfrwt>
<pdfrwt beam="2">  1        2 0.23961268E+00 0.10412353E+02</pdfrwt>
<totfact> 0.83868890E+00</totfact>
</mgrwt>
</event>
<event>
13    1  0.3019759E-008  0.1038011E+03  0.7546771E-02  0.1382449E+00
          2   -1    0    0  503    0  0.00000000000E+00  0.00000000000E+00  0.12330597998E+04  0.12330597998E+04  0.00000000000E+00 0. -1.
          2   -1    0    0  502    0 -0.00000000000E+00 -0.00000000000E+00 -0.31749550891E+04  0.31749550891E+04  0.00000000000E+00 0. -1.
         25    2    1    2    0    0 -0.13807468793E+03 -0.38007116640E+02 -0.36995633978E+03  0.41593330435E+03  0.12499463974E+03 0.  0.
         24    2    1    2    0    0 -0.47100414650E+02 -0.44364679279E+02 -0.33271154210E+02  0.10778400639E+03  0.79522000115E+02 0.  0.
         24    2    1    2    0    0  0.49569890376E+02  0.10075985073E+03  0.22357331351E+03  0.26187524191E+03  0.77355634947E+02 0.  0.
        -13    1    4    4    0    0 -0.19918949950E+01  0.21662315372E+02 -0.17256844306E+01  0.21822042519E+02  0.00000000000E+00 0.  1.
         14    1    4    4    0    0 -0.45108519655E+02 -0.66026994651E+02 -0.31545469780E+02  0.85961963866E+02  0.00000000000E+00 0. -1.
        -13    1    5    5    0    0  0.70681436320E+02  0.75242120158E+02  0.17029462402E+03  0.19914191185E+03  0.00000000000E+00 0.  1.
         14    1    5    5    0    0 -0.21111545945E+02  0.25517730570E+02  0.53278689493E+02  0.62733330055E+02  0.00000000000E+00 0. -1.
          5    1    3    3  501    0 -0.95242527923E+02 -0.93009655661E+01 -0.90750403866E+02  0.13196731750E+03  0.47000000000E+01 0. -1.
         -5    1    3    3    0  501 -0.42832160006E+02 -0.28706151073E+02 -0.27920593591E+03  0.28396598685E+03  0.47000000000E+01 0. -1.
          1    1    1    2  502    0  0.10228003094E+03  0.23362738483E+01 -0.26909452884E+04  0.26928893791E+04  0.00000000000E+00 0. -1.
          1    1    1    2  503    0  0.33325181261E+02 -0.20724328659E+02  0.92870417956E+03  0.92953295727E+03  0.00000000000E+00 0. -1.
<mgrwt>
<rscale>  0 0.63824271E+02</rscale>
<asrwt>0</asrwt>
<pdfrwt beam="1">  1        2 0.18133232E+00 0.39243668E+02</pdfrwt>
<pdfrwt beam="2">  1        2 0.46690517E+00 0.10380114E+03</pdfrwt>
<totfact> 0.83734070E+00</totfact>
</mgrwt>
</event>
<event>
13    1  0.3019759E-008  0.2256803E+03  0.7546771E-02  0.1258059E+00
          2   -1    0    0  503    0  0.00000000000E+00  0.00000000000E+00  0.13045735635E+04  0.13045735635E+04  0.00000000000E+00 0. -1.
          2   -1    0    0  502    0 -0.00000000000E+00 -0.00000000000E+00 -0.17007650546E+04  0.17007650546E+04  0.00000000000E+00 0. -1.
         25    2    1    2    0    0  0.38458654180E+03 -0.47000580794E+02 -0.29649876269E+03  0.50363966072E+03  0.12500211537E+03 0.  0.
         24    2    1    2    0    0 -0.10254034138E+03 -0.72474875075E+02 -0.10790647139E+03  0.18406223735E+03  0.80423699998E+02 0.  0.
         24    2    1    2    0    0 -0.36826747993E+02  0.97078119809E+02  0.38334140797E+03  0.40536290840E+03  0.81166999024E+02 0.  0.
        -13    1    5    5    0    0  0.20431965899E+02  0.57997561680E+02  0.15581210868E+03  0.16750700165E+03  0.00000000000E+00 0.  1.
         14    1    5    5    0    0 -0.57258713893E+02  0.39080558129E+02  0.22752929929E+03  0.23785590675E+03  0.00000000000E+00 0. -1.
        -13    1    4    4    0    0 -0.77199489631E+01  0.11396869863E+02 -0.35845397971E+02  0.38397640687E+02  0.00000000000E+00 0.  1.
         14    1    4    4    0    0 -0.94820392421E+02 -0.83871744939E+02 -0.72061073419E+02  0.14566459666E+03  0.00000000000E+00 0. -1.
          5    1    3    3  501    0  0.28048956465E+03 -0.77999954065E+02 -0.25573677494E+03  0.38753293636E+03  0.47000000000E+01 0.  1.
         -5    1    3    3    0  501  0.10409697715E+03  0.30999373272E+02 -0.40761987750E+02  0.11610672436E+03  0.47000000000E+01 0.  1.
          1    1    1    2  502    0 -0.26451409434E+03 -0.29060775360E+02 -0.11272057845E+04  0.11581904486E+04  0.00000000000E+00 0. -1.
          1    1    1    2  503    0  0.19294641922E+02  0.51458111420E+02  0.75207811947E+03  0.75408336292E+03  0.00000000000E+00 0. -1.
<mgrwt>
<rscale>  0 0.11136700E+03</rscale>
<asrwt>0</asrwt>
<pdfrwt beam="1">  1        2 0.19184905E+00 0.54956532E+02</pdfrwt>
<pdfrwt beam="2">  1        2 0.25011251E+00 0.22568033E+03</pdfrwt>
<totfact> 0.38861253E+01</totfact>
</mgrwt>
</event>
<event>
13    1  0.3019759E-008  0.2182885E+03  0.7546771E-02  0.1332593E+00
          2   -1    0    0  502    0  0.00000000000E+00  0.00000000000E+00  0.71465597685E+03  0.71465597685E+03  0.00000000000E+00 0. -1.
          2   -1    0    0  503    0 -0.00000000000E+00 -0.00000000000E+00 -0.77265947801E+03  0.77265947801E+03  0.00000000000E+00 0. -1.
         25    2    1    2    0    0  0.18361614666E+03 -0.10077741607E+03 -0.17559558624E+03  0.30054516716E+03  0.12499044241E+03 0.  0.
         24    2    1    2    0    0  0.41433788460E+01 -0.97392405927E+02  0.20186137108E+03  0.23839432368E+03  0.81125779561E+02 0.  0.
         24    2    1    2    0    0 -0.87615759080E+02  0.87096715630E+01  0.24502584769E+03  0.27259494952E+03  0.80733889110E+02 0.  0.
        -13    1    5    5    0    0 -0.40205367659E+01 -0.11764673890E+02 -0.47822019948E+00  0.12441903479E+02  0.00000000000E+00 0.  1.
         14    1    5    5    0    0 -0.83595222314E+02  0.20474345453E+02  0.24550406789E+03  0.26015304604E+03  0.00000000000E+00 0. -1.
        -13    1    4    4    0    0  0.24934197932E+02 -0.67499093942E+01  0.86176777992E+02  0.89965063044E+02  0.00000000000E+00 0.  1.
         14    1    4    4    0    0 -0.20790819086E+02 -0.90642496533E+02  0.11568459309E+03  0.14842926064E+03  0.00000000000E+00 0. -1.
          5    1    3    3  501    0  0.75935906222E+02 -0.11211526794E+03 -0.94744119344E+02  0.16533188836E+03  0.47000000000E+01 0. -1.
         -5    1    3    3    0  501  0.10768024043E+03  0.11337851870E+02 -0.80851466900E+02  0.13521327880E+03  0.47000000000E+01 0. -1.
          1    1    1    2  502    0 -0.61576614461E+01 -0.27745663422E+02  0.14391146946E+03  0.14669100066E+03  0.00000000000E+00 0. -1.
          1    1    1    2  503    0 -0.93986104975E+02  0.21720581385E+03 -0.47320660313E+03  0.52909001384E+03  0.00000000000E+00 0. -1.
<mgrwt>
<rscale>  0 0.78764984E+02</rscale>
<asrwt>0</asrwt>
<pdfrwt beam="1">  1        2 0.10509647E+00 0.28420743E+02</pdfrwt>
<pdfrwt beam="2">  1        2 0.11362639E+00 0.21828854E+03</pdfrwt>
<totfact> 0.28395815E+02</totfact>
</mgrwt>
</event>
<event>
13    1  0.3019759E-008  0.2150276E+03  0.7546771E-02  0.1267002E+00
         -3   -1    0    0    0  501 -0.00000000000E+00  0.00000000000E+00  0.91256743162E+03  0.91256743162E+03  0.00000000000E+00 0.  1.
          2   -1    0    0  503    0  0.00000000000E+00 -0.00000000000E+00 -0.22935258458E+04  0.22935258458E+04  0.00000000000E+00 0. -1.
         25    2    1    2    0    0  0.24871596295E+01  0.76444740034E+02  0.30674656995E+03  0.33995184791E+03  0.12499526583E+03 0.  0.
         24    2    1    2    0    0 -0.27417970654E+02 -0.32592858127E+02 -0.11089587821E+02  0.91438245343E+02  0.80149449391E+02 0.  0.
         24    2    1    2    0    0 -0.17903196753E+03 -0.48240859282E+02  0.26694016747E+02  0.20606348115E+03  0.85848481824E+02 0.  0.
        -13    1    5    5    0    0 -0.43854671482E+01  0.11532821863E+02  0.17277947638E+02  0.21231245296E+02  0.00000000000E+00 0.  1.
         14    1    5    5    0    0 -0.17464650038E+03 -0.59773681146E+02  0.94160691094E+01  0.18483223585E+03  0.00000000000E+00 0. -1.
        -13    1    4    4    0    0  0.25526904613E+01  0.24640342599E+02 -0.10299037281E+02  0.26827837798E+02  0.00000000000E+00 0.  1.
         14    1    4    4    0    0 -0.29970661116E+02 -0.57233200726E+02 -0.79055053996E+00  0.64610407545E+02  0.00000000000E+00 0. -1.
          5    1    3    3  502    0 -0.43440683456E+02  0.54073201490E+02  0.26452942679E+03  0.27351217840E+03  0.47000000000E+01 0.  1.
         -5    1    3    3    0  502  0.45927843085E+02  0.22371538544E+02  0.42217143164E+02  0.66439669507E+02  0.47000000000E+01 0.  1.
          1    1    1    2  503    0  0.21209026821E+03 -0.47827710551E+02 -0.21288032013E+04  0.21398768286E+04  0.00000000000E+00 0. -1.
         -4    1    1    2    0  501 -0.81274896585E+01  0.52216687927E+02  0.42549378827E+03  0.42876287438E+03  0.00000000000E+00 0.  1.
<mgrwt>
<rscale>  0 0.10659843E+03</rscale>
<asrwt>0</asrwt>
<pdfrwt beam="2">  1        2 0.33728321E+00 0.21502762E+03</pdfrwt>
<pdfrwt beam="1">  1       -3 0.13420109E+00 0.52845422E+02</pdfrwt>
<totfact> 0.16896268E+00</totfact>
</mgrwt>
</event>
<event>
13    1  0.3019759E-008  0.1352687E+03  0.7546771E-02  0.1241690E+00
          2   -1    0    0  502    0  0.00000000000E+00  0.00000000000E+00  0.47911447877E+03  0.47911447877E+03  0.00000000000E+00 0. -1.
          2   -1    0    0  503    0 -0.00000000000E+00 -0.00000000000E+00 -0.28898622369E+04  0.28898622369E+04  0.00000000000E+00 0. -1.
         25    2    1    2    0    0 -0.20365056904E+03  0.17746464798E+03 -0.13493472436E+04  0.13817830516E+04  0.12497664751E+03 0.  0.
         24    2    1    2    0    0  0.17823810999E+03 -0.19644573962E+03 -0.20442666042E+03  0.34425176440E+03  0.79745001915E+02 0.  0.
         24    2    1    2    0    0  0.10467357347E+03  0.17916269599E+03 -0.11017262560E+03  0.25033047078E+03  0.86437888401E+02 0.  0.
        -11    1    5    5    0    0  0.69579405556E+02  0.16524665032E+03 -0.11386433453E+03  0.21239782437E+03  0.00000000000E+00 0.  1.
         12    1    5    5    0    0  0.35094167917E+02  0.13916045668E+02  0.36917089258E+01  0.37932646410E+02  0.00000000000E+00 0. -1.
        -13    1    4    4    0    0  0.13056597795E+03 -0.13175862994E+03 -0.94758853281E+02  0.20829558670E+03  0.00000000000E+00 0.  1.
         14    1    4    4    0    0  0.47672132041E+02 -0.64687109683E+02 -0.10966780714E+03  0.13595617770E+03  0.00000000000E+00 0. -1.
          5    1    3    3  501    0 -0.19674948204E+03  0.19307690559E+03 -0.11933224821E+04  0.12247569907E+04  0.47000000000E+01 0.  1.
         -5    1    3    3    0  501 -0.69010870052E+01 -0.15612257612E+02 -0.15602476155E+03  0.15702606092E+03  0.47000000000E+01 0.  1.
          1    1    1    2  502    0  0.25200157721E+02 -0.13283944479E+03  0.30586732633E+03  0.33441917911E+03  0.00000000000E+00 0. -1.
          1    1    1    2  503    0 -0.10446127214E+03 -0.27342159552E+02 -0.10526685549E+04  0.10581922498E+04  0.00000000000E+00 0. -1.
<mgrwt>
<rscale>  0 0.12085679E+03</rscale>
<asrwt>0</asrwt>
<pdfrwt beam="1">  1        2 0.70458011E-01 0.13526874E+03</pdfrwt>
<pdfrwt beam="2">  1        2 0.42497975E+00 0.10798033E+03</pdfrwt>
<totfact> 0.35205330E+01</totfact>
</mgrwt>
</event>
<event>
13    1  0.3019759E-008  0.7334095E+02  0.7546771E-02  0.1411262E+00
          2   -1    0    0  502    0  0.00000000000E+00  0.00000000000E+00  0.13321711993E+04  0.13321711993E+04  0.00000000000E+00 0. -1.
          2   -1    0    0  503    0 -0.00000000000E+00 -0.00000000000E+00 -0.67507286366E+03  0.67507286366E+03  0.00000000000E+00 0. -1.
         25    2    1    2    0    0 -0.12231476354E+03  0.17652220945E+03  0.56039095308E+02  0.25474271722E+03  0.12502991627E+03 0.  0.
         24    2    1    2    0    0 -0.72459951832E+02 -0.18599357206E+03 -0.67612413830E+01  0.21532585571E+03  0.80470219867E+02 0.  0.
         24    2    1    2    0    0  0.10798009358E+03 -0.38029836649E+02  0.44245137836E+03  0.46390404723E+03  0.79610135915E+02 0.  0.
        -11    1    4    4    0    0 -0.51981712094E+02 -0.18757735407E+03 -0.49980371521E+01  0.19471092041E+03  0.00000000000E+00 0.  1.
         12    1    4    4    0    0 -0.20478239738E+02  0.15837820101E+01 -0.17632042309E+01  0.20614935299E+02  0.00000000000E+00 0. -1.
        -11    1    5    5    0    0  0.26951432748E+02 -0.39470382811E+02  0.25865826370E+03  0.26303685716E+03  0.00000000000E+00 0.  1.
         12    1    5    5    0    0  0.81028660830E+02  0.14405461623E+01  0.18379311466E+03  0.20086719007E+03  0.00000000000E+00 0. -1.
          5    1    3    3  501    0 -0.13332360820E+03  0.18555526860E+03  0.38648665583E+02  0.23177953223E+03  0.47000000000E+01 0. -1.
         -5    1    3    3    0  501  0.11008844665E+02 -0.90330591511E+01  0.17390429725E+02  0.22963184982E+02  0.47000000000E+01 0. -1.
          1    1    1    2  502    0  0.72963921403E+02  0.55574342551E+01  0.61607564408E+03  0.62040617190E+03  0.00000000000E+00 0. -1.
          1    1    1    2  503    0  0.13830700391E+02  0.41943765002E+02 -0.45070654075E+03  0.45286527088E+03  0.00000000000E+00 0. -1.
<mgrwt>
<rscale>  0 0.56913268E+02</rscale>
<asrwt>0</asrwt>
<pdfrwt beam="1">  1        2 0.19590753E+00 0.73340950E+02</pdfrwt>
<pdfrwt beam="2">  1        2 0.99275421E-01 0.44165232E+02</pdfrwt>
<totfact> 0.15007689E+02</totfact>
</mgrwt>
</event>
<event>
13    1  0.3019759E-008  0.7229541E+02  0.7546771E-02  0.1398821E+00
          2   -1    0    0  503    0  0.00000000000E+00  0.00000000000E+00  0.17090974289E+03  0.17090974289E+03  0.00000000000E+00 0. -1.
         -3   -1    0    0    0  501 -0.00000000000E+00 -0.00000000000E+00 -0.60176900302E+03  0.60176900302E+03  0.00000000000E+00 0.  1.
         25    2    1    2    0    0  0.11112532447E+02 -0.50722713470E+02 -0.28061872828E+03  0.31156411435E+03  0.12501617755E+03 0.  0.
         24    2    1    2    0    0  0.34199742631E+02  0.60491720576E+01 -0.74979417603E+02  0.11633678023E+03  0.81890893821E+02 0.  0.
         24    2    1    2    0    0  0.17533212452E+02  0.27500094355E+02 -0.77146756480E+02  0.11714171438E+03  0.81895607227E+02 0.  0.
        -13    1    4    4    0    0  0.45128236779E+02 -0.23152159008E+02 -0.67215916759E+02  0.84205461149E+02  0.00000000000E+00 0.  1.
         14    1    4    4    0    0 -0.10928494148E+02  0.29201331066E+02 -0.77635008434E+01  0.32131319078E+02  0.00000000000E+00 0. -1.
        -13    1    5    5    0    0  0.30089327053E+02 -0.13535792660E+02 -0.64424658775E+02  0.72381779087E+02  0.00000000000E+00 0.  1.
         14    1    5    5    0    0 -0.12556114602E+02  0.41035887016E+02 -0.12722097705E+02  0.44759935289E+02  0.00000000000E+00 0. -1.
          5    1    3    3  502    0 -0.87809208176E+01 -0.70632476992E+02 -0.73257385203E+02  0.10224864724E+03  0.47000000000E+01 0.  1.
         -5    1    3    3    0  502  0.19893453265E+02  0.19909763523E+02 -0.20736134308E+03  0.20931546711E+03  0.47000000000E+01 0.  1.
          1    1    1    2  503    0 -0.18340556596E+02 -0.45875729423E+02  0.94769522298E+02  0.10687479087E+03  0.00000000000E+00 0. -1.
         -4    1    1    2    0  501 -0.44504930934E+02  0.63049176480E+02 -0.92883880069E+02  0.12076134609E+03  0.00000000000E+00 0.  1.
<mgrwt>
<rscale>  0 0.59764799E+02</rscale>
<asrwt>0</asrwt>
<pdfrwt beam="1">  1        2 0.25133785E-01 0.49406058E+02</pdfrwt>
<pdfrwt beam="2">  1       -3 0.88495443E-01 0.72295410E+02</pdfrwt>
<totfact> 0.14595649E+02</totfact>
</mgrwt>
</event>
<event>
13    1  0.3019759E-008  0.1182764E+03  0.7546771E-02  0.1382238E+00
          2   -1    0    0  503    0  0.00000000000E+00  0.00000000000E+00  0.21624654325E+04  0.21624654325E+04  0.00000000000E+00 0. -1.
          2   -1    0    0  502    0 -0.00000000000E+00 -0.00000000000E+00 -0.13029935064E+04  0.13029935064E+04  0.00000000000E+00 0. -1.
         25    2    1    2    0    0 -0.25420379503E+02  0.52980901163E+02 -0.38498611461E+03  0.40901170048E+03  0.12499236418E+03 0.  0.
         24    2    1    2    0    0 -0.67052816662E+02  0.72504057521E+02  0.82285800321E+01  0.12797241149E+03  0.80971044164E+02 0.  0.
         24    2    1    2    0    0 -0.23293696873E+02 -0.13781570624E+02  0.20556669862E+03  0.22223706912E+03  0.79994495479E+02 0.  0.
        -11    1    4    4    0    0 -0.36201896520E+02  0.77078214820E+02 -0.18214927055E+02  0.87082788651E+02  0.00000000000E+00 0.  1.
         12    1    4    4    0    0 -0.30850920141E+02 -0.45741572996E+01  0.26443507087E+02  0.40889622836E+02  0.00000000000E+00 0. -1.
        -13    1    5    5    0    0 -0.52183972624E+02  0.93492623787E-01  0.11952043889E+03  0.13041591564E+03  0.00000000000E+00 0.  1.
         14    1    5    5    0    0  0.28890275751E+02 -0.13875063248E+02  0.86046259727E+02  0.91821153478E+02  0.00000000000E+00 0. -1.
          5    1    3    3  501    0  0.23507114841E+02  0.41718212305E+02 -0.33346965848E+03  0.33692298350E+03  0.47000000000E+01 0.  1.
         -5    1    3    3    0  501 -0.48927494344E+02  0.11262688858E+02 -0.51516456133E+02  0.72088716978E+02  0.47000000000E+01 0.  1.
          1    1    1    2  502    0  0.20496233343E+02  0.27751723025E+02 -0.83361340328E+03  0.83432701013E+03  0.00000000000E+00 0. -1.
          1    1    1    2  503    0  0.95270659694E+02 -0.13945511108E+03  0.18642761654E+04  0.18719107477E+04  0.00000000000E+00 0. -1.
<mgrwt>
<rscale>  0 0.63879112E+02</rscale>
<asrwt>0</asrwt>
<pdfrwt beam="1">  1        2 0.31800962E+00 0.11827636E+03</pdfrwt>
<pdfrwt beam="2">  1        2 0.19161669E+00 0.34500054E+02</pdfrwt>
<totfact> 0.25339475E+01</totfact>
</mgrwt>
</event>
<event>
13    1  0.3019759E-008  0.5195693E+02  0.7546771E-02  0.1673588E+00
          2   -1    0    0  503    0  0.00000000000E+00  0.00000000000E+00  0.22169246639E+04  0.22169246639E+04  0.00000000000E+00 0. -1.
         -1   -1    0    0    0  501 -0.00000000000E+00 -0.00000000000E+00 -0.78603630388E+03  0.78603630388E+03  0.00000000000E+00 0.  1.
         25    2    1    2    0    0  0.77670944834E+01  0.10060685961E+03  0.14927753641E+03  0.21929720610E+03  0.12500165506E+03 0.  0.
         24    2    1    2    0    0  0.21382252919E+02 -0.23218031956E+02  0.28773952857E+03  0.30076145227E+03  0.81652538979E+02 0.  0.
         24    2    1    2    0    0  0.74420018682E+00 -0.25403433720E+02  0.26733335356E+03  0.28076543899E+03  0.81952556559E+02 0.  0.
        -11    1    4    4    0    0  0.40651139447E+02  0.38343775893E+01  0.23437614216E+03  0.23790627062E+03  0.00000000000E+00 0.  1.
         12    1    4    4    0    0 -0.19268886528E+02 -0.27052409545E+02  0.53363386414E+02  0.62855181646E+02  0.00000000000E+00 0. -1.
        -13    1    5    5    0    0 -0.13033848961E+02  0.27720261800E+02  0.84958761643E+02  0.90312154846E+02  0.00000000000E+00 0.  1.
         14    1    5    5    0    0  0.13778049148E+02 -0.53123695520E+02  0.18237459192E+03  0.19045328415E+03  0.00000000000E+00 0. -1.
          5    1    3    3  502    0 -0.23088609830E+02  0.11852274333E+03  0.92951600909E+02  0.15245594348E+03  0.47000000000E+01 0.  1.
         -5    1    3    3    0  502  0.30855704314E+02 -0.17915883719E+02  0.56325935503E+02  0.66841262619E+02  0.47000000000E+01 0.  1.
          1    1    1    2  503    0 -0.19351198219E+02 -0.48142484206E+02  0.14638350800E+04  0.14647543512E+04  0.00000000000E+00 0. -1.
         -2    1    1    2    0  501 -0.10542349371E+02 -0.38429097269E+01 -0.73729713860E+03  0.73738251924E+03  0.00000000000E+00 0.  1.
<mgrwt>
<rscale>  0 0.24145489E+02</rscale>
<asrwt>0</asrwt>
<pdfrwt beam="1">  1        2 0.32601833E+00 0.51956929E+02</pdfrwt>
<pdfrwt beam="2">  1       -1 0.11559357E+00 0.11220922E+02</pdfrwt>
<totfact> 0.76122438E+00</totfact>
</mgrwt>
</event>
<event>
13    1  0.3019759E-008  0.5894270E+02  0.7546771E-02  0.1557063E+00
          2   -1    0    0  502    0  0.00000000000E+00  0.00000000000E+00  0.19953705103E+04  0.19953705103E+04  0.00000000000E+00 0. -1.
          2   -1    0    0  503    0 -0.00000000000E+00 -0.00000000000E+00 -0.21802017622E+04  0.21802017622E+04  0.00000000000E+00 0. -1.
         25    2    1    2    0    0  0.65654285566E+03 -0.38355190574E+03 -0.61248170168E+03  0.98433695512E+03  0.12499928243E+03 0.  0.
         24    2    1    2    0    0 -0.96636277990E+03 -0.21302960588E+02 -0.30328928946E+03  0.10164676598E+04  0.83134058711E+02 0.  0.
         24    2    1    2    0    0  0.25044094404E+03  0.39408823886E+03  0.50058481820E+03  0.68927774019E+03  0.80575656720E+02 0.  0.
        -11    1    5    5    0    0  0.16454840067E+03  0.18875576913E+03  0.24435932147E+03  0.34988054323E+03  0.00000000000E+00 0.  1.
         12    1    5    5    0    0  0.85892543371E+02  0.20533246973E+03  0.25622549673E+03  0.33939719696E+03  0.00000000000E+00 0. -1.
        -13    1    4    4    0    0 -0.84986356007E+03 -0.50419657221E+01 -0.29045393870E+03  0.89814084790E+03  0.00000000000E+00 0.  1.
         14    1    4    4    0    0 -0.11649921983E+03 -0.16260994865E+02 -0.12835350756E+02  0.11832681186E+03  0.00000000000E+00 0. -1.
          5    1    3    3  501    0  0.48942274349E+03 -0.30551958552E+03 -0.52527775353E+03  0.78026639511E+03  0.47000000000E+01 0.  1.
         -5    1    3    3    0  501  0.16712011217E+03 -0.78032320224E+02 -0.87203948149E+02  0.20407056001E+03  0.47000000000E+01 0.  1.
          1    1    1    2  502    0  0.79388818852E+01 -0.18015751372E+02  0.85642492418E+03  0.85665117982E+03  0.00000000000E+00 0. -1.
          1    1    1    2  503    0  0.51440098321E+02  0.28782378849E+02 -0.62607000312E+03  0.62883873756E+03  0.00000000000E+00 0. -1.
<mgrwt>
<rscale>  0 0.34065050E+02</rscale>
<asrwt>0</asrwt>
<pdfrwt beam="1">  1        2 0.29343684E+00 0.19687385E+02</pdfrwt>
<pdfrwt beam="2">  1        2 0.32061790E+00 0.58942699E+02</pdfrwt>
<totfact> 0.13786405E+01</totfact>
</mgrwt>
</event>
<event>
13    1  0.3019759E-008  0.3687215E+02  0.7546771E-02  0.1581958E+00
          2   -1    0    0  503    0  0.00000000000E+00  0.00000000000E+00  0.23319649085E+04  0.23319649085E+04  0.00000000000E+00 0. -1.
          2   -1    0    0  502    0 -0.00000000000E+00 -0.00000000000E+00 -0.20827903567E+04  0.20827903567E+04  0.00000000000E+00 0. -1.
         25    2    1    2    0    0 -0.15710096596E+03  0.11842534829E+02 -0.83629919089E+03  0.86014052297E+03  0.12499769375E+03 0.  0.
         24    2    1    2    0    0  0.16612734175E+03  0.36036393621E+02  0.19231758032E+03  0.26849610778E+03  0.78785740138E+02 0.  0.
         24    2    1    2    0    0 -0.38596816183E+02 -0.87687054193E+02  0.16701195440E+04  0.16748299806E+04  0.81101411864E+02 0.  0.
        -13    1    4    4    0    0  0.15906041390E+03  0.32820164300E+02  0.19995626924E+03  0.25760413052E+03  0.00000000000E+00 0.  1.
         14    1    4    4    0    0  0.70669278475E+01  0.32162293209E+01 -0.76386889130E+01  0.10891977257E+02  0.00000000000E+00 0. -1.
        -13    1    5    5    0    0  0.23995782464E+02 -0.34689489961E+02  0.45765003685E+03  0.45958972413E+03  0.00000000000E+00 0.  1.
         14    1    5    5    0    0 -0.62592598647E+02 -0.52997564231E+02  0.12124695072E+04  0.12152402565E+04  0.00000000000E+00 0. -1.
          5    1    3    3  501    0  0.18001832623E+02 -0.14986501591E+02 -0.96423878875E+02  0.99339396138E+02  0.47000000000E+01 0.  1.
         -5    1    3    3    0  501 -0.17510279859E+03  0.26829036420E+02 -0.73987531201E+03  0.76080112683E+03  0.47000000000E+01 0.  1.
          1    1    1    2  502    0 -0.48102174993E+01  0.26497154565E+02 -0.11931592256E+04  0.11934631017E+04  0.00000000000E+00 0. -1.
          1    1    1    2  503    0  0.34380657897E+02  0.13310971177E+02  0.41619584391E+03  0.41782555221E+03  0.00000000000E+00 0. -1.
<mgrwt>
<rscale>  0 0.31511514E+02</rscale>
<asrwt>0</asrwt>
<pdfrwt beam="1">  1        2 0.34293602E+00 0.36872150E+02</pdfrwt>
<pdfrwt beam="2">  1        2 0.30629270E+00 0.26930232E+02</pdfrwt>
<totfact> 0.10923473E+01</totfact>
</mgrwt>
</event>
<event>
13    1  0.3019759E-008  0.5493384E+02  0.7546771E-02  0.1557181E+00
          2   -1    0    0  502    0  0.00000000000E+00  0.00000000000E+00  0.72813172264E+03  0.72813172264E+03  0.00000000000E+00 0. -1.
          2   -1    0    0  503    0 -0.00000000000E+00 -0.00000000000E+00 -0.26022576377E+04  0.26022576377E+04  0.00000000000E+00 0. -1.
         25    2    1    2    0    0  0.10241684208E+03  0.48285243511E+01 -0.36721584138E+03  0.40122999121E+03  0.12500202997E+03 0.  0.
         24    2    1    2    0    0 -0.62232681109E+02 -0.48640856986E+02 -0.11050446942E+03  0.15747322648E+03  0.79672703785E+02 0.  0.
         24    2    1    2    0    0 -0.11143338837E+03  0.40294703561E+02  0.33808037193E+03  0.36740303193E+03  0.81520468649E+02 0.  0.
        -11    1    4    4    0    0 -0.61367655962E+02 -0.27007645375E+02 -0.28839585006E+02  0.72987147980E+02  0.00000000000E+00 0.  1.
         12    1    4    4    0    0 -0.86502514700E+00 -0.21633211611E+02 -0.81664884414E+02  0.84486078495E+02  0.00000000000E+00 0. -1.
        -13    1    5    5    0    0 -0.83545342212E+02 -0.48448971564E+00  0.13805296850E+03  0.16136505522E+03  0.00000000000E+00 0.  1.
         14    1    5    5    0    0 -0.27888046162E+02  0.40779193277E+02  0.20002740343E+03  0.20603797671E+03  0.00000000000E+00 0. -1.
          5    1    3    3  501    0  0.27030227130E+02 -0.19944827394E+02 -0.10124890686E+02  0.35398202353E+02  0.47000000000E+01 0.  1.
         -5    1    3    3    0  501  0.75386614950E+02  0.24773351745E+02 -0.35709095070E+03  0.36583178886E+03  0.47000000000E+01 0.  1.
          1    1    1    2  502    0  0.17057674866E+02  0.12433644118E+02  0.33420115220E+03  0.33486709290E+03  0.00000000000E+00 0. -1.
          1    1    1    2  503    0  0.54191552538E+02 -0.89160150442E+01 -0.20686871284E+04  0.20694160178E+04  0.00000000000E+00 0. -1.
<mgrwt>
<rscale>  0 0.34052301E+02</rscale>
<asrwt>0</asrwt>
<pdfrwt beam="1">  1        2 0.10707820E+00 0.21108287E+02</pdfrwt>
<pdfrwt beam="2">  1        2 0.38268494E+00 0.54933838E+02</pdfrwt>
<totfact> 0.35837865E+01</totfact>
</mgrwt>
</event>
<event>
13    1  0.3019759E-008  0.1362587E+03  0.7546771E-02  0.1472493E+00
         -1   -1    0    0    0  501 -0.00000000000E+00  0.00000000000E+00  0.49840638598E+03  0.49840638598E+03  0.00000000000E+00 0.  1.
          2   -1    0    0  503    0  0.00000000000E+00 -0.00000000000E+00 -0.21231828547E+04  0.21231828547E+04  0.00000000000E+00 0. -1.
         25    2    1    2    0    0  0.14193239049E+03  0.20285886008E+02 -0.11262417184E+03  0.22106036256E+03  0.12500863639E+03 0.  0.
         24    2    1    2    0    0 -0.72303191262E+00  0.32604918530E+02 -0.13781592903E+03  0.16264973817E+03  0.79988146278E+02 0.  0.
         24    2    1    2    0    0 -0.74588216425E+02  0.51203363874E+02 -0.28669255815E+03  0.31299935235E+03  0.87125112170E+02 0.  0.
        -11    1    4    4    0    0  0.14935267976E+01 -0.17768645308E+02 -0.22036134366E+01  0.17966949951E+02  0.00000000000E+00 0.  1.
         12    1    4    4    0    0 -0.22165587102E+01  0.50373563838E+02 -0.13561231559E+03  0.14468278822E+03  0.00000000000E+00 0. -1.
        -13    1    5    5    0    0 -0.18293131325E+02  0.65090048634E+02 -0.15610702814E+03  0.17011983223E+03  0.00000000000E+00 0.  1.
         14    1    5    5    0    0 -0.56295085100E+02 -0.13886684760E+02 -0.13058553001E+03  0.14287952012E+03  0.00000000000E+00 0. -1.
          5    1    3    3  502    0  0.27237178534E+02 -0.24430446176E+02  0.18393853874E+02  0.41220558647E+02  0.47000000000E+01 0.  1.
         -5    1    3    3    0  502  0.11469521196E+03  0.44716332184E+02 -0.13101802571E+03  0.17983980391E+03  0.47000000000E+01 0.  1.
          1    1    1    2  503    0 -0.74445840240E+02 -0.11696020034E+03 -0.15029347202E+04  0.15093159526E+04  0.00000000000E+00 0. -1.
         -2    1    1    2    0  501  0.78246980866E+01  0.12866031932E+02  0.41529091046E+03  0.41556383503E+03  0.00000000000E+00 0.  1.
<mgrwt>
<rscale>  0 0.45297479E+02</rscale>
<asrwt>0</asrwt>
<pdfrwt beam="2">  1        2 0.31223276E+00 0.13625868E+03</pdfrwt>
<pdfrwt beam="1">  1       -1 0.73295059E-01 0.15058575E+02</pdfrwt>
<totfact> 0.18579981E+01</totfact>
</mgrwt>
</event>
<event>
13    1  0.3019759E-008  0.7515559E+02  0.7546771E-02  0.1405811E+00
          2   -1    0    0  503    0  0.00000000000E+00  0.00000000000E+00  0.11888890624E+04  0.11888890624E+04  0.00000000000E+00 0. -1.
          2   -1    0    0  502    0 -0.00000000000E+00 -0.00000000000E+00 -0.95816627260E+03  0.95816627260E+03  0.00000000000E+00 0. -1.
         25    2    1    2    0    0 -0.24627994078E+03 -0.17658694745E+03 -0.31944002414E+03  0.45771907674E+03  0.12501225918E+03 0.  0.
         24    2    1    2    0    0  0.12818571154E+03  0.22533674025E+03 -0.29517741128E+02  0.27307645997E+03  0.80568187273E+02 0.  0.
         24    2    1    2    0    0  0.23748820047E+02 -0.12243495167E+03  0.60927397148E+03  0.62619855616E+03  0.73181524787E+02 0.  0.
        -13    1    5    5    0    0 -0.19915768539E+02 -0.28796742818E+02  0.24736579851E+03  0.24983140016E+03  0.00000000000E+00 0.  1.
         14    1    5    5    0    0  0.43664588586E+02 -0.93638208850E+02  0.36190817297E+03  0.37636715600E+03  0.00000000000E+00 0. -1.
        -13    1    4    4    0    0  0.18240919878E+02 -0.69033940456E+00  0.60354093907E+01  0.19225865208E+02  0.00000000000E+00 0.  1.
         14    1    4    4    0    0  0.10994479167E+03  0.22602707965E+03 -0.35553150519E+02  0.25385059476E+03  0.00000000000E+00 0. -1.
          5    1    3    3  501    0 -0.20238419891E+03 -0.13749762546E+03 -0.17254395395E+03  0.29943023732E+03  0.47000000000E+01 0.  1.
         -5    1    3    3    0  501 -0.43895741874E+02 -0.39089321992E+02 -0.14689607018E+03  0.15828883942E+03  0.47000000000E+01 0.  1.
          1    1    1    2  502    0  0.36990500045E+02  0.25583230222E+02 -0.40488589405E+03  0.40737622164E+03  0.00000000000E+00 0. -1.
          1    1    1    2  503    0  0.57354909146E+02  0.48101928651E+02  0.37529247767E+03  0.38268502053E+03  0.00000000000E+00 0. -1.
<mgrwt>
<rscale>  0 0.58139168E+02</rscale>
<asrwt>0</asrwt>
<pdfrwt beam="1">  1        2 0.17483663E+00 0.75155588E+02</pdfrwt>
<pdfrwt beam="2">  1        2 0.14090681E+00 0.44975535E+02</pdfrwt>
<totfact> 0.11792694E+02</totfact>
</mgrwt>
</event>
<event>
13    1  0.3019759E-008  0.6234212E+02  0.7546771E-02  0.1529378E+00
          2   -1    0    0  503    0  0.00000000000E+00  0.00000000000E+00  0.22316644481E+04  0.22316644481E+04  0.00000000000E+00 0. -1.
          2   -1    0    0  502    0 -0.00000000000E+00 -0.00000000000E+00 -0.34228788819E+04  0.34228788819E+04  0.00000000000E+00 0. -1.
         25    2    1    2    0    0  0.90835723224E+02  0.17053348465E+02  0.15936675364E+02  0.15626714837E+03  0.12499399477E+03 0.  0.
         24    2    1    2    0    0 -0.53435857550E+02  0.14794612082E+02  0.13203184947E+03  0.16482216055E+03  0.81606763903E+02 0.  0.
         24    2    1    2    0    0  0.36485716618E+02 -0.19076056368E+02  0.21806842310E+03  0.23645215986E+03  0.81613009399E+02 0.  0.
        -11    1    5    5    0    0 -0.83948367946E+01 -0.30555547734E+02  0.33310492496E+02  0.45975033360E+02  0.00000000000E+00 0.  1.
         12    1    5    5    0    0  0.44880553412E+02  0.11479491367E+02  0.18475793060E+03  0.19047712650E+03  0.00000000000E+00 0. -1.
        -11    1    4    4    0    0 -0.23891837885E+01 -0.22644556481E+02  0.56325576782E+01  0.23456552248E+02  0.00000000000E+00 0.  1.
         12    1    4    4    0    0 -0.51046673762E+02  0.37439168563E+02  0.12639929179E+03  0.14136560830E+03  0.00000000000E+00 0. -1.
          5    1    3    3  501    0  0.92710411873E+02  0.35283685379E+02  0.54523304947E+02  0.11329183424E+03  0.47000000000E+01 0. -1.
         -5    1    3    3    0  501 -0.18746886490E+01 -0.18230336914E+02 -0.38586629583E+02  0.42975314125E+02  0.47000000000E+01 0. -1.
          1    1    1    2  502    0 -0.56394263279E+02 -0.26560175316E+02 -0.33267645582E+04  0.33273485212E+04  0.00000000000E+00 0. -1.
          1    1    1    2  503    0 -0.17491319012E+02  0.13788271137E+02  0.17695131764E+04  0.17696533401E+04  0.00000000000E+00 0. -1.
<mgrwt>
<rscale>  0 0.37262751E+02</rscale>
<asrwt>0</asrwt>
<pdfrwt beam="1">  1        2 0.32818595E+00 0.22272464E+02</pdfrwt>
<pdfrwt beam="2">  1        2 0.50336453E+00 0.62342119E+02</pdfrwt>
<totfact> 0.24537084E+00</totfact>
</mgrwt>
</event>
<event>
13    1  0.3019759E-008  0.7005989E+02  0.7546771E-02  0.1542737E+00
          2   -1    0    0  502    0  0.00000000000E+00  0.00000000000E+00  0.35224464837E+04  0.35224464837E+04  0.00000000000E+00 0. -1.
          2   -1    0    0  503    0 -0.00000000000E+00 -0.00000000000E+00 -0.38328264556E+03  0.38328264556E+03  0.00000000000E+00 0. -1.
         25    2    1    2    0    0  0.10109868507E+03 -0.11507427210E+03  0.12796718335E+01  0.19771076648E+03  0.12499950960E+03 0.  0.
         24    2    1    2    0    0  0.34415786391E+01  0.13964127337E+03  0.66118739575E+03  0.68008087723E+03  0.76352456306E+02 0.  0.
         24    2    1    2    0    0 -0.30904996664E+02 -0.19129464583E+02  0.36586916225E+03  0.37634779867E+03  0.80351517976E+02 0.  0.
        -11    1    4    4    0    0 -0.51973398720E+01  0.10574943073E+03  0.60273467766E+03  0.61196327186E+03  0.00000000000E+00 0.  1.
         12    1    4    4    0    0  0.86389185111E+01  0.33891842634E+02  0.58452718082E+02  0.68117605370E+02  0.00000000000E+00 0. -1.
        -13    1    5    5    0    0 -0.18252955873E+01  0.30432873094E+02  0.11395862074E+03  0.11796634567E+03  0.00000000000E+00 0.  1.
         14    1    5    5    0    0 -0.29079701077E+02 -0.49562337677E+02  0.25191054150E+03  0.25838145300E+03  0.00000000000E+00 0. -1.
          5    1    3    3  501    0  0.36556344065E+02 -0.80885412923E+01  0.50753219884E+02  0.63243735818E+02  0.47000000000E+01 0. -1.
         -5    1    3    3    0  501  0.64542341007E+02 -0.10698573080E+03 -0.49473548050E+02  0.13446703066E+03  0.47000000000E+01 0. -1.
          1    1    1    2  502    0 -0.68996462627E+02  0.12120010538E+02  0.23803878499E+04  0.23814184266E+04  0.00000000000E+00 0. -1.
          1    1    1    2  503    0 -0.46388044201E+01 -0.17557547226E+02 -0.26956024167E+03  0.27017126024E+03  0.00000000000E+00 0. -1.
<mgrwt>
<rscale>  0 0.35669150E+02</rscale>
<asrwt>0</asrwt>
<pdfrwt beam="1">  1        2 0.51800682E+00 0.70059889E+02</pdfrwt>
<pdfrwt beam="2">  1        2 0.56365097E-01 0.18160010E+02</pdfrwt>
<totfact> 0.21376164E+01</totfact>
</mgrwt>
</event>
<event>
13    1  0.3019759E-008  0.9862836E+02  0.7546771E-02  0.1365720E+00
          2   -1    0    0  502    0  0.00000000000E+00  0.00000000000E+00  0.16223568334E+04  0.16223568334E+04  0.00000000000E+00 0. -1.
          2   -1    0    0  503    0 -0.00000000000E+00 -0.00000000000E+00 -0.83478721734E+03  0.83478721734E+03  0.00000000000E+00 0. -1.
         25    2    1    2    0    0  0.83648639605E+01 -0.14556449322E+03 -0.43739412196E+03  0.47770189076E+03  0.12500594338E+03 0.  0.
         24    2    1    2    0    0 -0.14222365958E+03  0.68347689974E+02  0.27412231665E+02  0.17810884730E+03  0.77925316617E+02 0.  0.
         24    2    1    2    0    0 -0.15279543546E+01  0.45404684853E+02  0.93436434541E+02  0.12613676619E+03  0.71527592112E+02 0.  0.
        -11    1    4    4    0    0  0.48904865385E+01 -0.42064239898E+01 -0.80208482582E+01  0.10292952353E+02  0.00000000000E+00 0.  1.
         12    1    4    4    0    0 -0.14711414612E+03  0.72554113964E+02  0.35433079923E+02  0.16781589494E+03  0.00000000000E+00 0. -1.
        -11    1    5    5    0    0  0.32823185011E+02  0.30681355304E+02  0.65706862624E+02  0.79599615787E+02  0.00000000000E+00 0.  1.
         12    1    5    5    0    0 -0.34351139365E+02  0.14723329549E+02  0.27729571917E+02  0.46537150401E+02  0.00000000000E+00 0. -1.
          5    1    3    3  501    0  0.12376628537E+02  0.20238603393E+02 -0.36012863742E+02  0.43379699816E+02  0.47000000000E+01 0. -1.
         -5    1    3    3    0  501 -0.40117645770E+01 -0.16580309662E+03 -0.40138125822E+03  0.43432219095E+03  0.47000000000E+01 0. -1.
          1    1    1    2  502    0  0.87990145793E+02  0.31971728116E+02  0.13860990432E+04  0.13892570010E+04  0.00000000000E+00 0. -1.
          1    1    1    2  503    0  0.47396604186E+02 -0.15960972039E+00 -0.28198397140E+03  0.28593954552E+03  0.00000000000E+00 0. -1.
<mgrwt>
<rscale>  0 0.68371602E+02</rscale>
<asrwt>0</asrwt>
<pdfrwt beam="1">  1        2 0.23858189E+00 0.98628362E+02</pdfrwt>
<pdfrwt beam="2">  1        2 0.12276283E+00 0.47396873E+02</pdfrwt>
<totfact> 0.82640848E+01</totfact>
</mgrwt>
</event>
<event>
13    1  0.3019759E-008  0.7437055E+02  0.7546771E-02  0.1578883E+00
          2   -1    0    0  503    0  0.00000000000E+00  0.00000000000E+00  0.19424365947E+04  0.19424365947E+04  0.00000000000E+00 0. -1.
          2   -1    0    0  502    0 -0.00000000000E+00 -0.00000000000E+00 -0.14044379979E+04  0.14044379979E+04  0.00000000000E+00 0. -1.
         25    2    1    2    0    0 -0.38824833663E+02 -0.10095835944E+02 -0.11369369536E+04  0.11444895349E+04  0.12498546078E+03 0.  0.
         24    2    1    2    0    0  0.93139984556E+01  0.77818801030E+02 -0.23451417068E+02  0.11581273963E+03  0.81976248618E+02 0.  0.
         24    2    1    2    0    0  0.34894162283E+02  0.25758223370E+02  0.41122735385E+03  0.41670295587E+03  0.51500759621E+02 0.  0.
        -11    1    5    5    0    0  0.15887189197E+02  0.39459477146E+02  0.22279433170E+03  0.22681879851E+03  0.00000000000E+00 0.  1.
         12    1    5    5    0    0  0.19006973087E+02 -0.13701253776E+02  0.18843302215E+03  0.18988415736E+03  0.00000000000E+00 0. -1.
        -11    1    4    4    0    0  0.45274964181E+02  0.37204937030E+02 -0.63976049435E+01  0.58948783448E+02  0.00000000000E+00 0.  1.
         12    1    4    4    0    0 -0.35960965725E+02  0.40613863999E+02 -0.17053812125E+02  0.56863956183E+02  0.00000000000E+00 0. -1.
          5    1    3    3  501    0  0.42877369670E+02  0.46771343433E+01 -0.25751298712E+03  0.26114243806E+03  0.47000000000E+01 0. -1.
         -5    1    3    3    0  501 -0.81702203332E+02 -0.14772970287E+02 -0.87942396647E+03  0.88334709684E+03  0.47000000000E+01 0. -1.
          1    1    1    2  502    0  0.79875363660E+01  0.11016513549E+02 -0.18923361695E+03  0.18972223405E+03  0.00000000000E+00 0. -1.
          1    1    1    2  503    0 -0.13370863442E+02 -0.10449770201E+03  0.14763932305E+04  0.14801471281E+04  0.00000000000E+00 0. -1.
<mgrwt>
<rscale>  0 0.31811915E+02</rscale>
<asrwt>0</asrwt>
<pdfrwt beam="1">  1        2 0.28565244E+00 0.74370551E+02</pdfrwt>
<pdfrwt beam="2">  1        2 0.20653500E+00 0.13607509E+02</pdfrwt>
<totfact> 0.32831908E+01</totfact>
</mgrwt>
</event>
<event>
13    1  0.3019759E-008  0.5469174E+02  0.7546771E-02  0.1548757E+00
          2   -1    0    0  503    0  0.00000000000E+00  0.00000000000E+00  0.17757076728E+04  0.17757076728E+04  0.00000000000E+00 0. -1.
          2   -1    0    0  502    0 -0.00000000000E+00 -0.00000000000E+00 -0.21769277164E+04  0.21769277164E+04  0.00000000000E+00 0. -1.
         25    2    1    2    0    0  0.12704083635E+02 -0.26867645047E+03 -0.10392490044E+04  0.10807442284E+04  0.12498466058E+03 0.  0.
         24    2    1    2    0    0  0.42044813559E+02  0.78306800734E+02  0.13820456432E+03  0.18269533742E+03  0.79858395484E+02 0.  0.
         24    2    1    2    0    0 -0.96842791833E+02  0.24548208951E+03  0.13261549230E+04  0.13541489591E+04  0.73433922122E+02 0.  0.
        -13    1    4    4    0    0 -0.10336398889E+02 -0.71957042519E+01  0.41576281283E+02  0.43441989676E+02  0.00000000000E+00 0.  1.
         14    1    4    4    0    0  0.52381212448E+02  0.85502504986E+02  0.96628283036E+02  0.13925334775E+03  0.00000000000E+00 0. -1.
        -13    1    5    5    0    0 -0.32402767496E+01  0.99105263176E+02  0.42711670132E+03  0.43847580222E+03  0.00000000000E+00 0.  1.
         14    1    5    5    0    0 -0.93602515083E+02  0.14637682633E+03  0.89903822169E+03  0.91567315685E+03  0.00000000000E+00 0. -1.
          5    1    3    3  501    0 -0.14467969413E+02 -0.90425412274E+02 -0.58245261273E+03  0.58962633370E+03  0.47000000000E+01 0. -1.
         -5    1    3    3    0  501  0.27172053048E+02 -0.17825103820E+03 -0.45679639168E+03  0.49111789475E+03  0.47000000000E+01 0. -1.
          1    1    1    2  502    0  0.21959289431E+02 -0.42966009142E+01 -0.10776347546E+04  0.10778670306E+04  0.00000000000E+00 0. -1.
          1    1    1    2  503    0  0.20134605207E+02 -0.50815838855E+02  0.25130422813E+03  0.25717983373E+03  0.00000000000E+00 0. -1.
<mgrwt>
<rscale>  0 0.34982351E+02</rscale>
<asrwt>0</asrwt>
<pdfrwt beam="1">  1        2 0.26113348E+00 0.54691736E+02</pdfrwt>
<pdfrwt beam="2">  1        2 0.32013643E+00 0.22375683E+02</pdfrwt>
<totfact> 0.17576766E+01</totfact>
</mgrwt>
</event>
<event>
13    1  0.3019759E-008  0.1227129E+03  0.7546771E-02  0.1263459E+00
          2   -1    0    0  503    0  0.00000000000E+00  0.00000000000E+00  0.17342934590E+04  0.17342934590E+04  0.00000000000E+00 0. -1.
         -3   -1    0    0    0  501 -0.00000000000E+00 -0.00000000000E+00 -0.14483385122E+04  0.14483385122E+04  0.00000000000E+00 0.  1.
         25    2    1    2    0    0  0.50896446797E+02  0.58422276602E+02 -0.15489283714E+03  0.21361751087E+03  0.12504814773E+03 0.  0.
         24    2    1    2    0    0 -0.15161619299E+03  0.56823997291E+02 -0.22508355547E+03  0.29121544910E+03  0.89035915282E+02 0.  0.
         24    2    1    2    0    0 -0.56110388902E+02  0.12539608599E+01  0.31001792086E+03  0.32456888867E+03  0.77999385085E+02 0.  0.
        -11    1    4    4    0    0 -0.94669710962E+02  0.56671994733E+02 -0.20119029652E+03  0.22945937456E+03  0.00000000000E+00 0.  1.
         12    1    4    4    0    0 -0.56946482023E+02  0.15200255832E+00 -0.23893258951E+02  0.61756074543E+02  0.00000000000E+00 0. -1.
        -13    1    5    5    0    0 -0.62112768476E+02  0.23588138113E+02  0.27260699010E+03  0.28058682670E+03  0.00000000000E+00 0.  1.
         14    1    5    5    0    0  0.60023795742E+01 -0.22334177253E+02  0.37410930764E+02  0.43982061966E+02  0.00000000000E+00 0. -1.
          5    1    3    3  502    0  0.62204519132E+02 -0.20422023700E+02 -0.54068164188E+02  0.85040682212E+02  0.47000000000E+01 0. -1.
         -5    1    3    3    0  502 -0.11308072335E+02  0.78844300302E+02 -0.10082467296E+03  0.12857682865E+03  0.47000000000E+01 0. -1.
          1    1    1    2  503    0  0.70958566217E+02 -0.15908944769E+03  0.13466487708E+04  0.13578687280E+04  0.00000000000E+00 0. -1.
         -4    1    1    2    0  501  0.85871568873E+02  0.42589212933E+02 -0.99073535235E+03  0.99536139456E+03  0.00000000000E+00 0.  1.
<mgrwt>
<rscale>  0 0.10845452E+03</rscale>
<asrwt>0</asrwt>
<pdfrwt beam="1">  1        2 0.25504316E+00 0.12271293E+03</pdfrwt>
<pdfrwt beam="2">  1       -3 0.21299096E+00 0.95852842E+02</pdfrwt>
<totfact> 0.10313583E+00</totfact>
</mgrwt>
</event>
<event>
13    1  0.3019759E-008  0.8355202E+02  0.7546771E-02  0.1323913E+00
          2   -1    0    0  502    0  0.00000000000E+00  0.00000000000E+00  0.37302167432E+04  0.37302167432E+04  0.00000000000E+00 0. -1.
          2   -1    0    0  503    0 -0.00000000000E+00 -0.00000000000E+00 -0.20229990292E+04  0.20229990292E+04  0.00000000000E+00 0. -1.
         25    2    1    2    0    0  0.51174032523E+03 -0.56996746755E+03  0.32082365011E+01  0.77612940824E+03  0.12500196402E+03 0.  0.
         24    2    1    2    0    0 -0.58154728521E+03  0.33899535122E+03  0.32985300791E+02  0.67922219355E+03  0.84496538720E+02 0.  0.
         24    2    1    2    0    0  0.13150535787E+03  0.22552706562E+03  0.12774847750E+04  0.13085444643E+04  0.11029572987E+03 0.  0.
        -11    1    4    4    0    0 -0.48177015341E+03  0.30578468911E+03  0.59799506388E+01  0.57065095867E+03  0.00000000000E+00 0.  1.
         12    1    4    4    0    0 -0.99777131797E+02  0.33210662109E+02  0.27005350152E+02  0.10857123488E+03  0.00000000000E+00 0. -1.
        -13    1    5    5    0    0  0.14170122983E+03  0.16152521005E+03  0.10622495986E+04  0.10837637389E+04  0.00000000000E+00 0.  1.
         14    1    5    5    0    0 -0.10195871959E+02  0.64001855572E+02  0.21523517642E+03  0.22478072535E+03  0.00000000000E+00 0. -1.
          5    1    3    3  501    0  0.44307237068E+03 -0.42299497976E+03  0.20445884859E+02  0.61292577264E+03  0.47000000000E+01 0. -1.
         -5    1    3    3    0  501  0.68667954555E+02 -0.14697248779E+03 -0.17237648358E+02  0.16320363559E+03  0.47000000000E+01 0. -1.
          1    1    1    2  502    0 -0.42078533910E+02 -0.72277102424E+02  0.16891562669E+04  0.16912254364E+04  0.00000000000E+00 0. -1.
          1    1    1    2  503    0 -0.19619863984E+02  0.77722153130E+02 -0.12956168653E+04  0.12980942700E+04  0.00000000000E+00 0. -1.
<mgrwt>
<rscale>  0 0.81838588E+02</rscale>
<asrwt>0</asrwt>
<pdfrwt beam="1">  1        2 0.54856129E+00 0.83552024E+02</pdfrwt>
<pdfrwt beam="2">  1        2 0.29749986E+00 0.80160290E+02</pdfrwt>
<totfact> 0.16267454E+00</totfact>
</mgrwt>
</event>
<event>
13    1  0.3019759E-008  0.8859688E+02  0.7546771E-02  0.1349634E+00
         -1   -1    0    0    0  501 -0.00000000000E+00  0.00000000000E+00  0.99266357494E+03  0.99266357494E+03  0.00000000000E+00 0.  1.
          2   -1    0    0  503    0  0.00000000000E+00 -0.00000000000E+00 -0.95410153902E+03  0.95410153902E+03  0.00000000000E+00 0. -1.
         25    2    1    2    0    0 -0.13780472338E+03  0.48893991373E+02  0.26751201460E+03  0.32949639100E+03  0.12499771818E+03 0.  0.
         24    2    1    2    0    0  0.43326592385E+02  0.86585717257E+02 -0.59480268888E+02  0.13895625239E+03  0.79979107593E+02 0.  0.
         24    2    1    2    0    0 -0.18790484796E+02 -0.67334892205E+02 -0.30480178280E+03  0.32308811831E+03  0.81207976019E+02 0.  0.
        -11    1    5    5    0    0 -0.50027241650E+01 -0.58581806792E+02 -0.88986389434E+02  0.10665567421E+03  0.00000000000E+00 0.  1.
         12    1    5    5    0    0 -0.13787760631E+02 -0.87530854129E+01 -0.21581539336E+03  0.21643244410E+03  0.00000000000E+00 0. -1.
        -13    1    4    4    0    0  0.34961383662E+02  0.88601708977E+02 -0.74984761308E+02  0.12122407191E+03  0.00000000000E+00 0.  1.
         14    1    4    4    0    0  0.83652087228E+01 -0.20159917194E+01  0.15504492420E+02  0.17732180486E+02  0.00000000000E+00 0. -1.
          5    1    3    3  502    0 -0.56843548472E+02 -0.23098685443E+02  0.17974556129E+03  0.18998761821E+03  0.47000000000E+01 0. -1.
         -5    1    3    3    0  502 -0.80961174911E+02  0.71992676816E+02  0.87766453310E+02  0.13950877279E+03  0.47000000000E+01 0. -1.
          1    1    1    2  503    0  0.60371236951E+02  0.26387356416E+01 -0.50511152208E+03  0.50871337600E+03  0.00000000000E+00 0. -1.
         -2    1    1    2    0  501  0.52897378844E+02 -0.70783552066E+02  0.64044359509E+03  0.64651097626E+03  0.00000000000E+00 0.  1.
<mgrwt>
<rscale>  0 0.73169732E+02</rscale>
<asrwt>0</asrwt>
<pdfrwt beam="2">  1        2 0.14030905E+00 0.60428877E+02</pdfrwt>
<pdfrwt beam="1">  1       -1 0.14597994E+00 0.88596876E+02</pdfrwt>
<totfact> 0.16086691E+01</totfact>
</mgrwt>
</event>
<event>
13    1  0.3019759E-008  0.1123794E+03  0.7546771E-02  0.1331784E+00
         -3   -1    0    0    0  501  0.00000000000E+00  0.00000000000E+00  0.60703532610E+03  0.60703532610E+03  0.00000000000E+00 0.  1.
         -3   -1    0    0    0  502 -0.00000000000E+00 -0.00000000000E+00 -0.63183060708E+03  0.63183060708E+03  0.00000000000E+00 0.  1.
         25    2    1    2    0    0 -0.10162729201E+02  0.16344173242E+03 -0.30152473454E+03  0.36519989936E+03  0.12504927027E+03 0.  0.
         24    2    1    2    0    0  0.26283163713E+02 -0.13611540192E+01 -0.84823877378E+02  0.11955517760E+03  0.80035572601E+02 0.  0.
         24    2    1    2    0    0 -0.34133840594E+02  0.15664474664E+02  0.18666821641E+03  0.20585609785E+03  0.78238195052E+02 0.  0.
        -11    1    4    4    0    0 -0.19117630137E+02  0.24595325517E+02 -0.39840297195E+02  0.50573343769E+02  0.00000000000E+00 0.  1.
         12    1    4    4    0    0  0.45400793850E+02 -0.25956479536E+02 -0.44983580183E+02  0.68981833827E+02  0.00000000000E+00 0. -1.
        -13    1    5    5    0    0  0.92099852475E-01 -0.29013137871E+02  0.46474699240E+02  0.54787483250E+02  0.00000000000E+00 0.  1.
         14    1    5    5    0    0 -0.34225940447E+02  0.44677612534E+02  0.14019351717E+03  0.15106861460E+03  0.00000000000E+00 0. -1.
          5    1    3    3  503    0 -0.35961109955E+02  0.18663349083E+02 -0.15656160932E+02  0.43688984920E+02  0.47000000000E+01 0. -1.
         -5    1    3    3    0  503  0.25798380754E+02  0.14477838334E+03 -0.28586857360E+03  0.32151091444E+03  0.47000000000E+01 0. -1.
         -4    1    1    2    0  502  0.53089849263E+02 -0.13460776702E+03 -0.15597365660E+03  0.21275705533E+03  0.00000000000E+00 0.  1.
         -4    1    1    2    0  501 -0.35076443181E+02 -0.43137286049E+02  0.33085877113E+03  0.33549770304E+03  0.00000000000E+00 0.  1.
<mgrwt>
<rscale>  0 0.79045024E+02</rscale>
<asrwt>0</asrwt>
<pdfrwt beam="1">  1       -3 0.89269901E-01 0.55598402E+02</pdfrwt>
<pdfrwt beam="2">  1       -3 0.92916266E-01 0.11237941E+03</pdfrwt>
<totfact> 0.29513273E+00</totfact>
</mgrwt>
</event>
<event>
13    1  0.3019759E-008  0.8901382E+02  0.7546771E-02  0.1326083E+00
          2   -1    0    0  503    0  0.00000000000E+00  0.00000000000E+00  0.10961094957E+04  0.10961094957E+04  0.00000000000E+00 0. -1.
          2   -1    0    0  502    0 -0.00000000000E+00 -0.00000000000E+00 -0.79635282624E+03  0.79635282624E+03  0.00000000000E+00 0. -1.
         25    2    1    2    0    0 -0.15301815761E+03  0.47405415678E+02 -0.21570630125E+03  0.29633828515E+03  0.12500136341E+03 0.  0.
         24    2    1    2    0    0  0.10924034962E+03  0.30469479054E+02 -0.64040695670E+02  0.15261940112E+03  0.79558957737E+02 0.  0.
         24    2    1    2    0    0 -0.38600053678E+02 -0.16654444090E+02  0.72333802881E+02  0.11891417690E+03  0.84504838774E+02 0.  0.
        -13    1    4    4    0    0  0.57290587367E+02  0.47155053818E+02 -0.83761081004E+01  0.74672415846E+02  0.00000000000E+00 0.  1.
         14    1    4    4    0    0  0.51949762255E+02 -0.16685574764E+02 -0.55664587569E+02  0.77946985271E+02  0.00000000000E+00 0. -1.
        -13    1    5    5    0    0 -0.15400300143E+02  0.22081811619E+02 -0.68339444001E+01  0.27775500805E+02  0.00000000000E+00 0.  1.
         14    1    5    5    0    0 -0.23199753535E+02 -0.38736255709E+02  0.79167747282E+02  0.91138676093E+02  0.00000000000E+00 0. -1.
          5    1    3    3  501    0 -0.55464796086E+02 -0.23319940406E+02 -0.14990063360E+02  0.62184847230E+02  0.47000000000E+01 0.  1.
         -5    1    3    3    0  501 -0.97553361519E+02  0.70725356084E+02 -0.20071623789E+03  0.23415343792E+03  0.47000000000E+01 0.  1.
          1    1    1    2  502    0  0.13696284733E+02 -0.88249272362E+02 -0.40231890907E+03  0.41211166798E+03  0.00000000000E+00 0. -1.
          1    1    1    2  503    0  0.68681576929E+02  0.27028821720E+02  0.90948877256E+03  0.91247879078E+03  0.00000000000E+00 0. -1.
<mgrwt>
<rscale>  0 0.81055471E+02</rscale>
<asrwt>0</asrwt>
<pdfrwt beam="1">  1        2 0.16119257E+00 0.73808646E+02</pdfrwt>
<pdfrwt beam="2">  1        2 0.11711071E+00 0.89013818E+02</pdfrwt>
<totfact> 0.16129614E+02</totfact>
</mgrwt>
</event>
<event>
13    1  0.3019759E-008  0.5767393E+02  0.7546771E-02  0.1408158E+00
         -1   -1    0    0    0  501 -0.00000000000E+00  0.00000000000E+00  0.15578107892E+03  0.15578107892E+03  0.00000000000E+00 0.  1.
          2   -1    0    0  503    0  0.00000000000E+00 -0.00000000000E+00 -0.10121433475E+04  0.10121433475E+04  0.00000000000E+00 0. -1.
         25    2    1    2    0    0 -0.15716294235E+02  0.23153049714E+02  0.20112633901E+02  0.12966140453E+03  0.12499798465E+03 0.  0.
         24    2    1    2    0    0 -0.16199220430E+01  0.90429161898E+02 -0.10439604356E+03  0.15922101497E+03  0.79200632745E+02 0.  0.
         24    2    1    2    0    0  0.27547868966E+02 -0.34214609502E+02 -0.14851062389E+03  0.17483143744E+03  0.81123988564E+02 0.  0.
        -11    1    5    5    0    0  0.29878998861E+02  0.12577276169E+02 -0.20106239531E+02  0.38147127242E+02  0.00000000000E+00 0.  1.
         12    1    5    5    0    0 -0.23311298943E+01 -0.46791885670E+02 -0.12840438436E+03  0.13668431020E+03  0.00000000000E+00 0. -1.
        -13    1    4    4    0    0 -0.22276233865E+02 -0.47900949875E+01 -0.19933743373E+02  0.30274242022E+02  0.00000000000E+00 0.  1.
         14    1    4    4    0    0  0.20656311822E+02  0.95219256886E+02 -0.84462300191E+02  0.12894677295E+03  0.00000000000E+00 0. -1.
          5    1    3    3  502    0  0.30156579474E+02  0.43838839355E+02  0.48106764424E+02  0.71886117609E+02  0.47000000000E+01 0. -1.
         -5    1    3    3    0  502 -0.45872873709E+02 -0.20685789641E+02 -0.27994130524E+02  0.57775286924E+02  0.47000000000E+01 0. -1.
          1    1    1    2  503    0  0.36030120518E+02 -0.44862681680E+02 -0.64128029792E+03  0.64385654480E+03  0.00000000000E+00 0. -1.
         -2    1    1    2    0  501 -0.46241773207E+02 -0.34504920431E+02  0.17712062892E+02  0.60354024681E+02  0.00000000000E+00 0.  1.
<mgrwt>
<rscale>  0 0.57606831E+02</rscale>
<asrwt>0</asrwt>
<pdfrwt beam="2">  1        2 0.14884461E+00 0.57539810E+02</pdfrwt>
<pdfrwt beam="1">  1       -1 0.22908983E-01 0.57673930E+02</pdfrwt>
<totfact> 0.52380074E+02</totfact>
</mgrwt>
</event>
<event>
13    1  0.3019759E-008  0.1944682E+03  0.7546771E-02  0.1283893E+00
          2   -1    0    0  502    0  0.00000000000E+00  0.00000000000E+00  0.65434897055E+03  0.65434897055E+03  0.00000000000E+00 0. -1.
          2   -1    0    0  503    0 -0.00000000000E+00 -0.00000000000E+00 -0.69661336214E+03  0.69661336214E+03  0.00000000000E+00 0. -1.
         25    2    1    2    0    0 -0.21674123506E+03 -0.67221073693E+02 -0.15247131700E+03  0.30060904837E+03  0.12499144663E+03 0.  0.
         24    2    1    2    0    0  0.69429631584E+01 -0.62953990840E+01  0.20967745146E+02  0.88125332134E+02  0.85079909733E+02 0.  0.
         24    2    1    2    0    0  0.41326358843E+02 -0.66063723894E+01  0.13992912777E+03  0.16906858401E+03  0.85161688622E+02 0.  0.
        -11    1    4    4    0    0 -0.10752726818E+02 -0.40900891362E+02  0.24871807138E+02  0.49062315871E+02  0.00000000000E+00 0.  1.
         12    1    4    4    0    0  0.17695689977E+02  0.34605492278E+02 -0.39040619921E+01  0.39063016263E+02  0.00000000000E+00 0. -1.
        -13    1    5    5    0    0  0.28594081712E+02  0.36964256113E+02  0.50672721790E+02  0.68932593688E+02  0.00000000000E+00 0.  1.
         14    1    5    5    0    0  0.12732277131E+02 -0.43570628502E+02  0.89256405983E+02  0.10013599032E+03  0.00000000000E+00 0. -1.
          5    1    3    3  501    0 -0.22585661701E+03 -0.81640490469E+02 -0.13410095741E+03  0.27510277699E+03  0.47000000000E+01 0. -1.
         -5    1    3    3    0  501  0.91153819474E+01  0.14419416776E+02 -0.18370359588E+02  0.25506271378E+02  0.47000000000E+01 0. -1.
          1    1    1    2  502    0  0.24888432060E+02 -0.43016837193E+02  0.34818097364E+03  0.35170992698E+03  0.00000000000E+00 0. -1.
          1    1    1    2  503    0  0.14358348100E+03  0.12313968236E+03 -0.39887092115E+03  0.44144944119E+03  0.00000000000E+00 0. -1.
<mgrwt>
<rscale>  0 0.98309027E+02</rscale>
<asrwt>0</asrwt>
<pdfrwt beam="1">  1        2 0.96227790E-01 0.49697911E+02</pdfrwt>
<pdfrwt beam="2">  1        2 0.10244314E+00 0.19446823E+03</pdfrwt>
<totfact> 0.35065753E+02</totfact>
</mgrwt>
</event>
<event>
13    1  0.3019759E-008  0.1777154E+03  0.7546771E-02  0.1414180E+00
          2   -1    0    0  502    0  0.00000000000E+00  0.00000000000E+00  0.18349242604E+04  0.18349242604E+04  0.00000000000E+00 0. -1.
          2   -1    0    0  503    0 -0.00000000000E+00 -0.00000000000E+00 -0.45987275696E+03  0.45987275696E+03  0.00000000000E+00 0. -1.
         25    2    1    2    0    0  0.26585852768E+02  0.31288508221E+02 -0.46187226511E+02  0.13944031283E+03  0.12499825053E+03 0.  0.
         24    2    1    2    0    0  0.26740233715E+03 -0.81738923759E+02  0.67869976037E+03  0.73858652565E+03  0.81801158764E+02 0.  0.
         24    2    1    2    0    0 -0.16839739702E+03 -0.97213687438E+02  0.44443840941E+03  0.49321949287E+03  0.89060563917E+02 0.  0.
        -13    1    5    5    0    0 -0.68123902212E+02  0.75884223439E+01  0.15457563859E+03  0.16909192249E+03  0.00000000000E+00 0.  1.
         14    1    5    5    0    0 -0.10027349480E+03 -0.10480210978E+03  0.28986277082E+03  0.32412757038E+03  0.00000000000E+00 0. -1.
        -13    1    4    4    0    0  0.10413239332E+03 -0.73053818531E+02  0.32130216990E+03  0.34556547878E+03  0.00000000000E+00 0.  1.
         14    1    4    4    0    0  0.16326994383E+03 -0.86851052276E+01  0.35739759046E+03  0.39302104687E+03  0.00000000000E+00 0. -1.
          5    1    3    3  501    0 -0.60403475149E+01  0.73412009322E+02 -0.91361026783E+01  0.74373162384E+02  0.47000000000E+01 0. -1.
         -5    1    3    3    0  501  0.32626200283E+02 -0.42123501101E+02 -0.37051123833E+02  0.65067150446E+02  0.47000000000E+01 0. -1.
          1    1    1    2  502    0 -0.60844855850E+01  0.16746570052E+02  0.58556038910E+03  0.58583140736E+03  0.00000000000E+00 0. -1.
          1    1    1    2  503    0 -0.11950630732E+03  0.13091753292E+03 -0.28745982893E+03  0.33771927864E+03  0.00000000000E+00 0. -1.
<mgrwt>
<rscale>  0 0.56271404E+02</rscale>
<asrwt>0</asrwt>
<pdfrwt beam="1">  1        2 0.26984180E+00 0.17817648E+02</pdfrwt>
<pdfrwt beam="2">  1        2 0.67628348E-01 0.17771543E+03</pdfrwt>
<totfact> 0.14814549E+02</totfact>
</mgrwt>
</event>
<event>
13    1  0.3019759E-008  0.1178717E+03  0.7546771E-02  0.1407772E+00
          2   -1    0    0  502    0  0.00000000000E+00  0.00000000000E+00  0.22795666495E+04  0.22795666495E+04  0.00000000000E+00 0. -1.
          2   -1    0    0  503    0 -0.00000000000E+00 -0.00000000000E+00 -0.17150626303E+04  0.17150626303E+04  0.00000000000E+00 0. -1.
         25    2    1    2    0    0  0.10580699675E+03 -0.81544466996E+02 -0.45882029123E+03  0.49393316053E+03  0.12493713128E+03 0.  0.
         24    2    1    2    0    0 -0.26130716505E+03  0.11072970738E+03  0.86506953653E+03  0.91409280022E+03  0.81718062815E+02 0.  0.
         24    2    1    2    0    0  0.52440714382E+02 -0.85563217510E+02  0.10130057182E+04  0.10212463797E+04  0.81807641129E+02 0.  0.
        -11    1    5    5    0    0  0.52370371743E+02 -0.19058772151E+02  0.63447792372E+03  0.63692081794E+03  0.00000000000E+00 0.  1.
         12    1    5    5    0    0  0.70342638302E-01 -0.66504445358E+02  0.37852779451E+03  0.38432556175E+03  0.00000000000E+00 0. -1.
        -11    1    4    4    0    0 -0.15848876591E+03  0.53636465302E+02  0.38423911666E+03  0.41908860412E+03  0.00000000000E+00 0.  1.
         12    1    4    4    0    0 -0.10281839914E+03  0.57093242078E+02  0.48083041987E+03  0.49500419610E+03  0.00000000000E+00 0. -1.
          5    1    3    3  501    0  0.49906992820E+01 -0.33970755737E+02 -0.17687080293E+02  0.38908124267E+02  0.47000000000E+01 0. -1.
         -5    1    3    3    0  501  0.10081629746E+03 -0.47573711259E+02 -0.44113321093E+03  0.45502503626E+03  0.47000000000E+01 0. -1.
          1    1    1    2  502    0  0.16098353284E+02 -0.23201169296E+02  0.35186522071E+03  0.35299657899E+03  0.00000000000E+00 0. -1.
          1    1    1    2  503    0  0.86961100635E+02  0.79579146421E+02 -0.12066161650E+04  0.12123603603E+04  0.00000000000E+00 0. -1.
<mgrwt>
<rscale>  0 0.57694028E+02</rscale>
<asrwt>0</asrwt>
<pdfrwt beam="1">  1        2 0.33523039E+00 0.28239179E+02</pdfrwt>
<pdfrwt beam="2">  1        2 0.25221509E+00 0.11787173E+03</pdfrwt>
<totfact> 0.15228354E+01</totfact>
</mgrwt>
</event>
<event>
13    1  0.3019759E-008  0.1204329E+03  0.7546771E-02  0.1375594E+00
         -1   -1    0    0    0  501 -0.00000000000E+00  0.00000000000E+00  0.15097462155E+03  0.15097462155E+03  0.00000000000E+00 0.  1.
          2   -1    0    0  503    0  0.00000000000E+00 -0.00000000000E+00 -0.30121906056E+04  0.30121906056E+04  0.00000000000E+00 0. -1.
         25    2    1    2    0    0 -0.16303198966E+03  0.16630839982E+02 -0.67700683310E+02  0.21694070772E+03  0.12499549453E+03 0.  0.
         24    2    1    2    0    0  0.30785307426E+03  0.19230481345E-01 -0.70990549560E+03  0.77790688379E+03  0.79998696659E+02 0.  0.
         24    2    1    2    0    0 -0.10254571040E+03  0.10822970293E+03 -0.51194378797E+03  0.53806658465E+03  0.72110444148E+02 0.  0.
        -11    1    5    5    0    0 -0.50209424864E+02  0.61532293190E+02 -0.38430553561E+03  0.39242573074E+03  0.00000000000E+00 0.  1.
         12    1    5    5    0    0 -0.52336285534E+02  0.46697409741E+02 -0.12763825237E+03  0.14564085391E+03  0.00000000000E+00 0. -1.
        -11    1    4    4    0    0  0.10520830360E+03 -0.13528265622E+02 -0.16267400962E+03  0.19420256055E+03  0.00000000000E+00 0.  1.
         12    1    4    4    0    0  0.20264477065E+03  0.13547496103E+02 -0.54723148598E+03  0.58370432324E+03  0.00000000000E+00 0. -1.
          5    1    3    3  502    0  0.30031363770E+01  0.11324285432E+02  0.24011543590E+02  0.27127522818E+02  0.47000000000E+01 0. -1.
         -5    1    3    3    0  502 -0.16603512604E+03  0.53065545503E+01 -0.91712226900E+02  0.18981318490E+03  0.47000000000E+01 0. -1.
          1    1    1    2  503    0 -0.68222682022E+01 -0.12011321249E+03 -0.15868397832E+04  0.15913937994E+04  0.00000000000E+00 0. -1.
         -2    1    1    2    0  501 -0.35453105996E+02 -0.47665609097E+01  0.15173766024E+02  0.38857251615E+02  0.00000000000E+00 0.  1.
<mgrwt>
<rscale>  0 0.65636396E+02</rscale>
<asrwt>0</asrwt>
<pdfrwt beam="2">  1        2 0.44296912E+00 0.12043288E+03</pdfrwt>
<pdfrwt beam="1">  1       -1 0.22202154E-01 0.35772096E+02</pdfrwt>
<totfact> 0.50308552E+01</totfact>
</mgrwt>
</event>
<event>
13    1  0.3019759E-008  0.2863718E+03  0.7546771E-02  0.1326188E+00
         -1   -1    0    0    0  501 -0.00000000000E+00  0.00000000000E+00  0.20926095988E+04  0.20926095988E+04  0.00000000000E+00 0.  1.
          2   -1    0    0  503    0  0.00000000000E+00 -0.00000000000E+00 -0.12645934578E+04  0.12645934578E+04  0.00000000000E+00 0. -1.
         25    2    1    2    0    0 -0.15158395490E+03  0.27053751579E+03  0.17876537455E+04  0.18186534622E+04  0.12500503480E+03 0.  0.
         24    2    1    2    0    0  0.20305820218E+02 -0.23419848082E+02  0.22879479135E+02  0.89768571757E+02  0.81080887334E+02 0.  0.
         24    2    1    2    0    0 -0.50641425706E+01 -0.87364137835E+02 -0.44439129610E+02  0.12677420119E+03  0.80241658298E+02 0.  0.
        -11    1    4    4    0    0  0.49604341879E+02 -0.81441884766E+01  0.25973924787E+02  0.56582358629E+02  0.00000000000E+00 0.  1.
         12    1    4    4    0    0 -0.29298521661E+02 -0.15275659606E+02 -0.30944456515E+01  0.33186213128E+02  0.00000000000E+00 0. -1.
        -11    1    5    5    0    0  0.34288690895E+02 -0.21413385071E+02 -0.25075565781E+02  0.47571329419E+02  0.00000000000E+00 0.  1.
         12    1    5    5    0    0 -0.39352833466E+02 -0.65950752764E+02 -0.19363563829E+02  0.79202871767E+02  0.00000000000E+00 0. -1.
          5    1    3    3  502    0 -0.94835466627E+02  0.25943269903E+03  0.14920483816E+04  0.15174088290E+04  0.47000000000E+01 0.  1.
         -5    1    3    3    0  502 -0.56748488277E+02  0.11104816759E+02  0.29560536391E+03  0.30124463323E+03  0.47000000000E+01 0.  1.
          1    1    1    2  503    0  0.21223151050E+02  0.86566698665E+01 -0.10756903474E+04  0.10759345163E+04  0.00000000000E+00 0. -1.
         -2    1    1    2    0  501  0.11511912621E+03 -0.16841019974E+03  0.13761239324E+03  0.24607230516E+03  0.00000000000E+00 0.  1.
<mgrwt>
<rscale>  0 0.81017608E+02</rscale>
<asrwt>0</asrwt>
<pdfrwt beam="2">  1        2 0.18596963E+00 0.22920735E+02</pdfrwt>
<pdfrwt beam="1">  1       -1 0.30773671E+00 0.28637183E+03</pdfrwt>
<totfact> 0.92447894E-01</totfact>
</mgrwt>
</event>
<event>
13    1  0.3019759E-008  0.7246836E+02  0.7546771E-02  0.1404237E+00
          2   -1    0    0  502    0  0.00000000000E+00  0.00000000000E+00  0.76450069355E+03  0.76450069355E+03  0.00000000000E+00 0. -1.
          2   -1    0    0  503    0 -0.00000000000E+00 -0.00000000000E+00 -0.14867219494E+04  0.14867219494E+04  0.00000000000E+00 0. -1.
         25    2    1    2    0    0 -0.31640664623E+02 -0.69963083221E+02 -0.30214663833E+03  0.33587534440E+03  0.12499476491E+03 0.  0.
         24    2    1    2    0    0  0.95334927843E+02 -0.44988633725E+02 -0.22282227851E+03  0.25956866608E+03  0.81322807251E+02 0.  0.
         24    2    1    2    0    0 -0.63652058079E+01  0.10745820094E+03  0.99463625808E+02  0.16753224790E+03  0.81155778799E+02 0.  0.
        -11    1    4    4    0    0  0.62519729604E+02 -0.13834098875E+02 -0.50918715283E+02  0.81809623196E+02  0.00000000000E+00 0.  1.
         12    1    4    4    0    0  0.32815198240E+02 -0.31154534851E+02 -0.17190356323E+03  0.17775904288E+03  0.00000000000E+00 0. -1.
        -13    1    5    5    0    0 -0.42369860500E+02  0.41308489028E+02  0.38035641659E+02  0.70344199341E+02  0.00000000000E+00 0.  1.
         14    1    5    5    0    0  0.36004654692E+02  0.66149711911E+02  0.61427984148E+02  0.97188048555E+02  0.00000000000E+00 0. -1.
          5    1    3    3  501    0  0.42381367040E+02 -0.34469706540E+01 -0.13139586496E+03  0.13818475027E+03  0.47000000000E+01 0.  1.
         -5    1    3    3    0  501 -0.74022031664E+02 -0.66516112567E+02 -0.17075077337E+03  0.19769059413E+03  0.47000000000E+01 0.  1.
          1    1    1    2  502    0 -0.48595639767E+02  0.53902753854E+02  0.59292644260E+03  0.59735149570E+03  0.00000000000E+00 0. -1.
          1    1    1    2  503    0 -0.87334176445E+01 -0.46409237846E+02 -0.88964240744E+03  0.89089488890E+03  0.00000000000E+00 0. -1.
<mgrwt>
<rscale>  0 0.58499858E+02</rscale>
<asrwt>0</asrwt>
<pdfrwt beam="1">  1        2 0.11242657E+00 0.72468361E+02</pdfrwt>
<pdfrwt beam="2">  1        2 0.21863558E+00 0.47223828E+02</pdfrwt>
<totfact> 0.11160393E+02</totfact>
</mgrwt>
</event>
<event>
13    1  0.3019759E-008  0.7239193E+02  0.7546771E-02  0.1363737E+00
          2   -1    0    0  502    0  0.00000000000E+00  0.00000000000E+00  0.25355477905E+04  0.25355477905E+04  0.00000000000E+00 0. -1.
          2   -1    0    0  503    0 -0.00000000000E+00 -0.00000000000E+00 -0.38857991212E+04  0.38857991212E+04  0.00000000000E+00 0. -1.
         25    2    1    2    0    0 -0.28178236014E+02 -0.32416632669E+02 -0.67846844759E+03  0.69123505587E+03  0.12506645049E+03 0.  0.
         24    2    1    2    0    0  0.92426390123E+02  0.18456841043E+03 -0.50436464858E+02  0.22703898613E+03  0.79967046429E+02 0.  0.
         24    2    1    2    0    0 -0.32370863945E+02 -0.18993004266E+02 -0.90573400976E+01  0.89421204844E+02  0.80656738234E+02 0.  0.
        -11    1    5    5    0    0  0.62762871307E+01  0.18010503968E+02 -0.26938347492E+02  0.33006735660E+02  0.00000000000E+00 0.  1.
         12    1    5    5    0    0 -0.38647151076E+02 -0.37003508234E+02  0.17881007394E+02  0.56414469184E+02  0.00000000000E+00 0. -1.
        -13    1    4    4    0    0  0.47220475074E+02  0.16555582978E+03 -0.42888342175E+02  0.17742016778E+03  0.00000000000E+00 0.  1.
         14    1    4    4    0    0  0.45205915050E+02  0.19012580655E+02 -0.75481226825E+01  0.49618818352E+02  0.00000000000E+00 0. -1.
          5    1    3    3  501    0 -0.72056783331E+02 -0.40018574724E+02 -0.52187893988E+03  0.52836860640E+03  0.47000000000E+01 0.  1.
         -5    1    3    3    0  501  0.43878547317E+02  0.76019420552E+01 -0.15658950771E+03  0.16286644947E+03  0.47000000000E+01 0.  1.
          1    1    1    2  502    0 -0.83447743136E+01 -0.71869392122E+02  0.23997783714E+04  0.24008688170E+04  0.00000000000E+00 0. -1.
          1    1    1    2  503    0 -0.23532515851E+02 -0.61289381376E+02 -0.30120674496E+04  0.30127828479E+04  0.00000000000E+00 0. -1.
<mgrwt>
<rscale>  0 0.68939576E+02</rscale>
<asrwt>0</asrwt>
<pdfrwt beam="1">  1        2 0.37287468E+00 0.72391928E+02</pdfrwt>
<pdfrwt beam="2">  1        2 0.57144105E+00 0.65651866E+02</pdfrwt>
<totfact> 0.78180664E-01</totfact>
</mgrwt>
</event>
<event>
13    1  0.3019759E-008  0.7773680E+02  0.7546771E-02  0.1460564E+00
          2   -1    0    0  502    0  0.00000000000E+00  0.00000000000E+00  0.12086950917E+04  0.12086950917E+04  0.00000000000E+00 0. -1.
          2   -1    0    0  503    0 -0.00000000000E+00 -0.00000000000E+00 -0.32090594654E+04  0.32090594654E+04  0.00000000000E+00 0. -1.
         25    2    1    2    0    0  0.61608606698E+02  0.66388977807E+02 -0.36195139167E+03  0.39349292037E+03  0.12499900662E+03 0.  0.
         24    2    1    2    0    0  0.15417959605E+03  0.17105574422E+03 -0.24227316689E+03  0.34427087134E+03  0.82430152180E+02 0.  0.
         24    2    1    2    0    0 -0.15907463966E+03 -0.32737719866E+03  0.42689578904E+03  0.56684151293E+03  0.81170899328E+02 0.  0.
        -11    1    5    5    0    0 -0.10536463605E+03 -0.27913741640E+03  0.31673599113E+03  0.43513341844E+03  0.00000000000E+00 0.  1.
         12    1    5    5    0    0 -0.53710003603E+02 -0.48239782260E+02  0.11015979790E+03  0.13170809449E+03  0.00000000000E+00 0. -1.
        -13    1    4    4    0    0  0.90648667192E+02  0.10474083497E+03 -0.19971955949E+03  0.24305498517E+03  0.00000000000E+00 0.  1.
         14    1    4    4    0    0  0.63530928861E+02  0.66314909247E+02 -0.42553607409E+02  0.10121588617E+03  0.00000000000E+00 0. -1.
          5    1    3    3  501    0 -0.48576833455E+01  0.46671482143E+02 -0.33687529706E+02  0.57954844410E+02  0.47000000000E+01 0. -1.
         -5    1    3    3    0  501  0.66466290043E+02  0.19717495664E+02 -0.32826386197E+03  0.33553807596E+03  0.47000000000E+01 0. -1.
          1    1    1    2  502    0 -0.17376029100E+02  0.22919377149E+02  0.64412421305E+03  0.64476602429E+03  0.00000000000E+00 0. -1.
          1    1    1    2  503    0 -0.39337533995E+02  0.67013099484E+02 -0.24671598173E+04  0.24683832282E+04  0.00000000000E+00 0. -1.
<mgrwt>
<rscale>  0 0.47284537E+02</rscale>
<asrwt>0</asrwt>
<pdfrwt beam="1">  1        2 0.17774928E+00 0.28761506E+02</pdfrwt>
<pdfrwt beam="2">  1        2 0.47192051E+00 0.77736801E+02</pdfrwt>
<totfact> 0.88339773E+00</totfact>
</mgrwt>
</event>
<event>
13    1  0.3019759E-008  0.2036623E+03  0.7546771E-02  0.1196902E+00
          2   -1    0    0  503    0  0.00000000000E+00  0.00000000000E+00  0.11997411951E+04  0.11997411951E+04  0.00000000000E+00 0. -1.
          2   -1    0    0  502    0 -0.00000000000E+00 -0.00000000000E+00 -0.58791088833E+03  0.58791088833E+03  0.00000000000E+00 0. -1.
         25    2    1    2    0    0  0.38156058274E+03 -0.83941173096E+02  0.11549344624E+03  0.42614492544E+03  0.12500464995E+03 0.  0.
         24    2    1    2    0    0  0.11659905401E+02  0.45144860948E+02  0.10935032116E+03  0.14318305481E+03  0.79811544170E+02 0.  0.
         24    2    1    2    0    0 -0.81230769256E+02  0.63343751231E+02  0.15936979739E+03  0.20631612833E+03  0.80973722874E+02 0.  0.
        -11    1    5    5    0    0  0.12921826085E+02 -0.54090681528E+01  0.12291029305E+02  0.18636013765E+02  0.00000000000E+00 0.  1.
         12    1    5    5    0    0 -0.94152595341E+02  0.68752819384E+02  0.14707876809E+03  0.18768011457E+03  0.00000000000E+00 0. -1.
        -11    1    4    4    0    0 -0.14188784635E+02  0.82004970065E+01  0.94202459319E+02  0.95617326371E+02  0.00000000000E+00 0.  1.
         12    1    4    4    0    0  0.25848690036E+02  0.36944363941E+02  0.15147861842E+02  0.47565728440E+02  0.00000000000E+00 0. -1.
          5    1    3    3  501    0  0.10368380511E+03 -0.54528713306E+02 -0.14107058103E+02  0.11808814972E+03  0.47000000000E+01 0. -1.
         -5    1    3    3    0  501  0.27787677763E+03 -0.29412459791E+02  0.12960050434E+03  0.30805677571E+03  0.47000000000E+01 0. -1.
          1    1    1    2  502    0 -0.22142346619E+03 -0.11115199002E+03 -0.34561224156E+03  0.42524221073E+03  0.00000000000E+00 0. -1.
          1    1    1    2  503    0 -0.90566252695E+02  0.86604550938E+02  0.57322898352E+03  0.58676576410E+03  0.00000000000E+00 0. -1.
<mgrwt>
<rscale>  0 0.15294346E+03</rscale>
<asrwt>0</asrwt>
<pdfrwt beam="1">  1        2 0.17643253E+00 0.11485536E+03</pdfrwt>
<pdfrwt beam="2">  1        2 0.86457484E-01 0.20366227E+03</pdfrwt>
<totfact> 0.19262478E+02</totfact>
</mgrwt>
</event>
<event>
13    1  0.3019759E-008  0.8904458E+02  0.7546771E-02  0.1310832E+00
          2   -1    0    0  502    0  0.00000000000E+00  0.00000000000E+00  0.10402497166E+04  0.10402497166E+04  0.00000000000E+00 0. -1.
          2   -1    0    0  503    0 -0.00000000000E+00 -0.00000000000E+00 -0.12881010786E+04  0.12881010786E+04  0.00000000000E+00 0. -1.
         25    2    1    2    0    0 -0.11134946284E+02 -0.28412865769E+02 -0.43046681223E+03  0.44928552974E+03  0.12499813131E+03 0.  0.
         24    2    1    2    0    0  0.11323417535E+03  0.43245371105E+02 -0.33218284257E+02  0.14831943392E+03  0.78759504067E+02 0.  0.
         24    2    1    2    0    0 -0.86372017410E+02 -0.26462745009E+02  0.42881471591E+03  0.44763537184E+03  0.91296020053E+02 0.  0.
        -13    1    5    5    0    0 -0.42962233079E+02  0.16793736888E+02  0.71395919403E+02  0.85000943390E+02  0.00000000000E+00 0.  1.
         14    1    5    5    0    0 -0.43409784332E+02 -0.43256481897E+02  0.35741879650E+03  0.36263442845E+03  0.00000000000E+00 0. -1.
        -13    1    4    4    0    0  0.85880482315E+02  0.55832064617E+02 -0.49851230961E+02  0.11392024364E+03  0.00000000000E+00 0.  1.
         14    1    4    4    0    0  0.27353693038E+02 -0.12586693512E+02  0.16632946703E+02  0.34399190287E+02  0.00000000000E+00 0. -1.
          5    1    3    3  501    0  0.50253161599E+02  0.15487180599E+02 -0.16313917106E+03  0.17146927465E+03  0.47000000000E+01 0.  1.
         -5    1    3    3    0  501 -0.61388107883E+02 -0.43900046368E+02 -0.26732764117E+03  0.27781625509E+03  0.47000000000E+01 0.  1.
          1    1    1    2  502    0 -0.40110474236E+02 -0.74465116390E+02  0.52901729199E+03  0.53573612808E+03  0.00000000000E+00 0. -1.
          1    1    1    2  503    0  0.24383262578E+02  0.86095356063E+02 -0.74199827342E+03  0.74737433163E+03  0.00000000000E+00 0. -1.
<mgrwt>
<rscale>  0 0.86783970E+02</rscale>
<asrwt>0</asrwt>
<pdfrwt beam="1">  1        2 0.15297790E+00 0.84580753E+02</pdfrwt>
<pdfrwt beam="2">  1        2 0.18942663E+00 0.89044579E+02</pdfrwt>
<totfact> 0.90327737E+01</totfact>
</mgrwt>
</event>
<event>
13    1  0.3019759E-008  0.9111264E+02  0.7546771E-02  0.1338230E+00
         -3   -1    0    0    0  501 -0.00000000000E+00  0.00000000000E+00  0.13324576262E+04  0.13324576262E+04  0.00000000000E+00 0.  1.
          2   -1    0    0  503    0  0.00000000000E+00 -0.00000000000E+00 -0.17488800242E+04  0.17488800242E+04  0.00000000000E+00 0. -1.
         25    2    1    2    0    0  0.15302585370E+02  0.92100785838E+01  0.59148102139E+03  0.60480954593E+03  0.12500317400E+03 0.  0.
         24    2    1    2    0    0  0.29559596014E+02 -0.16183569385E+02 -0.77025396905E+02  0.11511436508E+03  0.78630322682E+02 0.  0.
         24    2    1    2    0    0 -0.12041052683E+02 -0.10061672280E+03 -0.27178878385E+03  0.30149411885E+03  0.82224380911E+02 0.  0.
        -11    1    4    4    0    0 -0.10862850760E+02 -0.37994359759E+02 -0.38397511550E+02  0.55099381061E+02  0.00000000000E+00 0.  1.
         12    1    4    4    0    0  0.40422446774E+02  0.21810790373E+02 -0.38627885355E+02  0.60014984020E+02  0.00000000000E+00 0. -1.
        -11    1    5    5    0    0 -0.32004753159E+02 -0.10474694384E+03 -0.21790605204E+03  0.24388373047E+03  0.00000000000E+00 0.  1.
         12    1    5    5    0    0  0.19963700475E+02  0.41302210416E+01 -0.53882731805E+02  0.57610388380E+02  0.00000000000E+00 0. -1.
          5    1    3    3  502    0 -0.19481225497E+01  0.16867439266E+02  0.58353162197E+03  0.58379752443E+03  0.47000000000E+01 0. -1.
         -5    1    3    3    0  502  0.17250707920E+02 -0.76573606820E+01  0.79493994227E+01  0.21012021500E+02  0.47000000000E+01 0. -1.
          1    1    1    2  503    0 -0.92548133730E+02  0.82395113137E+02 -0.13551718820E+04  0.13608250958E+04  0.00000000000E+00 0. -1.
         -4    1    1    2    0  501  0.59727005030E+02  0.25195100463E+02  0.69608264327E+03  0.69909452471E+03  0.00000000000E+00 0.  1.
<mgrwt>
<rscale>  0 0.76852168E+02</rscale>
<asrwt>0</asrwt>
<pdfrwt beam="2">  1        2 0.25718824E+00 0.91112640E+02</pdfrwt>
<pdfrwt beam="1">  1       -3 0.19594965E+00 0.64823670E+02</pdfrwt>
<totfact> 0.13256527E+00</totfact>
</mgrwt>
</event>
<event>
13    1  0.3019759E-008  0.4884719E+02  0.7546771E-02  0.1589717E+00
          2   -1    0    0  502    0  0.00000000000E+00  0.00000000000E+00  0.12879624995E+04  0.12879624995E+04  0.00000000000E+00 0. -1.
          2   -1    0    0  503    0 -0.00000000000E+00 -0.00000000000E+00 -0.17367109785E+04  0.17367109785E+04  0.00000000000E+00 0. -1.
         25    2    1    2    0    0 -0.56673821517E+02 -0.38891128003E+02 -0.52125326758E+03  0.54042679381E+03  0.12502683159E+03 0.  0.
         24    2    1    2    0    0  0.73134510295E+01  0.13422381462E+02  0.18986680938E+01  0.85837988057E+02  0.84444705950E+02 0.  0.
         24    2    1    2    0    0  0.44132105169E+02 -0.63064182022E+01  0.73474176724E+02  0.11835944153E+03  0.81382363801E+02 0.  0.
        -11    1    4    4    0    0  0.78809237301E+01 -0.35749041826E+02 -0.39986539092E+00  0.36609600417E+02  0.00000000000E+00 0.  1.
         12    1    4    4    0    0 -0.56747270065E+00  0.49171423288E+02  0.22985334847E+01  0.49228387640E+02  0.00000000000E+00 0. -1.
        -11    1    5    5    0    0  0.28139460436E+02  0.36899870435E+02  0.31984319969E+02  0.56359794141E+02  0.00000000000E+00 0.  1.
         12    1    5    5    0    0  0.15992644733E+02 -0.43206288637E+02  0.41489856755E+02  0.61999647393E+02  0.00000000000E+00 0. -1.
          5    1    3    3  501    0 -0.17417481131E+02  0.44281038209E+02 -0.13095448189E+03  0.13941070734E+03  0.47000000000E+01 0. -1.
         -5    1    3    3    0  501 -0.39256340386E+02 -0.83172166212E+02 -0.39029878570E+03  0.40101608647E+03  0.47000000000E+01 0. -1.
          1    1    1    2  502    0 -0.14331108117E+02 -0.13052557553E+02  0.11379841084E+04  0.11381491909E+04  0.00000000000E+00 0. -1.
          1    1    1    2  503    0  0.19559373436E+02  0.44827722296E+02 -0.11408521646E+04  0.11419000636E+04  0.00000000000E+00 0. -1.
<mgrwt>
<rscale>  0 0.30771207E+02</rscale>
<asrwt>0</asrwt>
<pdfrwt beam="1">  1        2 0.18940625E+00 0.19384270E+02</pdfrwt>
<pdfrwt beam="2">  1        2 0.25539867E+00 0.48847194E+02</pdfrwt>
<totfact> 0.46996851E+01</totfact>
</mgrwt>
</event>
<event>
13    1  0.3019759E-008  0.8380263E+02  0.7546771E-02  0.1342348E+00
          2   -1    0    0  503    0  0.00000000000E+00  0.00000000000E+00  0.27609299416E+03  0.27609299416E+03  0.00000000000E+00 0. -1.
          2   -1    0    0  502    0 -0.00000000000E+00 -0.00000000000E+00 -0.30860692698E+04  0.30860692698E+04  0.00000000000E+00 0. -1.
         25    2    1    2    0    0  0.55799210534E+02 -0.46302296756E+02 -0.88887749867E+03  0.90054793935E+03  0.12500371533E+03 0.  0.
         24    2    1    2    0    0  0.23837958890E+01  0.70957958439E+02 -0.18233144037E+03  0.21118239025E+03  0.79451453458E+02 0.  0.
         24    2    1    2    0    0  0.46265448974E+02 -0.10955891982E+03 -0.10149994450E+03  0.17582220822E+03  0.80421150758E+02 0.  0.
        -13    1    5    5    0    0 -0.55530794414E+01 -0.19209711756E+02  0.10742954605E+02  0.22699356614E+02  0.00000000000E+00 0.  1.
         14    1    5    5    0    0  0.51818528415E+02 -0.90349208061E+02 -0.11224289910E+03  0.15312285160E+03  0.00000000000E+00 0. -1.
        -13    1    4    4    0    0  0.55140915875E+01  0.27117510030E+02 -0.15906088206E+03  0.16145008132E+03  0.00000000000E+00 0.  1.
         14    1    4    4    0    0 -0.31302956985E+01  0.43840448408E+02 -0.23270558310E+02  0.49732308934E+02  0.00000000000E+00 0. -1.
          5    1    3    3  501    0  0.90989796311E+02 -0.48023259411E+02 -0.75660854275E+03  0.76358624492E+03  0.47000000000E+01 0. -1.
         -5    1    3    3    0  501 -0.35190585778E+02  0.17209626554E+01 -0.13226895592E+03  0.13696169443E+03  0.47000000000E+01 0. -1.
          1    1    1    2  502    0 -0.23613218208E+02  0.63778502624E+02 -0.18473092258E+04  0.18485606988E+04  0.00000000000E+00 0. -1.
          1    1    1    2  503    0 -0.80835237188E+02  0.21124755509E+02  0.21004183368E+03  0.22604902734E+03  0.00000000000E+00 0. -1.
<mgrwt>
<rscale>  0 0.75494160E+02</rscale>
<asrwt>0</asrwt>
<pdfrwt beam="1">  1        2 0.40601912E-01 0.83802627E+02</pdfrwt>
<pdfrwt beam="2">  1        2 0.45383371E+00 0.68009422E+02</pdfrwt>
<totfact> 0.53354522E+01</totfact>
</mgrwt>
</event>
<event>
13    1  0.3019759E-008  0.1454938E+03  0.7546771E-02  0.1225456E+00
          2   -1    0    0  502    0  0.00000000000E+00  0.00000000000E+00  0.73833754827E+03  0.73833754827E+03  0.00000000000E+00 0. -1.
          2   -1    0    0  503    0 -0.00000000000E+00 -0.00000000000E+00 -0.20793103768E+04  0.20793103768E+04  0.00000000000E+00 0. -1.
         25    2    1    2    0    0  0.13231841903E+03  0.95099069200E+02 -0.41036738307E+03  0.45888670096E+03  0.12499447287E+03 0.  0.
         24    2    1    2    0    0 -0.11060639554E+03 -0.11905102011E+03 -0.84435573486E+00  0.18040605675E+03  0.78349934610E+02 0.  0.
         24    2    1    2    0    0  0.57138279964E+02 -0.49309841011E+01  0.28476851844E+02  0.94470156333E+02  0.69459208930E+02 0.  0.
        -13    1    4    4    0    0 -0.40888741373E+02  0.14417534000E+01 -0.44143139402E+01  0.41151597679E+02  0.00000000000E+00 0.  1.
         14    1    4    4    0    0 -0.69717654165E+02 -0.12049277351E+03  0.35699582054E+01  0.13925445908E+03  0.00000000000E+00 0. -1.
        -13    1    5    5    0    0  0.11032450174E+02  0.28813320034E+02  0.50989797674E+00  0.30857452328E+02  0.00000000000E+00 0.  1.
         14    1    5    5    0    0  0.46105829790E+02 -0.33744304136E+02  0.27966953868E+02  0.63612704005E+02  0.00000000000E+00 0. -1.
          5    1    3    3  501    0  0.77914807808E+02  0.59229617976E+02 -0.93787982394E+02  0.13563605923E+03  0.47000000000E+01 0. -1.
         -5    1    3    3    0  501  0.54403611224E+02  0.35869451224E+02 -0.31657940068E+03  0.32325064173E+03  0.47000000000E+01 0. -1.
          1    1    1    2  502    0 -0.20768485968E+03 -0.38177041455E+02  0.53937926992E+03  0.57924130054E+03  0.00000000000E+00 0. -1.
          1    1    1    2  503    0  0.12883455622E+03  0.67059976469E+02 -0.14976172115E+04  0.15046437104E+04  0.00000000000E+00 0. -1.
<mgrwt>
<rscale>  0 0.13135721E+03</rscale>
<asrwt>0</asrwt>
<pdfrwt beam="1">  1        2 0.10857905E+00 0.11859413E+03</pdfrwt>
<pdfrwt beam="2">  1        2 0.30578094E+00 0.14549384E+03</pdfrwt>
<totfact> 0.53499913E+01</totfact>
</mgrwt>
</event>
<event>
13    1  0.3019759E-008  0.9189764E+02  0.7546771E-02  0.1358132E+00
          2   -1    0    0  503    0  0.00000000000E+00  0.00000000000E+00  0.92472860680E+03  0.92472860680E+03  0.00000000000E+00 0. -1.
          2   -1    0    0  502    0 -0.00000000000E+00 -0.00000000000E+00 -0.20020425414E+04  0.20020425414E+04  0.00000000000E+00 0. -1.
         25    2    1    2    0    0 -0.13404493816E+02 -0.65804391359E+02 -0.11158152149E+04  0.11248018509E+04  0.12500284640E+03 0.  0.
         24    2    1    2    0    0  0.11128256530E+03  0.11839348839E+03 -0.14557857195E+03  0.23289755148E+03  0.81531107194E+02 0.  0.
         24    2    1    2    0    0 -0.27236362763E+02 -0.36090911401E+02  0.10233864086E+03  0.13874233372E+03  0.82047939701E+02 0.  0.
        -11    1    5    5    0    0  0.27793870459E+02 -0.16456149118E+02  0.53943051794E+02  0.62874135506E+02  0.00000000000E+00 0.  1.
         12    1    5    5    0    0 -0.55030233221E+02 -0.19634762283E+02  0.48395589068E+02  0.75868198209E+02  0.00000000000E+00 0. -1.
        -11    1    4    4    0    0  0.56455554639E+02  0.39400861371E+02 -0.14538636407E+02  0.70363552176E+02  0.00000000000E+00 0.  1.
         12    1    4    4    0    0  0.54827010660E+02  0.78992627017E+02 -0.13103993555E+03  0.16253399930E+03  0.00000000000E+00 0. -1.
          5    1    3    3  501    0  0.23628121815E+02  0.22217811754E+02 -0.11958919845E+03  0.12399832936E+03  0.47000000000E+01 0. -1.
         -5    1    3    3    0  501 -0.37032615631E+02 -0.88022203113E+02 -0.99622601645E+03  0.10008035215E+04  0.47000000000E+01 0. -1.
          1    1    1    2  502    0 -0.10595270083E+02  0.53161707922E+02 -0.67039920559E+03  0.67258718528E+03  0.00000000000E+00 0. -1.
          1    1    1    2  503    0 -0.60046438636E+02 -0.69659893550E+02  0.75214041695E+03  0.75774222686E+03  0.00000000000E+00 0. -1.
<mgrwt>
<rscale>  0 0.70579877E+02</rscale>
<asrwt>0</asrwt>
<pdfrwt beam="1">  1        2 0.13598950E+00 0.91897638E+02</pdfrwt>
<pdfrwt beam="2">  1        2 0.29441802E+00 0.54207259E+02</pdfrwt>
<totfact> 0.49630009E+01</totfact>
</mgrwt>
</event>
<event>
13    1  0.3019759E-008  0.1738273E+03  0.7546771E-02  0.1375617E+00
          2   -1    0    0  502    0  0.00000000000E+00  0.00000000000E+00  0.14261776103E+04  0.14261776103E+04  0.00000000000E+00 0. -1.
          2   -1    0    0  503    0 -0.00000000000E+00 -0.00000000000E+00 -0.15294519635E+04  0.15294519635E+04  0.00000000000E+00 0. -1.
         25    2    1    2    0    0 -0.10112801377E+03  0.15733933118E+02 -0.66906984555E+03  0.68830270398E+03  0.12502688614E+03 0.  0.
         24    2    1    2    0    0 -0.51441067519E+02  0.16901757564E+02 -0.28514926069E+03  0.30167726906E+03  0.82263120313E+02 0.  0.
         24    2    1    2    0    0  0.45018606895E+01  0.67819758508E+01 -0.51600932324E+02  0.96018358603E+02  0.80564303671E+02 0.  0.
        -11    1    4    4    0    0 -0.68004404227E+02 -0.31269043172E+01 -0.16038496069E+03  0.17423464678E+03  0.00000000000E+00 0.  1.
         12    1    4    4    0    0  0.16563336708E+02  0.20028661881E+02 -0.12476430000E+03  0.12744262228E+03  0.00000000000E+00 0. -1.
        -11    1    5    5    0    0  0.24372742783E+02  0.35900858213E+02 -0.16945096273E+02  0.46583672020E+02  0.00000000000E+00 0.  1.
         12    1    5    5    0    0 -0.19870882094E+02 -0.29118882362E+02 -0.34655836051E+02  0.49434686583E+02  0.00000000000E+00 0. -1.
          5    1    3    3  501    0 -0.11358681091E+03 -0.16487930341E+02 -0.37572820719E+03  0.39289641273E+03  0.47000000000E+01 0.  1.
         -5    1    3    3    0  501  0.12458797144E+02  0.32221863459E+02 -0.29334163836E+03  0.29540629124E+03  0.47000000000E+01 0.  1.
          1    1    1    2  502    0  0.16450884472E+03 -0.57956442767E+02  0.13802790491E+04  0.13912556784E+04  0.00000000000E+00 0. -1.
          1    1    1    2  503    0 -0.16441624123E+02  0.18538776234E+02 -0.47773336375E+03  0.47837556383E+03  0.00000000000E+00 0. -1.
<mgrwt>
<rscale>  0 0.65630160E+02</rscale>
<asrwt>0</asrwt>
<pdfrwt beam="1">  1        2 0.20973200E+00 0.17382733E+03</pdfrwt>
<pdfrwt beam="2">  1        2 0.22491940E+00 0.24779290E+02</pdfrwt>
<totfact> 0.45498226E+01</totfact>
</mgrwt>
</event>
<event>
13    1  0.3019759E-008  0.5573013E+02  0.7546771E-02  0.1498259E+00
          2   -1    0    0  502    0  0.00000000000E+00  0.00000000000E+00  0.10295085578E+04  0.10295085578E+04  0.00000000000E+00 0. -1.
          2   -1    0    0  503    0 -0.00000000000E+00 -0.00000000000E+00 -0.27865237850E+03  0.27865237850E+03  0.00000000000E+00 0. -1.
         25    2    1    2    0    0 -0.40022957129E+02 -0.17392846803E+02  0.19383988212E+03  0.23474003722E+03  0.12499854782E+03 0.  0.
         24    2    1    2    0    0 -0.38295238820E+01  0.38021560312E+02  0.12931790293E+03  0.15846744563E+03  0.83237653763E+02 0.  0.
         24    2    1    2    0    0 -0.11490462108E+02 -0.17573651608E+02  0.28717812365E+03  0.29877617991E+03  0.79718674282E+02 0.  0.
        -13    1    4    4    0    0 -0.40668414264E+02  0.30884464948E+02  0.54013554688E+02  0.74331919011E+02  0.00000000000E+00 0.  1.
         14    1    4    4    0    0  0.36838890382E+02  0.71370953642E+01  0.75304348247E+02  0.84135526620E+02  0.00000000000E+00 0. -1.
        -13    1    5    5    0    0 -0.41491985153E+02 -0.20734111276E+02  0.11546744314E+03  0.12443560032E+03  0.00000000000E+00 0.  1.
         14    1    5    5    0    0  0.30001523045E+02  0.31604596683E+01  0.17171068051E+03  0.17434057959E+03  0.00000000000E+00 0. -1.
          5    1    3    3  501    0 -0.18091526072E+02  0.26709742556E+02 -0.20819483069E+01  0.32667080858E+02  0.47000000000E+01 0.  1.
         -5    1    3    3    0  501 -0.21931431057E+02 -0.44102589359E+02  0.19592183042E+03  0.20207295636E+03  0.47000000000E+01 0.  1.
          1    1    1    2  502    0  0.45930102370E+02 -0.32310684298E+02  0.37525785021E+03  0.37943643574E+03  0.00000000000E+00 0. -1.
          1    1    1    2  503    0  0.94128407486E+01  0.29255622397E+02 -0.23473757960E+03  0.23674083781E+03  0.00000000000E+00 0. -1.
<mgrwt>
<rscale>  0 0.41385167E+02</rscale>
<asrwt>0</asrwt>
<pdfrwt beam="1">  1        2 0.15139832E+00 0.55730129E+02</pdfrwt>
<pdfrwt beam="2">  1        2 0.40978291E-01 0.30732605E+02</pdfrwt>
<totfact> 0.54584037E+02</totfact>
</mgrwt>
</event>
<event>
13    1  0.3019759E-008  0.9935075E+02  0.7546771E-02  0.1285639E+00
          2   -1    0    0  502    0  0.00000000000E+00  0.00000000000E+00  0.39931426353E+03  0.39931426353E+03  0.00000000000E+00 0. -1.
          2   -1    0    0  503    0 -0.00000000000E+00 -0.00000000000E+00 -0.24127982653E+04  0.24127982653E+04  0.00000000000E+00 0. -1.
         25    2    1    2    0    0 -0.10407160180E+03 -0.31026481489E+02 -0.10209745479E+04  0.10343145716E+04  0.12499625872E+03 0.  0.
         24    2    1    2    0    0  0.22691675238E+02 -0.35662564348E+01 -0.64623023485E+02  0.10613369877E+03  0.80997509463E+02 0.  0.
         24    2    1    2    0    0  0.53628447355E+02  0.54566242162E+02  0.70911404710E+02  0.13213760151E+03  0.81107541353E+02 0.  0.
        -11    1    4    4    0    0  0.36558696460E+02 -0.17490424861E+02 -0.73991459590E+02  0.84363436043E+02  0.00000000000E+00 0.  1.
         12    1    4    4    0    0 -0.13867021222E+02  0.13924168426E+02  0.93684361059E+01  0.21770262722E+02  0.00000000000E+00 0. -1.
        -11    1    5    5    0    0  0.74661189987E+02  0.46926477674E+02  0.49304337034E+02  0.10103120927E+03  0.00000000000E+00 0.  1.
         12    1    5    5    0    0 -0.21032742632E+02  0.76397644885E+01  0.21607067676E+02  0.31106392231E+02  0.00000000000E+00 0. -1.
          5    1    3    3  501    0 -0.90327550315E+02 -0.95967142720E+01 -0.98899806348E+03  0.99317189995E+03  0.47000000000E+01 0. -1.
         -5    1    3    3    0  501 -0.13744051488E+02 -0.21429767217E+02 -0.31976484402E+02  0.41142671631E+02  0.47000000000E+01 0. -1.
          1    1    1    2  502    0  0.79860148824E+02  0.64669083738E+02  0.25856740477E+03  0.27823881212E+03  0.00000000000E+00 0. -1.
          1    1    1    2  503    0 -0.52108669614E+02 -0.84642587976E+02 -0.12573652398E+04  0.12612878448E+04  0.00000000000E+00 0. -1.
<mgrwt>
<rscale>  0 0.97501855E+02</rscale>
<asrwt>0</asrwt>
<pdfrwt beam="1">  1        2 0.58722683E-01 0.95687371E+02</pdfrwt>
<pdfrwt beam="2">  1        2 0.35482329E+00 0.99350747E+02</pdfrwt>
<totfact> 0.75713689E+01</totfact>
</mgrwt>
</event>
<event>
13    1  0.3019759E-008  0.1275129E+03  0.7546771E-02  0.1337779E+00
          2   -1    0    0  502    0  0.00000000000E+00  0.00000000000E+00  0.17428741949E+04  0.17428741949E+04  0.00000000000E+00 0. -1.
          2   -1    0    0  503    0 -0.00000000000E+00 -0.00000000000E+00 -0.34708121735E+04  0.34708121735E+04  0.00000000000E+00 0. -1.
         25    2    1    2    0    0 -0.52564503566E+02  0.32146890399E+00 -0.10698460699E+04  0.10784060991E+04  0.12500388313E+03 0.  0.
         24    2    1    2    0    0  0.15006149996E+03  0.36626216795E+02 -0.41100189799E+03  0.44648363638E+03  0.81025575412E+02 0.  0.
         24    2    1    2    0    0  0.27012210219E+02 -0.15521229973E+03  0.11493237079E+03  0.20906808348E+03  0.75362432198E+02 0.  0.
        -11    1    5    5    0    0  0.36322456385E+02 -0.12488264732E+03  0.11997487300E+03  0.17694339939E+03  0.00000000000E+00 0.  1.
         12    1    5    5    0    0 -0.93102461660E+01 -0.30329652416E+02 -0.50425022060E+01  0.32124684090E+02  0.00000000000E+00 0. -1.
        -11    1    4    4    0    0 -0.48279364499E+00  0.16912893063E+02 -0.15919766418E+02  0.23231831702E+02  0.00000000000E+00 0.  1.
         12    1    4    4    0    0  0.15054429361E+03  0.19713323732E+02 -0.39508213158E+03  0.42325180467E+03  0.00000000000E+00 0. -1.
          5    1    3    3  501    0 -0.50205018804E+02 -0.42704513360E+02 -0.92125544547E+03  0.92362216581E+03  0.47000000000E+01 0.  1.
         -5    1    3    3    0  501 -0.23594847618E+01  0.43025982264E+02 -0.14859062447E+03  0.15478393327E+03  0.47000000000E+01 0.  1.
          1    1    1    2  502    0 -0.10038254704E+03  0.78512886655E+02  0.15559661824E+04  0.15611763801E+04  0.00000000000E+00 0. -1.
          1    1    1    2  503    0 -0.24126659573E+02  0.39751727381E+02 -0.19179885639E+04  0.19185521694E+04  0.00000000000E+00 0. -1.
<mgrwt>
<rscale>  0 0.77002674E+02</rscale>
<asrwt>0</asrwt>
<pdfrwt beam="1">  1        2 0.25630503E+00 0.12751289E+03</pdfrwt>
<pdfrwt beam="2">  1        2 0.51041355E+00 0.46500490E+02</pdfrwt>
<totfact> 0.33922463E+00</totfact>
</mgrwt>
</event>
<event>
13    1  0.3019759E-008  0.3613079E+03  0.7546771E-02  0.1204960E+00
          2   -1    0    0  502    0  0.00000000000E+00  0.00000000000E+00  0.96924036957E+03  0.96924036957E+03  0.00000000000E+00 0. -1.
          2   -1    0    0  503    0 -0.00000000000E+00 -0.00000000000E+00 -0.20015751731E+04  0.20015751731E+04  0.00000000000E+00 0. -1.
         25    2    1    2    0    0  0.45258347089E+03  0.74027816624E+02 -0.50793493166E+02  0.47803410989E+03  0.12499886205E+03 0.  0.
         24    2    1    2    0    0 -0.38957071650E+02 -0.17790242041E+03 -0.11230009269E+03  0.22794296386E+03  0.78611445317E+02 0.  0.
         24    2    1    2    0    0 -0.34355531027E+02  0.57551832353E+02  0.56369092165E+02  0.11842791298E+03  0.79719383477E+02 0.  0.
        -11    1    4    4    0    0 -0.70199513724E+01  0.74136947211E+01 -0.42156390937E+01  0.11046003787E+02  0.00000000000E+00 0.  1.
         12    1    4    4    0    0 -0.31937120278E+02 -0.18531611513E+03 -0.10808445360E+03  0.21689696007E+03  0.00000000000E+00 0. -1.
        -11    1    5    5    0    0 -0.39936975590E+02 -0.89109211685E+00  0.47038767393E+01  0.40222910397E+02  0.00000000000E+00 0.  1.
         12    1    5    5    0    0  0.55814445629E+01  0.58442924470E+02  0.51665215425E+02  0.78205002583E+02  0.00000000000E+00 0. -1.
          5    1    3    3  501    0  0.20885389132E+03 -0.19935653013E+01 -0.73984299888E+02  0.22162962089E+03  0.47000000000E+01 0. -1.
         -5    1    3    3    0  501  0.24372957956E+03  0.76021381926E+02  0.23190806722E+02  0.25640448900E+03  0.47000000000E+01 0. -1.
          1    1    1    2  502    0 -0.26845698544E+02  0.52904003173E+02  0.58866722502E+03  0.59164907411E+03  0.00000000000E+00 0. -1.
          1    1    1    2  503    0 -0.35242516966E+03 -0.65812317425E+01 -0.15142775348E+04  0.15547614818E+04  0.00000000000E+00 0. -1.
<mgrwt>
<rscale>  0 0.14640629E+03</rscale>
<asrwt>0</asrwt>
<pdfrwt beam="1">  1        2 0.14253535E+00 0.59325585E+02</pdfrwt>
<pdfrwt beam="2">  1        2 0.29434929E+00 0.36130788E+03</pdfrwt>
<totfact> 0.39418377E+01</totfact>
</mgrwt>
</event>
<event>
13    1  0.3019759E-008  0.1791198E+03  0.7546771E-02  0.1244021E+00
          2   -1    0    0  502    0  0.00000000000E+00  0.00000000000E+00  0.22882797888E+03  0.22882797888E+03  0.00000000000E+00 0. -1.
          2   -1    0    0  503    0 -0.00000000000E+00 -0.00000000000E+00 -0.29926329577E+04  0.29926329577E+04  0.00000000000E+00 0. -1.
         25    2    1    2    0    0  0.52406151157E+01  0.18478497841E+03 -0.17991019148E+04  0.18128886906E+04  0.12499900972E+03 0.  0.
         24    2    1    2    0    0  0.61698140842E+02 -0.22445255893E+02 -0.73391218240E+02  0.12690024319E+03  0.80043430155E+02 0.  0.
         24    2    1    2    0    0  0.66692828456E+02  0.67509291765E+02  0.24304872219E+02  0.12698595206E+03  0.80803882112E+02 0.  0.
        -11    1    4    4    0    0  0.29991369682E+02 -0.49262287322E+02 -0.24255063312E+02  0.62566471084E+02  0.00000000000E+00 0.  1.
         12    1    4    4    0    0  0.31706771160E+02  0.26817031430E+02 -0.49136154928E+02  0.64333772104E+02  0.00000000000E+00 0. -1.
        -13    1    5    5    0    0 -0.10431008499E+02 -0.97866956952E+01  0.85496097989E+01  0.16663768441E+02  0.00000000000E+00 0.  1.
         14    1    5    5    0    0  0.77123836955E+02  0.77295987460E+02  0.15755262420E+02  0.11032218362E+03  0.00000000000E+00 0. -1.
          5    1    3    3  501    0 -0.46623382679E-02 -0.15992585586E+02 -0.61773199461E+02  0.63982661614E+02  0.47000000000E+01 0. -1.
         -5    1    3    3    0  501  0.52452774540E+01  0.20077756400E+03 -0.17373287153E+04  0.17489060290E+04  0.47000000000E+01 0. -1.
          1    1    1    2  502    0 -0.10924570620E+02 -0.78893763958E+02  0.95883616443E+02  0.12464846624E+03  0.00000000000E+00 0. -1.
          1    1    1    2  503    0 -0.12270701379E+03 -0.15095525033E+03 -0.10115003345E+04  0.10300375845E+04  0.00000000000E+00 0. -1.
<mgrwt>
<rscale>  0 0.11944152E+03</rscale>
<asrwt>0</asrwt>
<pdfrwt beam="1">  1        2 0.33651172E-01 0.79646546E+02</pdfrwt>
<pdfrwt beam="2">  1        2 0.44009309E+00 0.17911984E+03</pdfrwt>
<totfact> 0.62770738E+01</totfact>
</mgrwt>
</event>
<event>
13    1  0.3019759E-008  0.7046576E+02  0.7546771E-02  0.1411958E+00
          2   -1    0    0  503    0  0.00000000000E+00  0.00000000000E+00  0.23018436926E+04  0.23018436926E+04  0.00000000000E+00 0. -1.
          2   -1    0    0  502    0 -0.00000000000E+00 -0.00000000000E+00 -0.42436885544E+04  0.42436885544E+04  0.00000000000E+00 0. -1.
         25    2    1    2    0    0  0.89484121128E+00  0.96522219402E+02 -0.86598535157E+02  0.18011557206E+03  0.12499989371E+03 0.  0.
         24    2    1    2    0    0 -0.88146391253E+02 -0.36302857989E+03 -0.23159794036E+03  0.44699316974E+03  0.81275775596E+02 0.  0.
         24    2    1    2    0    0  0.15332694332E+03  0.19268370048E+03  0.20761139701E+03  0.33435345482E+03  0.89741743927E+02 0.  0.
        -11    1    4    4    0    0 -0.20941595891E+02 -0.24330696823E+03 -0.16211404646E+03  0.29311737459E+03  0.00000000000E+00 0.  1.
         12    1    4    4    0    0 -0.67204795362E+02 -0.11972161167E+03 -0.69483893899E+02  0.15387579514E+03  0.00000000000E+00 0. -1.
        -13    1    5    5    0    0  0.32545741359E+02  0.30075966243E+02  0.89515009116E+02  0.99883561626E+02  0.00000000000E+00 0.  1.
         14    1    5    5    0    0  0.12078120196E+03  0.16260773424E+03  0.11809638790E+03  0.23446989320E+03  0.00000000000E+00 0. -1.
          5    1    3    3  501    0 -0.28407935785E+02  0.54481834952E+02  0.17442411560E+02  0.64043804356E+02  0.47000000000E+01 0.  1.
         -5    1    3    3    0  501  0.29302776997E+02  0.42040384449E+02 -0.10404094672E+03  0.11607176771E+03  0.47000000000E+01 0.  1.
          1    1    1    2  502    0 -0.14936263086E+01  0.45694191865E+02 -0.37068627983E+04  0.37071447228E+04  0.00000000000E+00 0. -1.
          1    1    1    2  503    0 -0.64581766973E+02  0.28128468149E+02  0.18756030150E+04  0.18769253276E+04  0.00000000000E+00 0. -1.
<mgrwt>
<rscale>  0 0.56759101E+02</rscale>
<asrwt>0</asrwt>
<pdfrwt beam="1">  1        2 0.33850643E+00 0.70465758E+02</pdfrwt>
<pdfrwt beam="2">  1        2 0.62407184E+00 0.45718597E+02</pdfrwt>
<totfact> 0.63818031E-01</totfact>
</mgrwt>
</event>
<event>
13    1  0.3019759E-008  0.9076362E+02  0.7546771E-02  0.1435320E+00
          2   -1    0    0  502    0  0.00000000000E+00  0.00000000000E+00  0.15859509159E+04  0.15859509159E+04  0.00000000000E+00 0. -1.
          2   -1    0    0  503    0 -0.00000000000E+00 -0.00000000000E+00 -0.26335062802E+04  0.26335062802E+04  0.00000000000E+00 0. -1.
         25    2    1    2    0    0 -0.40572109014E+03  0.41004272628E+02 -0.19183868805E+03  0.46767058704E+03  0.12499096923E+03 0.  0.
         24    2    1    2    0    0  0.48783920475E+03 -0.13955652149E+03  0.10381042021E+03  0.52430410646E+03  0.81578675681E+02 0.  0.
         24    2    1    2    0    0 -0.15055203372E+02  0.87099698793E+02 -0.12115895003E+02  0.12273613454E+03  0.84287289260E+02 0.  0.
        -11    1    4    4    0    0  0.44771540367E+03 -0.14671672541E+03  0.82497344089E+02  0.47831024658E+03  0.00000000000E+00 0.  1.
         12    1    4    4    0    0  0.40123801072E+02  0.71602039173E+01  0.21313076124E+02  0.45993859878E+02  0.00000000000E+00 0. -1.
        -13    1    5    5    0    0 -0.48370837911E+01  0.27998872585E+01  0.28190318587E+02  0.28739011993E+02  0.00000000000E+00 0.  1.
         14    1    5    5    0    0 -0.10218119581E+02  0.84299811534E+02 -0.40306213590E+02  0.93997122543E+02  0.00000000000E+00 0. -1.
          5    1    3    3  501    0 -0.19935219960E+03 -0.32686885436E+02 -0.55526985040E+02  0.20955922321E+03  0.47000000000E+01 0. -1.
         -5    1    3    3    0  501 -0.20636889054E+03  0.73691158064E+02 -0.13631170301E+03  0.25811136383E+03  0.47000000000E+01 0. -1.
          1    1    1    2  502    0 -0.83261061623E+02  0.36328544683E+02  0.10766459724E+04  0.10804715255E+04  0.00000000000E+00 0. -1.
          1    1    1    2  503    0  0.16198150389E+02 -0.24875994612E+02 -0.20240571739E+04  0.20242748426E+04  0.00000000000E+00 0. -1.
<mgrwt>
<rscale>  0 0.51906762E+02</rscale>
<asrwt>0</asrwt>
<pdfrwt beam="1">  1        2 0.23322808E+00 0.90763623E+02</pdfrwt>
<pdfrwt beam="2">  1        2 0.38728033E+00 0.29684932E+02</pdfrwt>
<totfact> 0.12225327E+01</totfact>
</mgrwt>
</event>
<event>
13    1  0.3019759E-008  0.7519563E+02  0.7546771E-02  0.1442699E+00
          2   -1    0    0  502    0  0.00000000000E+00  0.00000000000E+00  0.43849990299E+04  0.43849990299E+04  0.00000000000E+00 0. -1.
          4   -1    0    0  503    0 -0.00000000000E+00 -0.00000000000E+00 -0.64752502429E+03  0.64752502429E+03  0.00000000000E+00 0. -1.
         25    2    1    2    0    0 -0.11618402967E+03  0.18378471019E+03 -0.29366558952E+03  0.38618607562E+03  0.12499863234E+03 0.  0.
         24    2    1    2    0    0  0.10195645634E+03 -0.34414874528E+01  0.71932042949E+03  0.73070593336E+03  0.78117334442E+02 0.  0.
         24    2    1    2    0    0 -0.57668421546E+02 -0.10237891421E+03  0.25075042557E+04  0.25116351689E+04  0.83225841127E+02 0.  0.
        -13    1    4    4    0    0  0.35182054669E+01  0.20486376425E+02  0.56776725478E+02  0.60462103377E+02  0.00000000000E+00 0.  1.
         14    1    4    4    0    0  0.98438250873E+02 -0.23927863877E+02  0.66254370401E+03  0.67024382998E+03  0.00000000000E+00 0. -1.
        -13    1    5    5    0    0  0.16814803334E+02 -0.41378757821E+02  0.57378402655E+03  0.57551980708E+03  0.00000000000E+00 0.  1.
         14    1    5    5    0    0 -0.74483224879E+02 -0.61000156389E+02  0.19337202291E+04  0.19361153619E+04  0.00000000000E+00 0. -1.
          5    1    3    3  501    0 -0.16624951402E+02 -0.18458791327E+02 -0.31905754909E+02  0.40708514867E+02  0.47000000000E+01 0. -1.
         -5    1    3    3    0  501 -0.99559078271E+02  0.20224350151E+03 -0.26175983461E+03  0.34547756076E+03  0.47000000000E+01 0. -1.
          1    1    1    2  502    0  0.30179973418E+02 -0.15452141156E+02  0.10991812183E+04  0.10997040284E+04  0.00000000000E+00 0. -1.
          3    1    1    2  503    0  0.41716021461E+02 -0.62512167367E+02 -0.29486630829E+03  0.30429284789E+03  0.00000000000E+00 0. -1.
<mgrwt>
<rscale>  0 0.50493207E+02</rscale>
<asrwt>0</asrwt>
<pdfrwt beam="1">  1        2 0.64485278E+00 0.33905744E+02</pdfrwt>
<pdfrwt beam="2">  1        4 0.95224270E-01 0.75195634E+02</pdfrwt>
<totfact> 0.24879216E-01</totfact>
</mgrwt>
</event>
<event>
13    1  0.3019759E-008  0.1344319E+04  0.7546771E-02  0.1094615E+00
          2   -1    0    0  503    0  0.00000000000E+00  0.00000000000E+00  0.84266957081E+03  0.84266957081E+03  0.00000000000E+00 0. -1.
          2   -1    0    0  502    0 -0.00000000000E+00 -0.00000000000E+00 -0.11728560786E+04  0.11728560786E+04  0.00000000000E+00 0. -1.
         25    2    1    2    0    0 -0.14468783538E+03  0.54748879084E+03 -0.48881529091E+03  0.75845242875E+03  0.12502460655E+03 0.  0.
         24    2    1    2    0    0  0.66998830777E+02 -0.67165163708E+03 -0.31330985166E+02  0.67904106743E+03  0.67159330744E+02 0.  0.
         24    2    1    2    0    0 -0.49367928450E+02 -0.35597514010E+02 -0.30277744114E+01  0.10048212696E+03  0.79894399414E+02 0.  0.
        -11    1    5    5    0    0 -0.64225059569E+02 -0.27051933588E+01 -0.36381007862E+01  0.64384874972E+02  0.00000000000E+00 0.  1.
         12    1    5    5    0    0  0.14857131119E+02 -0.32892320651E+02  0.61032637474E+00  0.36097251990E+02  0.00000000000E+00 0. -1.
        -13    1    4    4    0    0 -0.87413621296E+00 -0.31482900642E+03 -0.24052205104E+02  0.31574764602E+03  0.00000000000E+00 0.  1.
         14    1    4    4    0    0  0.67872966990E+02 -0.35682263067E+03 -0.72787800622E+01  0.36329342142E+03  0.00000000000E+00 0. -1.
          5    1    3    3  501    0 -0.14365973957E+03  0.34978665448E+03 -0.36214071273E+03  0.52359985699E+03  0.47000000000E+01 0. -1.
         -5    1    3    3    0  501 -0.10280958095E+01  0.19770213637E+03 -0.12667457818E+03  0.23485257176E+03  0.47000000000E+01 0. -1.
          1    1    1    2  502    0  0.15381116764E+03  0.10701233780E+03 -0.75952039135E+02  0.20218364915E+03  0.00000000000E+00 0. -1.
          1    1    1    2  503    0 -0.26754234589E+02  0.52748022450E+02  0.26893958186E+03  0.27536637709E+03  0.00000000000E+00 0. -1.
<mgrwt>
<rscale>  0 0.28197497E+03</rscale>
<asrwt>0</asrwt>
<pdfrwt beam="1">  1        2 0.12392200E+00 0.59145101E+02</pdfrwt>
<pdfrwt beam="2">  1        2 0.17247883E+00 0.13443190E+04</pdfrwt>
<totfact> 0.11895707E+02</totfact>
</mgrwt>
</event>
<event>
13    1  0.3019759E-008  0.9847551E+02  0.7546771E-02  0.1373695E+00
          2   -1    0    0  503    0  0.00000000000E+00  0.00000000000E+00  0.13758097227E+04  0.13758097227E+04  0.00000000000E+00 0. -1.
         -3   -1    0    0    0  501 -0.00000000000E+00 -0.00000000000E+00 -0.15630552823E+04  0.15630552823E+04  0.00000000000E+00 0.  1.
         25    2    1    2    0    0  0.15090391135E+03  0.10162021384E+03 -0.69570486192E+03  0.72988231492E+03  0.12499712163E+03 0.  0.
         24    2    1    2    0    0 -0.19398700478E+03 -0.20013916318E+03 -0.64800783193E+03  0.71108918310E+03  0.89705258592E+02 0.  0.
         24    2    1    2    0    0 -0.56791763709E+02  0.12710337811E+02  0.19348904391E+03  0.21767963920E+03  0.80991098872E+02 0.  0.
        -13    1    5    5    0    0  0.50156213780E+01  0.18179437981E+02  0.12011707115E+03  0.12158848303E+03  0.00000000000E+00 0.  1.
         14    1    5    5    0    0 -0.61807385087E+02 -0.54691001697E+01  0.73371972759E+02  0.96091156172E+02  0.00000000000E+00 0. -1.
        -13    1    4    4    0    0 -0.86299505048E+02 -0.14181164113E+03 -0.43169313691E+03  0.46251174103E+03  0.00000000000E+00 0.  1.
         14    1    4    4    0    0 -0.10768749973E+03 -0.58327522050E+02 -0.21631469502E+03  0.24857744207E+03  0.00000000000E+00 0. -1.
          5    1    3    3  502    0  0.82947417465E+02  0.36186529299E+02 -0.14393094303E+03  0.17008217228E+03  0.47000000000E+01 0. -1.
         -5    1    3    3    0  502  0.67956493889E+02  0.65433684539E+02 -0.55177391889E+03  0.55980014264E+03  0.47000000000E+01 0. -1.
          1    1    1    2  503    0  0.12777869861E+03  0.51225710188E+02  0.11141620838E+04  0.11226346771E+04  0.00000000000E+00 0. -1.
         -4    1    1    2    0  501 -0.27903841469E+02  0.34582901341E+02 -0.15118399355E+03  0.15757919070E+03  0.00000000000E+00 0.  1.
<mgrwt>
<rscale>  0 0.66150630E+02</rscale>
<asrwt>0</asrwt>
<pdfrwt beam="1">  1        2 0.20232496E+00 0.98475511E+02</pdfrwt>
<pdfrwt beam="2">  1       -3 0.22986107E+00 0.44436488E+02</pdfrwt>
<totfact> 0.13138376E+00</totfact>
</mgrwt>
</event>
<event>
13    1  0.3019759E-008  0.7407105E+02  0.7546771E-02  0.1359458E+00
          2   -1    0    0  502    0  0.00000000000E+00  0.00000000000E+00  0.75977242227E+03  0.75977242227E+03  0.00000000000E+00 0. -1.
          2   -1    0    0  503    0 -0.00000000000E+00 -0.00000000000E+00 -0.71929678816E+03  0.71929678816E+03  0.00000000000E+00 0. -1.
         25    2    1    2    0    0  0.98078382644E+01 -0.16678223817E+03  0.27461933269E+02  0.21045600436E+03  0.12500025332E+03 0.  0.
         24    2    1    2    0    0  0.97239642550E+02  0.68703201219E+02  0.46120447376E+02  0.14933422110E+03  0.77446342614E+02 0.  0.
         24    2    1    2    0    0 -0.36698978477E+01  0.17800325831E+02  0.18118341689E+03  0.19868957456E+03  0.79497149195E+02 0.  0.
        -11    1    4    4    0    0 -0.12177392832E+02 -0.42874984441E+00  0.83497188655E+00  0.12213513036E+02  0.00000000000E+00 0.  1.
         12    1    4    4    0    0  0.10941703538E+03  0.69131951064E+02  0.45285475490E+02  0.13712070806E+03  0.00000000000E+00 0. -1.
        -13    1    5    5    0    0  0.36263969452E+02  0.19475660260E+02  0.10193717132E+03  0.10993436096E+03  0.00000000000E+00 0.  1.
         14    1    5    5    0    0 -0.39933867300E+02 -0.16753344293E+01  0.79246245570E+02  0.88755213593E+02  0.00000000000E+00 0. -1.
          5    1    3    3  501    0 -0.21260564552E+01 -0.12639017376E+03  0.74770526587E+02  0.14694120520E+03  0.47000000000E+01 0. -1.
         -5    1    3    3    0  501  0.11933894720E+02 -0.40392064412E+02 -0.47308593318E+02  0.63514799160E+02  0.47000000000E+01 0. -1.
          1    1    1    2  502    0 -0.68983921673E+02  0.23355860460E+02  0.34741189000E+03  0.35496379953E+03  0.00000000000E+00 0. -1.
          1    1    1    2  503    0 -0.34393661294E+02  0.56922850664E+02 -0.56170205342E+03  0.56562561088E+03  0.00000000000E+00 0. -1.
<mgrwt>
<rscale>  0 0.70187021E+02</rscale>
<asrwt>0</asrwt>
<pdfrwt beam="1">  1        2 0.11173124E+00 0.74071054E+02</pdfrwt>
<pdfrwt beam="2">  1        2 0.10577894E+00 0.66506653E+02</pdfrwt>
<totfact> 0.29079372E+02</totfact>
</mgrwt>
</event>
<event>
13    1  0.3019759E-008  0.1038019E+03  0.7546771E-02  0.1454627E+00
          2   -1    0    0  503    0  0.00000000000E+00  0.00000000000E+00  0.58861144229E+03  0.58861144229E+03  0.00000000000E+00 0. -1.
          2   -1    0    0  502    0 -0.00000000000E+00 -0.00000000000E+00 -0.18334142767E+04  0.18334142767E+04  0.00000000000E+00 0. -1.
         25    2    1    2    0    0 -0.18410652737E+03 -0.18510055300E+03 -0.45428784586E+03  0.53866314643E+03  0.12499244089E+03 0.  0.
         24    2    1    2    0    0 -0.29928585915E+02  0.69733979023E+02 -0.75410067845E+02  0.13313468703E+03  0.79244043776E+02 0.  0.
         24    2    1    2    0    0  0.93248762062E+02  0.88355644936E+02  0.16192889140E+03  0.22321462428E+03  0.84271887385E+02 0.  0.
        -11    1    5    5    0    0  0.59295698791E+01 -0.14895963408E+02  0.67807003040E+01  0.17407682827E+02  0.00000000000E+00 0.  1.
         12    1    5    5    0    0  0.87319192183E+02  0.10325160834E+03  0.15514819110E+03  0.20580694145E+03  0.00000000000E+00 0. -1.
        -13    1    4    4    0    0  0.74397482835E+01  0.48955908078E+01  0.13966630191E+02  0.16564523017E+02  0.00000000000E+00 0.  1.
         14    1    4    4    0    0 -0.37368334198E+02  0.64838388215E+02 -0.89376698036E+02  0.11657016402E+03  0.00000000000E+00 0. -1.
          5    1    3    3  501    0  0.81097393690E+01  0.10729399052E+02 -0.32033512535E+02  0.35058861961E+02  0.47000000000E+01 0.  1.
         -5    1    3    3    0  501 -0.19221626674E+03 -0.19582995205E+03 -0.42225433333E+03  0.50360428447E+03  0.47000000000E+01 0.  1.
          1    1    1    2  502    0  0.18153961297E+02  0.13278497477E+02 -0.11936669615E+04  0.11938788463E+04  0.00000000000E+00 0. -1.
          1    1    1    2  503    0  0.10263238992E+03  0.13732431563E+02  0.31663314936E+03  0.33313441493E+03  0.00000000000E+00 0. -1.
<mgrwt>
<rscale>  0 0.48318743E+02</rscale>
<asrwt>0</asrwt>
<pdfrwt beam="1">  1        2 0.86560506E-01 0.10380193E+03</pdfrwt>
<pdfrwt beam="2">  1        2 0.26961975E+00 0.22491883E+02</pdfrwt>
<totfact> 0.11101273E+02</totfact>
</mgrwt>
</event>
<event>
13    1  0.3019759E-008  0.4516191E+03  0.7546771E-02  0.1188107E+00
          2   -1    0    0  503    0  0.00000000000E+00  0.00000000000E+00  0.23881320224E+04  0.23881320224E+04  0.00000000000E+00 0. -1.
          2   -1    0    0  502    0 -0.00000000000E+00 -0.00000000000E+00 -0.27496280900E+04  0.27496280900E+04  0.00000000000E+00 0. -1.
         25    2    1    2    0    0  0.55170653845E+02  0.16718958776E+03 -0.46749766277E+03  0.51495242285E+03  0.12500309520E+03 0.  0.
         24    2    1    2    0    0 -0.13398606542E+03  0.17511026382E+02 -0.24943947944E+01  0.15707462937E+03  0.80045708288E+02 0.  0.
         24    2    1    2    0    0  0.39982486159E+02  0.27206878071E+03 -0.28789175986E+01  0.28621126324E+03  0.79300557399E+02 0.  0.
        -11    1    5    5    0    0  0.40739375006E+02  0.23608306351E+03 -0.29584863038E+02  0.24139215744E+03  0.00000000000E+00 0.  1.
         12    1    5    5    0    0 -0.75688884714E+00  0.35985717195E+02  0.26705945439E+02  0.44819105799E+02  0.00000000000E+00 0. -1.
        -13    1    4    4    0    0 -0.65926066586E+02 -0.23529930862E+02  0.22883237938E+02  0.73644731519E+02  0.00000000000E+00 0.  1.
         14    1    4    4    0    0 -0.68059998835E+02  0.41040957245E+02 -0.25377632732E+02  0.83429897855E+02  0.00000000000E+00 0. -1.
          5    1    3    3  501    0  0.80043071166E+02  0.15770968741E+03 -0.32617375520E+03  0.37106690411E+03  0.47000000000E+01 0.  1.
         -5    1    3    3    0  501 -0.24872417320E+02  0.94799003502E+01 -0.14132390757E+03  0.14388551874E+03  0.47000000000E+01 0.  1.
          1    1    1    2  502    0  0.49325578951E+02  0.28678101340E+02 -0.20061894519E+04  0.20070006386E+04  0.00000000000E+00 0. -1.
          1    1    1    2  503    0 -0.10492653533E+02 -0.48544749619E+03  0.21175643595E+04  0.21725211584E+04  0.00000000000E+00 0. -1.
<mgrwt>
<rscale>  0 0.16052357E+03</rscale>
<asrwt>0</asrwt>
<pdfrwt beam="1">  1        2 0.35119589E+00 0.45161914E+03</pdfrwt>
<pdfrwt beam="2">  1        2 0.40435707E+00 0.57056518E+02</pdfrwt>
<totfact> 0.33077942E+00</totfact>
</mgrwt>
</event>
<event>
13    1  0.3019759E-008  0.1669398E+03  0.7546771E-02  0.1293393E+00
          2   -1    0    0  502    0  0.00000000000E+00  0.00000000000E+00  0.20644870687E+04  0.20644870687E+04  0.00000000000E+00 0. -1.
          2   -1    0    0  503    0 -0.00000000000E+00 -0.00000000000E+00 -0.85345319428E+03  0.85345319428E+03  0.00000000000E+00 0. -1.
         25    2    1    2    0    0  0.32197586430E+02  0.26142071169E+02 -0.42767779993E+03  0.44749653204E+03  0.12499901272E+03 0.  0.
         24    2    1    2    0    0  0.68020981295E+02 -0.30227707187E+03 -0.22212685377E+02  0.32086536229E+03  0.80392134289E+02 0.  0.
         24    2    1    2    0    0 -0.14340050513E+02  0.10881133445E+03  0.89576373747E+02  0.16320834161E+03  0.81040067147E+02 0.  0.
        -11    1    4    4    0    0 -0.81683244312E+00 -0.17598156111E+03 -0.18832398175E+02  0.17698823771E+03  0.00000000000E+00 0.  1.
         12    1    4    4    0    0  0.68837813738E+02 -0.12629551076E+03 -0.33802872016E+01  0.14387712459E+03  0.00000000000E+00 0. -1.
        -13    1    5    5    0    0 -0.28675417106E+02  0.49855876434E+01  0.33363641160E+02  0.44274915943E+02  0.00000000000E+00 0.  1.
         14    1    5    5    0    0  0.14335366594E+02  0.10382574681E+03  0.56212732588E+02  0.11893342567E+03  0.00000000000E+00 0. -1.
          5    1    3    3  501    0  0.75960753367E+02 -0.16369295073E+01 -0.30246085601E+03  0.31189321091E+03  0.47000000000E+01 0.  1.
         -5    1    3    3    0  501 -0.43763166937E+02  0.27779000676E+02 -0.12521694391E+03  0.13560332113E+03  0.47000000000E+01 0.  1.
          1    1    1    2  502    0 -0.33384647962E+02  0.16035537164E+03  0.17716402772E+04  0.17791957879E+04  0.00000000000E+00 0. -1.
          1    1    1    2  503    0 -0.52493869250E+02  0.69682946112E+01 -0.20029229121E+03  0.20717423913E+03  0.00000000000E+00 0. -1.
<mgrwt>
<rscale>  0 0.94022286E+02</rscale>
<asrwt>0</asrwt>
<pdfrwt beam="1">  1        2 0.30360104E+00 0.16693982E+03</pdfrwt>
<pdfrwt beam="2">  1        2 0.12550782E+00 0.52954352E+02</pdfrwt>
<totfact> 0.46423855E+01</totfact>
</mgrwt>
</event>
<event>
13    1  0.3019759E-008  0.1224944E+03  0.7546771E-02  0.1485813E+00
          2   -1    0    0  502    0  0.00000000000E+00  0.00000000000E+00  0.15958340250E+03  0.15958340250E+03  0.00000000000E+00 0. -1.
          2   -1    0    0  503    0 -0.00000000000E+00 -0.00000000000E+00 -0.39644440516E+04  0.39644440516E+04  0.00000000000E+00 0. -1.
         25    2    1    2    0    0 -0.26812111478E+02 -0.25647613384E+03 -0.17540569688E+04  0.17773127510E+04  0.12500347446E+03 0.  0.
         24    2    1    2    0    0  0.15312856374E+02  0.15264990922E+03 -0.18359848324E+03  0.25209503459E+03  0.79416780724E+02 0.  0.
         24    2    1    2    0    0  0.19091210143E+02 -0.33913878408E+02 -0.20709143155E+03  0.22689028398E+03  0.84129153649E+02 0.  0.
        -11    1    4    4    0    0 -0.20508785267E+02  0.73940934325E+01 -0.34970671401E+02  0.41209595351E+02  0.00000000000E+00 0.  1.
         12    1    4    4    0    0  0.35821641640E+02  0.14525581579E+03 -0.14862781184E+03  0.21088543924E+03  0.00000000000E+00 0. -1.
        -13    1    5    5    0    0  0.12455980577E+02 -0.54523855837E+02 -0.77904953743E+02  0.95901950581E+02  0.00000000000E+00 0.  1.
         14    1    5    5    0    0  0.66352295652E+01  0.20609977428E+02 -0.12918647780E+03  0.13098833340E+03  0.00000000000E+00 0. -1.
          5    1    3    3  501    0 -0.37115047669E+02 -0.10340876267E+03 -0.11002297917E+04  0.11057117995E+04  0.47000000000E+01 0. -1.
         -5    1    3    3    0  501  0.10302936190E+02 -0.15306737117E+03 -0.65382717707E+03  0.67160095152E+03  0.47000000000E+01 0. -1.
          1    1    1    2  502    0 -0.87815294546E+01  0.12254182302E+03  0.67412498172E+02  0.14013585751E+03  0.00000000000E+00 0. -1.
          1    1    1    2  503    0  0.11895744166E+01  0.15198280005E+02 -0.17275262637E+04  0.17275935270E+04  0.00000000000E+00 0. -1.
<mgrwt>
<rscale>  0 0.43213401E+02</rscale>
<asrwt>0</asrwt>
<pdfrwt beam="1">  1        2 0.23468147E-01 0.12249439E+03</pdfrwt>
<pdfrwt beam="2">  1        2 0.58300650E+00 0.15244763E+02</pdfrwt>
<totfact> 0.42587206E+01</totfact>
</mgrwt>
</event>
<event>
13    1  0.3019759E-008  0.1694505E+03  0.7546771E-02  0.1293955E+00
          2   -1    0    0  502    0  0.00000000000E+00  0.00000000000E+00  0.29857498433E+04  0.29857498433E+04  0.00000000000E+00 0. -1.
          2   -1    0    0  503    0 -0.00000000000E+00 -0.00000000000E+00 -0.18070755010E+04  0.18070755010E+04  0.00000000000E+00 0. -1.
         25    2    1    2    0    0  0.16998778499E+03  0.38278538510E+03 -0.38303895299E+03  0.58117484150E+03  0.12499943520E+03 0.  0.
         24    2    1    2    0    0  0.23373410930E+03 -0.55562294407E+03  0.38572360462E+02  0.60654801724E+03  0.55355039563E+02 0.  0.
         24    2    1    2    0    0 -0.31212672964E+03  0.98870280517E+02  0.68959832211E+02  0.34421968682E+03  0.80828872361E+02 0.  0.
        -11    1    5    5    0    0 -0.15365096994E+03  0.35838156153E+02  0.72492368885E+02  0.17363219041E+03  0.00000000000E+00 0.  1.
         12    1    5    5    0    0 -0.15847575970E+03  0.63032124364E+02 -0.35325366740E+01  0.17058749641E+03  0.00000000000E+00 0. -1.
        -13    1    4    4    0    0  0.12588575179E+03 -0.28086027800E+03  0.46477561026E+02  0.31127139596E+03  0.00000000000E+00 0.  1.
         14    1    4    4    0    0  0.10784835751E+03 -0.27476266606E+03 -0.79052005650E+01  0.29527662128E+03  0.00000000000E+00 0. -1.
          5    1    3    3  501    0  0.11736119810E+03  0.11646147837E+03 -0.13724369066E+03  0.21492986622E+03  0.47000000000E+01 0. -1.
         -5    1    3    3    0  501  0.52626586883E+02  0.26632390673E+03 -0.24579526232E+03  0.36624497529E+03  0.47000000000E+01 0. -1.
          1    1    1    2  502    0 -0.13248502335E+03  0.10592645119E+03  0.23537319268E+04  0.23598361548E+04  0.00000000000E+00 0. -1.
          1    1    1    2  503    0  0.40889858702E+02 -0.31959172745E+02 -0.89955082415E+03  0.90104664391E+03  0.00000000000E+00 0. -1.
<mgrwt>
<rscale>  0 0.93776795E+02</rscale>
<asrwt>0</asrwt>
<pdfrwt beam="1">  1        2 0.43908086E+00 0.16945049E+03</pdfrwt>
<pdfrwt beam="2">  1        2 0.26574640E+00 0.51897681E+02</pdfrwt>
<totfact> 0.51286413E+00</totfact>
</mgrwt>
</event>
<event>
13    1  0.3019759E-008  0.1308264E+03  0.7546771E-02  0.1271997E+00
          2   -1    0    0  503    0  0.00000000000E+00  0.00000000000E+00  0.18260553824E+04  0.18260553824E+04  0.00000000000E+00 0. -1.
          2   -1    0    0  502    0 -0.00000000000E+00 -0.00000000000E+00 -0.72192823992E+03  0.72192823992E+03  0.00000000000E+00 0. -1.
         25    2    1    2    0    0 -0.31913997082E+02 -0.58245399180E+02  0.46211994315E+02  0.14890638315E+03  0.12500613100E+03 0.  0.
         24    2    1    2    0    0 -0.33837116656E+01 -0.75052949366E+02  0.47552308533E+02  0.12182090434E+03  0.83274942059E+02 0.  0.
         24    2    1    2    0    0  0.76930647992E+01 -0.62892790395E+02  0.19716287434E+03  0.22227555498E+03  0.80737457190E+02 0.  0.
        -11    1    5    5    0    0 -0.30181946006E+02 -0.26872038691E+02  0.40874583833E+02  0.57478586723E+02  0.00000000000E+00 0.  1.
         12    1    5    5    0    0  0.37875010805E+02 -0.36020751703E+02  0.15628829051E+03  0.16479696825E+03  0.00000000000E+00 0. -1.
        -11    1    4    4    0    0 -0.23196647487E+01  0.12794585573E+02 -0.10335231765E+02  0.16610216138E+02  0.00000000000E+00 0.  1.
         12    1    4    4    0    0 -0.10640469169E+01 -0.87847534939E+02  0.57887540298E+02  0.10521068820E+03  0.00000000000E+00 0. -1.
          5    1    3    3  501    0 -0.27802512214E+02  0.11281754219E+02  0.69070169654E+02  0.75452210039E+02  0.47000000000E+01 0.  1.
         -5    1    3    3    0  501 -0.41114848678E+01 -0.69527153400E+02 -0.22858175339E+02  0.73454173111E+02  0.47000000000E+01 0.  1.
          1    1    1    2  502    0 -0.80875129591E+02 -0.17554950550E+02 -0.60805179327E+03  0.61365784129E+03  0.00000000000E+00 0. -1.
          1    1    1    2  503    0  0.10847977354E+03  0.21374608949E+03  0.14212517586E+04  0.14413229386E+04  0.00000000000E+00 0. -1.
<mgrwt>
<rscale>  0 0.10405284E+03</rscale>
<asrwt>0</asrwt>
<pdfrwt beam="1">  1        2 0.26853756E+00 0.13082642E+03</pdfrwt>
<pdfrwt beam="2">  1        2 0.10616592E+00 0.82758461E+02</pdfrwt>
<totfact> 0.74592814E+01</totfact>
</mgrwt>
</event>
<event>
13    1  0.3019759E-008  0.1880628E+03  0.7546771E-02  0.1347922E+00
          2   -1    0    0  502    0  0.00000000000E+00  0.00000000000E+00  0.19253978433E+04  0.19253978433E+04  0.00000000000E+00 0. -1.
          2   -1    0    0  503    0 -0.00000000000E+00 -0.00000000000E+00 -0.14585472099E+04  0.14585472099E+04  0.00000000000E+00 0. -1.
         25    2    1    2    0    0  0.11592345646E+03  0.10029724785E+03 -0.39431376513E+03  0.44114139072E+03  0.12499838217E+03 0.  0.
         24    2    1    2    0    0 -0.66619181512E+02  0.25579230924E+02  0.65627717504E+02  0.12649275540E+03  0.81246584327E+02 0.  0.
         24    2    1    2    0    0 -0.44263592705E+03 -0.96423795318E+02 -0.17589578997E+02  0.46059074753E+03  0.81303943329E+02 0.  0.
        -11    1    5    5    0    0 -0.31603286359E+02  0.13198492437E+02  0.48981890994E+01  0.34597112130E+02  0.00000000000E+00 0.  1.
         12    1    5    5    0    0 -0.41103264070E+03 -0.10962228776E+03 -0.22487768096E+02  0.42599363540E+03  0.00000000000E+00 0. -1.
        -13    1    4    4    0    0 -0.14808378964E+02 -0.26917903844E+02  0.35154352282E+02  0.46687151544E+02  0.00000000000E+00 0.  1.
         14    1    4    4    0    0 -0.51810802548E+02  0.52497134768E+02  0.30473365222E+02  0.79805603860E+02  0.00000000000E+00 0. -1.
          5    1    3    3  501    0  0.64435738199E+02  0.70859950092E+02 -0.35980293106E+03  0.37236183489E+03  0.47000000000E+01 0. -1.
         -5    1    3    3    0  501  0.51487718261E+02  0.29437297753E+02 -0.34510834072E+02  0.68779555822E+02  0.47000000000E+01 0. -1.
          1    1    1    2  502    0  0.36574141499E+03 -0.20891492668E+02  0.15629659551E+04  0.16053242084E+04  0.00000000000E+00 0. -1.
          1    1    1    2  503    0  0.27590237112E+02 -0.85611907831E+01 -0.74983969512E+03  0.75039595118E+03  0.00000000000E+00 0. -1.
<mgrwt>
<rscale>  0 0.73707218E+02</rscale>
<asrwt>0</asrwt>
<pdfrwt beam="1">  1        2 0.28314674E+00 0.18806281E+03</pdfrwt>
<pdfrwt beam="2">  1        2 0.21449224E+00 0.28887976E+02</pdfrwt>
<totfact> 0.27035165E+01</totfact>
</mgrwt>
</event>
<event>
13    1  0.3019759E-008  0.2023071E+03  0.7546771E-02  0.1316259E+00
          2   -1    0    0  503    0  0.00000000000E+00  0.00000000000E+00  0.24591850767E+04  0.24591850767E+04  0.00000000000E+00 0. -1.
         -3   -1    0    0    0  501 -0.00000000000E+00 -0.00000000000E+00 -0.20285566170E+04  0.20285566170E+04  0.00000000000E+00 0.  1.
         25    2    1    2    0    0  0.33194119196E+01  0.73341575328E+02 -0.17518368190E+03  0.22738970960E+03  0.12500700965E+03 0.  0.
         24    2    1    2    0    0  0.98717179744E+02 -0.27272251839E+03  0.13398802511E+03  0.32946654200E+03  0.80453451221E+02 0.  0.
         24    2    1    2    0    0 -0.16746290564E+03 -0.20531775014E+02  0.53586468049E+03  0.56729850096E+03  0.78811514645E+02 0.  0.
        -11    1    4    4    0    0  0.81972495212E+01 -0.91384280061E+02  0.74650057819E+02  0.11828318847E+03  0.00000000000E+00 0.  1.
         12    1    4    4    0    0  0.90519930223E+02 -0.18133823833E+03  0.59337967288E+02  0.21118335353E+03  0.00000000000E+00 0. -1.
        -13    1    5    5    0    0  0.76485744257E+01 -0.73246585076E+01  0.32332488431E+02  0.34022655998E+02  0.00000000000E+00 0.  1.
         14    1    5    5    0    0 -0.17511148006E+03 -0.13207116506E+02  0.50353219206E+03  0.53327584496E+03  0.00000000000E+00 0. -1.
          5    1    3    3  502    0  0.33671058773E+02  0.75567696146E+02 -0.17812494504E+03  0.19645560045E+03  0.47000000000E+01 0. -1.
         -5    1    3    3    0  502 -0.30351646853E+02 -0.22261208186E+01  0.29412631416E+01  0.30934109159E+02  0.47000000000E+01 0. -1.
          1    1    1    2  503    0  0.36058113186E+02  0.20006061906E+03  0.16433263742E+04  0.16558520499E+04  0.00000000000E+00 0. -1.
         -4    1    1    2    0  501  0.29368200787E+02  0.19852099014E+02 -0.17073669383E+04  0.17077348913E+04  0.00000000000E+00 0.  1.
<mgrwt>
<rscale>  0 0.84684623E+02</rscale>
<asrwt>0</asrwt>
<pdfrwt beam="1">  1        2 0.36164487E+00 0.20230709E+03</pdfrwt>
<pdfrwt beam="2">  1       -3 0.29831715E+00 0.35448513E+02</pdfrwt>
<totfact> 0.16243582E-01</totfact>
</mgrwt>
</event>
<event>
13    1  0.3019759E-008  0.1072985E+03  0.7546771E-02  0.1298566E+00
          2   -1    0    0  502    0  0.00000000000E+00  0.00000000000E+00  0.17366198113E+03  0.17366198113E+03  0.00000000000E+00 0. -1.
          2   -1    0    0  503    0 -0.00000000000E+00 -0.00000000000E+00 -0.29217521291E+04  0.29217521291E+04  0.00000000000E+00 0. -1.
         25    2    1    2    0    0  0.13718769444E+03 -0.22537451658E+02 -0.45894367465E+03  0.49556423789E+03  0.12500486847E+03 0.  0.
         24    2    1    2    0    0 -0.47582251478E+01 -0.74115039544E+02 -0.21874322837E+03  0.24447982851E+03  0.80038158397E+02 0.  0.
         24    2    1    2    0    0 -0.19517379744E+00  0.10911823433E+03 -0.18770685657E+03  0.23232199535E+03  0.82660863552E+02 0.  0.
        -13    1    4    4    0    0  0.33901957440E+02 -0.22640910360E+02 -0.54417083829E+02  0.67993915556E+02  0.00000000000E+00 0.  1.
         14    1    4    4    0    0 -0.38660182588E+02 -0.51474129184E+02 -0.16432614454E+03  0.17648591295E+03  0.00000000000E+00 0. -1.
        -13    1    5    5    0    0 -0.37570556504E+02  0.41869362688E+02 -0.53536998741E+02  0.77658228682E+02  0.00000000000E+00 0.  1.
         14    1    5    5    0    0  0.37375382706E+02  0.67248871647E+02 -0.13416985783E+03  0.15466376667E+03  0.00000000000E+00 0. -1.
          5    1    3    3  501    0  0.15570306547E+03  0.16775138528E+01 -0.39358778991E+03  0.42329622845E+03  0.47000000000E+01 0. -1.
         -5    1    3    3    0  501 -0.18515371027E+02 -0.24214965511E+02 -0.65355884741E+02  0.72268009446E+02  0.47000000000E+01 0. -1.
          1    1    1    2  502    0 -0.78874312245E+02 -0.70080479838E+02  0.96087338668E+02  0.14270671827E+03  0.00000000000E+00 0. -1.
          1    1    1    2  503    0 -0.53359983250E+02  0.57614736705E+02 -0.19787837271E+04  0.19803413302E+04  0.00000000000E+00 0. -1.
<mgrwt>
<rscale>  0 0.91793276E+02</rscale>
<asrwt>0</asrwt>
<pdfrwt beam="1">  1        2 0.25538527E-01 0.10729852E+03</pdfrwt>
<pdfrwt beam="2">  1        2 0.42966943E+00 0.78528630E+02</pdfrwt>
<totfact> 0.10480935E+02</totfact>
</mgrwt>
</event>
<event>
13    1  0.3019759E-008  0.7216974E+02  0.7546771E-02  0.1425497E+00
          2   -1    0    0  502    0  0.00000000000E+00  0.00000000000E+00  0.15508671023E+04  0.15508671023E+04  0.00000000000E+00 0. -1.
          2   -1    0    0  503    0 -0.00000000000E+00 -0.00000000000E+00 -0.26575978344E+04  0.26575978344E+04  0.00000000000E+00 0. -1.
         25    2    1    2    0    0  0.69388566496E+02  0.46280947802E+02 -0.16961432690E+04  0.17027835730E+04  0.12495282338E+03 0.  0.
         24    2    1    2    0    0  0.49909608852E+02  0.17343721799E+02  0.13472136957E+03  0.16530774395E+03  0.79906376776E+02 0.  0.
         24    2    1    2    0    0 -0.79078945618E+02 -0.16826834324E+03  0.10657374959E+04  0.10845532217E+04  0.76756534041E+02 0.  0.
        -13    1    4    4    0    0  0.55996980596E+02  0.41115758012E+02  0.84336329996E+02  0.10926474248E+03  0.00000000000E+00 0.  1.
         14    1    4    4    0    0 -0.60873717445E+01 -0.23772036213E+02  0.50385039578E+02  0.56043001470E+02  0.00000000000E+00 0. -1.
        -13    1    5    5    0    0 -0.13847764506E+01 -0.55641983041E+02  0.47112994004E+03  0.47440633247E+03  0.00000000000E+00 0.  1.
         14    1    5    5    0    0 -0.77694169167E+02 -0.11262636020E+03  0.59460755590E+03  0.61014688925E+03  0.00000000000E+00 0. -1.
          5    1    3    3  501    0  0.78796060900E+02 -0.12921774642E+02 -0.12570679429E+04  0.12596101360E+04  0.47000000000E+01 0.  1.
         -5    1    3    3    0  501 -0.94074944038E+01  0.59202722444E+02 -0.43907532608E+03  0.44317343700E+03  0.47000000000E+01 0.  1.
          1    1    1    2  502    0 -0.22932998587E+02  0.68330850823E+02  0.31791795106E+03  0.32598596780E+03  0.00000000000E+00 0. -1.
          1    1    1    2  503    0 -0.17286231143E+02  0.36312822813E+02 -0.92896427964E+03  0.92983443028E+03  0.00000000000E+00 0. -1.
<mgrwt>
<rscale>  0 0.53874625E+02</rscale>
<asrwt>0</asrwt>
<pdfrwt beam="1">  1        2 0.22806869E+00 0.72169737E+02</pdfrwt>
<pdfrwt beam="2">  1        2 0.39082321E+00 0.40217346E+02</pdfrwt>
<totfact> 0.12028549E+01</totfact>
</mgrwt>
</event>
<event>
13    1  0.3019759E-008  0.9467662E+02  0.7546771E-02  0.1408678E+00
          2   -1    0    0  502    0  0.00000000000E+00  0.00000000000E+00  0.11995191341E+04  0.11995191341E+04  0.00000000000E+00 0. -1.
          2   -1    0    0  503    0 -0.00000000000E+00 -0.00000000000E+00 -0.81822764062E+03  0.81822764062E+03  0.00000000000E+00 0. -1.
         25    2    1    2    0    0  0.12016211014E+03 -0.23043561747E+02  0.23360596387E+03  0.29183474312E+03  0.12500332989E+03 0.  0.
         24    2    1    2    0    0 -0.29569408366E+02  0.45647894191E+02  0.86585062402E+02  0.12998596493E+03  0.80257696782E+02 0.  0.
         24    2    1    2    0    0 -0.31260118880E+02 -0.28718886384E+02  0.14364564502E+03  0.17107233365E+03  0.82642014375E+02 0.  0.
        -11    1    5    5    0    0  0.26462239494E+02 -0.85640173317E+01  0.70198990447E+02  0.75508216584E+02  0.00000000000E+00 0.  1.
         12    1    5    5    0    0 -0.57722358374E+02 -0.20154869052E+02  0.73446654570E+02  0.95564117065E+02  0.00000000000E+00 0. -1.
        -13    1    4    4    0    0  0.94964865489E+01  0.18712670130E+02  0.79237307247E+02  0.81968885194E+02  0.00000000000E+00 0.  1.
         14    1    4    4    0    0 -0.39065894915E+02  0.26935224061E+02  0.73477551549E+01  0.48017079738E+02  0.00000000000E+00 0. -1.
          5    1    3    3  501    0  0.19362121835E+02 -0.54468701645E+02  0.13649011675E+03  0.14830162910E+03  0.47000000000E+01 0.  1.
         -5    1    3    3    0  501  0.10079998830E+03  0.31425139898E+02  0.97115847114E+02  0.14353311402E+03  0.47000000000E+01 0.  1.
          1    1    1    2  502    0  0.33957751781E+02 -0.80948519929E+01  0.66774278010E+03  0.66865467613E+03  0.00000000000E+00 0. -1.
          1    1    1    2  503    0 -0.93290334675E+02  0.14209405932E+02 -0.75028795794E+03  0.75619905686E+03  0.00000000000E+00 0. -1.
<mgrwt>
<rscale>  0 0.57489907E+02</rscale>
<asrwt>0</asrwt>
<pdfrwt beam="1">  1        2 0.17639987E+00 0.34909247E+02</pdfrwt>
<pdfrwt beam="2">  1        2 0.12032759E+00 0.94676618E+02</pdfrwt>
<totfact> 0.14390791E+02</totfact>
</mgrwt>
</event>
<event>
13    1  0.3019759E-008  0.1298651E+03  0.7546771E-02  0.1336370E+00
          2   -1    0    0  503    0  0.00000000000E+00  0.00000000000E+00  0.18196157648E+04  0.18196157648E+04  0.00000000000E+00 0. -1.
          2   -1    0    0  502    0 -0.00000000000E+00 -0.00000000000E+00 -0.46501195135E+03  0.46501195135E+03  0.00000000000E+00 0. -1.
         25    2    1    2    0    0 -0.21215021530E+02  0.59531535696E+02  0.56678328582E+02  0.15110015589E+03  0.12499897319E+03 0.  0.
         24    2    1    2    0    0 -0.17085249280E+03 -0.12396545682E+03  0.27339200161E+03  0.35453572341E+03  0.79964891346E+02 0.  0.
         24    2    1    2    0    0  0.25266374977E+02  0.95565864448E+02  0.35915067349E+03  0.38120641787E+03  0.80980878036E+02 0.  0.
        -13    1    4    4    0    0 -0.10565440235E+03 -0.29779422178E+02  0.11407668417E+03  0.15831347571E+03  0.00000000000E+00 0.  1.
         14    1    4    4    0    0 -0.65198090453E+02 -0.94186034647E+02  0.15931531744E+03  0.19622224770E+03  0.00000000000E+00 0. -1.
        -13    1    5    5    0    0  0.22774038743E+02  0.49719427000E+01  0.21876111829E+02  0.31967816999E+02  0.00000000000E+00 0.  1.
         14    1    5    5    0    0  0.24923362340E+01  0.90593921748E+02  0.33727456166E+03  0.34923860087E+03  0.00000000000E+00 0. -1.
          5    1    3    3  501    0  0.47906419529E+02  0.15981486429E+02 -0.14223890637E+01  0.50739985526E+02  0.47000000000E+01 0. -1.
         -5    1    3    3    0  501 -0.69121441059E+02  0.43550049268E+02  0.58100717646E+02  0.10036017037E+03  0.47000000000E+01 0. -1.
          1    1    1    2  502    0  0.12205540889E+03 -0.42719290321E+02 -0.35424523155E+03  0.37711025534E+03  0.00000000000E+00 0. -1.
          1    1    1    2  503    0  0.44745730460E+02  0.11587347001E+02  0.10196280413E+04  0.10206751636E+04  0.00000000000E+00 0. -1.
<mgrwt>
<rscale>  0 0.77476364E+02</rscale>
<asrwt>0</asrwt>
<pdfrwt beam="1">  1        2 0.26759055E+00 0.46221716E+02</pdfrwt>
<pdfrwt beam="2">  1        2 0.68384111E-01 0.12986508E+03</pdfrwt>
<totfact> 0.13430573E+02</totfact>
</mgrwt>
</event>
<event>
13    1  0.3019759E-008  0.1137552E+03  0.7546771E-02  0.1382668E+00
         -1   -1    0    0    0  501 -0.00000000000E+00  0.00000000000E+00  0.60300388734E+02  0.60300388734E+02  0.00000000000E+00 0.  1.
          2   -1    0    0  503    0  0.00000000000E+00 -0.00000000000E+00 -0.35869453650E+04  0.35869453650E+04  0.00000000000E+00 0. -1.
         25    2    1    2    0    0  0.11246475237E+02  0.82534632435E+02 -0.13256174798E+03  0.20034011321E+03  0.12500038071E+03 0.  0.
         24    2    1    2    0    0  0.90459945440E+02 -0.52559277718E+02 -0.48808156977E+03  0.50562649756E+03  0.80554682523E+02 0.  0.
         24    2    1    2    0    0 -0.28833175051E+02 -0.14672930062E+01 -0.33828484527E+03  0.34888796547E+03  0.80328519073E+02 0.  0.
        -11    1    5    5    0    0  0.32585929590E+00 -0.17759744523E+02 -0.28783619348E+03  0.28838375299E+03  0.00000000000E+00 0.  1.
         12    1    5    5    0    0 -0.29159034347E+02  0.16292451517E+02 -0.50448651791E+02  0.60504212482E+02  0.00000000000E+00 0. -1.
        -13    1    4    4    0    0  0.39880422700E+02  0.18579376918E+02 -0.13894743927E+03  0.14574646562E+03  0.00000000000E+00 0.  1.
         14    1    4    4    0    0  0.50579522740E+02 -0.71138654636E+02 -0.34913413050E+03  0.35988003194E+03  0.00000000000E+00 0. -1.
          5    1    3    3  502    0 -0.13727053293E+02  0.80144620866E+01  0.21605585946E+02  0.27231506362E+02  0.47000000000E+01 0. -1.
         -5    1    3    3    0  502  0.24973528531E+02  0.74520170348E+02 -0.15416733392E+03  0.17310860685E+03  0.47000000000E+01 0. -1.
          1    1    1    2  503    0 -0.10616197351E+03 -0.41533041508E+02 -0.25499071077E+04  0.25524540379E+04  0.00000000000E+00 0. -1.
         -2    1    1    2    0  501  0.33288727879E+02  0.13024979797E+02 -0.17809705591E+02  0.39937139554E+02  0.00000000000E+00 0.  1.
<mgrwt>
<rscale>  0 0.63767649E+02</rscale>
<asrwt>0</asrwt>
<pdfrwt beam="2">  1        2 0.52749205E+00 0.11375517E+03</pdfrwt>
<pdfrwt beam="1">  1       -1 0.88677028E-02 0.35746182E+02</pdfrwt>
<totfact> 0.94950157E+01</totfact>
</mgrwt>
</event>
<event>
13    1  0.3019759E-008  0.2547267E+03  0.7546771E-02  0.1383977E+00
          2   -1    0    0  502    0  0.00000000000E+00  0.00000000000E+00  0.15046113251E+04  0.15046113251E+04  0.00000000000E+00 0. -1.
          2   -1    0    0  503    0 -0.00000000000E+00 -0.00000000000E+00 -0.20150408185E+04  0.20150408185E+04  0.00000000000E+00 0. -1.
         25    2    1    2    0    0 -0.81229925014E+01  0.15076116133E+03 -0.65823257614E+03  0.68679556588E+03  0.12499245674E+03 0.  0.
         24    2    1    2    0    0 -0.27674695421E+03 -0.40032888741E+02 -0.71434795130E+02  0.29966473435E+03  0.80650568572E+02 0.  0.
         24    2    1    2    0    0  0.43994326093E+03  0.11111453492E+03  0.52425004084E+03  0.69821205711E+03  0.82252408196E+02 0.  0.
        -11    1    5    5    0    0  0.34670224495E+03  0.72475354271E+02  0.35719251263E+03  0.50303241914E+03  0.00000000000E+00 0.  1.
         12    1    5    5    0    0  0.93241015983E+02  0.38639180654E+02  0.16705752821E+03  0.19517963796E+03  0.00000000000E+00 0. -1.
        -13    1    4    4    0    0 -0.13334967907E+03 -0.58780736625E+02 -0.25632869893E+02  0.14796741508E+03  0.00000000000E+00 0.  1.
         14    1    4    4    0    0 -0.14339727514E+03  0.18747847884E+02 -0.45801925237E+02  0.15169731927E+03  0.00000000000E+00 0. -1.
          5    1    3    3  501    0  0.56881456006E+02  0.78432450139E+02 -0.28414540836E+03  0.30024631949E+03  0.47000000000E+01 0. -1.
         -5    1    3    3    0  501 -0.65004448508E+02  0.72328711191E+02 -0.37408716778E+03  0.38654924639E+03  0.47000000000E+01 0. -1.
          1    1    1    2  502    0 -0.16140708804E+03 -0.20737364894E+03  0.74235468717E+03  0.78749384753E+03  0.00000000000E+00 0. -1.
          1    1    1    2  503    0  0.63337738210E+01 -0.14469158575E+02 -0.10473668501E+04  0.10474859388E+04  0.00000000000E+00 0. -1.
<mgrwt>
<rscale>  0 0.63429786E+02</rscale>
<asrwt>0</asrwt>
<pdfrwt beam="1">  1        2 0.22126637E+00 0.25472672E+03</pdfrwt>
<pdfrwt beam="2">  1        2 0.29632953E+00 0.15794722E+02</pdfrwt>
<totfact> 0.25925501E+01</totfact>
</mgrwt>
</event>
<event>
13    1  0.3019759E-008  0.1223178E+03  0.7546771E-02  0.1277958E+00
         -1   -1    0    0    0  501 -0.00000000000E+00  0.00000000000E+00  0.12346071181E+04  0.12346071181E+04  0.00000000000E+00 0.  1.
          2   -1    0    0  503    0  0.00000000000E+00 -0.00000000000E+00 -0.58729967046E+03  0.58729967046E+03  0.00000000000E+00 0. -1.
         25    2    1    2    0    0 -0.69000473041E+02  0.26103919172E+02  0.44853042225E+03  0.47143621597E+03  0.12502034303E+03 0.  0.
         24    2    1    2    0    0  0.49110571908E+02 -0.84301090718E+02  0.15023924397E+03  0.19613743118E+03  0.79872018329E+02 0.  0.
         24    2    1    2    0    0 -0.52211654895E+01  0.10013194663E+02 -0.19671304946E+03  0.21226608515E+03  0.78951519577E+02 0.  0.
        -11    1    5    5    0    0  0.36918983639E+02  0.61528201247E+01 -0.90629152910E+02  0.98053617504E+02  0.00000000000E+00 0.  1.
         12    1    5    5    0    0 -0.42140149128E+02  0.38603745384E+01 -0.10608389655E+03  0.11421246765E+03  0.00000000000E+00 0. -1.
        -11    1    4    4    0    0  0.63134386805E+02 -0.68880974739E+02  0.14819747366E+03  0.17519426554E+03  0.00000000000E+00 0.  1.
         12    1    4    4    0    0 -0.14023814897E+02 -0.15420115979E+02  0.20417703083E+01  0.20943165641E+02  0.00000000000E+00 0. -1.
          5    1    3    3  502    0  0.29861042615E+02  0.20653204774E+02  0.58534964051E+02  0.69041065677E+02  0.47000000000E+01 0. -1.
         -5    1    3    3    0  502 -0.98861515656E+02  0.54507143980E+01  0.38999545820E+03  0.40239515029E+03  0.47000000000E+01 0. -1.
          1    1    1    2  503    0 -0.73611428766E+02 -0.48323631917E+02 -0.33460767763E+03  0.34600016442E+03  0.00000000000E+00 0. -1.
         -2    1    1    2    0  501  0.98722495389E+02  0.96507608800E+02  0.57985850849E+03  0.59606689182E+03  0.00000000000E+00 0.  1.
<mgrwt>
<rscale>  0 0.10112017E+03</rscale>
<asrwt>0</asrwt>
<pdfrwt beam="2">  1        2 0.86367599E-01 0.83596057E+02</pdfrwt>
<pdfrwt beam="1">  1       -1 0.18155987E+00 0.12231782E+03</pdfrwt>
<totfact> 0.15279091E+01</totfact>
</mgrwt>
</event>
<event>
13    1  0.3019759E-008  0.8829854E+02  0.7546771E-02  0.1449115E+00
          2   -1    0    0  503    0  0.00000000000E+00  0.00000000000E+00  0.34269859266E+04  0.34269859266E+04  0.00000000000E+00 0. -1.
          2   -1    0    0  502    0 -0.00000000000E+00 -0.00000000000E+00 -0.19759596311E+04  0.19759596311E+04  0.00000000000E+00 0. -1.
         25    2    1    2    0    0 -0.12539332517E+03 -0.15306295511E+03 -0.34027722148E+03  0.41299738548E+03  0.12500599479E+03 0.  0.
         24    2    1    2    0    0 -0.41224750612E+02  0.18596395673E+03  0.25154474035E+03  0.32592146458E+03  0.81657647588E+02 0.  0.
         24    2    1    2    0    0  0.65951555752E+02 -0.13408892139E+02  0.28609517865E+03  0.30389116186E+03  0.77265651567E+02 0.  0.
        -11    1    4    4    0    0 -0.34026034060E+02  0.18250396306E+03  0.25641538678E+03  0.31656645133E+03  0.00000000000E+00 0.  1.
         12    1    4    4    0    0 -0.71987165522E+01  0.34599936705E+01 -0.48706464361E+01  0.93550132498E+01  0.00000000000E+00 0. -1.
        -13    1    5    5    0    0  0.85668114907E+01  0.29520263335E+02  0.90830136296E+02  0.95890301210E+02  0.00000000000E+00 0.  1.
         14    1    5    5    0    0  0.57384744261E+02 -0.42929155474E+02  0.19526504236E+03  0.20800086065E+03  0.00000000000E+00 0. -1.
          5    1    3    3  501    0 -0.10733192286E+03 -0.94544930659E+02 -0.12796583570E+03  0.19197976634E+03  0.47000000000E+01 0. -1.
         -5    1    3    3    0  501 -0.18061402310E+02 -0.58518024448E+02 -0.21231138577E+03  0.22101761914E+03  0.47000000000E+01 0. -1.
          1    1    1    2  502    0  0.20775491661E+02  0.18068996574E+02 -0.15524197381E+04  0.15526638893E+04  0.00000000000E+00 0. -1.
          1    1    1    2  503    0  0.79891028369E+02 -0.37561106062E+02  0.28060833361E+04  0.28074716566E+04  0.00000000000E+00 0. -1.
<mgrwt>
<rscale>  0 0.49307135E+02</rscale>
<asrwt>0</asrwt>
<pdfrwt beam="1">  1        2 0.50396852E+00 0.88298539E+02</pdfrwt>
<pdfrwt beam="2">  1        2 0.29058230E+00 0.27533792E+02</pdfrwt>
<totfact> 0.28992424E+00</totfact>
</mgrwt>
</event>
<event>
13    1  0.3019759E-008  0.1095322E+03  0.7546771E-02  0.1396895E+00
          2   -1    0    0  503    0  0.00000000000E+00  0.00000000000E+00  0.25315649423E+04  0.25315649423E+04  0.00000000000E+00 0. -1.
          2   -1    0    0  502    0 -0.00000000000E+00 -0.00000000000E+00 -0.66841058352E+03  0.66841058352E+03  0.00000000000E+00 0. -1.
         25    2    1    2    0    0  0.51217357045E+01  0.31212225058E+02 -0.20182398808E+03  0.23949672906E+03  0.12500130358E+03 0.  0.
         24    2    1    2    0    0  0.12337750458E+02  0.23765828905E+02  0.14254881786E+03  0.16486599781E+03  0.78381101372E+02 0.  0.
         24    2    1    2    0    0  0.61127391453E+01  0.97330355908E+02  0.26913882716E+02  0.12945521265E+03  0.80769618283E+02 0.  0.
        -11    1    5    5    0    0  0.88443028024E+01 -0.11546002927E+02  0.13279286880E+02  0.19694449362E+02  0.00000000000E+00 0.  1.
         12    1    5    5    0    0 -0.27315636571E+01  0.10887635883E+03  0.13634595836E+02  0.10976076328E+03  0.00000000000E+00 0. -1.
        -11    1    4    4    0    0  0.44927042352E+02  0.21576851897E+02  0.78844288122E+02  0.93276049668E+02  0.00000000000E+00 0.  1.
         12    1    4    4    0    0 -0.32589291894E+02  0.21889770083E+01  0.63704529738E+02  0.71589948147E+02  0.00000000000E+00 0. -1.
          5    1    3    3  501    0  0.24523843641E+02  0.65096153997E+02 -0.18312842104E+03  0.19595161843E+03  0.47000000000E+01 0. -1.
         -5    1    3    3    0  501 -0.19402107936E+02 -0.33883928938E+02 -0.18695567036E+02  0.43545110626E+02  0.47000000000E+01 0. -1.
          1    1    1    2  502    0  0.29135518981E+02  0.15734437479E+02 -0.38120249226E+03  0.38263793734E+03  0.00000000000E+00 0. -1.
          1    1    1    2  503    0 -0.52707744289E+02 -0.16804284735E+03  0.22767181385E+04  0.22835196489E+04  0.00000000000E+00 0. -1.
<mgrwt>
<rscale>  0 0.60223814E+02</rscale>
<asrwt>0</asrwt>
<pdfrwt beam="1">  1        2 0.37228896E+00 0.10953222E+03</pdfrwt>
<pdfrwt beam="2">  1        2 0.98295675E-01 0.33112701E+02</pdfrwt>
<totfact> 0.38306217E+01</totfact>
</mgrwt>
</event>
<event>
13    1  0.3019759E-008  0.3254045E+03  0.7546771E-02  0.1183574E+00
          2   -1    0    0  502    0  0.00000000000E+00  0.00000000000E+00  0.95726420560E+03  0.95726420560E+03  0.00000000000E+00 0. -1.
          4   -1    0    0  503    0 -0.00000000000E+00 -0.00000000000E+00 -0.92787885012E+03  0.92787885012E+03  0.00000000000E+00 0. -1.
         25    2    1    2    0    0 -0.82168691514E+01  0.14641564844E+03 -0.86737924074E+01  0.19289055281E+03  0.12500588643E+03 0.  0.
         24    2    1    2    0    0 -0.87586267112E+02  0.16286819224E+03  0.18600166750E+03  0.27347146732E+03  0.77412020351E+02 0.  0.
         24    2    1    2    0    0  0.89625909562E+02  0.40485244882E+02  0.11953313612E+03  0.17392754791E+03  0.79314327663E+02 0.  0.
        -11    1    4    4    0    0 -0.32927194957E+02  0.12980229254E+03  0.10418080006E+03  0.16966577267E+03  0.00000000000E+00 0.  1.
         12    1    4    4    0    0 -0.54659072155E+02  0.33065899702E+02  0.81820867448E+02  0.10380569465E+03  0.00000000000E+00 0. -1.
        -13    1    5    5    0    0  0.44926356695E+01  0.40891363324E+02  0.36221512026E+02  0.54811361078E+02  0.00000000000E+00 0.  1.
         14    1    5    5    0    0  0.85133273893E+02 -0.40611844153E+00  0.83311624091E+02  0.11911618683E+03  0.00000000000E+00 0. -1.
          5    1    3    3  501    0  0.39642661315E+02  0.85271759209E+01 -0.21783627187E+02  0.46269533591E+02  0.47000000000E+01 0.  1.
         -5    1    3    3    0  501 -0.47859530466E+02  0.13788847252E+03  0.13109834780E+02  0.14662101922E+03  0.47000000000E+01 0.  1.
          1    1    1    2  502    0 -0.75743960960E+02 -0.34626713513E+02  0.44963288875E+03  0.45728097659E+03  0.00000000000E+00 0. -1.
          3    1    1    2  503    0  0.81921187661E+02 -0.31514237205E+03 -0.71710854448E+03  0.78757251108E+03  0.00000000000E+00 0. -1.
<mgrwt>
<rscale>  0 0.16462338E+03</rscale>
<asrwt>0</asrwt>
<pdfrwt beam="1">  1        2 0.14077415E+00 0.83283593E+02</pdfrwt>
<pdfrwt beam="2">  1        4 0.13645277E+00 0.32540450E+03</pdfrwt>
<totfact> 0.66491255E+00</totfact>
</mgrwt>
</event>
<event>
13    1  0.3019759E-008  0.1309452E+03  0.7546771E-02  0.1228353E+00
          2   -1    0    0  503    0  0.00000000000E+00  0.00000000000E+00  0.31140502210E+04  0.31140502210E+04  0.00000000000E+00 0. -1.
         -1   -1    0    0    0  501 -0.00000000000E+00 -0.00000000000E+00 -0.48992588284E+03  0.48992588284E+03  0.00000000000E+00 0.  1.
         25    2    1    2    0    0 -0.73769594763E+02 -0.94588938123E+02 -0.73621556792E+02  0.18824133985E+03  0.12500259229E+03 0.  0.
         24    2    1    2    0    0  0.46744276097E+02  0.13685675369E+02  0.16101809850E+03  0.18740623652E+03  0.82595062725E+02 0.  0.
         24    2    1    2    0    0  0.14112784455E+03  0.30700125555E+01  0.86763653906E+03  0.88263573609E+03  0.79537319793E+02 0.  0.
        -11    1    4    4    0    0  0.85832174151E+01 -0.25045706077E+02  0.10896024258E+03  0.11213069819E+03  0.00000000000E+00 0.  1.
         12    1    4    4    0    0  0.38161058682E+02  0.38731381446E+02  0.52057855915E+02  0.75275538331E+02  0.00000000000E+00 0. -1.
        -13    1    5    5    0    0  0.12744575753E+03 -0.23764697578E+02  0.63855970240E+03  0.65158704369E+03  0.00000000000E+00 0.  1.
         14    1    5    5    0    0  0.13682087016E+02  0.26834710134E+02  0.22907683665E+03  0.23104869241E+03  0.00000000000E+00 0. -1.
          5    1    3    3  502    0 -0.26026504649E+02 -0.76648369164E+02  0.18200243791E+02  0.83100483235E+02  0.47000000000E+01 0. -1.
         -5    1    3    3    0  502 -0.47743090115E+02 -0.17940568959E+02 -0.91821800583E+02  0.10514085662E+03  0.47000000000E+01 0. -1.
          1    1    1    2  503    0 -0.23305608564E+03  0.31482165647E+02  0.19881655618E+04  0.20020261155E+04  0.00000000000E+00 0. -1.
         -2    1    1    2    0  501  0.11895355976E+03  0.46351084551E+02 -0.31907430439E+03  0.34366667593E+03  0.00000000000E+00 0.  1.
<mgrwt>
<rscale>  0 0.12939745E+03</rscale>
<asrwt>0</asrwt>
<pdfrwt beam="1">  1        2 0.45794855E+00 0.13094516E+03</pdfrwt>
<pdfrwt beam="2">  1       -1 0.72047925E-01 0.12786803E+03</pdfrwt>
<totfact> 0.57242620E+00</totfact>
</mgrwt>
</event>
<event>
13    1  0.3019759E-008  0.3745160E+03  0.7546771E-02  0.1329571E+00
          2   -1    0    0  502    0  0.00000000000E+00  0.00000000000E+00  0.11259643168E+04  0.11259643168E+04  0.00000000000E+00 0. -1.
          2   -1    0    0  503    0 -0.00000000000E+00 -0.00000000000E+00 -0.12013333763E+04  0.12013333763E+04  0.00000000000E+00 0. -1.
         25    2    1    2    0    0  0.93262708835E+02 -0.37083902762E+03 -0.22109702860E+03  0.45905188320E+03  0.12500087261E+03 0.  0.
         24    2    1    2    0    0 -0.98750817962E+02 -0.53534101860E+02  0.26185252444E+03  0.29686868672E+03  0.83346556537E+02 0.  0.
         24    2    1    2    0    0 -0.57787327839E+02  0.32869859987E+02  0.16280646121E+03  0.18724513787E+03  0.64303925921E+02 0.  0.
        -11    1    4    4    0    0 -0.10858185194E+03 -0.46127698860E+02  0.25844368677E+03  0.28409667792E+03  0.00000000000E+00 0.  1.
         12    1    4    4    0    0  0.98310339764E+01 -0.74064030004E+01  0.34088376678E+01  0.12772008796E+02  0.00000000000E+00 0. -1.
        -13    1    5    5    0    0 -0.47240228458E+01 -0.16157473723E+02  0.54609767322E+02  0.57145490075E+02  0.00000000000E+00 0.  1.
         14    1    5    5    0    0 -0.53063304993E+02  0.49027333709E+02  0.10819669389E+03  0.13009964780E+03  0.00000000000E+00 0. -1.
          5    1    3    3  501    0  0.94250599552E+02 -0.13859588090E+03 -0.11726197868E+03  0.20460805302E+03  0.47000000000E+01 0. -1.
         -5    1    3    3    0  501 -0.98789071775E+00 -0.23224314672E+03 -0.10383504992E+03  0.25444383018E+03  0.47000000000E+01 0. -1.
          1    1    1    2  502    0  0.51324832237E+01  0.16217895100E+02  0.50909135089E+03  0.50937546668E+03  0.00000000000E+00 0. -1.
          1    1    1    2  503    0  0.58142953743E+02  0.37528537439E+03 -0.78802236742E+03  0.87475651861E+03  0.00000000000E+00 0. -1.
<mgrwt>
<rscale>  0 0.79817067E+02</rscale>
<asrwt>0</asrwt>
<pdfrwt beam="1">  1        2 0.16558299E+00 0.17010659E+02</pdfrwt>
<pdfrwt beam="2">  1        2 0.17666667E+00 0.37451602E+03</pdfrwt>
<totfact> 0.91121670E+01</totfact>
</mgrwt>
</event>
<event>
13    1  0.3019759E-008  0.5057295E+02  0.7546771E-02  0.1452705E+00
          2   -1    0    0  503    0  0.00000000000E+00  0.00000000000E+00  0.17728810903E+04  0.17728810903E+04  0.00000000000E+00 0. -1.
          2   -1    0    0  502    0 -0.00000000000E+00 -0.00000000000E+00 -0.95309731112E+03  0.95309731112E+03  0.00000000000E+00 0. -1.
         25    2    1    2    0    0 -0.13784439541E+03 -0.12116811174E+03 -0.63744178909E+03  0.67501111658E+03  0.12500073751E+03 0.  0.
         24    2    1    2    0    0  0.17715523662E+03  0.11344114821E+03  0.36787414326E+03  0.43138219591E+03  0.80661897442E+02 0.  0.
         24    2    1    2    0    0 -0.83481841013E+02  0.17072475570E+02  0.77756192980E+02  0.14001299349E+03  0.79353170062E+02 0.  0.
        -11    1    5    5    0    0  0.90999352950E+01  0.20163468211E+02  0.25109577848E+02  0.33464386628E+02  0.00000000000E+00 0.  1.
         12    1    5    5    0    0 -0.92581776308E+02 -0.30909926416E+01  0.52646615132E+02  0.10654860686E+03  0.00000000000E+00 0. -1.
        -13    1    4    4    0    0  0.42156730207E+01  0.33792656469E+01  0.67555104694E+02  0.67770816032E+02  0.00000000000E+00 0.  1.
         14    1    4    4    0    0  0.17293956360E+03  0.11006188256E+03  0.30031903857E+03  0.36361137988E+03  0.00000000000E+00 0. -1.
          5    1    3    3  501    0 -0.11577463589E+03 -0.30349224544E+02 -0.44772067553E+03  0.46346600204E+03  0.47000000000E+01 0. -1.
         -5    1    3    3    0  501 -0.22069759529E+02 -0.90818887196E+02 -0.18972111356E+03  0.21154511454E+03  0.47000000000E+01 0. -1.
          1    1    1    2  502    0  0.27006384726E+02  0.38245863496E+02 -0.23112647771E+03  0.23582099056E+03  0.00000000000E+00 0. -1.
          1    1    1    2  503    0  0.17164615079E+02 -0.47591375534E+02  0.12427217098E+04  0.12437511049E+04  0.00000000000E+00 0. -1.
<mgrwt>
<rscale>  0 0.48660189E+02</rscale>
<asrwt>0</asrwt>
<pdfrwt beam="1">  1        2 0.26071781E+00 0.50572953E+02</pdfrwt>
<pdfrwt beam="2">  1        2 0.14016137E+00 0.46819770E+02</pdfrwt>
<totfact> 0.63438813E+01</totfact>
</mgrwt>
</event>
<event>
13    1  0.3019759E-008  0.3355451E+02  0.7546771E-02  0.1569000E+00
          2   -1    0    0  503    0  0.00000000000E+00  0.00000000000E+00  0.45958452989E+04  0.45958452989E+04  0.00000000000E+00 0. -1.
          2   -1    0    0  502    0 -0.00000000000E+00 -0.00000000000E+00 -0.19621044803E+04  0.19621044803E+04  0.00000000000E+00 0. -1.
         25    2    1    2    0    0  0.55463405591E+03  0.20074655715E+03 -0.26542972207E+03  0.65878369926E+03  0.12499963545E+03 0.  0.
         24    2    1    2    0    0 -0.84564338077E+03  0.11357192047E+03  0.65992931901E+03  0.10822562597E+04  0.88094250369E+02 0.  0.
         24    2    1    2    0    0  0.29815298539E+03 -0.26180549907E+03  0.11592865987E+03  0.42053345255E+03  0.77276183183E+02 0.  0.
        -11    1    4    4    0    0 -0.44662276030E+03  0.16290549415E+02  0.35378600895E+03  0.57000158960E+03  0.00000000000E+00 0.  1.
         12    1    4    4    0    0 -0.39902062047E+03  0.97281371051E+02  0.30614331006E+03  0.51225467007E+03  0.00000000000E+00 0. -1.
        -11    1    5    5    0    0  0.18944323862E+02 -0.37965745431E+02 -0.51657605872E+01  0.42743073300E+02  0.00000000000E+00 0.  1.
         12    1    5    5    0    0  0.27920866153E+03 -0.22383975364E+03  0.12109442046E+03  0.37779037925E+03  0.00000000000E+00 0. -1.
          5    1    3    3  501    0  0.22291742417E+03  0.14641323228E+03 -0.12090179145E+03  0.29286233244E+03  0.47000000000E+01 0.  1.
         -5    1    3    3    0  501  0.33171663174E+03  0.54333324875E+02 -0.14452793062E+03  0.36592136682E+03  0.47000000000E+01 0.  1.
          1    1    1    2  502    0  0.15473051981E+02 -0.29771938749E+02 -0.11362053545E+04  0.11367006603E+04  0.00000000000E+00 0. -1.
          1    1    1    2  503    0 -0.22616712518E+02 -0.22741039798E+02  0.32595179163E+04  0.32596757074E+04  0.00000000000E+00 0. -1.
<mgrwt>
<rscale>  0 0.32805338E+02</rscale>
<asrwt>0</asrwt>
<pdfrwt beam="1">  1        2 0.67585960E+00 0.32072895E+02</pdfrwt>
<pdfrwt beam="2">  1        2 0.28854478E+00 0.33554507E+02</pdfrwt>
<totfact> 0.60565213E-01</totfact>
</mgrwt>
</event>
<event>
13    1  0.3019759E-008  0.5749566E+02  0.7546771E-02  0.1523104E+00
          2   -1    0    0  503    0  0.00000000000E+00  0.00000000000E+00  0.24141531617E+04  0.24141531617E+04  0.00000000000E+00 0. -1.
          2   -1    0    0  502    0 -0.00000000000E+00 -0.00000000000E+00 -0.87674120806E+03  0.87674120806E+03  0.00000000000E+00 0. -1.
         25    2    1    2    0    0  0.89304338862E+02 -0.13871714172E+03 -0.20963062003E+03  0.29459894455E+03  0.12500332367E+03 0.  0.
         24    2    1    2    0    0 -0.75451519676E+02  0.13333416487E+03  0.58494230598E+03  0.61001778058E+03  0.80580766703E+02 0.  0.
         24    2    1    2    0    0  0.41883732014E+02  0.14600122517E+01  0.12220740215E+03  0.15234990477E+03  0.80743208380E+02 0.  0.
        -11    1    4    4    0    0 -0.56506077697E+02  0.24991042041E+02  0.24788325802E+03  0.25546741203E+03  0.00000000000E+00 0.  1.
         12    1    4    4    0    0 -0.18945441979E+02  0.10834312283E+03  0.33705904795E+03  0.35455036856E+03  0.00000000000E+00 0. -1.
        -11    1    5    5    0    0  0.73284394149E+01  0.38693086980E+02  0.63461337859E+02  0.74687364441E+02  0.00000000000E+00 0.  1.
         12    1    5    5    0    0  0.34555292599E+02 -0.37233074729E+02  0.58746064291E+02  0.77662540327E+02  0.00000000000E+00 0. -1.
          5    1    3    3  501    0  0.54587240756E+02 -0.12061193767E+03 -0.21723119678E+03  0.25443759396E+03  0.47000000000E+01 0.  1.
         -5    1    3    3    0  501  0.34717098107E+02 -0.18105204049E+02  0.76005767514E+01  0.40161350594E+02  0.47000000000E+01 0.  1.
          1    1    1    2  502    0 -0.49987435679E+02  0.28433469830E+02 -0.59553544290E+03  0.59830566576E+03  0.00000000000E+00 0. -1.
          1    1    1    2  503    0 -0.57491155212E+01 -0.24510505233E+02  0.16354283084E+04  0.16356220741E+04  0.00000000000E+00 0. -1.
<mgrwt>
<rscale>  0 0.38045959E+02</rscale>
<asrwt>0</asrwt>
<pdfrwt beam="1">  1        2 0.35502252E+00 0.25175726E+02</pdfrwt>
<pdfrwt beam="2">  1        2 0.12893253E+00 0.57495660E+02</pdfrwt>
<totfact> 0.38570065E+01</totfact>
</mgrwt>
</event>
<event>
13    1  0.3019759E-008  0.1795030E+03  0.7546771E-02  0.1278044E+00
          2   -1    0    0  502    0  0.00000000000E+00  0.00000000000E+00  0.22331862412E+04  0.22331862412E+04  0.00000000000E+00 0. -1.
          2   -1    0    0  503    0 -0.00000000000E+00 -0.00000000000E+00 -0.34322055577E+04  0.34322055577E+04  0.00000000000E+00 0. -1.
         25    2    1    2    0    0  0.14406837276E+03  0.93864479656E+02 -0.37809988534E+03  0.43376548750E+03  0.12500695293E+03 0.  0.
         24    2    1    2    0    0 -0.16660806259E+02 -0.70645533499E+01  0.93033172652E+02  0.12456218548E+03  0.80827448668E+02 0.  0.
         24    2    1    2    0    0 -0.52309728522E+02  0.16417101530E+02  0.71538990180E+03  0.72209618766E+03  0.81451603434E+02 0.  0.
        -11    1    5    5    0    0  0.53967932708E+01  0.33058370500E+02  0.37097332227E+03  0.37248246546E+03  0.00000000000E+00 0.  1.
         12    1    5    5    0    0 -0.57706521793E+02 -0.16641268971E+02  0.34441657953E+03  0.34961372220E+03  0.00000000000E+00 0. -1.
        -13    1    4    4    0    0 -0.47237906372E+02 -0.37349626769E+01  0.35096629783E+02  0.58967305914E+02  0.00000000000E+00 0.  1.
         14    1    4    4    0    0  0.30577100114E+02 -0.33295906730E+01  0.57936542869E+02  0.65594879564E+02  0.00000000000E+00 0. -1.
          5    1    3    3  501    0 -0.56459112799E+01  0.58030984175E+02 -0.98898543642E+02  0.11490205992E+03  0.47000000000E+01 0. -1.
         -5    1    3    3    0  501  0.14971428404E+03  0.35833495480E+02 -0.27920134170E+03  0.31886342759E+03  0.47000000000E+01 0. -1.
          1    1    1    2  502    0  0.50121838163E+02  0.26971043182E+02  0.13745105975E+04  0.13756885616E+04  0.00000000000E+00 0. -1.
          1    1    1    2  503    0 -0.12521967614E+03 -0.13018807102E+03 -0.30038531032E+04  0.30092793766E+04  0.00000000000E+00 0. -1.
<mgrwt>
<rscale>  0 0.10107877E+03</rscale>
<asrwt>0</asrwt>
<pdfrwt beam="1">  1        2 0.32840975E+00 0.56917799E+02</pdfrwt>
<pdfrwt beam="2">  1        2 0.50473610E+00 0.17950302E+03</pdfrwt>
<totfact> 0.17761814E+00</totfact>
</mgrwt>
</event>
<event>
13    1  0.3019759E-008  0.1485128E+03  0.7546771E-02  0.1297831E+00
          2   -1    0    0  503    0  0.00000000000E+00  0.00000000000E+00  0.14319112895E+04  0.14319112895E+04  0.00000000000E+00 0. -1.
          2   -1    0    0  502    0 -0.00000000000E+00 -0.00000000000E+00 -0.31319991679E+04  0.31319991679E+04  0.00000000000E+00 0. -1.
         25    2    1    2    0    0  0.93653218908E+02  0.13208456855E+03 -0.13613095003E+03  0.24571322195E+03  0.12500437281E+03 0.  0.
         24    2    1    2    0    0 -0.61367576906E+02  0.44996483349E+02  0.16428591471E+03  0.19772362028E+03  0.79461344289E+02 0.  0.
         24    2    1    2    0    0  0.14732965559E+03 -0.12757648418E+03  0.22757437207E+03  0.31083386975E+03  0.82739428513E+02 0.  0.
        -11    1    5    5    0    0  0.13688657576E+03 -0.13209132732E+03  0.23072166442E+03  0.29902932935E+03  0.00000000000E+00 0.  1.
         12    1    5    5    0    0  0.10443079830E+02  0.45148431463E+01 -0.31472923522E+01  0.11804540403E+02  0.00000000000E+00 0. -1.
        -13    1    4    4    0    0 -0.55959324612E+02  0.15932000855E+02  0.41597476006E+02  0.71523595214E+02  0.00000000000E+00 0.  1.
         14    1    4    4    0    0 -0.54082522944E+01  0.29064482493E+02  0.12268843870E+03  0.12620002507E+03  0.00000000000E+00 0. -1.
          5    1    3    3  501    0  0.81123500103E+02  0.58244899822E+02 -0.12045550914E+02  0.10070092314E+03  0.47000000000E+01 0.  1.
         -5    1    3    3    0  501  0.12529718805E+02  0.73839668727E+02 -0.12408539912E+03  0.14501229881E+03  0.47000000000E+01 0.  1.
          1    1    1    2  502    0 -0.31127815352E+02  0.47896279914E+02 -0.28739365373E+04  0.28745041685E+04  0.00000000000E+00 0. -1.
          1    1    1    2  503    0 -0.14848748224E+03 -0.97400847635E+02  0.91811932212E+03  0.93513557688E+03  0.00000000000E+00 0. -1.
<mgrwt>
<rscale>  0 0.92105600E+02</rscale>
<asrwt>0</asrwt>
<pdfrwt beam="1">  1        2 0.21057519E+00 0.14851280E+03</pdfrwt>
<pdfrwt beam="2">  1        2 0.46058810E+00 0.57122627E+02</pdfrwt>
<totfact> 0.70701705E+00</totfact>
</mgrwt>
</event>
<event>
13    1  0.5911330E-008  0.6107726E+02  0.7546771E-02  0.1453878E+00
          2   -1    0    0  502    0  0.00000000000E+00  0.00000000000E+00  0.37401641621E+04  0.37401641621E+04  0.00000000000E+00 0. -1.
          2   -1    0    0  503    0 -0.00000000000E+00 -0.00000000000E+00 -0.35202915729E+04  0.35202915729E+04  0.00000000000E+00 0. -1.
         25    2    1    2    0    0 -0.15666118960E+03  0.18517331344E+03 -0.30994916563E+03  0.41294645438E+03  0.12499761824E+03 0.  0.
         24    2    1    2    0    0  0.11242241348E+03 -0.54753541419E+03 -0.76866947234E+03  0.95502072222E+03  0.93690945780E+02 0.  0.
         24    2    1    2    0    0  0.76249622274E+02  0.41164663466E+03 -0.88381128656E+01  0.42755463756E+03  0.86359128865E+02 0.  0.
        -13    1    5    5    0    0  0.43381930621E+02  0.29029400289E+03 -0.44495423524E+02  0.29687108774E+03  0.00000000000E+00 0.  1.
         14    1    5    5    0    0  0.32867691653E+02  0.12135263176E+03  0.35657310658E+02  0.13068354982E+03  0.00000000000E+00 0. -1.
        -13    1    4    4    0    0  0.30816880462E+01 -0.24387278172E+03 -0.32134184478E+03  0.40341543312E+03  0.00000000000E+00 0.  1.
         14    1    4    4    0    0  0.10934072544E+03 -0.30366263247E+03 -0.44732762756E+03  0.55160528911E+03  0.00000000000E+00 0. -1.
          5    1    3    3  501    0 -0.10758867840E+03  0.64761442101E+02 -0.22452029812E+03  0.25729520472E+03  0.47000000000E+01 0.  1.
         -5    1    3    3    0  501 -0.49072511205E+02  0.12041187134E+03 -0.85428867512E+02  0.15565124966E+03  0.47000000000E+01 0.  1.
          1    1    1    2  502    0 -0.36631760883E+02  0.11635914164E+02  0.33855736292E+04  0.33857917950E+04  0.00000000000E+00 0. -1.
          1    1    1    2  503    0  0.46209147273E+01 -0.60920448074E+02 -0.20782442892E+04  0.20791421258E+04  0.00000000000E+00 0. -1.
<mgrwt>
<rscale>  0 0.48451309E+02</rscale>
<asrwt>0</asrwt>
<pdfrwt beam="1">  1        2 0.55002414E+00 0.38435406E+02</pdfrwt>
<pdfrwt beam="2">  1        2 0.51768994E+00 0.61077263E+02</pdfrwt>
<totfact> 0.33445342E-01</totfact>
</mgrwt>
</event>
<event>
13    1  0.3019759E-008  0.1534353E+03  0.7546771E-02  0.1239598E+00
          2   -1    0    0  503    0  0.00000000000E+00  0.00000000000E+00  0.23085593383E+04  0.23085593383E+04  0.00000000000E+00 0. -1.
          2   -1    0    0  502    0 -0.00000000000E+00 -0.00000000000E+00 -0.50375706291E+03  0.50375706291E+03  0.00000000000E+00 0. -1.
         25    2    1    2    0    0  0.16973268173E+03  0.93190595608E+02 -0.14943609110E+02  0.23095886969E+03  0.12500007070E+03 0.  0.
         24    2    1    2    0    0 -0.13553512352E+03  0.84046829241E+02 -0.83741783331E+02  0.19780793642E+03  0.81741386231E+02 0.  0.
         24    2    1    2    0    0  0.41678278778E+02 -0.58541903914E+02  0.28876976294E+03  0.30805583610E+03  0.79662969665E+02 0.  0.
        -11    1    4    4    0    0 -0.27394656816E+02  0.46954130143E+02  0.27815831152E+01  0.54432478946E+02  0.00000000000E+00 0.  1.
         12    1    4    4    0    0 -0.10814046671E+03  0.37092699099E+02 -0.86523366446E+02  0.14337545748E+03  0.00000000000E+00 0. -1.
        -13    1    5    5    0    0  0.14119519166E+02  0.71787440380E+01  0.68311212059E+01  0.17249910272E+02  0.00000000000E+00 0.  1.
         14    1    5    5    0    0  0.27558759612E+02 -0.65720647952E+02  0.28193864173E+03  0.29080592583E+03  0.00000000000E+00 0. -1.
          5    1    3    3  501    0  0.64926436743E+02  0.13754176329E+02 -0.62257323138E+02  0.91119064080E+02  0.47000000000E+01 0.  1.
         -5    1    3    3    0  501  0.10480624499E+03  0.79436419280E+02  0.47313714027E+02  0.13983980561E+03  0.47000000000E+01 0.  1.
          1    1    1    2  502    0 -0.67542439538E+02  0.69951615291E+02 -0.21504785994E+03  0.23601015166E+03  0.00000000000E+00 0. -1.
          1    1    1    2  503    0 -0.83333974484E+01 -0.18864713623E+03  0.18297657648E+04  0.18394836073E+04  0.00000000000E+00 0. -1.
<mgrwt>
<rscale>  0 0.12214631E+03</rscale>
<asrwt>0</asrwt>
<pdfrwt beam="1">  1        2 0.33949402E+00 0.15343525E+03</pdfrwt>
<pdfrwt beam="2">  1        2 0.74081922E-01 0.97237902E+02</pdfrwt>
<totfact> 0.63237893E+01</totfact>
</mgrwt>
</event>
<event>
13    1  0.3019759E-008  0.6964654E+02  0.7546771E-02  0.1484880E+00
          2   -1    0    0  502    0  0.00000000000E+00  0.00000000000E+00  0.10241041574E+04  0.10241041574E+04  0.00000000000E+00 0. -1.
          2   -1    0    0  503    0 -0.00000000000E+00 -0.00000000000E+00 -0.36434837263E+03  0.36434837263E+03  0.00000000000E+00 0. -1.
         25    2    1    2    0    0  0.34627294491E+02 -0.30542172397E+01 -0.65698432940E+02  0.14542854001E+03  0.12499919357E+03 0.  0.
         24    2    1    2    0    0 -0.29571022673E+02  0.29103805254E+02  0.93924258647E+02  0.12581951191E+03  0.72713866298E+02 0.  0.
         24    2    1    2    0    0  0.25633327924E+02 -0.63195598240E+02  0.42345779007E+03  0.43644130989E+03  0.80707904591E+02 0.  0.
        -11    1    5    5    0    0  0.52064606048E+02 -0.43634626572E+02  0.21709415637E+03  0.22747434266E+03  0.00000000000E+00 0.  1.
         12    1    5    5    0    0 -0.26431278124E+02 -0.19560971668E+02  0.20636363370E+03  0.20896696722E+03  0.00000000000E+00 0. -1.
        -13    1    4    4    0    0  0.16028224377E+02  0.34174508121E+02  0.45332983054E+02  0.58990510547E+02  0.00000000000E+00 0.  1.
         14    1    4    4    0    0 -0.45599247050E+02 -0.50707028673E+01  0.48591275593E+02  0.66829001360E+02  0.00000000000E+00 0. -1.
          5    1    3    3  501    0  0.64600436280E+02 -0.29300995773E+02 -0.75942159987E+02  0.10402435477E+03  0.47000000000E+01 0. -1.
         -5    1    3    3    0  501 -0.29973141790E+02  0.26246778533E+02  0.10243727047E+02  0.41404185247E+02  0.47000000000E+01 0. -1.
          1    1    1    2  502    0 -0.57508150841E+02  0.40170695493E+02  0.44086503492E+03  0.44641107873E+03  0.00000000000E+00 0. -1.
          1    1    1    2  503    0  0.26818551099E+02 -0.30246852674E+01 -0.23279286595E+03  0.23435208948E+03  0.00000000000E+00 0. -1.
<mgrwt>
<rscale>  0 0.43355059E+02</rscale>
<asrwt>0</asrwt>
<pdfrwt beam="1">  1        2 0.15060355E+00 0.69646539E+02</pdfrwt>
<pdfrwt beam="2">  1        2 0.53580643E-01 0.26988579E+02</pdfrwt>
<totfact> 0.41511337E+02</totfact>
</mgrwt>
</event>
<event>
13    1  0.3019759E-008  0.1233249E+03  0.7546771E-02  0.1458882E+00
          2   -1    0    0  502    0  0.00000000000E+00  0.00000000000E+00  0.28924024096E+04  0.28924024096E+04  0.00000000000E+00 0. -1.
          2   -1    0    0  503    0 -0.00000000000E+00 -0.00000000000E+00 -0.12778768965E+04  0.12778768965E+04  0.00000000000E+00 0. -1.
         25    2    1    2    0    0 -0.19949195912E+03  0.18227576457E+02 -0.30126155399E+03  0.38277118934E+03  0.12500389266E+03 0.  0.
         24    2    1    2    0    0  0.10249539840E+03 -0.12190799671E+02  0.25382327814E+03  0.28473699038E+03  0.77427223090E+02 0.  0.
         24    2    1    2    0    0  0.12501970263E+02 -0.69455598715E+02  0.52048975013E+01  0.10674424689E+03  0.79917856787E+02 0.  0.
        -11    1    5    5    0    0  0.18056760208E+02 -0.82234219620E+02  0.19879386011E+02  0.86508401060E+02  0.00000000000E+00 0.  1.
         12    1    5    5    0    0 -0.55547899452E+01  0.12778620905E+02 -0.14674488509E+02  0.20235845833E+02  0.00000000000E+00 0. -1.
        -11    1    4    4    0    0  0.73894664629E+02  0.28579343163E+02  0.15564477262E+03  0.17464963659E+03  0.00000000000E+00 0.  1.
         12    1    4    4    0    0  0.28600733768E+02 -0.40770142834E+02  0.98178505521E+02  0.11008735379E+03  0.00000000000E+00 0. -1.
          5    1    3    3  501    0 -0.19456937885E+03  0.36567760700E+02 -0.20688194474E+03  0.28638553275E+03  0.47000000000E+01 0. -1.
         -5    1    3    3    0  501 -0.49225802705E+01 -0.18340184243E+02 -0.94379609248E+02  0.96385656591E+02  0.47000000000E+01 0. -1.
          1    1    1    2  502    0  0.96104658135E+02  0.77632125051E+02  0.25247854930E+04  0.25278062896E+04  0.00000000000E+00 0. -1.
          1    1    1    2  503    0 -0.11610067673E+02 -0.14213303121E+02 -0.86802660154E+03  0.86822058985E+03  0.00000000000E+00 0. -1.
<mgrwt>
<rscale>  0 0.47574280E+02</rscale>
<asrwt>0</asrwt>
<pdfrwt beam="1">  1        2 0.42535329E+00 0.12332493E+03</pdfrwt>
<pdfrwt beam="2">  1        2 0.18792307E+00 0.18352429E+02</pdfrwt>
<totfact> 0.11627818E+01</totfact>
</mgrwt>
</event>
<event>
13    1  0.3019759E-008  0.4615495E+02  0.7546771E-02  0.1531750E+00
          2   -1    0    0  502    0  0.00000000000E+00  0.00000000000E+00  0.62594881577E+03  0.62594881577E+03  0.00000000000E+00 0. -1.
          2   -1    0    0  503    0 -0.00000000000E+00 -0.00000000000E+00 -0.23305168606E+04  0.23305168606E+04  0.00000000000E+00 0. -1.
         25    2    1    2    0    0  0.22784805855E+02  0.22457520292E+02 -0.14132386947E+03  0.19136461300E+03  0.12499796570E+03 0.  0.
         24    2    1    2    0    0 -0.38061350103E+03 -0.12748911667E+03  0.12596019006E+03  0.42991939282E+03  0.88569762381E+02 0.  0.
         24    2    1    2    0    0  0.29090124202E+03  0.13959978705E+03  0.12333428090E+03  0.35453859196E+03  0.79841312591E+02 0.  0.
        -11    1    5    5    0    0  0.98516069209E+02  0.20699401367E+02  0.88624796130E+01  0.10105654187E+03  0.00000000000E+00 0.  1.
         12    1    5    5    0    0  0.19238517281E+03  0.11890038568E+03  0.11447180129E+03  0.25348205010E+03  0.00000000000E+00 0. -1.
        -13    1    4    4    0    0 -0.32546225255E+03 -0.75552176684E+02  0.89792961243E+02  0.34597194269E+03  0.00000000000E+00 0.  1.
         14    1    4    4    0    0 -0.55151248480E+02 -0.51936939985E+02  0.36167228819E+02  0.83947450136E+02  0.00000000000E+00 0. -1.
          5    1    3    3  501    0 -0.41746802768E+02  0.42594284213E+02 -0.80578546012E+02  0.10035965657E+03  0.47000000000E+01 0. -1.
         -5    1    3    3    0  501  0.64531608624E+02 -0.20136763920E+02 -0.60745323462E+02  0.91004956432E+02  0.47000000000E+01 0. -1.
          1    1    1    2  502    0  0.41069219765E+02 -0.20127847406E+02  0.77705850772E+02  0.90166569733E+02  0.00000000000E+00 0. -1.
          1    1    1    2  503    0  0.25858233396E+02 -0.14440343262E+02 -0.18902444971E+04  0.18904765088E+04  0.00000000000E+00 0. -1.
<mgrwt>
<rscale>  0 0.36972626E+02</rscale>
<asrwt>0</asrwt>
<pdfrwt beam="1">  1        2 0.92051295E-01 0.46154950E+02</pdfrwt>
<pdfrwt beam="2">  1        2 0.34272307E+00 0.29617085E+02</pdfrwt>
<totfact> 0.60874545E+01</totfact>
</mgrwt>
</event>
<event>
13    1  0.3019759E-008  0.5878748E+03  0.7546771E-02  0.1197810E+00
          2   -1    0    0  502    0  0.00000000000E+00  0.00000000000E+00  0.44804247610E+04  0.44804247610E+04  0.00000000000E+00 0. -1.
          2   -1    0    0  503    0 -0.00000000000E+00 -0.00000000000E+00 -0.13168986727E+04  0.13168986727E+04  0.00000000000E+00 0. -1.
         25    2    1    2    0    0 -0.26771019586E+03  0.30968608022E+03  0.39702083979E+03  0.58380273613E+03  0.12500348088E+03 0.  0.
         24    2    1    2    0    0 -0.10099268380E+03  0.51470537167E+02  0.29512140524E+03  0.32420636551E+03  0.71863657216E+02 0.  0.
         24    2    1    2    0    0 -0.11791511485E+03  0.78773681694E+02  0.18815404489E+04  0.18888588294E+04  0.86509822689E+02 0.  0.
        -13    1    4    4    0    0 -0.54187915768E+02  0.52304490279E+02  0.11037611896E+03  0.13362251889E+03  0.00000000000E+00 0.  1.
         14    1    4    4    0    0 -0.46804768030E+02 -0.83395311169E+00  0.18474528628E+03  0.19058384662E+03  0.00000000000E+00 0. -1.
        -13    1    5    5    0    0 -0.57283770724E+02  0.22250722015E+01  0.10574663336E+04  0.10590190877E+04  0.00000000000E+00 0.  1.
         14    1    5    5    0    0 -0.60631344126E+02  0.76548609492E+02  0.82407411523E+03  0.82983974170E+03  0.00000000000E+00 0. -1.
          5    1    3    3  501    0 -0.96341334021E+02  0.33033277051E+02  0.10817474917E+03  0.14864964310E+03  0.47000000000E+01 0. -1.
         -5    1    3    3    0  501 -0.17136886184E+03  0.27665280317E+03  0.28884609062E+03  0.43515309303E+03  0.47000000000E+01 0. -1.
          1    1    1    2  502    0  0.24500128616E+02 -0.30853594399E+02  0.17159043652E+04  0.17163566037E+04  0.00000000000E+00 0. -1.
          1    1    1    2  503    0  0.46211786589E+03 -0.40907670469E+03 -0.11260609708E+04  0.12840988990E+04  0.00000000000E+00 0. -1.
<mgrwt>
<rscale>  0 0.15218764E+03</rscale>
<asrwt>0</asrwt>
<pdfrwt beam="1">  1        2 0.65888599E+00 0.39397977E+02</pdfrwt>
<pdfrwt beam="2">  1        2 0.19366157E+00 0.58787482E+03</pdfrwt>
<totfact> 0.11569876E+00</totfact>
</mgrwt>
</event>
<event>
13    1  0.3019759E-008  0.1685039E+03  0.7546771E-02  0.1221146E+00
          2   -1    0    0  503    0  0.00000000000E+00  0.00000000000E+00  0.17296563644E+04  0.17296563644E+04  0.00000000000E+00 0. -1.
          2   -1    0    0  502    0 -0.00000000000E+00 -0.00000000000E+00 -0.16053263863E+04  0.16053263863E+04  0.00000000000E+00 0. -1.
         25    2    1    2    0    0  0.23940904460E+03 -0.32028435738E+02 -0.15259505496E+03  0.31184500331E+03  0.12497817395E+03 0.  0.
         24    2    1    2    0    0  0.15283175014E+02  0.48576804213E+01  0.21640046710E+02  0.86072577622E+02  0.81749767580E+02 0.  0.
         24    2    1    2    0    0 -0.29752286963E+01 -0.10717919381E+03  0.26001403779E+03  0.29226099703E+03  0.79454131205E+02 0.  0.
        -11    1    4    4    0    0  0.27793499966E+02 -0.25451883951E+02 -0.11550105518E+02  0.39416772755E+02  0.00000000000E+00 0.  1.
         12    1    4    4    0    0 -0.12510324952E+02  0.30309564372E+02  0.33190152228E+02  0.46655804867E+02  0.00000000000E+00 0. -1.
        -13    1    5    5    0    0  0.97736546536E+01 -0.88083135460E+01  0.11972647505E+03  0.12044724795E+03  0.00000000000E+00 0.  1.
         14    1    5    5    0    0 -0.12748883350E+02 -0.98370880266E+02  0.14028756274E+03  0.17181374907E+03  0.00000000000E+00 0. -1.
          5    1    3    3  501    0  0.76053708110E+01  0.10791786312E+02 -0.54853990115E+02  0.56615850682E+02  0.47000000000E+01 0.  1.
         -5    1    3    3    0  501  0.23180367379E+03 -0.42820222049E+02 -0.97741064841E+02  0.25522915263E+03  0.47000000000E+01 0.  1.
          1    1    1    2  502    0 -0.15868589475E+03  0.24872016384E+02 -0.13159598671E+04  0.13257262923E+04  0.00000000000E+00 0. -1.
          1    1    1    2  503    0 -0.93031096164E+02  0.10947793274E+03  0.13112308156E+04  0.13190778804E+04  0.00000000000E+00 0. -1.
<mgrwt>
<rscale>  0 0.13434611E+03</rscale>
<asrwt>0</asrwt>
<pdfrwt beam="1">  1        2 0.25436123E+00 0.10711253E+03</pdfrwt>
<pdfrwt beam="2">  1        2 0.23607741E+00 0.16850388E+03</pdfrwt>
<totfact> 0.26089938E+01</totfact>
</mgrwt>
</event>
<event>
13    1  0.3019759E-008  0.1830692E+03  0.7546771E-02  0.1196492E+00
          2   -1    0    0  502    0  0.00000000000E+00  0.00000000000E+00  0.27324933967E+04  0.27324933967E+04  0.00000000000E+00 0. -1.
          2   -1    0    0  503    0 -0.00000000000E+00 -0.00000000000E+00 -0.13569777999E+04  0.13569777999E+04  0.00000000000E+00 0. -1.
         25    2    1    2    0    0  0.20811367857E+03  0.20890399614E+03 -0.89257196515E+03  0.94829357998E+03  0.12499527214E+03 0.  0.
         24    2    1    2    0    0 -0.12877674976E+03  0.12638511981E+03  0.10236359656E+03  0.22239350247E+03  0.80149324724E+02 0.  0.
         24    2    1    2    0    0 -0.14172203576E+03 -0.10798416287E+03  0.45876868870E+03  0.49876214434E+03  0.80927449248E+02 0.  0.
        -11    1    5    5    0    0 -0.13933700532E+03 -0.67933360901E+02  0.37885740496E+03  0.40934420219E+03  0.00000000000E+00 0.  1.
         12    1    5    5    0    0 -0.23850304399E+01 -0.40050801972E+02  0.79911283746E+02  0.89417942152E+02  0.00000000000E+00 0. -1.
        -11    1    4    4    0    0 -0.87130073947E+02  0.11123483959E+03  0.41805442869E+02  0.14735173693E+03  0.00000000000E+00 0.  1.
         12    1    4    4    0    0 -0.41646675816E+02  0.15150280224E+02  0.60558153688E+02  0.75041765540E+02  0.00000000000E+00 0. -1.
          5    1    3    3  501    0  0.18999886886E+03  0.14701683911E+03 -0.80052460999E+03  0.83580814925E+03  0.47000000000E+01 0.  1.
         -5    1    3    3    0  501  0.18114809715E+02  0.61887157028E+02 -0.92047355156E+02  0.11248543073E+03  0.47000000000E+01 0.  1.
          1    1    1    2  502    0  0.13615999539E+03 -0.12227753135E+03  0.20477230051E+04  0.20558844434E+04  0.00000000000E+00 0. -1.
          1    1    1    2  503    0 -0.73774888439E+02 -0.10502742173E+03 -0.34076772837E+03  0.36413752646E+03  0.00000000000E+00 0. -1.
<mgrwt>
<rscale>  0 0.15328656E+03</rscale>
<asrwt>0</asrwt>
<pdfrwt beam="1">  1        2 0.40183726E+00 0.18306922E+03</pdfrwt>
<pdfrwt beam="2">  1        2 0.19955556E+00 0.12834911E+03</pdfrwt>
<totfact> 0.10632597E+01</totfact>
</mgrwt>
</event>
<event>
13    1  0.3019759E-008  0.6635585E+02  0.7546771E-02  0.1478573E+00
          2   -1    0    0  503    0  0.00000000000E+00  0.00000000000E+00  0.21267573795E+04  0.21267573795E+04  0.00000000000E+00 0. -1.
         -1   -1    0    0    0  501 -0.00000000000E+00 -0.00000000000E+00 -0.46216654252E+03  0.46216654252E+03  0.00000000000E+00 0.  1.
         25    2    1    2    0    0 -0.12015741459E+03 -0.88247430681E+02  0.86407898110E+02  0.21289217196E+03  0.12502535232E+03 0.  0.
         24    2    1    2    0    0  0.23669161544E+02 -0.13336580922E+03  0.21141480746E+03  0.26467499342E+03  0.83725522101E+02 0.  0.
         24    2    1    2    0    0  0.78620890926E+01  0.20118031011E+03  0.11693842422E+04  0.11892578185E+04  0.79619868092E+02 0.  0.
        -13    1    4    4    0    0  0.47297414981E+02 -0.40949804156E+02  0.67657953313E+02  0.92149501197E+02  0.00000000000E+00 0.  1.
         14    1    4    4    0    0 -0.23628253437E+02 -0.92416005063E+02  0.14375685415E+03  0.17252549222E+03  0.00000000000E+00 0. -1.
        -13    1    5    5    0    0  0.13332272052E+02  0.56775021748E+01  0.18905477931E+03  0.18960931699E+03  0.00000000000E+00 0.  1.
         14    1    5    5    0    0 -0.54701829599E+01  0.19550280794E+03  0.98032946291E+03  0.99964850156E+03  0.00000000000E+00 0. -1.
          5    1    3    3  502    0 -0.90414687328E+02 -0.11502343242E+03  0.90961861691E+02  0.17234081343E+03  0.47000000000E+01 0.  1.
         -5    1    3    3    0  502 -0.29742727257E+02  0.26776001743E+02 -0.45539635814E+01  0.40551358526E+02  0.47000000000E+01 0.  1.
          1    1    1    2  503    0  0.28589136585E+02 -0.77247029937E+01  0.55631046162E+03  0.55709814169E+03  0.00000000000E+00 0. -1.
         -2    1    1    2    0  501  0.60037027363E+02  0.28157632783E+02 -0.35892657246E+03  0.36500079638E+03  0.00000000000E+00 0.  1.
<mgrwt>
<rscale>  0 0.44329285E+02</rscale>
<asrwt>0</asrwt>
<pdfrwt beam="1">  1        2 0.31275843E+00 0.29614351E+02</pdfrwt>
<pdfrwt beam="2">  1       -1 0.67965669E-01 0.66355852E+02</pdfrwt>
<totfact> 0.24877475E+01</totfact>
</mgrwt>
</event>
<event>
13    1  0.3019759E-008  0.1354257E+03  0.7546771E-02  0.1352333E+00
          2   -1    0    0  502    0  0.00000000000E+00  0.00000000000E+00  0.11392454856E+04  0.11392454856E+04  0.00000000000E+00 0. -1.
          2   -1    0    0  503    0 -0.00000000000E+00 -0.00000000000E+00 -0.17221721429E+04  0.17221721429E+04  0.00000000000E+00 0. -1.
         25    2    1    2    0    0 -0.62099592041E+02  0.61187347410E+02  0.13721380584E+02  0.15301630156E+03  0.12500184576E+03 0.  0.
         24    2    1    2    0    0 -0.23784966207E+03 -0.92114413300E+02  0.33199137107E+02  0.26913520348E+03  0.79208889446E+02 0.  0.
         24    2    1    2    0    0  0.13637780243E+03  0.29985787642E+02  0.43868482505E+03  0.46584720744E+03  0.71212305807E+02 0.  0.
        -11    1    5    5    0    0  0.79398502791E+02  0.24752971220E+02  0.35403755958E+03  0.36367488973E+03  0.00000000000E+00 0.  1.
         12    1    5    5    0    0  0.56979299636E+02  0.52328164219E+01  0.84647265474E+02  0.10217231771E+03  0.00000000000E+00 0. -1.
        -13    1    4    4    0    0 -0.20680375164E+03 -0.10537753901E+03  0.20282888312E+02  0.23298843958E+03  0.00000000000E+00 0.  1.
         14    1    4    4    0    0 -0.31045910423E+02  0.13263125709E+02  0.12916248795E+02  0.36146763901E+02  0.00000000000E+00 0. -1.
          5    1    3    3  501    0 -0.29774792832E+02  0.98172645829E+02  0.14173372453E+02  0.10366957685E+03  0.47000000000E+01 0.  1.
         -5    1    3    3    0  501 -0.32324799209E+02 -0.36985298419E+02 -0.45199186913E+00  0.49346724710E+02  0.47000000000E+01 0.  1.
          1    1    1    2  502    0  0.30518761373E+02 -0.23690546602E+02  0.44860198411E+03  0.45026256445E+03  0.00000000000E+00 0. -1.
          1    1    1    2  503    0  0.13305269031E+03  0.24631824850E+02 -0.15171339842E+04  0.15231563515E+04  0.00000000000E+00 0. -1.
<mgrwt>
<rscale>  0 0.72333443E+02</rscale>
<asrwt>0</asrwt>
<pdfrwt beam="1">  1        2 0.16753610E+00 0.38634658E+02</pdfrwt>
<pdfrwt beam="2">  1        2 0.25326061E+00 0.13542574E+03</pdfrwt>
<totfact> 0.49103483E+01</totfact>
</mgrwt>
</event>
<event>
13    1  0.3019759E-008  0.1308513E+03  0.7546771E-02  0.1397242E+00
          2   -1    0    0  503    0  0.00000000000E+00  0.00000000000E+00  0.15375049784E+04  0.15375049784E+04  0.00000000000E+00 0. -1.
          2   -1    0    0  502    0 -0.00000000000E+00 -0.00000000000E+00 -0.57898835252E+03  0.57898835252E+03  0.00000000000E+00 0. -1.
         25    2    1    2    0    0  0.39235225937E+02  0.68214414682E+01 -0.72803130827E+02  0.15003675953E+03  0.12499919333E+03 0.  0.
         24    2    1    2    0    0  0.68899665504E+01 -0.82060143699E+02  0.13865436763E+03  0.18145010956E+03  0.83173131314E+02 0.  0.
         24    2    1    2    0    0 -0.14416656288E+03 -0.49253963536E+02  0.57589201852E+03  0.60108145315E+03  0.80233070133E+02 0.  0.
        -11    1    4    4    0    0  0.41854723809E+02 -0.21982552699E+02  0.50304960269E+02  0.69033611784E+02  0.00000000000E+00 0.  1.
         12    1    4    4    0    0 -0.34964757259E+02 -0.60077591000E+02  0.88349407366E+02  0.11241649778E+03  0.00000000000E+00 0. -1.
        -11    1    5    5    0    0 -0.13582542534E+02 -0.27025010429E+02  0.47291314254E+02  0.56136485944E+02  0.00000000000E+00 0.  1.
         12    1    5    5    0    0 -0.13058402035E+03 -0.22228953108E+02  0.52860070427E+03  0.54494496720E+03  0.00000000000E+00 0. -1.
          5    1    3    3  501    0  0.76719939178E+01  0.24226496985E+02  0.30821171579E+02  0.40222099204E+02  0.47000000000E+01 0.  1.
         -5    1    3    3    0  501  0.31563232019E+02 -0.17405055517E+02 -0.10362430241E+03  0.10981466033E+03  0.47000000000E+01 0.  1.
          1    1    1    2  502    0  0.23114307879E+02  0.15158142137E+02 -0.42727244579E+03  0.42816560281E+03  0.00000000000E+00 0. -1.
          1    1    1    2  503    0  0.74927062516E+02  0.10933452363E+03  0.74404581629E+03  0.75575940583E+03  0.00000000000E+00 0. -1.
<mgrwt>
<rscale>  0 0.60140651E+02</rscale>
<asrwt>0</asrwt>
<pdfrwt beam="1">  1        2 0.22610367E+00 0.13085130E+03</pdfrwt>
<pdfrwt beam="2">  1        2 0.85145346E-01 0.27641283E+02</pdfrwt>
<totfact> 0.13498890E+02</totfact>
</mgrwt>
</event>
<event>
13    1  0.3019759E-008  0.7501787E+02  0.7546771E-02  0.1520954E+00
          2   -1    0    0  502    0  0.00000000000E+00  0.00000000000E+00  0.93160921110E+03  0.93160921110E+03  0.00000000000E+00 0. -1.
          2   -1    0    0  503    0 -0.00000000000E+00 -0.00000000000E+00 -0.12453260436E+04  0.12453260436E+04  0.00000000000E+00 0. -1.
         25    2    1    2    0    0  0.19498975699E+03 -0.14806114608E+03 -0.84873843662E+03  0.89214582293E+03  0.12499650901E+03 0.  0.
         24    2    1    2    0    0 -0.56497726267E+02  0.14799298899E+03 -0.15237784164E+02  0.17801902768E+03  0.79778858643E+02 0.  0.
         24    2    1    2    0    0 -0.90995665676E+02 -0.32664720891E+02  0.92630460417E-01  0.12599755980E+03  0.80797161665E+02 0.  0.
        -13    1    4    4    0    0  0.12089793253E+02  0.25760430084E+02  0.18388915320E+02  0.33880895290E+02  0.00000000000E+00 0.  1.
         14    1    4    4    0    0 -0.68587519521E+02  0.12223255891E+03 -0.33626699483E+02  0.14413813239E+03  0.00000000000E+00 0. -1.
        -13    1    5    5    0    0 -0.74917310459E+02 -0.11103660258E+02  0.33748676001E+02  0.82914822616E+02  0.00000000000E+00 0.  1.
         14    1    5    5    0    0 -0.16078355217E+02 -0.21561060634E+02 -0.33656045541E+02  0.43082737188E+02  0.00000000000E+00 0. -1.
          5    1    3    3  501    0  0.32195798032E+02 -0.25031293434E+02 -0.37421023961E+02  0.55547800102E+02  0.47000000000E+01 0.  1.
         -5    1    3    3    0  501  0.16279395896E+03 -0.12302985265E+03 -0.81131741266E+03  0.83659802283E+03  0.47000000000E+01 0.  1.
          1    1    1    2  502    0 -0.55383084172E+02  0.50647700353E+02  0.76318045139E+03  0.76686170654E+03  0.00000000000E+00 0. -1.
          1    1    1    2  503    0  0.78867191216E+01 -0.17914822369E+02 -0.21301369355E+03  0.21391113772E+03  0.00000000000E+00 0. -1.
<mgrwt>
<rscale>  0 0.38319699E+02</rscale>
<asrwt>0</asrwt>
<pdfrwt beam="1">  1        2 0.13700136E+00 0.75017874E+02</pdfrwt>
<pdfrwt beam="2">  1        2 0.18313618E+00 0.19573993E+02</pdfrwt>
<totfact> 0.12225525E+02</totfact>
</mgrwt>
</event>
<event>
13    1  0.3019759E-008  0.1645869E+03  0.7546771E-02  0.1247091E+00
          2   -1    0    0  502    0  0.00000000000E+00  0.00000000000E+00  0.24287436465E+04  0.24287436465E+04  0.00000000000E+00 0. -1.
          2   -1    0    0  503    0 -0.00000000000E+00 -0.00000000000E+00 -0.83001927566E+03  0.83001927566E+03  0.00000000000E+00 0. -1.
         25    2    1    2    0    0  0.17988510493E+03 -0.42408091812E+02  0.39890772872E+02  0.22665835538E+03  0.12500255627E+03 0.  0.
         24    2    1    2    0    0 -0.19828054187E+03  0.12650366723E+03  0.72592050707E+03  0.76727801782E+03  0.80228566777E+02 0.  0.
         24    2    1    2    0    0 -0.16731509391E+03 -0.14615334352E+03  0.96157609236E+03  0.99024924936E+03  0.81301008450E+02 0.  0.
        -11    1    5    5    0    0 -0.41430385040E+02 -0.85912536998E+02  0.33458133280E+03  0.34791106489E+03  0.00000000000E+00 0.  1.
         12    1    5    5    0    0 -0.12588470887E+03 -0.60240806518E+02  0.62699475957E+03  0.64233818447E+03  0.00000000000E+00 0. -1.
        -13    1    4    4    0    0 -0.38338442208E+02 -0.28528164766E+01  0.70054489231E+02  0.79909987950E+02  0.00000000000E+00 0.  1.
         14    1    4    4    0    0 -0.15994209966E+03  0.12935648371E+03  0.65586601784E+03  0.68736802987E+03  0.00000000000E+00 0. -1.
          5    1    3    3  501    0  0.14312328200E+02 -0.24647872528E+02  0.52153109287E+02  0.59618765225E+02  0.47000000000E+01 0. -1.
         -5    1    3    3    0  501  0.16557277673E+03 -0.17760219284E+02 -0.12262336415E+02  0.16703959015E+03  0.47000000000E+01 0. -1.
          1    1    1    2  502    0  0.16219511935E+03 -0.18628134587E+02  0.55871547805E+03  0.58208010578E+03  0.00000000000E+00 0. -1.
          1    1    1    2  503    0  0.23515411503E+02  0.80685902685E+02 -0.68737847948E+03  0.69249719387E+03  0.00000000000E+00 0. -1.
<mgrwt>
<rscale>  0 0.11761098E+03</rscale>
<asrwt>0</asrwt>
<pdfrwt beam="1">  1        2 0.35716818E+00 0.16458693E+03</pdfrwt>
<pdfrwt beam="2">  1        2 0.12206166E+00 0.84042784E+02</pdfrwt>
<totfact> 0.31121303E+01</totfact>
</mgrwt>
</event>
<event>
13    1  0.3019759E-008  0.1066554E+03  0.7546771E-02  0.1500437E+00
          2   -1    0    0  502    0  0.00000000000E+00  0.00000000000E+00  0.19298444791E+04  0.19298444791E+04  0.00000000000E+00 0. -1.
          2   -1    0    0  503    0 -0.00000000000E+00 -0.00000000000E+00 -0.16503565035E+04  0.16503565035E+04  0.00000000000E+00 0. -1.
         25    2    1    2    0    0  0.58901464605E+01 -0.20717797776E+03 -0.60383581580E+03  0.65053749603E+03  0.12499573192E+03 0.  0.
         24    2    1    2    0    0  0.61076261844E+03  0.16319337938E+03  0.17496788361E+03  0.66084722161E+03  0.80263533881E+02 0.  0.
         24    2    1    2    0    0 -0.70257671147E+03  0.10433851918E+03  0.59124794146E+03  0.92592357538E+03  0.57094457559E+02 0.  0.
        -11    1    5    5    0    0 -0.45227109101E+02 -0.11060606300E+01  0.53909316478E+02  0.70377050030E+02  0.00000000000E+00 0.  1.
         12    1    5    5    0    0 -0.65734960237E+03  0.10544457981E+03  0.53733862498E+03  0.85554652535E+03  0.00000000000E+00 0. -1.
        -13    1    4    4    0    0  0.16004115863E+03  0.64936706576E+02  0.77751867237E+02  0.18940776430E+03  0.00000000000E+00 0.  1.
         14    1    4    4    0    0  0.45072145980E+03  0.98256672804E+02  0.97216016371E+02  0.47143945732E+03  0.00000000000E+00 0. -1.
          5    1    3    3  501    0 -0.21807748954E+02 -0.12025109671E+03 -0.48756872429E+03  0.50267410425E+03  0.47000000000E+01 0.  1.
         -5    1    3    3    0  501  0.27697895415E+02 -0.86926881056E+02 -0.11626709151E+03  0.14786339178E+03  0.47000000000E+01 0.  1.
          1    1    1    2  502    0  0.86916215315E+01  0.13218234464E+02  0.72527243498E+03  0.72544494688E+03  0.00000000000E+00 0. -1.
          1    1    1    2  503    0  0.77232325042E+02 -0.73572155256E+02 -0.60816446860E+03  0.61744774267E+03  0.00000000000E+00 0. -1.
<mgrwt>
<rscale>  0 0.41076356E+02</rscale>
<asrwt>0</asrwt>
<pdfrwt beam="1">  1        2 0.28380066E+00 0.15819798E+02</pdfrwt>
<pdfrwt beam="2">  1        2 0.24269948E+00 0.10665541E+03</pdfrwt>
<totfact> 0.25506250E+01</totfact>
</mgrwt>
</event>
<event>
13    1  0.3019759E-008  0.1566800E+03  0.7546771E-02  0.1450857E+00
          2   -1    0    0  502    0  0.00000000000E+00  0.00000000000E+00  0.16229982950E+04  0.16229982950E+04  0.00000000000E+00 0. -1.
          2   -1    0    0  503    0 -0.00000000000E+00 -0.00000000000E+00 -0.12177908665E+04  0.12177908665E+04  0.00000000000E+00 0. -1.
         25    2    1    2    0    0 -0.19422729905E+03  0.16788656149E+02 -0.82514681377E+03  0.85702997450E+03  0.12500804068E+03 0.  0.
         24    2    1    2    0    0  0.25114744878E+02 -0.94946688486E+02 -0.10529688566E+03  0.16627619777E+03  0.83154769856E+02 0.  0.
         24    2    1    2    0    0  0.37037796228E+02 -0.92618091497E+02  0.30871748912E+03  0.33435346506E+03  0.80844556287E+02 0.  0.
        -11    1    4    4    0    0  0.18281875954E+02 -0.10614223607E+03 -0.69575632467E+02  0.12822312545E+03  0.00000000000E+00 0.  1.
         12    1    4    4    0    0  0.68328689242E+01  0.11195547583E+02 -0.35721253196E+02  0.38053072324E+02  0.00000000000E+00 0. -1.
        -13    1    5    5    0    0 -0.24083944551E+02 -0.16399531851E+02  0.50966093544E+02  0.58707101114E+02  0.00000000000E+00 0.  1.
         14    1    5    5    0    0  0.61121740779E+02 -0.76218559646E+02  0.25775139558E+03  0.27564636394E+03  0.00000000000E+00 0. -1.
          5    1    3    3  501    0 -0.65422135127E+02  0.53544658250E+02 -0.19181689922E+03  0.20967331499E+03  0.47000000000E+01 0.  1.
         -5    1    3    3    0  501 -0.12880516393E+03 -0.36756002102E+02 -0.63332991455E+03  0.64735665950E+03  0.47000000000E+01 0.  1.
          1    1    1    2  502    0  0.12991451007E+03  0.18594207383E+03  0.12445108808E+04  0.12650136628E+04  0.00000000000E+00 0. -1.
          1    1    1    2  503    0  0.21602478750E+01 -0.15165949995E+02 -0.21757724204E+03  0.21811586133E+03  0.00000000000E+00 0. -1.
<mgrwt>
<rscale>  0 0.48991686E+02</rscale>
<asrwt>0</asrwt>
<pdfrwt beam="1">  1        2 0.23867622E+00 0.15667997E+03</pdfrwt>
<pdfrwt beam="2">  1        2 0.17908689E+00 0.15319031E+02</pdfrwt>
<totfact> 0.52801263E+01</totfact>
</mgrwt>
</event>
<event>
13    1  0.3019759E-008  0.9639191E+02  0.7546771E-02  0.1308930E+00
          2   -1    0    0  503    0  0.00000000000E+00  0.00000000000E+00  0.96454921036E+03  0.96454921036E+03  0.00000000000E+00 0. -1.
          2   -1    0    0  502    0 -0.00000000000E+00 -0.00000000000E+00 -0.28008145157E+04  0.28008145157E+04  0.00000000000E+00 0. -1.
         25    2    1    2    0    0  0.12779428547E+03 -0.32969540564E+01 -0.99401708846E+03  0.10099692759E+04  0.12500286680E+03 0.  0.
         24    2    1    2    0    0 -0.17218767416E+03 -0.35734315285E+02 -0.28307133889E+03  0.34269219189E+03  0.79893798609E+02 0.  0.
         24    2    1    2    0    0  0.30112121616E+02  0.77189569165E+01 -0.11314598430E+02  0.88377810247E+02  0.81953005084E+02 0.  0.
        -11    1    5    5    0    0  0.30815207539E+02  0.41614998257E+02  0.23235705264E+01  0.51834197935E+02  0.00000000000E+00 0.  1.
         12    1    5    5    0    0 -0.70308592284E+00 -0.33896041340E+02 -0.13638168957E+02  0.36543612312E+02  0.00000000000E+00 0. -1.
        -11    1    4    4    0    0 -0.33098998080E+02  0.22475823825E+02 -0.39454288812E+02  0.56190277061E+02  0.00000000000E+00 0.  1.
         12    1    4    4    0    0 -0.13908867608E+03 -0.58210139110E+02 -0.24361705008E+03  0.28650191483E+03  0.00000000000E+00 0. -1.
          5    1    3    3  501    0  0.15250172293E+03 -0.90380958811E+01 -0.83497036463E+03  0.84884395650E+03  0.47000000000E+01 0. -1.
         -5    1    3    3    0  501 -0.24707437462E+02  0.57411418247E+01 -0.15904672384E+03  0.16112531936E+03  0.47000000000E+01 0. -1.
          1    1    1    2  502    0  0.98581772564E+02 -0.73491585720E+01 -0.14319637210E+04  0.14353718941E+04  0.00000000000E+00 0. -1.
          1    1    1    2  503    0 -0.84300505486E+02  0.38661470997E+02  0.88410144143E+03  0.88895255402E+03  0.00000000000E+00 0. -1.
<mgrwt>
<rscale>  0 0.87536190E+02</rscale>
<asrwt>0</asrwt>
<pdfrwt beam="1">  1        2 0.14184547E+00 0.79494061E+02</pdfrwt>
<pdfrwt beam="2">  1        2 0.41188448E+00 0.96391912E+02</pdfrwt>
<totfact> 0.17933734E+01</totfact>
</mgrwt>
</event>
<event>
13    1  0.3019759E-008  0.1826277E+03  0.7546771E-02  0.1223693E+00
          2   -1    0    0  502    0  0.00000000000E+00  0.00000000000E+00  0.18224009427E+04  0.18224009427E+04  0.00000000000E+00 0. -1.
          2   -1    0    0  503    0 -0.00000000000E+00 -0.00000000000E+00 -0.17406881562E+04  0.17406881562E+04  0.00000000000E+00 0. -1.
         25    2    1    2    0    0  0.22491413571E+03  0.20495373319E+02 -0.32838724297E+03  0.41769607128E+03  0.12500159139E+03 0.  0.
         24    2    1    2    0    0  0.49939762738E+01  0.83906443139E+01 -0.18563876886E+02  0.83233500726E+02  0.80547224701E+02 0.  0.
         24    2    1    2    0    0  0.60903641586E+02 -0.95985940453E+02 -0.20048680790E+02  0.13959136279E+03  0.78493596178E+02 0.  0.
        -11    1    4    4    0    0  0.40026451191E+02  0.29168670312E+01 -0.24878225400E+02  0.47218121598E+02  0.00000000000E+00 0.  1.
         12    1    4    4    0    0 -0.35032474917E+02  0.54737772827E+01  0.63143485136E+01  0.36015379128E+02  0.00000000000E+00 0. -1.
        -13    1    5    5    0    0  0.15933236866E+02  0.67601542910E+01 -0.21277466468E+02  0.27428056847E+02  0.00000000000E+00 0.  1.
         14    1    5    5    0    0  0.44970404719E+02 -0.10274609474E+03  0.12287856780E+01  0.11216330594E+03  0.00000000000E+00 0. -1.
          5    1    3    3  501    0  0.18668833175E+03  0.66408301653E+02 -0.25242575431E+03  0.32094150118E+03  0.47000000000E+01 0.  1.
         -5    1    3    3    0  501  0.38225803959E+02 -0.45912928333E+02 -0.75961488661E+02  0.96754570104E+02  0.47000000000E+01 0.  1.
          1    1    1    2  502    0 -0.17665422553E+03  0.44705595028E+02  0.16779613613E+04  0.16878268974E+04  0.00000000000E+00 0. -1.
          1    1    1    2  503    0 -0.11415752804E+03  0.22394327791E+02 -0.12292487741E+04  0.12347412668E+04  0.00000000000E+00 0. -1.
<mgrwt>
<rscale>  0 0.13256922E+03</rscale>
<asrwt>0</asrwt>
<pdfrwt beam="1">  1        2 0.26800014E+00 0.18262767E+03</pdfrwt>
<pdfrwt beam="2">  1        2 0.25598355E+00 0.96231853E+02</pdfrwt>
<totfact> 0.20157866E+01</totfact>
</mgrwt>
</event>
<event>
13    1  0.3019759E-008  0.9291701E+02  0.7546771E-02  0.1345094E+00
          2   -1    0    0  503    0  0.00000000000E+00  0.00000000000E+00  0.24214062587E+04  0.24214062587E+04  0.00000000000E+00 0. -1.
          2   -1    0    0  502    0 -0.00000000000E+00 -0.00000000000E+00 -0.29351566457E+03  0.29351566457E+03  0.00000000000E+00 0. -1.
         25    2    1    2    0    0  0.51405958633E+02  0.68161551607E+02 -0.23771260835E+02  0.15322666889E+03  0.12499907807E+03 0.  0.
         24    2    1    2    0    0 -0.10737440938E+03  0.56153063396E+02  0.40306996225E+02  0.15219976668E+03  0.82811138823E+02 0.  0.
         24    2    1    2    0    0  0.59149867653E+02  0.13835673783E+02  0.75349624834E+02  0.12654067310E+03  0.81515908103E+02 0.  0.
        -11    1    4    4    0    0 -0.37545423730E+02  0.48067691568E+02 -0.14935444183E+02  0.62795137619E+02  0.00000000000E+00 0.  1.
         12    1    4    4    0    0 -0.69828985652E+02  0.80853718287E+01  0.55242440408E+02  0.89404629058E+02  0.00000000000E+00 0. -1.
        -11    1    5    5    0    0  0.26741280269E+02  0.47441708762E+02  0.46880890500E+02  0.71858400308E+02  0.00000000000E+00 0.  1.
         12    1    5    5    0    0  0.32408587385E+02 -0.33606034980E+02  0.28468734334E+02  0.54682272794E+02  0.00000000000E+00 0. -1.
          5    1    3    3  501    0 -0.31492149740E+02 -0.13099431148E+02  0.96439184341E+00  0.34443731552E+02  0.47000000000E+01 0. -1.
         -5    1    3    3    0  501  0.82898108373E+02  0.81260982755E+02 -0.24735652679E+02  0.11878293734E+03  0.47000000000E+01 0. -1.
          1    1    1    2  502    0  0.26928461409E+02 -0.86362800826E+02 -0.10643022567E+03  0.13968202582E+03  0.00000000000E+00 0. -1.
          1    1    1    2  503    0 -0.30109878314E+02 -0.51787487960E+02  0.21424354596E+04  0.21432727888E+04  0.00000000000E+00 0. -1.
<mgrwt>
<rscale>  0 0.74606612E+02</rscale>
<asrwt>0</asrwt>
<pdfrwt beam="1">  1        2 0.35608915E+00 0.59904496E+02</pdfrwt>
<pdfrwt beam="2">  1        2 0.43164070E-01 0.92917008E+02</pdfrwt>
<totfact> 0.11050445E+02</totfact>
</mgrwt>
</event>
<event>
13    1  0.3019759E-008  0.6177628E+02  0.7546771E-02  0.1539376E+00
          2   -1    0    0  502    0  0.00000000000E+00  0.00000000000E+00  0.36416260300E+04  0.36416260300E+04  0.00000000000E+00 0. -1.
          2   -1    0    0  503    0 -0.00000000000E+00 -0.00000000000E+00 -0.17533563156E+04  0.17533563156E+04  0.00000000000E+00 0. -1.
         25    2    1    2    0    0  0.51794133727E+02  0.66564891905E+02  0.29693140454E+02  0.15371055426E+03  0.12502693620E+03 0.  0.
         24    2    1    2    0    0 -0.54412211656E+02  0.14912151732E+03  0.45421954681E+03  0.48831766979E+03  0.83311669219E+02 0.  0.
         24    2    1    2    0    0  0.24870173942E+02 -0.15541655030E+03  0.72322002105E+03  0.74780791963E+03  0.10675512233E+03 0.  0.
        -13    1    4    4    0    0 -0.55975556048E+02  0.81174080790E+02  0.17422251009E+03  0.20018985312E+03  0.00000000000E+00 0.  1.
         14    1    4    4    0    0  0.15633443929E+01  0.67947436530E+02  0.27999703671E+03  0.28812781668E+03  0.00000000000E+00 0. -1.
        -13    1    5    5    0    0  0.39631739545E+02 -0.15683778608E+03  0.53292943989E+03  0.55694035033E+03  0.00000000000E+00 0.  1.
         14    1    5    5    0    0 -0.14761565603E+02  0.14212357812E+01  0.19029058117E+03  0.19086756930E+03  0.00000000000E+00 0. -1.
          5    1    3    3  501    0  0.61003992236E+01  0.52891192967E+01 -0.45461884669E+02  0.46411880066E+02  0.47000000000E+01 0. -1.
         -5    1    3    3    0  501  0.45693734504E+02  0.61275772608E+02  0.75155025122E+02  0.10729867419E+03  0.47000000000E+01 0. -1.
          1    1    1    2  502    0 -0.39184779466E+02 -0.47764434866E+02  0.23426676840E+04  0.23434821880E+04  0.00000000000E+00 0. -1.
          1    1    1    2  503    0  0.16932683453E+02 -0.12505424057E+02 -0.16615306779E+04  0.16616640139E+04  0.00000000000E+00 0. -1.
<mgrwt>
<rscale>  0 0.36060909E+02</rscale>
<asrwt>0</asrwt>
<pdfrwt beam="1">  1        2 0.53553324E+00 0.61776285E+02</pdfrwt>
<pdfrwt beam="2">  1        2 0.25784652E+00 0.21049974E+02</pdfrwt>
<totfact> 0.30069623E+00</totfact>
</mgrwt>
</event>
<event>
13    1  0.3019759E-008  0.1087151E+03  0.7546771E-02  0.1446761E+00
          2   -1    0    0  502    0  0.00000000000E+00  0.00000000000E+00  0.11652675079E+04  0.11652675079E+04  0.00000000000E+00 0. -1.
          2   -1    0    0  503    0 -0.00000000000E+00 -0.00000000000E+00 -0.12330592625E+04  0.12330592625E+04  0.00000000000E+00 0. -1.
         25    2    1    2    0    0 -0.10838865096E+03 -0.21311761097E+02 -0.28336073338E+03  0.32881770628E+03  0.12500195167E+03 0.  0.
         24    2    1    2    0    0 -0.11313854216E+03  0.29583356770E+02 -0.55992835961E+02  0.15279872385E+03  0.80850155292E+02 0.  0.
         24    2    1    2    0    0  0.20602450514E+03 -0.10963163526E+03  0.31565952355E+03  0.40113043729E+03  0.82459085254E+02 0.  0.
        -11    1    5    5    0    0  0.19538925706E+03 -0.12183657278E+03  0.30307822895E+03  0.38062780391E+03  0.00000000000E+00 0.  1.
         12    1    5    5    0    0  0.10635248077E+02  0.12204937525E+02  0.12581294604E+02  0.20502633381E+02  0.00000000000E+00 0. -1.
        -13    1    4    4    0    0 -0.99046198145E+02  0.19868072120E+02 -0.76039080152E+02  0.12643904210E+03  0.00000000000E+00 0.  1.
         14    1    4    4    0    0 -0.14092344013E+02  0.97152846498E+01  0.20046244191E+02  0.26359681747E+02  0.00000000000E+00 0. -1.
          5    1    3    3  501    0 -0.13551947741E+03 -0.72124676437E+01 -0.23487078217E+03  0.27130042897E+03  0.47000000000E+01 0. -1.
         -5    1    3    3    0  501  0.27130826448E+02 -0.14099293453E+02 -0.48489951213E+02  0.57517277302E+02  0.47000000000E+01 0. -1.
          1    1    1    2  502    0  0.38252875937E+02  0.10184213187E+03  0.73155183712E+03  0.73959664192E+03  0.00000000000E+00 0. -1.
          1    1    1    2  503    0 -0.22750187957E+02 -0.48209227884E+00 -0.77564954593E+03  0.77598326114E+03  0.00000000000E+00 0. -1.
<mgrwt>
<rscale>  0 0.49737748E+02</rscale>
<asrwt>0</asrwt>
<pdfrwt beam="1">  1        2 0.17136287E+00 0.10871507E+03</pdfrwt>
<pdfrwt beam="2">  1        2 0.18133224E+00 0.22755295E+02</pdfrwt>
<totfact> 0.88945960E+01</totfact>
</mgrwt>
</event>
<event>
13    1  0.3019759E-008  0.3788987E+02  0.7546771E-02  0.1664348E+00
         -3   -1    0    0    0  501 -0.00000000000E+00  0.00000000000E+00  0.42333036798E+03  0.42333036798E+03  0.00000000000E+00 0.  1.
          2   -1    0    0  503    0  0.00000000000E+00 -0.00000000000E+00 -0.12491443027E+04  0.12491443027E+04  0.00000000000E+00 0. -1.
         25    2    1    2    0    0 -0.78666126237E+02  0.85419899051E+02  0.68664961674E+02  0.18391714513E+03  0.12500288292E+03 0.  0.
         24    2    1    2    0    0  0.12456872638E+03  0.18645800200E+02 -0.32611263217E+03  0.35738810266E+03  0.74241320067E+02 0.  0.
         24    2    1    2    0    0 -0.26361112035E+02 -0.54461425646E+02 -0.37388156091E+03  0.38721654512E+03  0.80549836245E+02 0.  0.
        -11    1    4    4    0    0  0.11964784516E+03  0.61447556864E+01 -0.32164027619E+03  0.34322854215E+03  0.00000000000E+00 0.  1.
         12    1    4    4    0    0  0.49208812193E+01  0.12501044514E+02 -0.44723559729E+01  0.14159560511E+02  0.00000000000E+00 0. -1.
        -11    1    5    5    0    0  0.21558090050E+02  0.61946743925E+01 -0.63187003401E+02  0.67050150158E+02  0.00000000000E+00 0.  1.
         12    1    5    5    0    0 -0.47919202086E+02 -0.60656100038E+02 -0.31069455751E+03  0.32016639497E+03  0.00000000000E+00 0. -1.
          5    1    3    3  502    0  0.25441592179E+02 -0.29092748089E+01 -0.80356252516E+01  0.27247013886E+02  0.47000000000E+01 0.  1.
         -5    1    3    3    0  502 -0.10410771842E+03  0.88329173860E+02  0.76700586926E+02  0.15667013124E+03  0.47000000000E+01 0.  1.
          1    1    1    2  503    0 -0.17440241791E+02 -0.33549995667E+02 -0.46821740581E+03  0.46974174111E+03  0.00000000000E+00 0. -1.
         -4    1    1    2    0  501 -0.21012463175E+01 -0.16054277939E+02  0.27373270247E+03  0.27421113667E+03  0.00000000000E+00 0.  1.
<mgrwt>
<rscale>  0 0.24768581E+02</rscale>
<asrwt>0</asrwt>
<pdfrwt beam="2">  1        2 0.18369769E+00 0.37889869E+02</pdfrwt>
<pdfrwt beam="1">  1       -3 0.62254467E-01 0.16191204E+02</pdfrwt>
<totfact> 0.30778118E+01</totfact>
</mgrwt>
</event>
<event>
13    1  0.3019759E-008  0.5237906E+02  0.7546771E-02  0.1547693E+00
         -3   -1    0    0    0  501 -0.00000000000E+00  0.00000000000E+00  0.11308124649E+04  0.11308124649E+04  0.00000000000E+00 0.  1.
          2   -1    0    0  503    0  0.00000000000E+00 -0.00000000000E+00 -0.10648844279E+04  0.10648844279E+04  0.00000000000E+00 0. -1.
         25    2    1    2    0    0  0.54669045581E+02 -0.10528904790E+03  0.16704246774E+03  0.24000488120E+03  0.12499867526E+03 0.  0.
         24    2    1    2    0    0 -0.39921577583E+03 -0.82330774325E+02  0.11676871943E+03  0.43164757797E+03  0.80827629310E+02 0.  0.
         24    2    1    2    0    0  0.37654523947E+03  0.18475047645E+03 -0.31481935354E+03  0.52736133256E+03  0.55494988961E+02 0.  0.
        -11    1    5    5    0    0  0.26818852552E+03  0.12187633862E+03 -0.19015126205E+03  0.35062291653E+03  0.00000000000E+00 0.  1.
         12    1    5    5    0    0  0.10835671396E+03  0.62874137828E+02 -0.12466809149E+03  0.17673841604E+03  0.00000000000E+00 0. -1.
        -11    1    4    4    0    0 -0.27242540083E+03 -0.17672576785E+02  0.83551798625E+02  0.28549749919E+03  0.00000000000E+00 0.  1.
         12    1    4    4    0    0 -0.12679037500E+03 -0.64658197541E+02  0.33216920807E+02  0.14615007879E+03  0.00000000000E+00 0. -1.
          5    1    3    3  502    0 -0.29082698326E+02 -0.11017738524E+01  0.66277719852E+02  0.72538564890E+02  0.47000000000E+01 0. -1.
         -5    1    3    3    0  502  0.83751743907E+02 -0.10418727405E+03  0.10076474789E+03  0.16746631631E+03  0.47000000000E+01 0. -1.
          1    1    1    2  503    0  0.19365102716E+02  0.13356114463E+02 -0.44830788405E+03  0.44892466172E+03  0.00000000000E+00 0. -1.
         -4    1    1    2    0  501 -0.51363611941E+02 -0.10486768685E+02  0.54524408747E+03  0.54775843934E+03  0.00000000000E+00 0.  1.
<mgrwt>
<rscale>  0 0.35102436E+02</rscale>
<asrwt>0</asrwt>
<pdfrwt beam="2">  1        2 0.15660065E+00 0.23524307E+02</pdfrwt>
<pdfrwt beam="1">  1       -3 0.16629595E+00 0.52379057E+02</pdfrwt>
<totfact> 0.48495924E+00</totfact>
</mgrwt>
</event>
<event>
13    1  0.3019759E-008  0.2148177E+03  0.7546771E-02  0.1222013E+00
          2   -1    0    0  502    0  0.00000000000E+00  0.00000000000E+00  0.25165011987E+04  0.25165011987E+04  0.00000000000E+00 0. -1.
          2   -1    0    0  503    0 -0.00000000000E+00 -0.00000000000E+00 -0.13337945228E+04  0.13337945228E+04  0.00000000000E+00 0. -1.
         25    2    1    2    0    0  0.21294656944E+03 -0.94469220846E+02 -0.36214180543E+03  0.44837687193E+03  0.12499782765E+03 0.  0.
         24    2    1    2    0    0 -0.26916871527E+03 -0.69103494718E+02 -0.17752226149E+03  0.34793717282E+03  0.11099113768E+03 0.  0.
         24    2    1    2    0    0  0.22298501483E+02 -0.12542491677E+03  0.90670583031E+03  0.91856152332E+03  0.73560699319E+02 0.  0.
        -11    1    5    5    0    0  0.24423510533E+02 -0.88715288690E+02  0.80811301932E+03  0.81333484022E+03  0.00000000000E+00 0.  1.
         12    1    5    5    0    0 -0.21250090504E+01 -0.36709628085E+02  0.98592810984E+02  0.10522668310E+03  0.00000000000E+00 0. -1.
        -11    1    4    4    0    0 -0.13873028792E+03 -0.85156201765E+02 -0.12952255377E+03  0.20802346844E+03  0.00000000000E+00 0.  1.
         12    1    4    4    0    0 -0.13043842735E+03  0.16052707047E+02 -0.47999707721E+02  0.13991370438E+03  0.00000000000E+00 0. -1.
          5    1    3    3  501    0  0.11247576698E+03 -0.11577969994E+03 -0.21596499710E+03  0.26966406332E+03  0.47000000000E+01 0.  1.
         -5    1    3    3    0  501  0.10047080246E+03  0.21310479095E+02 -0.14617680833E+03  0.17871280860E+03  0.47000000000E+01 0.  1.
          1    1    1    2  502    0 -0.30129649395E+02  0.77617662613E+02  0.14558373635E+04  0.14582162824E+04  0.00000000000E+00 0. -1.
          1    1    1    2  503    0  0.64053293748E+02  0.21137996973E+03 -0.64017245099E+03  0.67720387111E+03  0.00000000000E+00 0. -1.
<mgrwt>
<rscale>  0 0.13373785E+03</rscale>
<asrwt>0</asrwt>
<pdfrwt beam="1">  1        2 0.37007371E+00 0.83260419E+02</pdfrwt>
<pdfrwt beam="2">  1        2 0.19614625E+00 0.21481771E+03</pdfrwt>
<totfact> 0.15108081E+01</totfact>
</mgrwt>
</event>
<event>
13    1  0.3019759E-008  0.5003338E+02  0.7546771E-02  0.1476819E+00
          2   -1    0    0  503    0  0.00000000000E+00  0.00000000000E+00  0.25469235726E+04  0.25469235726E+04  0.00000000000E+00 0. -1.
          2   -1    0    0  502    0 -0.00000000000E+00 -0.00000000000E+00 -0.11731966451E+04  0.11731966451E+04  0.00000000000E+00 0. -1.
         25    2    1    2    0    0  0.33634181075E+02 -0.87986979896E+02 -0.29621293957E+03  0.33502377874E+03  0.12500343989E+03 0.  0.
         24    2    1    2    0    0 -0.57839795663E+02  0.17136502949E+03  0.29268499699E+02  0.19978377424E+03  0.79658622150E+02 0.  0.
         24    2    1    2    0    0  0.21811117009E+02 -0.41262341673E+02  0.55193425137E+02  0.10720248642E+03  0.79169143298E+02 0.  0.
        -11    1    4    4    0    0 -0.54621345892E+02  0.70737067013E+02  0.41179726547E+02  0.98402205032E+02  0.00000000000E+00 0.  1.
         12    1    4    4    0    0 -0.32184497704E+01  0.10062796248E+03 -0.11911226848E+02  0.10138156921E+03  0.00000000000E+00 0. -1.
        -13    1    5    5    0    0  0.26753810194E+02 -0.45650715866E+02  0.71879609650E+02  0.89254873831E+02  0.00000000000E+00 0.  1.
         14    1    5    5    0    0 -0.49426931856E+01  0.43883741933E+01 -0.16686184514E+02  0.17947612588E+02  0.00000000000E+00 0. -1.
          5    1    3    3  501    0 -0.26689016174E+02  0.19275636187E+02 -0.68337443091E+02  0.75999670150E+02  0.47000000000E+01 0. -1.
         -5    1    3    3    0  501  0.60323197249E+02 -0.10726261608E+03 -0.22787549648E+03  0.25902410859E+03  0.47000000000E+01 0. -1.
          1    1    1    2  502    0  0.40235386761E+02 -0.29890608323E+02 -0.74530474083E+03  0.74698828071E+03  0.00000000000E+00 0. -1.
          1    1    1    2  503    0 -0.37840889182E+02 -0.12225099597E+02  0.23307826830E+04  0.23311218976E+04  0.00000000000E+00 0. -1.
<mgrwt>
<rscale>  0 0.44605599E+02</rscale>
<asrwt>0</asrwt>
<pdfrwt beam="1">  1        2 0.37454759E+00 0.39766644E+02</pdfrwt>
<pdfrwt beam="2">  1        2 0.17252892E+00 0.50033377E+02</pdfrwt>
<totfact> 0.21541696E+01</totfact>
</mgrwt>
</event>
<event>
13    1  0.3019759E-008  0.1315440E+03  0.7546771E-02  0.1433249E+00
          2   -1    0    0  502    0  0.00000000000E+00  0.00000000000E+00  0.18902865821E+04  0.18902865821E+04  0.00000000000E+00 0. -1.
          2   -1    0    0  503    0 -0.00000000000E+00 -0.00000000000E+00 -0.17880313283E+04  0.17880313283E+04  0.00000000000E+00 0. -1.
         25    2    1    2    0    0 -0.26112201871E+01 -0.88203197145E+02 -0.11341475190E+03  0.19046280722E+03  0.12500620996E+03 0.  0.
         24    2    1    2    0    0 -0.17641993024E+02  0.50972769851E+02  0.18347532055E+03  0.20762696126E+03  0.80847378477E+02 0.  0.
         24    2    1    2    0    0 -0.11754691598E+03 -0.88935163388E+02  0.14540163633E+03  0.22202079520E+03  0.80155205123E+02 0.  0.
        -11    1    4    4    0    0 -0.78610227738E+01 -0.21749464739E+02  0.34103067044E+02  0.41205024903E+02  0.00000000000E+00 0.  1.
         12    1    4    4    0    0 -0.97809702507E+01  0.72722234590E+02  0.14937225351E+03  0.16642193636E+03  0.00000000000E+00 0. -1.
        -11    1    5    5    0    0 -0.37466238719E+01 -0.33727205897E+02  0.72268053481E+01  0.34695652806E+02  0.00000000000E+00 0.  1.
         12    1    5    5    0    0 -0.11380029211E+03 -0.55207957490E+02  0.13817483098E+03  0.18732514239E+03  0.00000000000E+00 0. -1.
          5    1    3    3  501    0  0.33773929736E+02 -0.36847723986E+01 -0.88652407398E+02  0.95055747932E+02  0.47000000000E+01 0.  1.
         -5    1    3    3    0  501 -0.36385149924E+02 -0.84518424747E+02 -0.24762344498E+02  0.95407059286E+02  0.47000000000E+01 0.  1.
          1    1    1    2  502    0  0.13523432901E+03  0.10552016559E+03  0.14674361264E+04  0.14774273634E+04  0.00000000000E+00 0. -1.
          1    1    1    2  503    0  0.25658001863E+01  0.20645425095E+02 -0.15806430776E+04  0.15807799833E+04  0.00000000000E+00 0. -1.
<mgrwt>
<rscale>  0 0.52313238E+02</rscale>
<asrwt>0</asrwt>
<pdfrwt beam="1">  1        2 0.27798332E+00 0.13154402E+03</pdfrwt>
<pdfrwt beam="2">  1        2 0.26294578E+00 0.20804252E+02</pdfrwt>
<totfact> 0.21337825E+01</totfact>
</mgrwt>
</event>
<event>
13    1  0.3019759E-008  0.7047791E+02  0.7546771E-02  0.1454675E+00
          2   -1    0    0  502    0  0.00000000000E+00  0.00000000000E+00  0.75535622423E+03  0.75535622423E+03  0.00000000000E+00 0. -1.
          2   -1    0    0  503    0 -0.00000000000E+00 -0.00000000000E+00 -0.82735030981E+03  0.82735030981E+03  0.00000000000E+00 0. -1.
         25    2    1    2    0    0 -0.23233321386E+02 -0.27337106455E+02 -0.70787948763E+03  0.71972289418E+03  0.12498228192E+03 0.  0.
         24    2    1    2    0    0  0.60718701852E+01 -0.38285267527E+02  0.42624896395E+02  0.99044429730E+02  0.80562323394E+02 0.  0.
         24    2    1    2    0    0 -0.18194791835E+02  0.53049650379E+02  0.32639764137E+03  0.34081483366E+03  0.80461262068E+02 0.  0.
        -11    1    5    5    0    0  0.21828919859E+02 -0.87974140311E+01  0.10004775418E+03  0.10277864249E+03  0.00000000000E+00 0.  1.
         12    1    5    5    0    0 -0.40023711694E+02  0.61847064410E+02  0.22634988719E+03  0.23803619117E+03  0.00000000000E+00 0. -1.
        -13    1    4    4    0    0  0.17542475858E+02 -0.45657681535E+01  0.57616591239E+02  0.60400797048E+02  0.00000000000E+00 0.  1.
         14    1    4    4    0    0 -0.11470605673E+02 -0.33719499373E+02 -0.14991694844E+02  0.38643632681E+02  0.00000000000E+00 0. -1.
          5    1    3    3  501    0 -0.29516010738E+02 -0.53350072533E+02 -0.16183957151E+03  0.17300740457E+03  0.47000000000E+01 0. -1.
         -5    1    3    3    0  501  0.62826893525E+01  0.26012966078E+02 -0.54603991612E+03  0.54671548961E+03  0.47000000000E+01 0. -1.
          1    1    1    2  502    0  0.66694555573E+02  0.23273539210E+02  0.33765769528E+03  0.34496744854E+03  0.00000000000E+00 0. -1.
          1    1    1    2  503    0 -0.31338312538E+02 -0.10700815607E+02 -0.70794830996E+02  0.78156927928E+02  0.00000000000E+00 0. -1.
<mgrwt>
<rscale>  0 0.48310141E+02</rscale>
<asrwt>0</asrwt>
<pdfrwt beam="1">  1        2 0.11108180E+00 0.70477913E+02</pdfrwt>
<pdfrwt beam="2">  1        2 0.12166916E+00 0.33114910E+02</pdfrwt>
<totfact> 0.25552184E+02</totfact>
</mgrwt>
</event>
<event>
13    1  0.3019759E-008  0.1377608E+03  0.7546771E-02  0.1333581E+00
          2   -1    0    0  503    0  0.00000000000E+00  0.00000000000E+00  0.19020258988E+04  0.19020258988E+04  0.00000000000E+00 0. -1.
          2   -1    0    0  502    0 -0.00000000000E+00 -0.00000000000E+00 -0.19808703954E+04  0.19808703954E+04  0.00000000000E+00 0. -1.
         25    2    1    2    0    0 -0.50641074437E+02  0.19049055624E+03 -0.98450110529E+03  0.10117892681E+04  0.12499570528E+03 0.  0.
         24    2    1    2    0    0  0.15175780934E+03  0.11632133220E+02  0.51784788706E+03  0.54564787959E+03  0.79996469591E+02 0.  0.
         24    2    1    2    0    0 -0.12888877074E+03 -0.73628513130E+02  0.74636601341E+03  0.76527052285E+03  0.80890506277E+02 0.  0.
        -11    1    4    4    0    0  0.88531655325E+02  0.33422744934E+02  0.20579552493E+03  0.22650989372E+03  0.00000000000E+00 0.  1.
         12    1    4    4    0    0  0.63226154019E+02 -0.21790611714E+02  0.31205236213E+03  0.31913798587E+03  0.00000000000E+00 0. -1.
        -13    1    5    5    0    0 -0.11743510411E+03 -0.90646783525E+02  0.66672029021E+03  0.68302546689E+03  0.00000000000E+00 0.  1.
         14    1    5    5    0    0 -0.11453666632E+02  0.17018270396E+02  0.79645723195E+02  0.82245055960E+02  0.00000000000E+00 0. -1.
          5    1    3    3  501    0  0.14762814819E+02  0.10252706635E+03 -0.27584082906E+03  0.29468626201E+03  0.47000000000E+01 0. -1.
         -5    1    3    3    0  501 -0.65403889256E+02  0.87963489886E+02 -0.70866027622E+03  0.71710300611E+03  0.47000000000E+01 0. -1.
          1    1    1    2  502    0 -0.16081522372E+02 -0.13687011776E+03 -0.95358325699E+03  0.96349004795E+03  0.00000000000E+00 0. -1.
          1    1    1    2  503    0  0.43853558208E+02  0.83759414336E+01  0.59502596519E+03  0.59669857568E+03  0.00000000000E+00 0. -1.
<mgrwt>
<rscale>  0 0.78425167E+02</rscale>
<asrwt>0</asrwt>
<pdfrwt beam="1">  1        2 0.27970969E+00 0.44646287E+02</pdfrwt>
<pdfrwt beam="2">  1        2 0.29130447E+00 0.13776077E+03</pdfrwt>
<totfact> 0.15666666E+01</totfact>
</mgrwt>
</event>
<event>
13    1  0.3019759E-008  0.7981344E+02  0.7546771E-02  0.1443964E+00
          2   -1    0    0  503    0  0.00000000000E+00  0.00000000000E+00  0.13296283718E+04  0.13296283718E+04  0.00000000000E+00 0. -1.
          2   -1    0    0  502    0 -0.00000000000E+00 -0.00000000000E+00 -0.11222573571E+04  0.11222573571E+04  0.00000000000E+00 0. -1.
         25    2    1    2    0    0 -0.57965609942E+02  0.82617227797E+02 -0.13502975580E+03  0.20987219358E+03  0.12501073723E+03 0.  0.
         24    2    1    2    0    0 -0.86559125766E+01 -0.10176710051E+03  0.18936318148E+02  0.13115789570E+03  0.80077099658E+02 0.  0.
         24    2    1    2    0    0 -0.46663302696E+02  0.37640322219E+02  0.12742541065E+03  0.16230154114E+03  0.80686413359E+02 0.  0.
        -11    1    5    5    0    0 -0.61325474773E+02  0.39983683945E+02  0.12798385596E+03  0.14744278966E+03  0.00000000000E+00 0.  1.
         12    1    5    5    0    0  0.14662172077E+02 -0.23433617257E+01 -0.55844530682E+00  0.14858751474E+02  0.00000000000E+00 0. -1.
        -13    1    4    4    0    0  0.15665758815E+02 -0.11213883185E+02 -0.21656288510E+02  0.28985548250E+02  0.00000000000E+00 0.  1.
         14    1    4    4    0    0 -0.24321671392E+02 -0.90553217330E+02  0.40592606658E+02  0.10217234745E+03  0.00000000000E+00 0. -1.
          5    1    3    3  501    0 -0.59069849365E+02  0.12945694529E+02 -0.12549713239E+03  0.13938600485E+03  0.47000000000E+01 0.  1.
         -5    1    3    3    0  501  0.11042394229E+01  0.69671533268E+02 -0.95326234137E+01  0.70486188731E+02  0.47000000000E+01 0.  1.
          1    1    1    2  502    0  0.99177207167E+01  0.30050736117E+02 -0.87292957628E+03  0.87350297829E+03  0.00000000000E+00 0. -1.
          1    1    1    2  503    0  0.10336710450E+03 -0.48541185619E+02  0.10689686179E+04  0.10750511203E+04  0.00000000000E+00 0. -1.
<mgrwt>
<rscale>  0 0.50256331E+02</rscale>
<asrwt>0</asrwt>
<pdfrwt beam="1">  1        2 0.19553358E+00 0.79813444E+02</pdfrwt>
<pdfrwt beam="2">  1        2 0.16503785E+00 0.31645030E+02</pdfrwt>
<totfact> 0.82717616E+01</totfact>
</mgrwt>
</event>
<event>
13    1  0.3019759E-008  0.3560414E+02  0.7546771E-02  0.1567249E+00
          2   -1    0    0  502    0  0.00000000000E+00  0.00000000000E+00  0.13970177863E+04  0.13970177863E+04  0.00000000000E+00 0. -1.
          2   -1    0    0  503    0 -0.00000000000E+00 -0.00000000000E+00 -0.21432888303E+04  0.21432888303E+04  0.00000000000E+00 0. -1.
         25    2    1    2    0    0  0.45471257310E+02 -0.11386612979E+03 -0.94639891698E+03  0.96246047872E+03  0.12500452909E+03 0.  0.
         24    2    1    2    0    0 -0.11592660467E+03 -0.39593980504E+01 -0.57306826408E+03  0.59294085058E+03  0.98574654374E+02 0.  0.
         24    2    1    2    0    0  0.91937390774E+02  0.93077489582E+02  0.86480397733E+03  0.87838316763E+03  0.80963986238E+02 0.  0.
        -11    1    5    5    0    0  0.10184650607E+03  0.89856957879E+02  0.84645431130E+03  0.85728168346E+03  0.00000000000E+00 0.  1.
         12    1    5    5    0    0 -0.99091152979E+01  0.32205317023E+01  0.18349666031E+02  0.21101484163E+02  0.00000000000E+00 0. -1.
        -11    1    4    4    0    0 -0.13337580033E+03 -0.88925771657E+01 -0.48914018851E+03  0.50707623299E+03  0.00000000000E+00 0.  1.
         12    1    4    4    0    0  0.17449195661E+02  0.49331791154E+01 -0.83928075570E+02  0.85864617593E+02  0.00000000000E+00 0. -1.
          5    1    3    3  501    0  0.79845281375E+02 -0.36232109421E+02 -0.40359107639E+03  0.41303254309E+03  0.47000000000E+01 0.  1.
         -5    1    3    3    0  501 -0.34374024065E+02 -0.77634020371E+02 -0.54280784059E+03  0.54942793563E+03  0.47000000000E+01 0.  1.
          1    1    1    2  502    0  0.14051208522E+02  0.27138434370E+02  0.50646685422E+03  0.50738802263E+03  0.00000000000E+00 0. -1.
          1    1    1    2  503    0 -0.35533251934E+02 -0.23903961090E+01 -0.59807469456E+03  0.59913409706E+03  0.00000000000E+00 0. -1.
<mgrwt>
<rscale>  0 0.32985947E+02</rscale>
<asrwt>0</asrwt>
<pdfrwt beam="1">  1        2 0.20544380E+00 0.30560286E+02</pdfrwt>
<pdfrwt beam="2">  1        2 0.31518953E+00 0.35604141E+02</pdfrwt>
<totfact> 0.27124341E+01</totfact>
</mgrwt>
</event>
<event>
13    1  0.3019759E-008  0.1371792E+03  0.7546771E-02  0.1283716E+00
          2   -1    0    0  502    0  0.00000000000E+00  0.00000000000E+00  0.81680094038E+03  0.81680094038E+03  0.00000000000E+00 0. -1.
          2   -1    0    0  503    0 -0.00000000000E+00 -0.00000000000E+00 -0.87171086408E+03  0.87171086408E+03  0.00000000000E+00 0. -1.
         25    2    1    2    0    0 -0.15000995511E+02 -0.10492630908E+03 -0.18165341217E+03  0.24465519338E+03  0.12499456504E+03 0.  0.
         24    2    1    2    0    0 -0.18849973795E+03 -0.15401118922E+02  0.28922483383E+03  0.35468489441E+03  0.79881312894E+02 0.  0.
         24    2    1    2    0    0  0.13625319471E+02  0.70784802152E+02  0.25719772806E+03  0.27851249382E+03  0.78882192850E+02 0.  0.
        -11    1    4    4    0    0 -0.47211858641E+02 -0.22255974713E+02  0.32262082465E+02  0.61360654916E+02  0.00000000000E+00 0.  1.
         12    1    4    4    0    0 -0.14128787930E+03  0.68548557904E+01  0.25696275136E+03  0.29332423949E+03  0.00000000000E+00 0. -1.
        -13    1    5    5    0    0  0.26104759767E+02  0.13163266304E+02  0.23550094371E+02  0.37541137531E+02  0.00000000000E+00 0.  1.
         14    1    5    5    0    0 -0.12479440296E+02  0.57621535848E+02  0.23364763369E+03  0.24097135629E+03  0.00000000000E+00 0. -1.
          5    1    3    3  501    0 -0.34477946016E+02 -0.94018114027E+01 -0.12861874704E+03  0.13357393050E+03  0.47000000000E+01 0. -1.
         -5    1    3    3    0  501  0.19476950505E+02 -0.95524497677E+02 -0.53034665137E+02  0.11108126288E+03  0.47000000000E+01 0. -1.
          1    1    1    2  502    0  0.59714482291E+02 -0.37608446809E+02  0.17869310292E+03  0.19212350116E+03  0.00000000000E+00 0. -1.
          1    1    1    2  503    0  0.13016093169E+03  0.87151072659E+02 -0.59837217633E+03  0.61853572170E+03  0.00000000000E+00 0. -1.
<mgrwt>
<rscale>  0 0.98391170E+02</rscale>
<asrwt>0</asrwt>
<pdfrwt beam="1">  1        2 0.12011779E+00 0.70570636E+02</pdfrwt>
<pdfrwt beam="2">  1        2 0.12819277E+00 0.13717919E+03</pdfrwt>
<totfact> 0.20707274E+02</totfact>
</mgrwt>
</event>
<event>
13    1  0.3019759E-008  0.1547218E+03  0.7546771E-02  0.1287748E+00
          2   -1    0    0  502    0  0.00000000000E+00  0.00000000000E+00  0.38058450613E+04  0.38058450613E+04  0.00000000000E+00 0. -1.
          2   -1    0    0  503    0 -0.00000000000E+00 -0.00000000000E+00 -0.30071137014E+04  0.30071137014E+04  0.00000000000E+00 0. -1.
         25    2    1    2    0    0 -0.17852286173E+03  0.19113915823E+03 -0.14681246544E+04  0.14964691148E+04  0.12500088214E+03 0.  0.
         24    2    1    2    0    0 -0.43018066194E+02 -0.11216555308E+03 -0.10045467671E+03  0.17555540694E+03  0.79352967896E+02 0.  0.
         24    2    1    2    0    0  0.12722148745E+03 -0.61911622820E+02  0.38512823557E+03  0.41812316789E+03  0.80528689168E+02 0.  0.
        -11    1    4    4    0    0  0.22055208239E+02 -0.23460621927E+02 -0.11899688958E+02  0.34328349639E+02  0.00000000000E+00 0.  1.
         12    1    4    4    0    0 -0.65073274433E+02 -0.88704931155E+02 -0.88554987757E+02  0.14122705730E+03  0.00000000000E+00 0. -1.
        -11    1    5    5    0    0  0.83083203431E+02 -0.77090796151E+02  0.30518658258E+03  0.32555285244E+03  0.00000000000E+00 0.  1.
         12    1    5    5    0    0  0.44138284016E+02  0.15179173331E+02  0.79941652988E+02  0.92570315444E+02  0.00000000000E+00 0. -1.
          5    1    3    3  501    0 -0.17226333769E+03  0.17149146538E+03 -0.10487115748E+04  0.10765231244E+04  0.47000000000E+01 0. -1.
         -5    1    3    3    0  501 -0.62595240366E+01  0.19647692852E+02 -0.41941307963E+03  0.41994599038E+03  0.47000000000E+01 0. -1.
          1    1    1    2  502    0  0.14875783438E+03 -0.42844280426E+02  0.33500465404E+04  0.33536213782E+04  0.00000000000E+00 0. -1.
          1    1    1    2  503    0 -0.54438393908E+02  0.25782298100E+02 -0.13678640850E+04  0.13691896949E+04  0.00000000000E+00 0. -1.
<mgrwt>
<rscale>  0 0.96538489E+02</rscale>
<asrwt>0</asrwt>
<pdfrwt beam="1">  1        2 0.55968310E+00 0.15472178E+03</pdfrwt>
<pdfrwt beam="2">  1        2 0.44222260E+00 0.60235086E+02</pdfrwt>
<totfact> 0.44077676E-01</totfact>
</mgrwt>
</event>
<event>
13    1  0.3019759E-008  0.8113985E+02  0.7546771E-02  0.1460121E+00
          2   -1    0    0  503    0  0.00000000000E+00  0.00000000000E+00  0.15826707773E+04  0.15826707773E+04  0.00000000000E+00 0. -1.
         -1   -1    0    0    0  501 -0.00000000000E+00 -0.00000000000E+00 -0.35023314949E+03  0.35023314949E+03  0.00000000000E+00 0.  1.
         25    2    1    2    0    0 -0.53928612307E+02 -0.51877651334E+02 -0.17168219720E+03  0.22516289514E+03  0.12499586626E+03 0.  0.
         24    2    1    2    0    0 -0.11904306113E+02  0.32293445891E+01  0.82234452091E+02  0.11529926272E+03  0.79870355587E+02 0.  0.
         24    2    1    2    0    0 -0.23019017817E+02  0.61417443593E+02  0.13785154383E+03  0.17224724889E+03  0.79775240866E+02 0.  0.
        -13    1    4    4    0    0 -0.13609131574E+02  0.32349645298E+02  0.78376103230E+02  0.85875034618E+02  0.00000000000E+00 0.  1.
         14    1    4    4    0    0  0.17048254603E+01 -0.29120300709E+02  0.38583488619E+01  0.29424228098E+02  0.00000000000E+00 0. -1.
        -13    1    5    5    0    0 -0.31198086615E+02  0.46070873614E+02  0.30411680428E+02  0.63409118512E+02  0.00000000000E+00 0.  1.
         14    1    5    5    0    0  0.81790687986E+01  0.15346569979E+02  0.10743986340E+03  0.10883813037E+03  0.00000000000E+00 0. -1.
          5    1    3    3  502    0 -0.19449237819E+02 -0.91055800855E+02 -0.11282898589E+03  0.14636222798E+03  0.47000000000E+01 0. -1.
         -5    1    3    3    0  502 -0.34479374488E+02  0.39178149521E+02 -0.58853211306E+02  0.78800667167E+02  0.47000000000E+01 0. -1.
          1    1    1    2  503    0  0.80059724055E+02  0.13439324608E+02  0.12992118153E+04  0.13017455650E+04  0.00000000000E+00 0. -1.
         -2    1    1    2    0  501  0.87922121822E+01 -0.26208461456E+02 -0.11517798623E+03  0.11844895508E+03  0.00000000000E+00 0.  1.
<mgrwt>
<rscale>  0 0.47360570E+02</rscale>
<asrwt>0</asrwt>
<pdfrwt beam="1">  1        2 0.23274570E+00 0.81139847E+02</pdfrwt>
<pdfrwt beam="2">  1       -1 0.51504876E-01 0.27643922E+02</pdfrwt>
<totfact> 0.67226202E+01</totfact>
</mgrwt>
</event>
<event>
13    1  0.3147267E-008  0.6480764E+02  0.7546771E-02  0.1597527E+00
          2   -1    0    0  503    0  0.00000000000E+00  0.00000000000E+00  0.14161716952E+04  0.14161716952E+04  0.00000000000E+00 0. -1.
          2   -1    0    0  502    0 -0.00000000000E+00 -0.00000000000E+00 -0.34720129765E+04  0.34720129765E+04  0.00000000000E+00 0. -1.
         25    2    1    2    0    0  0.51354323597E+03 -0.28284574228E+03 -0.55665261970E+03  0.81805564176E+03  0.12499809936E+03 0.  0.
         24    2    1    2    0    0 -0.28507032228E+03 -0.56785225173E+03 -0.71416310427E+03  0.96143739514E+03  0.10301289641E+03 0.  0.
         24    2    1    2    0    0 -0.26121300386E+03  0.79415104420E+03 -0.41877542012E+03  0.93864925455E+03  0.82349597331E+02 0.  0.
        -13    1    5    5    0    0 -0.47463379104E+02  0.26432741506E+03 -0.14306094618E+03  0.30428307385E+03  0.00000000000E+00 0.  1.
         14    1    5    5    0    0 -0.21374962475E+03  0.52982362914E+03 -0.27571447394E+03  0.63436618070E+03  0.00000000000E+00 0. -1.
        -13    1    4    4    0    0 -0.17314034335E+03 -0.39475010790E+03 -0.41675199690E+03  0.59957272544E+03  0.00000000000E+00 0.  1.
         14    1    4    4    0    0 -0.11192997893E+03 -0.17310214384E+03 -0.29741110737E+03  0.36186466969E+03  0.00000000000E+00 0. -1.
          5    1    3    3  501    0  0.60611603801E+02 -0.37542841213E+02 -0.13351285380E+03  0.15142986354E+03  0.47000000000E+01 0.  1.
         -5    1    3    3    0  501  0.45293163217E+03 -0.24530290106E+03 -0.42313976591E+03  0.66662577822E+03  0.47000000000E+01 0.  1.
          1    1    1    2  502    0  0.19798023999E+02  0.61711177136E+02 -0.12672643266E+04  0.12689204485E+04  0.00000000000E+00 0. -1.
          1    1    1    2  503    0  0.12942066165E+02 -0.51642273289E+01  0.90101418940E+03  0.90112193172E+03  0.00000000000E+00 0. -1.
<mgrwt>
<rscale>  0 0.30050838E+02</rscale>
<asrwt>0</asrwt>
<pdfrwt beam="1">  1        2 0.20826054E+00 0.13934358E+02</pdfrwt>
<pdfrwt beam="2">  1        2 0.51059015E+00 0.64807645E+02</pdfrwt>
<totfact> 0.54975555E+00</totfact>
</mgrwt>
</event>
<event>
13    1  0.3019759E-008  0.2963636E+02  0.7546771E-02  0.1686301E+00
          2   -1    0    0  502    0  0.00000000000E+00  0.00000000000E+00  0.86362587893E+03  0.86362587893E+03  0.00000000000E+00 0. -1.
          2   -1    0    0  503    0 -0.00000000000E+00 -0.00000000000E+00 -0.16060320440E+04  0.16060320440E+04  0.00000000000E+00 0. -1.
         25    2    1    2    0    0  0.86735628041E+02 -0.13548404792E+02 -0.91704963568E+03  0.92968459607E+03  0.12500714152E+03 0.  0.
         24    2    1    2    0    0  0.24923268601E+03 -0.45563828432E+03 -0.22533403726E+03  0.57184073621E+03  0.80642552830E+02 0.  0.
         24    2    1    2    0    0 -0.32700507244E+03  0.50555410646E+03  0.26029801175E+03  0.66307556363E+03  0.96937486052E+02 0.  0.
        -11    1    5    5    0    0 -0.25871354143E+03  0.33888293423E+03  0.15052539680E+03  0.45214183031E+03  0.00000000000E+00 0.  1.
         12    1    5    5    0    0 -0.68291531003E+02  0.16667117222E+03  0.10977261495E+03  0.21093373331E+03  0.00000000000E+00 0. -1.
        -13    1    4    4    0    0  0.31642282876E+02 -0.73431390556E+02 -0.54802629136E+01  0.80146344060E+02  0.00000000000E+00 0.  1.
         14    1    4    4    0    0  0.21759040314E+03 -0.38220689377E+03 -0.21985377435E+03  0.49169439215E+03  0.00000000000E+00 0. -1.
          5    1    3    3  501    0  0.90817425210E+02  0.49913977190E+01 -0.89722964384E+03  0.90184025335E+03  0.47000000000E+01 0. -1.
         -5    1    3    3    0  501 -0.40817971687E+01 -0.18539802511E+02 -0.19819991838E+02  0.27844342724E+02  0.47000000000E+01 0. -1.
          1    1    1    2  502    0  0.76798543121E+01 -0.28621868458E+02  0.22034513584E+03  0.22232896888E+03  0.00000000000E+00 0. -1.
          1    1    1    2  503    0 -0.16643095932E+02 -0.77455488852E+01 -0.80665639702E+02  0.82728058108E+02  0.00000000000E+00 0. -1.
<mgrwt>
<rscale>  0 0.23324667E+02</rscale>
<asrwt>0</asrwt>
<pdfrwt beam="1">  1        2 0.12700381E+00 0.29636360E+02</pdfrwt>
<pdfrwt beam="2">  1        2 0.23618118E+00 0.18357183E+02</pdfrwt>
<totfact> 0.96038385E+01</totfact>
</mgrwt>
</event>
<event>
13    1  0.3019759E-008  0.6833949E+02  0.7546771E-02  0.1386846E+00
          4   -1    0    0  503    0 -0.00000000000E+00  0.00000000000E+00  0.27225777939E+03  0.27225777939E+03  0.00000000000E+00 0. -1.
          2   -1    0    0  502    0  0.00000000000E+00 -0.00000000000E+00 -0.21841441103E+04  0.21841441103E+04  0.00000000000E+00 0. -1.
         25    2    1    2    0    0  0.29258661685E+02  0.14753723127E+02 -0.15119293261E+02  0.13010470490E+03  0.12499959832E+03 0.  0.
         24    2    1    2    0    0 -0.34245373960E+02 -0.39693726940E+02 -0.31685847639E+03  0.32966794984E+03  0.74386326008E+02 0.  0.
         24    2    1    2    0    0  0.19989455139E+02  0.33963316741E+01 -0.55582249970E+03  0.56258407101E+03  0.84564013599E+02 0.  0.
        -11    1    5    5    0    0  0.14532545635E+02  0.36494666103E+02 -0.44665210124E+03  0.44837613125E+03  0.00000000000E+00 0.  1.
         12    1    5    5    0    0  0.54569095041E+01 -0.33098334429E+02 -0.10917039846E+03  0.11420793976E+03  0.00000000000E+00 0. -1.
        -11    1    4    4    0    0 -0.37906024655E+02  0.28106140030E+01 -0.22743455903E+03  0.23058890887E+03  0.00000000000E+00 0.  1.
         12    1    4    4    0    0  0.36606506944E+01 -0.42504340943E+02 -0.89423917364E+02  0.99079040968E+02  0.00000000000E+00 0. -1.
          5    1    3    3  501    0  0.34133764221E+02 -0.41066512586E+02 -0.41693621551E+02  0.67911857536E+02  0.47000000000E+01 0. -1.
         -5    1    3    3    0  501 -0.48751025360E+01  0.55820235713E+02  0.26574328291E+02  0.62192847369E+02  0.47000000000E+01 0. -1.
          1    1    1    2  502    0 -0.69075962018E+02  0.19252238072E+01 -0.12240362940E+04  0.12259853359E+04  0.00000000000E+00 0. -1.
          3    1    1    2  503    0  0.54073219154E+02  0.19618448332E+02  0.19995023245E+03  0.20805982794E+03  0.00000000000E+00 0. -1.
<mgrwt>
<rscale>  0 0.62697956E+02</rscale>
<asrwt>0</asrwt>
<pdfrwt beam="2">  1        2 0.32119764E+00 0.68339491E+02</pdfrwt>
<pdfrwt beam="1">  1        4 0.40037911E-01 0.57522140E+02</pdfrwt>
<totfact> 0.22402234E+01</totfact>
</mgrwt>
</event>
<event>
13    1  0.3019759E-008  0.6061504E+02  0.7546771E-02  0.1433979E+00
         -1   -1    0    0    0  501  0.00000000000E+00  0.00000000000E+00  0.80832414987E+03  0.80832414987E+03  0.00000000000E+00 0.  1.
         -3   -1    0    0    0  502 -0.00000000000E+00 -0.00000000000E+00 -0.16818025951E+04  0.16818025951E+04  0.00000000000E+00 0.  1.
         25    2    1    2    0    0 -0.12712620107E+03  0.12193255113E+03 -0.45848058435E+03  0.50681251905E+03  0.12500346085E+03 0.  0.
         24    2    1    2    0    0  0.50411044670E+02 -0.99643304999E+02 -0.14897609073E+02  0.13719827040E+03  0.78303033079E+02 0.  0.
         24    2    1    2    0    0  0.94049578323E+02 -0.76895182418E+02  0.28115167916E+03  0.31710850124E+03  0.82178723544E+02 0.  0.
        -11    1    4    4    0    0  0.15941847968E+02 -0.10055136662E+03 -0.13391529716E+02  0.10268423888E+03  0.00000000000E+00 0.  1.
         12    1    4    4    0    0  0.34469196702E+02  0.90806161824E+00 -0.15060793572E+01  0.34514031527E+02  0.00000000000E+00 0. -1.
        -13    1    5    5    0    0  0.10562610720E+03 -0.67112672323E+02  0.21084624520E+03  0.24518793694E+03  0.00000000000E+00 0.  1.
         14    1    5    5    0    0 -0.11576528874E+02 -0.97825100952E+01  0.70305433962E+02  0.71920564299E+02  0.00000000000E+00 0. -1.
          5    1    3    3  503    0 -0.66865066321E+02  0.12413019503E+03 -0.39357264796E+03  0.41809181005E+03  0.47000000000E+01 0.  1.
         -5    1    3    3    0  503 -0.60261134745E+02 -0.21976439028E+01 -0.64907936387E+02  0.88720709000E+02  0.47000000000E+01 0.  1.
         -2    1    1    2    0  501  0.27563037885E+02  0.54069530008E+02  0.42124610201E+03  0.42559548117E+03  0.00000000000E+00 0.  1.
         -4    1    1    2    0  502 -0.44897459814E+02  0.53640627906E+00 -0.11024980330E+04  0.11034119731E+04  0.00000000000E+00 0.  1.
<mgrwt>
<rscale>  0 0.52169489E+02</rscale>
<asrwt>0</asrwt>
<pdfrwt beam="1">  1       -1 0.11887120E+00 0.60615040E+02</pdfrwt>
<pdfrwt beam="2">  1       -3 0.24732391E+00 0.44900664E+02</pdfrwt>
<totfact> 0.31142091E-01</totfact>
</mgrwt>
</event>
<event>
13    1  0.3019759E-008  0.4817683E+02  0.7546771E-02  0.1635459E+00
          2   -1    0    0  503    0  0.00000000000E+00  0.00000000000E+00  0.99118634280E+03  0.99118634280E+03  0.00000000000E+00 0. -1.
          2   -1    0    0  502    0 -0.00000000000E+00 -0.00000000000E+00 -0.13771524928E+03  0.13771524928E+03  0.00000000000E+00 0. -1.
         25    2    1    2    0    0  0.78762867318E+02 -0.10954457980E+02  0.16515062159E+03  0.22186182978E+03  0.12499741711E+03 0.  0.
         24    2    1    2    0    0 -0.12181559917E+03  0.11866542508E+02  0.38254540057E+03  0.40921142287E+03  0.78314430861E+02 0.  0.
         24    2    1    2    0    0  0.15907879304E+02 -0.39490913792E+02  0.13906422276E+03  0.16602158311E+03  0.80073185963E+02 0.  0.
        -11    1    5    5    0    0  0.40538968012E+01  0.14683582778E+02 -0.11127730676E+01  0.15273504718E+02  0.00000000000E+00 0.  1.
         12    1    5    5    0    0  0.11853982503E+02 -0.54174496569E+02  0.14017699582E+03  0.15074807839E+03  0.00000000000E+00 0. -1.
        -13    1    4    4    0    0 -0.33141322848E+02  0.23298956974E+02  0.47440545591E+02  0.62384245144E+02  0.00000000000E+00 0.  1.
         14    1    4    4    0    0 -0.88674276319E+02 -0.11432414466E+02  0.33510485498E+03  0.34682717773E+03  0.00000000000E+00 0. -1.
          5    1    3    3  501    0 -0.16615130326E+02 -0.41843209471E+02  0.33484040798E+02  0.56304420100E+02  0.47000000000E+01 0. -1.
         -5    1    3    3    0  501  0.95377997644E+02  0.30888751492E+02  0.13166658079E+03  0.16555740968E+03  0.47000000000E+01 0. -1.
          1    1    1    2  502    0  0.14165836070E+02  0.46079990640E+02 -0.75257717713E+02  0.89374272161E+02  0.00000000000E+00 0. -1.
          1    1    1    2  503    0  0.12979016475E+02 -0.75011613764E+01  0.24196856632E+03  0.24243248416E+03  0.00000000000E+00 0. -1.
<mgrwt>
<rscale>  0 0.26873897E+02</rscale>
<asrwt>0</asrwt>
<pdfrwt beam="1">  1        2 0.14576269E+00 0.14990740E+02</pdfrwt>
<pdfrwt beam="2">  1        2 0.20252243E-01 0.48176830E+02</pdfrwt>
<totfact> 0.12970129E+03</totfact>
</mgrwt>
</event>
<event>
13    1  0.3019759E-008  0.5888547E+02  0.7546771E-02  0.1471281E+00
         -1   -1    0    0    0  501 -0.00000000000E+00  0.00000000000E+00  0.13761745019E+04  0.13761745019E+04  0.00000000000E+00 0.  1.
          2   -1    0    0  503    0  0.00000000000E+00 -0.00000000000E+00 -0.26428056264E+04  0.26428056264E+04  0.00000000000E+00 0. -1.
         25    2    1    2    0    0 -0.38176927821E+02  0.11672961520E+03  0.23211131174E+03  0.29083261011E+03  0.12499866073E+03 0.  0.
         24    2    1    2    0    0  0.45585920904E+02 -0.21033511665E+02  0.13115213341E+03  0.16087778814E+03  0.78487552022E+02 0.  0.
         24    2    1    2    0    0 -0.13452018183E+02 -0.33718964800E+02 -0.11926244878E+04  0.11980363700E+04  0.10779633425E+03 0.  0.
        -11    1    5    5    0    0  0.14400586687E+02  0.29411128351E+02 -0.17249660903E+03  0.17557753699E+03  0.00000000000E+00 0.  1.
         12    1    5    5    0    0 -0.27852604870E+02 -0.63130093151E+02 -0.10201278788E+04  0.10224588331E+04  0.00000000000E+00 0. -1.
        -13    1    4    4    0    0 -0.19951189304E+02  0.76671415040E+01  0.35329749224E+02  0.41291962822E+02  0.00000000000E+00 0.  1.
         14    1    4    4    0    0  0.65537110208E+02 -0.28700653169E+02  0.95822384184E+02  0.11958582532E+03  0.00000000000E+00 0. -1.
          5    1    3    3  502    0 -0.41101020357E+02 -0.87066476604E+01  0.10002505578E+03  0.10859190288E+03  0.47000000000E+01 0. -1.
         -5    1    3    3    0  502  0.29240925355E+01  0.12543626286E+03  0.13208625596E+03  0.18224070723E+03  0.47000000000E+01 0. -1.
          1    1    1    2  503    0 -0.27658501703E+02 -0.51997562323E+02 -0.14023136703E+04  0.14035499169E+04  0.00000000000E+00 0. -1.
         -2    1    1    2    0  501  0.33701526803E+02 -0.99795764116E+01  0.96504358844E+03  0.96568344319E+03  0.00000000000E+00 0.  1.
<mgrwt>
<rscale>  0 0.45494054E+02</rscale>
<asrwt>0</asrwt>
<pdfrwt beam="2">  1        2 0.38864788E+00 0.58885469E+02</pdfrwt>
<pdfrwt beam="1">  1       -1 0.20237861E+00 0.35148042E+02</pdfrwt>
<totfact> 0.10638048E+00</totfact>
</mgrwt>
</event>
<event>
13    1  0.3019759E-008  0.1479891E+03  0.7546771E-02  0.1386407E+00
          2   -1    0    0  503    0  0.00000000000E+00  0.00000000000E+00  0.16311187329E+04  0.16311187329E+04  0.00000000000E+00 0. -1.
          2   -1    0    0  502    0 -0.00000000000E+00 -0.00000000000E+00 -0.73618989376E+03  0.73618989376E+03  0.00000000000E+00 0. -1.
         25    2    1    2    0    0  0.17428336182E+03 -0.19146465927E+03  0.65241174631E+02  0.29481591743E+03  0.12500643320E+03 0.  0.
         24    2    1    2    0    0  0.16551056314E+02  0.19079854041E+03  0.29846367543E+03  0.36404178094E+03  0.82266835541E+02 0.  0.
         24    2    1    2    0    0 -0.75499983295E+02 -0.46746821294E+02  0.21654747038E+03  0.25903242234E+03  0.11099313544E+03 0.  0.
        -11    1    5    5    0    0 -0.93190913173E+02 -0.33020722166E+01  0.16347631472E+03  0.18820190077E+03  0.00000000000E+00 0.  1.
         12    1    5    5    0    0  0.17690929878E+02 -0.43444749078E+02  0.53071155660E+02  0.70830521567E+02  0.00000000000E+00 0. -1.
        -13    1    4    4    0    0  0.30380898243E+02  0.11748427301E+03  0.12023404284E+03  0.17082674978E+03  0.00000000000E+00 0.  1.
         14    1    4    4    0    0 -0.13829841929E+02  0.73314267399E+02  0.17822963259E+03  0.19321503116E+03  0.00000000000E+00 0. -1.
          5    1    3    3  501    0  0.70475109145E+02 -0.18724255985E+02  0.57668277753E+02  0.93086298831E+02  0.47000000000E+01 0.  1.
         -5    1    3    3    0  501  0.10380825268E+03 -0.17274040328E+03  0.75728968783E+01  0.20172961859E+03  0.47000000000E+01 0.  1.
          1    1    1    2  502    0 -0.13017330255E+03  0.69558474248E+02 -0.55756549551E+03  0.57676923619E+03  0.00000000000E+00 0. -1.
          1    1    1    2  503    0  0.14838867712E+02 -0.22145534092E+02  0.87224201422E+03  0.87264926978E+03  0.00000000000E+00 0. -1.
<mgrwt>
<rscale>  0 0.62809274E+02</rscale>
<asrwt>0</asrwt>
<pdfrwt beam="1">  1        2 0.23987040E+00 0.26657394E+02</pdfrwt>
<pdfrwt beam="2">  1        2 0.10826322E+00 0.14798914E+03</pdfrwt>
<totfact> 0.10293816E+02</totfact>
</mgrwt>
</event>
<event>
13    1  0.3019759E-008  0.7096908E+02  0.7546771E-02  0.1441703E+00
          2   -1    0    0  502    0  0.00000000000E+00  0.00000000000E+00  0.16732023151E+04  0.16732023151E+04  0.00000000000E+00 0. -1.
          2   -1    0    0  503    0 -0.00000000000E+00 -0.00000000000E+00 -0.59011174066E+03  0.59011174066E+03  0.00000000000E+00 0. -1.
         25    2    1    2    0    0 -0.11992893552E+03 -0.14994465972E+03 -0.75676475932E+02  0.24128368876E+03  0.12499815558E+03 0.  0.
         24    2    1    2    0    0 -0.11346619841E+03  0.24171549285E+03  0.25498409948E+03  0.37818276130E+03  0.81880109271E+02 0.  0.
         24    2    1    2    0    0  0.22154734202E+03 -0.39644200002E+01  0.65016838023E+03  0.69159701862E+03  0.80551673659E+02 0.  0.
        -11    1    4    4    0    0 -0.11607526514E+02  0.45231360402E+02  0.94835394267E+01  0.47650269209E+02  0.00000000000E+00 0.  1.
         12    1    4    4    0    0 -0.10185867190E+03  0.19648413245E+03  0.24550056005E+03  0.33053249210E+03  0.00000000000E+00 0. -1.
        -13    1    5    5    0    0  0.37259580575E+02 -0.12240161291E+01  0.22689415739E+03  0.22993636776E+03  0.00000000000E+00 0.  1.
         14    1    5    5    0    0  0.18428776145E+03 -0.27404038711E+01  0.42327422284E+03  0.46166065086E+03  0.00000000000E+00 0. -1.
          5    1    3    3  501    0 -0.94903921752E+02 -0.62499627671E+02  0.12622536645E+02  0.11443066134E+03  0.47000000000E+01 0.  1.
         -5    1    3    3    0  501 -0.25025013769E+02 -0.87445032046E+02 -0.88299012578E+02  0.12685302742E+03  0.47000000000E+01 0.  1.
          1    1    1    2  502    0  0.30562537939E+02 -0.19386483327E+02  0.59877956446E+03  0.59987237916E+03  0.00000000000E+00 0. -1.
          1    1    1    2  503    0 -0.18714746027E+02 -0.68419929808E+02 -0.34516499377E+03  0.35237820795E+03  0.00000000000E+00 0. -1.
<mgrwt>
<rscale>  0 0.50680922E+02</rscale>
<asrwt>0</asrwt>
<pdfrwt beam="1">  1        2 0.24605916E+00 0.36192602E+02</pdfrwt>
<pdfrwt beam="2">  1        2 0.86781138E-01 0.70969084E+02</pdfrwt>
<totfact> 0.12525473E+02</totfact>
</mgrwt>
</event>
<event>
13    1  0.3019759E-008  0.8480669E+02  0.7546771E-02  0.1324601E+00
          2   -1    0    0  503    0  0.00000000000E+00  0.00000000000E+00  0.14669275987E+04  0.14669275987E+04  0.00000000000E+00 0. -1.
          2   -1    0    0  502    0 -0.00000000000E+00 -0.00000000000E+00 -0.16475986697E+04  0.16475986697E+04  0.00000000000E+00 0. -1.
         25    2    1    2    0    0 -0.10538063239E+03  0.23085257712E+02 -0.29418748171E+03  0.33735598424E+03  0.12499911559E+03 0.  0.
         24    2    1    2    0    0 -0.17953393055E+03 -0.92904304018E+02  0.10187422966E+02  0.21819606023E+03  0.81499050236E+02 0.  0.
         24    2    1    2    0    0  0.37612617049E+03  0.18990799176E+03  0.35559969166E+03  0.55723136497E+03  0.80744733124E+02 0.  0.
        -13    1    4    4    0    0 -0.51093598151E+02 -0.35964258914E+02 -0.33718615423E+02  0.70999498007E+02  0.00000000000E+00 0.  1.
         14    1    4    4    0    0 -0.12844033239E+03 -0.56940045103E+02  0.43906038388E+02  0.14719656222E+03  0.00000000000E+00 0. -1.
        -13    1    5    5    0    0  0.66788286639E+02  0.46491361314E+02  0.32915349416E+02  0.87781217445E+02  0.00000000000E+00 0.  1.
         14    1    5    5    0    0  0.30933788385E+03  0.14341663044E+03  0.32268434225E+03  0.46945014752E+03  0.00000000000E+00 0. -1.
          5    1    3    3  501    0 -0.32843289426E+02  0.37539218781E+02 -0.24095190603E+03  0.24610523283E+03  0.47000000000E+01 0. -1.
         -5    1    3    3    0  501 -0.72537342961E+02 -0.14453961070E+02 -0.53235575687E+02  0.91250751412E+02  0.47000000000E+01 0. -1.
          1    1    1    2  502    0 -0.22849694760E+02 -0.81515522653E+02 -0.11236503806E+04  0.11268349776E+04  0.00000000000E+00 0. -1.
          1    1    1    2  503    0 -0.68361912801E+02 -0.38573422796E+02  0.87137967660E+03  0.87490788135E+03  0.00000000000E+00 0. -1.
<mgrwt>
<rscale>  0 0.81589156E+02</rscale>
<asrwt>0</asrwt>
<pdfrwt beam="1">  1        2 0.21572465E+00 0.78493694E+02</pdfrwt>
<pdfrwt beam="2">  1        2 0.24229392E+00 0.84806690E+02</pdfrwt>
<totfact> 0.36279661E+01</totfact>
</mgrwt>
</event>
<event>
13    1  0.3019759E-008  0.3081768E+03  0.7546771E-02  0.1131978E+00
          2   -1    0    0  502    0  0.00000000000E+00  0.00000000000E+00  0.27133482242E+04  0.27133482242E+04  0.00000000000E+00 0. -1.
          2   -1    0    0  503    0 -0.00000000000E+00 -0.00000000000E+00 -0.15347788193E+04  0.15347788193E+04  0.00000000000E+00 0. -1.
         25    2    1    2    0    0  0.17114808118E+03  0.34013022162E+03 -0.10292558278E+03  0.41376701996E+03  0.12501695032E+03 0.  0.
         24    2    1    2    0    0  0.69696883509E+02 -0.14849077442E+03  0.67380526986E+02  0.19424529166E+03  0.79271257443E+02 0.  0.
         24    2    1    2    0    0  0.24166585521E+02  0.16938079792E+03  0.22983763843E+03  0.29745829137E+03  0.79888775860E+02 0.  0.
        -11    1    4    4    0    0  0.80283933278E+01  0.95841760848E+01  0.43174749220E+01  0.13226946751E+02  0.00000000000E+00 0.  1.
         12    1    4    4    0    0  0.61668490181E+02 -0.15807495050E+03  0.63063052064E+02  0.18101834491E+03  0.00000000000E+00 0. -1.
        -13    1    5    5    0    0 -0.13462549017E+02  0.10635477572E+03  0.17729705764E+03  0.20718789828E+03  0.00000000000E+00 0.  1.
         14    1    5    5    0    0  0.37629134537E+02  0.63026022193E+02  0.52540580789E+02  0.90270393093E+02  0.00000000000E+00 0. -1.
          5    1    3    3  501    0  0.15875974390E+03  0.28088938034E+03 -0.12924052373E+03  0.34760423365E+03  0.47000000000E+01 0. -1.
         -5    1    3    3    0  501  0.12388337274E+02  0.59240841280E+02  0.26314940956E+02  0.66162786319E+02  0.47000000000E+01 0. -1.
          1    1    1    2  502    0 -0.22771992089E+03 -0.20465573493E+03  0.21470773121E+04  0.21687972050E+04  0.00000000000E+00 0. -1.
          1    1    1    2  503    0 -0.37291629314E+02 -0.15636451020E+03 -0.11628004899E+04  0.11738592356E+04  0.00000000000E+00 0. -1.
<mgrwt>
<rscale>  0 0.22257446E+03</rscale>
<asrwt>0</asrwt>
<pdfrwt beam="1">  1        2 0.39902180E+00 0.30817684E+03</pdfrwt>
<pdfrwt beam="2">  1        2 0.22570277E+00 0.16074989E+03</pdfrwt>
<totfact> 0.81397882E+00</totfact>
</mgrwt>
</event>
<event>
13    1  0.3019759E-008  0.1194876E+03  0.7546771E-02  0.1475045E+00
          2   -1    0    0  502    0  0.00000000000E+00  0.00000000000E+00  0.32785600257E+04  0.32785600257E+04  0.00000000000E+00 0. -1.
          2   -1    0    0  503    0 -0.00000000000E+00 -0.00000000000E+00 -0.80801832373E+03  0.80801832373E+03  0.00000000000E+00 0. -1.
         25    2    1    2    0    0 -0.20443754093E+03  0.14527575516E+03 -0.40611576632E+03  0.49341185592E+03  0.12500196292E+03 0.  0.
         24    2    1    2    0    0  0.13425428449E+03 -0.19533877388E+02  0.37460136206E+03  0.40662871926E+03  0.81332340416E+02 0.  0.
         24    2    1    2    0    0  0.24873309194E+02  0.30550209567E+02  0.28689846803E+03  0.30119147419E+03  0.82786329499E+02 0.  0.
        -11    1    4    4    0    0  0.31417094394E+02 -0.13673962905E+02  0.25674219684E+02  0.42815612084E+02  0.00000000000E+00 0.  1.
         12    1    4    4    0    0  0.10283719009E+03 -0.58599144824E+01  0.34892714237E+03  0.36381310717E+03  0.00000000000E+00 0. -1.
        -11    1    5    5    0    0  0.28081821053E+02 -0.22089501821E+02  0.78920320665E+02  0.86631124766E+02  0.00000000000E+00 0.  1.
         12    1    5    5    0    0 -0.32085118596E+01  0.52639711388E+02  0.20797814737E+03  0.21456034943E+03  0.00000000000E+00 0. -1.
          5    1    3    3  501    0 -0.14641339929E+03  0.11875432190E+03 -0.18868185555E+03  0.26676282551E+03  0.47000000000E+01 0. -1.
         -5    1    3    3    0  501 -0.58024141647E+02  0.26521433263E+02 -0.21743391076E+03  0.22664903041E+03  0.47000000000E+01 0. -1.
          1    1    1    2  502    0  0.36552601545E+02 -0.17070248587E+03  0.25470501754E+04  0.25530256613E+04  0.00000000000E+00 0. -1.
          1    1    1    2  503    0  0.87573457088E+01  0.14410398525E+02 -0.33189253720E+03  0.33232063875E+03  0.00000000000E+00 0. -1.
<mgrwt>
<rscale>  0 0.44887452E+02</rscale>
<asrwt>0</asrwt>
<pdfrwt beam="1">  1        2 0.48214117E+00 0.11948758E+03</pdfrwt>
<pdfrwt beam="2">  1        2 0.11882623E+00 0.16862701E+02</pdfrwt>
<totfact> 0.12622738E+01</totfact>
</mgrwt>
</event>
<event>
13    1  0.3019759E-008  0.2066766E+03  0.7546771E-02  0.1250598E+00
          2   -1    0    0  502    0  0.00000000000E+00  0.00000000000E+00  0.21498954646E+04  0.21498954646E+04  0.00000000000E+00 0. -1.
          2   -1    0    0  503    0 -0.00000000000E+00 -0.00000000000E+00 -0.24911586583E+04  0.24911586583E+04  0.00000000000E+00 0. -1.
         25    2    1    2    0    0  0.14976370763E+03  0.82389457904E+02 -0.14945531776E+03  0.25919659004E+03  0.12501515662E+03 0.  0.
         24    2    1    2    0    0 -0.16884565291E+03 -0.32780346439E+03  0.24159475085E+03  0.44930610062E+03  0.86856103085E+02 0.  0.
         24    2    1    2    0    0  0.41398880816E+02  0.55744285019E+02  0.57225475507E+02  0.11683523900E+03  0.74528017417E+02 0.  0.
        -11    1    4    4    0    0 -0.14184132235E+03 -0.26023943467E+03  0.14955318463E+03  0.33197843170E+03  0.00000000000E+00 0.  1.
         12    1    4    4    0    0 -0.27004330560E+02 -0.67564029724E+02  0.92041566224E+02  0.11732766892E+03  0.00000000000E+00 0. -1.
        -13    1    5    5    0    0 -0.10681742240E+02  0.72929472182E+01  0.42193209240E+02  0.44131095640E+02  0.00000000000E+00 0.  1.
         14    1    5    5    0    0  0.52080623056E+02  0.48451337801E+02  0.15032266267E+02  0.72704143360E+02  0.00000000000E+00 0. -1.
          5    1    3    3  501    0  0.16269508229E+03  0.72615398381E+02 -0.94545159393E+02  0.20175124052E+03  0.47000000000E+01 0.  1.
         -5    1    3    3    0  501 -0.12931374663E+02  0.97740595227E+01 -0.54910158363E+02  0.57445349522E+02  0.47000000000E+01 0.  1.
          1    1    1    2  502    0 -0.86893773890E+02  0.18732428136E+03  0.16556438956E+04  0.16684716430E+04  0.00000000000E+00 0. -1.
          1    1    1    2  503    0  0.64576838352E+02  0.23454401050E+01 -0.21462719980E+04  0.21472445502E+04  0.00000000000E+00 0. -1.
<mgrwt>
<rscale>  0 0.11556522E+03</rscale>
<asrwt>0</asrwt>
<pdfrwt beam="1">  1        2 0.31616110E+00 0.20667656E+03</pdfrwt>
<pdfrwt beam="2">  1        2 0.36634686E+00 0.64619418E+02</pdfrwt>
<totfact> 0.62530681E+00</totfact>
</mgrwt>
</event>
<event>
13    1  0.3019759E-008  0.9006375E+02  0.7546771E-02  0.1400439E+00
          2   -1    0    0  503    0  0.00000000000E+00  0.00000000000E+00  0.27645091129E+04  0.27645091129E+04  0.00000000000E+00 0. -1.
         -3   -1    0    0    0  501 -0.00000000000E+00 -0.00000000000E+00 -0.64121326598E+03  0.64121326598E+03  0.00000000000E+00 0.  1.
         25    2    1    2    0    0 -0.14324068403E+02 -0.92461607810E+01  0.38678136185E+03  0.40683661278E+03  0.12500214878E+03 0.  0.
         24    2    1    2    0    0  0.11330773854E+03  0.21133552399E+02  0.68043163549E+03  0.69458144635E+03  0.78555104142E+02 0.  0.
         24    2    1    2    0    0 -0.17850002949E+02  0.52798425078E+01  0.45021534274E+03  0.45762751303E+03  0.79891091519E+02 0.  0.
        -11    1    5    5    0    0  0.25816401410E+02 -0.40904712275E+01  0.68655804014E+02  0.73463174185E+02  0.00000000000E+00 0.  1.
         12    1    5    5    0    0 -0.43666404359E+02  0.93703137353E+01  0.38155953872E+03  0.38416433885E+03  0.00000000000E+00 0. -1.
        -13    1    4    4    0    0  0.12214721641E+03  0.12980897245E+02  0.54765923508E+03  0.56126560909E+03  0.00000000000E+00 0.  1.
         14    1    4    4    0    0 -0.88394778770E+01  0.81526551539E+01  0.13277240040E+03  0.13331583726E+03  0.00000000000E+00 0. -1.
          5    1    3    3  502    0  0.49051479662E+02 -0.19724916736E+01  0.26216169725E+03  0.26675978686E+03  0.47000000000E+01 0.  1.
         -5    1    3    3    0  502 -0.63375548065E+02 -0.72736691074E+01  0.12461966460E+03  0.14007682592E+03  0.47000000000E+01 0.  1.
          1    1    1    2  503    0 -0.87078392084E+02  0.21532711323E+02  0.12240115376E+04  0.12272939942E+04  0.00000000000E+00 0. -1.
         -4    1    1    2    0  501  0.59447248979E+01 -0.38699945448E+02 -0.61814403082E+03  0.61938281246E+03  0.00000000000E+00 0.  1.
<mgrwt>
<rscale>  0 0.59383032E+02</rscale>
<asrwt>0</asrwt>
<pdfrwt beam="1">  1        2 0.40654545E+00 0.90063753E+02</pdfrwt>
<pdfrwt beam="2">  1       -3 0.94296070E-01 0.39153870E+02</pdfrwt>
<totfact> 0.23956217E+00</totfact>
</mgrwt>
</event>
<event>
13    1  0.3019759E-008  0.8060521E+02  0.7546771E-02  0.1377909E+00
         -3   -1    0    0    0  501 -0.00000000000E+00  0.00000000000E+00  0.65439911438E+03  0.65439911438E+03  0.00000000000E+00 0.  1.
          2   -1    0    0  503    0  0.00000000000E+00 -0.00000000000E+00 -0.28766303243E+04  0.28766303243E+04  0.00000000000E+00 0. -1.
         25    2    1    2    0    0 -0.20676609855E+03 -0.25218359445E+02 -0.24619782627E+02  0.24416850456E+03  0.12499575897E+03 0.  0.
         24    2    1    2    0    0  0.20372342128E+00  0.59246232199E+02 -0.13040860042E+03  0.16399971258E+03  0.79870802744E+02 0.  0.
         24    2    1    2    0    0  0.76400602772E+02 -0.60016184779E+02 -0.56386682718E+03  0.57769781120E+03  0.79686684801E+02 0.  0.
        -11    1    4    4    0    0  0.26979314769E+02 -0.65896829604E+01 -0.45088915222E+02  0.52955808207E+02  0.00000000000E+00 0.  1.
         12    1    4    4    0    0 -0.26775591348E+02  0.65835915159E+02 -0.85319685194E+02  0.11104390437E+03  0.00000000000E+00 0. -1.
        -13    1    5    5    0    0  0.11159449707E+02  0.42972657849E+00 -0.57918084111E+01  0.12580263406E+02  0.00000000000E+00 0.  1.
         14    1    5    5    0    0  0.65241153065E+02 -0.60445911358E+02 -0.55807501877E+03  0.56511754780E+03  0.00000000000E+00 0. -1.
          5    1    3    3  502    0  0.10827405124E+02 -0.30587910446E+01 -0.22266354801E+02  0.25386403063E+02  0.47000000000E+01 0.  1.
         -5    1    3    3    0  502 -0.21759350367E+03 -0.22159568401E+02 -0.23534278260E+01  0.21878210149E+03  0.47000000000E+01 0.  1.
          1    1    1    2  503    0  0.78616173019E+02  0.16329100642E+02 -0.20221310083E+04  0.20237245259E+04  0.00000000000E+00 0. -1.
         -4    1    1    2    0  501  0.51545599334E+02  0.96592113833E+01  0.51879500862E+03  0.52143888438E+03  0.00000000000E+00 0.  1.
<mgrwt>
<rscale>  0 0.65016645E+02</rscale>
<asrwt>0</asrwt>
<pdfrwt beam="2">  1        2 0.42303386E+00 0.80605207E+02</pdfrwt>
<pdfrwt beam="1">  1       -3 0.96235166E-01 0.52442818E+02</pdfrwt>
<totfact> 0.20641973E+00</totfact>
</mgrwt>
</event>
<event>
13    1  0.3019759E-008  0.1437659E+03  0.7546771E-02  0.1213504E+00
          2   -1    0    0  503    0  0.00000000000E+00  0.00000000000E+00  0.17654323040E+04  0.17654323040E+04  0.00000000000E+00 0. -1.
          2   -1    0    0  502    0 -0.00000000000E+00 -0.00000000000E+00 -0.16503235020E+04  0.16503235020E+04  0.00000000000E+00 0. -1.
         25    2    1    2    0    0 -0.80804730932E+02 -0.21177439878E+02 -0.37174673517E+03  0.40099850342E+03  0.12500510445E+03 0.  0.
         24    2    1    2    0    0  0.99095646020E+02 -0.44218884566E+02  0.65755964861E+02  0.15137116133E+03  0.82547711995E+02 0.  0.
         24    2    1    2    0    0  0.14785968107E+01 -0.80502428767E+02  0.18886626802E+03  0.22019193415E+03  0.79568796534E+02 0.  0.
        -11    1    5    5    0    0 -0.18859023524E+02 -0.88995521961E+02  0.14681852438E+03  0.17271810791E+03  0.00000000000E+00 0.  1.
         12    1    5    5    0    0  0.20337620334E+02  0.84930931931E+01  0.42047743640E+02  0.47473826242E+02  0.00000000000E+00 0. -1.
        -13    1    4    4    0    0  0.19380717703E+02 -0.38985479737E+02 -0.60510293104E+01  0.43955600380E+02  0.00000000000E+00 0.  1.
         14    1    4    4    0    0  0.79714928317E+02 -0.52334048294E+01  0.71806994171E+02  0.10741556095E+03  0.00000000000E+00 0. -1.
          5    1    3    3  501    0 -0.97296101239E+02  0.22869831908E+02 -0.28727218180E+03  0.30419887732E+03  0.47000000000E+01 0.  1.
         -5    1    3    3    0  501  0.16491370306E+02 -0.44047271786E+02 -0.84474553374E+02  0.96799626105E+02  0.47000000000E+01 0.  1.
          1    1    1    2  502    0 -0.85435138977E+02 -0.10572111942E+03 -0.11898201373E+04  0.11975592166E+04  0.00000000000E+00 0. -1.
          1    1    1    2  503    0  0.65665627079E+02  0.25161987263E+03  0.14220534416E+04  0.14456349905E+04  0.00000000000E+00 0. -1.
<mgrwt>
<rscale>  0 0.13987007E+03</rscale>
<asrwt>0</asrwt>
<pdfrwt beam="1">  1        2 0.25962240E+00 0.14376585E+03</pdfrwt>
<pdfrwt beam="2">  1        2 0.24269463E+00 0.13607986E+03</pdfrwt>
<totfact> 0.23594460E+01</totfact>
</mgrwt>
</event>
<event>
13    1  0.3019759E-008  0.1866688E+03  0.7546771E-02  0.1267796E+00
          2   -1    0    0  503    0  0.00000000000E+00  0.00000000000E+00  0.42630704979E+03  0.42630704979E+03  0.00000000000E+00 0. -1.
          2   -1    0    0  502    0 -0.00000000000E+00 -0.00000000000E+00 -0.27937235492E+04  0.27937235492E+04  0.00000000000E+00 0. -1.
         25    2    1    2    0    0  0.11049046674E+02  0.22522158783E+02 -0.60243111007E+03  0.61577750845E+03  0.12501747264E+03 0.  0.
         24    2    1    2    0    0 -0.13065106140E+02  0.55001099394E+02 -0.22242542508E+03  0.24346532703E+03  0.81280242435E+02 0.  0.
         24    2    1    2    0    0  0.90626670181E+02  0.27297217591E+02 -0.14481679751E+03  0.19098504465E+03  0.80901489490E+02 0.  0.
        -11    1    5    5    0    0  0.97605155997E+02  0.34623177330E+02 -0.14776730635E+03  0.18044585812E+03  0.00000000000E+00 0.  1.
         12    1    5    5    0    0 -0.69784858157E+01 -0.73259597394E+01  0.29505088370E+01  0.10539186533E+02  0.00000000000E+00 0. -1.
        -13    1    4    4    0    0 -0.22436252112E+02 -0.13472550476E+02 -0.34990899508E+02  0.43695057770E+02  0.00000000000E+00 0.  1.
         14    1    4    4    0    0  0.93711459715E+01  0.68473649870E+02 -0.18743452557E+03  0.19977026926E+03  0.00000000000E+00 0. -1.
          5    1    3    3  501    0 -0.23544547072E+02 -0.21667939691E+02 -0.47917326895E+03  0.48026342457E+03  0.47000000000E+01 0. -1.
         -5    1    3    3    0  501  0.34593593746E+02  0.44190098473E+02 -0.12325784113E+03  0.13551408388E+03  0.47000000000E+01 0. -1.
          1    1    1    2  502    0  0.13961098391E+02  0.58770536840E+02 -0.17590769038E+04  0.17601137582E+04  0.00000000000E+00 0. -1.
          1    1    1    2  503    0 -0.10257170911E+03 -0.16359101261E+03  0.36133373709E+03  0.40968896064E+03  0.00000000000E+00 0. -1.
<mgrwt>
<rscale>  0 0.10618815E+03</rscale>
<asrwt>0</asrwt>
<pdfrwt beam="1">  1        2 0.62692213E-01 0.18666884E+03</pdfrwt>
<pdfrwt beam="2">  1        2 0.41084170E+00 0.60406028E+02</pdfrwt>
<totfact> 0.48721994E+01</totfact>
</mgrwt>
</event>
<event>
13    1  0.3019759E-008  0.1419505E+03  0.7546771E-02  0.1380757E+00
          2   -1    0    0  503    0  0.00000000000E+00  0.00000000000E+00  0.14519500140E+04  0.14519500140E+04  0.00000000000E+00 0. -1.
          2   -1    0    0  502    0 -0.00000000000E+00 -0.00000000000E+00 -0.19247938479E+04  0.19247938479E+04  0.00000000000E+00 0. -1.
         25    2    1    2    0    0  0.79848788612E+02  0.13423272033E+03 -0.99973250872E+03  0.10195529484E+04  0.12501549266E+03 0.  0.
         24    2    1    2    0    0  0.13049607767E+02 -0.86175162410E+02  0.33536357951E+00  0.12077270149E+03  0.83603122415E+02 0.  0.
         24    2    1    2    0    0 -0.16228797989E+03  0.42543266558E+02  0.36079379928E+03  0.40612666855E+03  0.81359617506E+02 0.  0.
        -11    1    5    5    0    0 -0.28309475019E+02 -0.13492868391E+01  0.13673230956E+02  0.31467510159E+02  0.00000000000E+00 0.  1.
         12    1    5    5    0    0 -0.13397850487E+03  0.43892553397E+02  0.34712056833E+03  0.37465915839E+03  0.00000000000E+00 0. -1.
        -13    1    4    4    0    0  0.37949839086E+02 -0.11265464224E+02  0.11072759644E+02  0.41106045504E+02  0.00000000000E+00 0.  1.
         14    1    4    4    0    0 -0.24900231318E+02 -0.74909698186E+02 -0.10737396065E+02  0.79666655988E+02  0.00000000000E+00 0. -1.
          5    1    3    3  501    0  0.22464296312E+02  0.13672431556E+03 -0.60813556771E+03  0.62373803940E+03  0.47000000000E+01 0.  1.
         -5    1    3    3    0  501  0.57384492300E+02 -0.24915952343E+01 -0.39159694101E+03  0.39581490903E+03  0.47000000000E+01 0.  1.
          1    1    1    2  502    0  0.76071467713E+02 -0.11891796100E+03 -0.82606498364E+03  0.83804039691E+03  0.00000000000E+00 0. -1.
          1    1    1    2  503    0 -0.66818841991E+01  0.28317136528E+02  0.99182449560E+03  0.99225114657E+03  0.00000000000E+00 0. -1.
<mgrwt>
<rscale>  0 0.64265259E+02</rscale>
<asrwt>0</asrwt>
<pdfrwt beam="1">  1        2 0.21352206E+00 0.29094807E+02</pdfrwt>
<pdfrwt beam="2">  1        2 0.28305792E+00 0.14195054E+03</pdfrwt>
<totfact> 0.27965193E+01</totfact>
</mgrwt>
</event>
<event>
13    1  0.3019759E-008  0.8296367E+02  0.7546771E-02  0.1503700E+00
          2   -1    0    0  503    0  0.00000000000E+00  0.00000000000E+00  0.28813907241E+04  0.28813907241E+04  0.00000000000E+00 0. -1.
         -3   -1    0    0    0  501 -0.00000000000E+00 -0.00000000000E+00 -0.30120740377E+03  0.30120740377E+03  0.00000000000E+00 0.  1.
         25    2    1    2    0    0 -0.36509908523E+03 -0.44316970099E+02  0.13886499434E+03  0.41251706622E+03  0.12500202958E+03 0.  0.
         24    2    1    2    0    0  0.26059262885E+03  0.11364231271E+02  0.50515544377E+03  0.57421855040E+03  0.80667572730E+02 0.  0.
         24    2    1    2    0    0  0.12658200953E+02  0.60880646853E+02  0.66468833186E+03  0.67247641666E+03  0.80915197798E+02 0.  0.
        -11    1    4    4    0    0  0.20886577353E+03 -0.23897229641E+02  0.37983818574E+03  0.43413481349E+03  0.00000000000E+00 0.  1.
         12    1    4    4    0    0  0.51726855319E+02  0.35261460912E+02  0.12531725803E+03  0.14008373691E+03  0.00000000000E+00 0. -1.
        -11    1    5    5    0    0  0.46960881765E+02  0.29759838534E+02  0.37982094276E+03  0.38386836411E+03  0.00000000000E+00 0.  1.
         12    1    5    5    0    0 -0.34302680812E+02  0.31120808319E+02  0.28486738910E+03  0.28860805254E+03  0.00000000000E+00 0. -1.
          5    1    3    3  502    0 -0.11228941029E+03 -0.72138367976E+02  0.37775339062E+02  0.13878732665E+03  0.47000000000E+01 0.  1.
         -5    1    3    3    0  502 -0.25280967494E+03  0.27821397877E+02  0.10108965528E+03  0.27372973957E+03  0.47000000000E+01 0.  1.
          1    1    1    2  503    0  0.82209704719E+02 -0.10531939401E+02  0.13954079187E+04  0.13978671671E+04  0.00000000000E+00 0. -1.
         -4    1    1    2    0  501  0.96385507062E+01 -0.17395968624E+02 -0.12393336831E+03  0.12551892752E+03  0.00000000000E+00 0.  1.
<mgrwt>
<rscale>  0 0.40619679E+02</rscale>
<asrwt>0</asrwt>
<pdfrwt beam="1">  1        2 0.42373392E+00 0.82963675E+02</pdfrwt>
<pdfrwt beam="2">  1       -3 0.44295208E-01 0.19887719E+02</pdfrwt>
<totfact> 0.90757866E+00</totfact>
</mgrwt>
</event>
<event>
13    1  0.3019759E-008  0.1681890E+03  0.7546771E-02  0.1231924E+00
          2   -1    0    0  502    0  0.00000000000E+00  0.00000000000E+00  0.29062087750E+04  0.29062087750E+04  0.00000000000E+00 0. -1.
          2   -1    0    0  503    0 -0.00000000000E+00 -0.00000000000E+00 -0.13371919901E+04  0.13371919901E+04  0.00000000000E+00 0. -1.
         25    2    1    2    0    0  0.13958910241E+03  0.70845726193E+02 -0.74714300963E+03  0.77353548516E+03  0.12502094033E+03 0.  0.
         24    2    1    2    0    0 -0.25486524001E+02 -0.10722495912E+03  0.33059241943E+03  0.35745136835E+03  0.79582524400E+02 0.  0.
         24    2    1    2    0    0 -0.14651303297E+02  0.53097624779E+02  0.89676666489E+03  0.90212233081E+03  0.81241799849E+02 0.  0.
        -11    1    4    4    0    0 -0.36519945774E+02 -0.10335606705E+03  0.21560693952E+03  0.24187297370E+03  0.00000000000E+00 0.  1.
         12    1    4    4    0    0  0.11033421773E+02 -0.38688920710E+01  0.11498547990E+03  0.11557839465E+03  0.00000000000E+00 0. -1.
        -13    1    5    5    0    0 -0.30884585510E+02 -0.10265024901E+02  0.32563943966E+03  0.32726178057E+03  0.00000000000E+00 0.  1.
         14    1    5    5    0    0  0.16233282213E+02  0.63362649679E+02  0.57112722523E+03  0.57486055024E+03  0.00000000000E+00 0. -1.
          5    1    3    3  501    0  0.48800045348E+02 -0.32865088612E+02 -0.29415396549E+03  0.30001700600E+03  0.47000000000E+01 0. -1.
         -5    1    3    3    0  501  0.90789057057E+02  0.10371081480E+03 -0.45298904414E+03  0.47351847916E+03  0.47000000000E+01 0. -1.
          1    1    1    2  502    0  0.54981467083E+02  0.78634280578E+02  0.16334148106E+04  0.16362305019E+04  0.00000000000E+00 0. -1.
          1    1    1    2  503    0 -0.15443274219E+03 -0.95352672428E+02 -0.54461410039E+03  0.57406107893E+03  0.00000000000E+00 0. -1.
<mgrwt>
<rscale>  0 0.12703406E+03</rscale>
<asrwt>0</asrwt>
<pdfrwt beam="1">  1        2 0.42738364E+00 0.95949527E+02</pdfrwt>
<pdfrwt beam="2">  1        2 0.19664588E+00 0.16818898E+03</pdfrwt>
<totfact> 0.94945758E+00</totfact>
</mgrwt>
</event>
<event>
13    1  0.3019759E-008  0.1017084E+03  0.7546771E-02  0.1554314E+00
          2   -1    0    0  502    0  0.00000000000E+00  0.00000000000E+00  0.51708393164E+03  0.51708393164E+03  0.00000000000E+00 0. -1.
          2   -1    0    0  503    0 -0.00000000000E+00 -0.00000000000E+00 -0.13422861914E+04  0.13422861914E+04  0.00000000000E+00 0. -1.
         25    2    1    2    0    0 -0.31414944244E+02 -0.22009562900E+03  0.14013733048E+02  0.25544558098E+03  0.12500830171E+03 0.  0.
         24    2    1    2    0    0  0.35346476276E+02  0.46543517966E+02  0.44473464912E+02  0.10892550000E+03  0.80443787943E+02 0.  0.
         24    2    1    2    0    0  0.18271129833E+02  0.70809501169E+02 -0.23224617730E+01  0.11495366375E+03  0.88663021264E+02 0.  0.
        -11    1    5    5    0    0 -0.81765536101E+01  0.48058719662E+01  0.33866129024E+02  0.35169121817E+02  0.00000000000E+00 0.  1.
         12    1    5    5    0    0  0.26447683443E+02  0.66003629203E+02 -0.36188590797E+02  0.79784541933E+02  0.00000000000E+00 0. -1.
        -11    1    4    4    0    0  0.28157767527E+02 -0.18360098612E+02  0.99276284409E+01  0.35050119823E+02  0.00000000000E+00 0.  1.
         12    1    4    4    0    0  0.71887087493E+01  0.64903616578E+02  0.34545836471E+02  0.73875380175E+02  0.00000000000E+00 0. -1.
          5    1    3    3  501    0 -0.14087797795E+02 -0.19127689502E+03 -0.35796739958E+02  0.19516355502E+03  0.47000000000E+01 0.  1.
         -5    1    3    3    0  501 -0.17327146448E+02 -0.28818733980E+02  0.49810473005E+02  0.60282025955E+02  0.47000000000E+01 0.  1.
          1    1    1    2  502    0 -0.11410453901E+02  0.21489944479E+01  0.24693941863E+03  0.24721224304E+03  0.00000000000E+00 0. -1.
          1    1    1    2  503    0 -0.10792207965E+02  0.10059361542E+03 -0.11283064146E+04  0.11328331353E+04  0.00000000000E+00 0. -1.
<mgrwt>
<rscale>  0 0.34364839E+02</rscale>
<asrwt>0</asrwt>
<pdfrwt beam="1">  1        2 0.76041756E-01 0.11611057E+02</pdfrwt>
<pdfrwt beam="2">  1        2 0.19739503E+00 0.10170842E+03</pdfrwt>
<totfact> 0.19446081E+02</totfact>
</mgrwt>
</event>
<event>
13    1  0.3019759E-008  0.3366438E+02  0.7546771E-02  0.1684313E+00
          2   -1    0    0  503    0  0.00000000000E+00  0.00000000000E+00  0.32512195673E+03  0.32512195673E+03  0.00000000000E+00 0. -1.
          2   -1    0    0  502    0 -0.00000000000E+00 -0.00000000000E+00 -0.20612791985E+04  0.20612791985E+04  0.00000000000E+00 0. -1.
         25    2    1    2    0    0  0.25152091211E+02  0.69981749949E+02 -0.72868160853E+03  0.74305594065E+03  0.12500068521E+03 0.  0.
         24    2    1    2    0    0 -0.95873449035E+02 -0.25570453456E+02 -0.17776217137E+03  0.21823141451E+03  0.78612940349E+02 0.  0.
         24    2    1    2    0    0  0.45850751028E+02 -0.45349093837E+02  0.26342019643E+03  0.28257052176E+03  0.79354068580E+02 0.  0.
        -11    1    4    4    0    0 -0.94293631411E+02 -0.35650172312E+02 -0.18129277811E+03  0.20743503827E+03  0.00000000000E+00 0.  1.
         12    1    4    4    0    0 -0.15798176244E+01  0.10079718856E+02  0.35306067368E+01  0.10796376238E+02  0.00000000000E+00 0. -1.
        -11    1    5    5    0    0 -0.15701963545E+01  0.12850154486E+02  0.11994345347E+03  0.12064005975E+03  0.00000000000E+00 0.  1.
         12    1    5    5    0    0  0.47420947382E+02 -0.58199248323E+02  0.14347674296E+03  0.16193046201E+03  0.00000000000E+00 0. -1.
          5    1    3    3  501    0  0.59536561992E+02 -0.78368672776E+01 -0.29787717294E+03  0.30390610205E+03  0.47000000000E+01 0. -1.
         -5    1    3    3    0  501 -0.34384470781E+02  0.77818617226E+02 -0.43080443559E+03  0.43914983860E+03  0.47000000000E+01 0. -1.
          1    1    1    2  502    0  0.29256734084E+02  0.16673167971E+02 -0.11148558843E+04  0.11153643323E+04  0.00000000000E+00 0. -1.
          1    1    1    2  503    0 -0.43861272875E+01 -0.15735370627E+02  0.21722226019E+02  0.27178945980E+02  0.00000000000E+00 0. -1.
<mgrwt>
<rscale>  0 0.23450281E+02</rscale>
<asrwt>0</asrwt>
<pdfrwt beam="1">  1        2 0.47812050E-01 0.16335238E+02</pdfrwt>
<pdfrwt beam="2">  1        2 0.30312931E+00 0.33664381E+02</pdfrwt>
<totfact> 0.15406216E+02</totfact>
</mgrwt>
</event>
<event>
13    1  0.3019759E-008  0.7933469E+02  0.7546771E-02  0.1500096E+00
          2   -1    0    0  503    0  0.00000000000E+00  0.00000000000E+00  0.47445906705E+04  0.47445906705E+04  0.00000000000E+00 0. -1.
         -1   -1    0    0    0  501 -0.00000000000E+00 -0.00000000000E+00 -0.42039685013E+03  0.42039685013E+03  0.00000000000E+00 0.  1.
         25    2    1    2    0    0  0.10031619044E+03  0.64527228044E+02  0.46018850226E+03  0.49155471552E+03  0.12500191804E+03 0.  0.
         24    2    1    2    0    0  0.26470870539E+02  0.29762885893E+02  0.42308051936E+03  0.43236863831E+03  0.79743195162E+02 0.  0.
         24    2    1    2    0    0 -0.56424425733E+02 -0.49724140107E+02  0.23259646004E+04  0.23285562383E+04  0.80041403330E+02 0.  0.
        -13    1    5    5    0    0 -0.45167765513E+01 -0.53529846362E+02  0.86629946499E+03  0.86796348355E+03  0.00000000000E+00 0.  1.
         14    1    5    5    0    0 -0.51907649181E+02  0.38057062556E+01  0.14596651355E+04  0.14605927547E+04  0.00000000000E+00 0. -1.
        -13    1    4    4    0    0 -0.57784671362E+01  0.38842074960E+02  0.98132866635E+02  0.10569842470E+03  0.00000000000E+00 0.  1.
         14    1    4    4    0    0  0.32249337676E+02 -0.90791890671E+01  0.32494765272E+03  0.32667021362E+03  0.00000000000E+00 0. -1.
          5    1    3    3  502    0  0.10130478945E+03  0.91547207638E+02  0.30842904652E+03  0.33733383811E+03  0.47000000000E+01 0.  1.
         -5    1    3    3    0  502 -0.98859900845E+00 -0.27019979594E+02  0.15175945574E+03  0.15422087742E+03  0.47000000000E+01 0.  1.
          1    1    1    2  503    0  0.52808354408E+01 -0.20653061509E+02  0.15097123742E+04  0.15098628709E+04  0.00000000000E+00 0. -1.
         -2    1    1    2    0  501 -0.75643470686E+02 -0.23912912321E+02 -0.39475217590E+03  0.40264505760E+03  0.00000000000E+00 0.  1.
<mgrwt>
<rscale>  0 0.41124420E+02</rscale>
<asrwt>0</asrwt>
<pdfrwt beam="1">  1        2 0.69773389E+00 0.21317509E+02</pdfrwt>
<pdfrwt beam="2">  1       -1 0.61823069E-01 0.79334690E+02</pdfrwt>
<totfact> 0.10032801E+00</totfact>
</mgrwt>
</event>
<event>
13    1  0.3019759E-008  0.2497889E+03  0.7546771E-02  0.1292650E+00
          2   -1    0    0  502    0  0.00000000000E+00  0.00000000000E+00  0.19060963998E+04  0.19060963998E+04  0.00000000000E+00 0. -1.
          2   -1    0    0  503    0 -0.00000000000E+00 -0.00000000000E+00 -0.24186618784E+04  0.24186618784E+04  0.00000000000E+00 0. -1.
         25    2    1    2    0    0 -0.26174998525E+03  0.21221924781E+03 -0.12775825660E+04  0.13271708230E+04  0.12496046033E+03 0.  0.
         24    2    1    2    0    0  0.10336076524E+03 -0.16717059057E+02 -0.17276244206E+03  0.21721732911E+03  0.79834822155E+02 0.  0.
         24    2    1    2    0    0 -0.21288697015E+03 -0.81442616574E+02  0.39057057262E+03  0.45919205965E+03  0.79738407271E+02 0.  0.
        -11    1    4    4    0    0  0.11321415464E+03 -0.22968099957E+02 -0.16946113645E+03  0.20509035860E+03  0.00000000000E+00 0.  1.
         12    1    4    4    0    0 -0.98533894029E+01  0.62510408998E+01 -0.33013056108E+01  0.12126970512E+02  0.00000000000E+00 0. -1.
        -11    1    5    5    0    0 -0.13005183834E+03 -0.89631977752E+02  0.26637028034E+03  0.30967805595E+03  0.00000000000E+00 0.  1.
         12    1    5    5    0    0 -0.82835131806E+02  0.81893611786E+01  0.12420029229E+03  0.14951400370E+03  0.00000000000E+00 0. -1.
          5    1    3    3  501    0 -0.20067456368E+03  0.16917264319E+03 -0.75683143484E+03  0.80106527479E+03  0.47000000000E+01 0.  1.
         -5    1    3    3    0  501 -0.61075421573E+02  0.43046604615E+02 -0.52075113115E+03  0.52610554823E+03  0.47000000000E+01 0.  1.
          1    1    1    2  502    0  0.34603612750E+03 -0.13921738525E+03  0.14095682796E+04  0.14580827194E+04  0.00000000000E+00 0. -1.
          1    1    1    2  503    0  0.25240062662E+02  0.25157813071E+02 -0.86235932279E+03  0.86309534695E+03  0.00000000000E+00 0. -1.
<mgrwt>
<rscale>  0 0.94348608E+02</rscale>
<asrwt>0</asrwt>
<pdfrwt beam="1">  1        2 0.28030830E+00 0.24978893E+03</pdfrwt>
<pdfrwt beam="2">  1        2 0.35568557E+00 0.35636727E+02</pdfrwt>
<totfact> 0.95635043E+00</totfact>
</mgrwt>
</event>
<event>
13    1  0.3019759E-008  0.8796534E+02  0.7546771E-02  0.1357384E+00
          2   -1    0    0  503    0  0.00000000000E+00  0.00000000000E+00  0.19071239119E+04  0.19071239119E+04  0.00000000000E+00 0. -1.
          2   -1    0    0  502    0 -0.00000000000E+00 -0.00000000000E+00 -0.55974795731E+03  0.55974795731E+03  0.00000000000E+00 0. -1.
         25    2    1    2    0    0 -0.13355130112E+02  0.31997274931E+02 -0.44573974013E+02  0.13716519811E+03  0.12500106923E+03 0.  0.
         24    2    1    2    0    0 -0.38266671155E+01 -0.17958072250E+02  0.54567636770E+02  0.98454779108E+02  0.79866017845E+02 0.  0.
         24    2    1    2    0    0 -0.10395431275E+02  0.24988260367E+02  0.63536256561E+03  0.64114900675E+03  0.81571937118E+02 0.  0.
        -11    1    4    4    0    0  0.28174513207E+02 -0.35279007450E+02  0.25280219210E+02  0.51744575024E+02  0.00000000000E+00 0.  1.
         12    1    4    4    0    0 -0.32001180322E+02  0.17320935200E+02  0.29287417560E+02  0.46710204084E+02  0.00000000000E+00 0. -1.
        -13    1    5    5    0    0  0.34773642823E+02  0.44006332129E+01  0.31831087068E+03  0.32023488598E+03  0.00000000000E+00 0.  1.
         14    1    5    5    0    0 -0.45169074098E+02  0.20587627154E+02  0.31705169493E+03  0.32091412077E+03  0.00000000000E+00 0. -1.
          5    1    3    3  501    0 -0.28781036318E+02 -0.42214539951E+02 -0.50601180707E+01  0.51556864041E+02  0.47000000000E+01 0. -1.
         -5    1    3    3    0  501  0.15425906206E+02  0.74211814883E+02 -0.39513855943E+02  0.85608334068E+02  0.47000000000E+01 0. -1.
          1    1    1    2  502    0 -0.13038451335E+01 -0.88156223281E+02 -0.43894697646E+03  0.44771382362E+03  0.00000000000E+00 0. -1.
          1    1    1    2  503    0  0.28881073636E+02  0.49128760233E+02  0.11409667027E+04  0.11423890617E+04  0.00000000000E+00 0. -1.
<mgrwt>
<rscale>  0 0.70802973E+02</rscale>
<asrwt>0</asrwt>
<pdfrwt beam="1">  1        2 0.28045940E+00 0.56989047E+02</pdfrwt>
<pdfrwt beam="2">  1        2 0.82315877E-01 0.87965341E+02</pdfrwt>
<totfact> 0.98353404E+01</totfact>
</mgrwt>
</event>
<event>
13    1  0.3019759E-008  0.1693606E+03  0.7546771E-02  0.1293960E+00
         -3   -1    0    0    0  501 -0.00000000000E+00  0.00000000000E+00  0.24611655581E+03  0.24611655581E+03  0.00000000000E+00 0.  1.
          2   -1    0    0  503    0  0.00000000000E+00 -0.00000000000E+00 -0.33803472610E+04  0.33803472610E+04  0.00000000000E+00 0. -1.
         25    2    1    2    0    0  0.19754144247E+02  0.21938955034E+02 -0.31314130708E+02  0.13220047154E+03  0.12499938372E+03 0.  0.
         24    2    1    2    0    0 -0.47940058383E+02 -0.23660600489E+02  0.12513240604E+02  0.98228143986E+02  0.81450069781E+02 0.  0.
         24    2    1    2    0    0 -0.12711920537E+03  0.62025560006E+01 -0.50834545340E+03  0.52969562167E+03  0.77230742263E+02 0.  0.
        -13    1    5    5    0    0 -0.12079675912E+02  0.18642378116E+02 -0.18384850171E+03  0.18518565931E+03  0.00000000000E+00 0.  1.
         14    1    5    5    0    0 -0.11503952946E+03 -0.12439822115E+02 -0.32449695168E+03  0.34450996236E+03  0.00000000000E+00 0. -1.
        -13    1    4    4    0    0 -0.57583989274E+02 -0.17548612903E+02  0.37383815409E+02  0.70861973512E+02  0.00000000000E+00 0.  1.
         14    1    4    4    0    0  0.96439308911E+01 -0.61119875858E+01 -0.24870574805E+02  0.27366170474E+02  0.00000000000E+00 0. -1.
          5    1    3    3  502    0  0.12971591040E+02  0.74143656028E+02 -0.21741262753E+02  0.78487683170E+02  0.47000000000E+01 0. -1.
         -5    1    3    3    0  502  0.67825532075E+01 -0.52204700994E+02 -0.95728679554E+01  0.53712788373E+02  0.47000000000E+01 0. -1.
          1    1    1    2  503    0  0.17761348391E+03  0.42405105711E+02 -0.27283351689E+04  0.27344391630E+04  0.00000000000E+00 0. -1.
         -4    1    1    2    0  501 -0.22308364406E+02 -0.46886016257E+02  0.12125080719E+03  0.13190041656E+03  0.00000000000E+00 0.  1.
<mgrwt>
<rscale>  0 0.93774483E+02</rscale>
<asrwt>0</asrwt>
<pdfrwt beam="2">  1        2 0.49710988E+00 0.16936065E+03</pdfrwt>
<pdfrwt beam="1">  1       -3 0.36193612E-01 0.51922651E+02</pdfrwt>
<totfact> 0.69471939E+00</totfact>
</mgrwt>
</event>
<event>
13    1  0.3019759E-008  0.1018170E+03  0.7546771E-02  0.1412040E+00
          2   -1    0    0  502    0  0.00000000000E+00  0.00000000000E+00  0.15765502279E+04  0.15765502279E+04  0.00000000000E+00 0. -1.
          2   -1    0    0  503    0 -0.00000000000E+00 -0.00000000000E+00 -0.20984816149E+04  0.20984816149E+04  0.00000000000E+00 0. -1.
         25    2    1    2    0    0 -0.11480155779E+03 -0.14825565582E+03 -0.72290664555E+03  0.75721760129E+03  0.12500136146E+03 0.  0.
         24    2    1    2    0    0  0.67233066042E+02  0.37213935999E+02  0.77048971100E+02  0.13549924783E+03  0.80736237305E+02 0.  0.
         24    2    1    2    0    0 -0.11860668129E+02  0.38248735307E+02 -0.42758050723E+02  0.98922042269E+02  0.79709963894E+02 0.  0.
        -11    1    4    4    0    0  0.34462345131E+02 -0.17416814077E+02  0.43822797344E+01  0.38861330654E+02  0.00000000000E+00 0.  1.
         12    1    4    4    0    0  0.32770720910E+02  0.54630750076E+02  0.72666691365E+02  0.96637917180E+02  0.00000000000E+00 0. -1.
        -13    1    5    5    0    0  0.21510926166E+02 -0.14459161624E+02 -0.63291558109E+01  0.26680433142E+02  0.00000000000E+00 0.  1.
         14    1    5    5    0    0 -0.33371594295E+02  0.52707896932E+02 -0.36428894912E+02  0.72241609127E+02  0.00000000000E+00 0. -1.
          5    1    3    3  501    0 -0.94333789018E+02 -0.31034195715E+02 -0.42313393734E+03  0.43465665068E+03  0.47000000000E+01 0. -1.
         -5    1    3    3    0  501 -0.20467768776E+02 -0.11722146011E+03 -0.29977270821E+03  0.32256095061E+03  0.47000000000E+01 0. -1.
          1    1    1    2  502    0  0.85630406573E+02  0.55090385881E+02  0.14230206401E+04  0.14266587747E+04  0.00000000000E+00 0. -1.
          1    1    1    2  503    0 -0.26201246692E+02  0.17702598634E+02 -0.12563363019E+04  0.12567341767E+04  0.00000000000E+00 0. -1.
<mgrwt>
<rscale>  0 0.56741130E+02</rscale>
<asrwt>0</asrwt>
<pdfrwt beam="1">  1        2 0.23184562E+00 0.10181703E+03</pdfrwt>
<pdfrwt beam="2">  1        2 0.30860024E+00 0.31620995E+02</pdfrwt>
<totfact> 0.21462291E+01</totfact>
</mgrwt>
</event>
<event>
13    1  0.3019759E-008  0.1198468E+03  0.7546771E-02  0.1282275E+00
          2   -1    0    0  502    0  0.00000000000E+00  0.00000000000E+00  0.22769525175E+04  0.22769525175E+04  0.00000000000E+00 0. -1.
          2   -1    0    0  503    0 -0.00000000000E+00 -0.00000000000E+00 -0.97169101563E+03  0.97169101563E+03  0.00000000000E+00 0. -1.
         25    2    1    2    0    0 -0.53334665154E+02  0.91788397648E+02 -0.16710505103E+03  0.23414053189E+03  0.12501197601E+03 0.  0.
         24    2    1    2    0    0 -0.44515309177E+02 -0.63088881436E+02  0.32905932822E+02  0.10267340522E+03  0.59137196523E+02 0.  0.
         24    2    1    2    0    0 -0.54038098258E+02 -0.64156236318E+01  0.39900422464E+03  0.40932720936E+03  0.73369726412E+02 0.  0.
        -11    1    5    5    0    0  0.13095657514E+02  0.60314307979E+01  0.22792282115E+02  0.26969659382E+02  0.00000000000E+00 0.  1.
         12    1    5    5    0    0 -0.67133755773E+02 -0.12447054430E+02  0.37621194252E+03  0.38235754998E+03  0.00000000000E+00 0. -1.
        -11    1    4    4    0    0 -0.81946743945E+01 -0.47734687208E+02  0.39743566989E+02  0.62652247910E+02  0.00000000000E+00 0.  1.
         12    1    4    4    0    0 -0.36320634782E+02 -0.15354194228E+02 -0.68376341667E+01  0.40021157309E+02  0.00000000000E+00 0. -1.
          5    1    3    3  501    0 -0.40577559807E+02  0.91321743051E+02 -0.18579939604E+03  0.21102062620E+03  0.47000000000E+01 0.  1.
         -5    1    3    3    0  501 -0.12757105347E+02  0.46665459686E+00  0.18694345016E+02  0.23119905686E+02  0.47000000000E+01 0.  1.
          1    1    1    2  502    0  0.40273177584E+02 -0.71298758460E+02  0.17654417169E+04  0.17673397799E+04  0.00000000000E+00 0. -1.
          1    1    1    2  503    0  0.11161489500E+03  0.49014865880E+02 -0.72498532153E+03  0.73516260671E+03  0.00000000000E+00 0. -1.
<mgrwt>
<rscale>  0 0.99064977E+02</rscale>
<asrwt>0</asrwt>
<pdfrwt beam="1">  1        2 0.33484596E+00 0.81886762E+02</pdfrwt>
<pdfrwt beam="2">  1        2 0.14289574E+00 0.11984684E+03</pdfrwt>
<totfact> 0.32466917E+01</totfact>
</mgrwt>
</event>
<event>
13    1  0.3019759E-008  0.1464345E+03  0.7546771E-02  0.1319832E+00
          2   -1    0    0  503    0  0.00000000000E+00  0.00000000000E+00  0.25722580584E+04  0.25722580584E+04  0.00000000000E+00 0. -1.
          2   -1    0    0  502    0 -0.00000000000E+00 -0.00000000000E+00 -0.19393518931E+04  0.19393518931E+04  0.00000000000E+00 0. -1.
         25    2    1    2    0    0  0.24238377908E+03  0.20621742229E+03 -0.93444462928E+03  0.99503092391E+03  0.12499701088E+03 0.  0.
         24    2    1    2    0    0 -0.21514689772E+03 -0.67080325951E+02  0.17093984860E+03  0.29396371676E+03  0.80039222911E+02 0.  0.
         24    2    1    2    0    0  0.48915564290E+02 -0.69573819036E+02  0.94700105829E+03  0.95425102631E+03  0.80936815415E+02 0.  0.
        -11    1    4    4    0    0 -0.38821608977E+02 -0.25311652847E+02  0.76962372567E+02  0.89838766045E+02  0.00000000000E+00 0.  1.
         12    1    4    4    0    0 -0.17632528874E+03 -0.41768673104E+02  0.93977476032E+02  0.20412495071E+03  0.00000000000E+00 0. -1.
        -13    1    5    5    0    0  0.40740013390E+01  0.18293135044E+02  0.14544410571E+03  0.14664659615E+03  0.00000000000E+00 0.  1.
         14    1    5    5    0    0  0.44841562951E+02 -0.87866954080E+02  0.80155695258E+03  0.80760443016E+03  0.00000000000E+00 0. -1.
          5    1    3    3  501    0  0.22459485137E+03  0.16087476919E+03 -0.87737644050E+03  0.91985599252E+03  0.47000000000E+01 0. -1.
         -5    1    3    3    0  501  0.17788927710E+02  0.45342653101E+02 -0.57068188781E+02  0.75174931394E+02  0.47000000000E+01 0. -1.
          1    1    1    2  502    0 -0.12146347259E+03 -0.83584824207E+02 -0.90308284629E+03  0.91504012223E+03  0.00000000000E+00 0. -1.
          1    1    1    2  503    0  0.45311026937E+02  0.14021546905E+02  0.13524927339E+04  0.13533241623E+04  0.00000000000E+00 0. -1.
<mgrwt>
<rscale>  0 0.83339814E+02</rscale>
<asrwt>0</asrwt>
<pdfrwt beam="1">  1        2 0.37827324E+00 0.47430928E+02</pdfrwt>
<pdfrwt beam="2">  1        2 0.28519881E+00 0.14643451E+03</pdfrwt>
<totfact> 0.78466627E+00</totfact>
</mgrwt>
</event>
<event>
13    1  0.3019759E-008  0.1021959E+03  0.7546771E-02  0.1516910E+00
          2   -1    0    0  502    0  0.00000000000E+00  0.00000000000E+00  0.23382631065E+04  0.23382631065E+04  0.00000000000E+00 0. -1.
          2   -1    0    0  503    0 -0.00000000000E+00 -0.00000000000E+00 -0.41877720673E+03  0.41877720673E+03  0.00000000000E+00 0. -1.
         25    2    1    2    0    0 -0.15174802560E+03  0.31533281253E+03 -0.20905671819E+03  0.42636976741E+03  0.12499688479E+03 0.  0.
         24    2    1    2    0    0  0.31100804928E+03 -0.39415886637E+03  0.10798574552E+04  0.11936066152E+04  0.80730475869E+02 0.  0.
         24    2    1    2    0    0 -0.45149989739E+02  0.10327385606E+03  0.27988419788E+03  0.31206118563E+03  0.79643006180E+02 0.  0.
        -11    1    5    5    0    0 -0.67123394711E+02  0.63196207792E+02  0.18109240996E+03  0.20320869012E+03  0.00000000000E+00 0.  1.
         12    1    5    5    0    0  0.21973404972E+02  0.40077648273E+02  0.98791787929E+02  0.10885249551E+03  0.00000000000E+00 0. -1.
        -11    1    4    4    0    0  0.17741169327E+02 -0.52272911205E+02  0.82664897069E+02  0.99401667704E+02  0.00000000000E+00 0.  1.
         12    1    4    4    0    0  0.29326687995E+03 -0.34188595516E+03  0.99719255809E+03  0.10942049475E+04  0.00000000000E+00 0. -1.
          5    1    3    3  501    0 -0.14864761835E+03  0.22778125058E+03 -0.10837609436E+03  0.29282739009E+03  0.47000000000E+01 0. -1.
         -5    1    3    3    0  501 -0.31004072449E+01  0.87551561950E+02 -0.10068062383E+03  0.13354237732E+03  0.47000000000E+01 0. -1.
          1    1    1    2  502    0 -0.10018644522E+03 -0.19540973194E+02  0.79142922234E+03  0.79798457843E+03  0.00000000000E+00 0. -1.
          1    1    1    2  503    0 -0.13923588724E+02 -0.49068290372E+01 -0.22628257379E+02  0.27018166595E+02  0.00000000000E+00 0. -1.
<mgrwt>
<rscale>  0 0.38842087E+02</rscale>
<asrwt>0</asrwt>
<pdfrwt beam="1">  1        2 0.34386222E+00 0.10219587E+03</pdfrwt>
<pdfrwt beam="2">  1        2 0.61584884E-01 0.14762903E+02</pdfrwt>
<totfact> 0.77856519E+01</totfact>
</mgrwt>
</event>
<event>
13    1  0.3019759E-008  0.4123673E+02  0.7546771E-02  0.1614116E+00
         -1   -1    0    0    0  501 -0.00000000000E+00  0.00000000000E+00  0.10174309288E+04  0.10174309288E+04  0.00000000000E+00 0.  1.
          2   -1    0    0  503    0  0.00000000000E+00 -0.00000000000E+00 -0.25447176512E+04  0.25447176512E+04  0.00000000000E+00 0. -1.
         25    2    1    2    0    0  0.14539906322E+01 -0.14074425345E+03  0.10584234963E+03  0.21597264519E+03  0.12502208416E+03 0.  0.
         24    2    1    2    0    0 -0.17083318767E+02  0.49947473512E+02 -0.38795027294E+03  0.39928830464E+03  0.78352702940E+02 0.  0.
         24    2    1    2    0    0  0.56964969349E+02  0.64485070702E+02 -0.16263516329E+04  0.16306175737E+04  0.80564915939E+02 0.  0.
        -13    1    4    4    0    0 -0.26530348802E+02  0.13308360338E+02 -0.42883798159E+02  0.52153542612E+02  0.00000000000E+00 0.  1.
         14    1    4    4    0    0  0.94470300347E+01  0.36639113174E+02 -0.34506647479E+03  0.34713476203E+03  0.00000000000E+00 0. -1.
        -13    1    5    5    0    0  0.20503692234E+02  0.37953959492E+02 -0.26252021106E+03  0.26604090973E+03  0.00000000000E+00 0.  1.
         14    1    5    5    0    0  0.36461277115E+02  0.26531111210E+02 -0.13638314218E+04  0.13645766639E+04  0.00000000000E+00 0. -1.
          5    1    3    3  502    0  0.19148339953E+02  0.14609918932E+02 -0.39545073916E+01  0.24856322794E+02  0.47000000000E+01 0. -1.
         -5    1    3    3    0  502 -0.17694349321E+02 -0.15535417238E+03  0.10979685702E+03  0.19111632239E+03  0.47000000000E+01 0. -1.
          1    1    1    2  503    0 -0.61331847992E+00  0.19824315083E+02 -0.46683705062E+03  0.46725818501E+03  0.00000000000E+00 0. -1.
         -2    1    1    2    0  501 -0.40722322734E+02  0.64873941509E+01  0.84800988438E+03  0.84901187145E+03  0.00000000000E+00 0.  1.
<mgrwt>
<rscale>  0 0.28598620E+02</rscale>
<asrwt>0</asrwt>
<pdfrwt beam="2">  1        2 0.37422318E+00 0.19833800E+02</pdfrwt>
<pdfrwt beam="1">  1       -1 0.14962220E+00 0.41236731E+02</pdfrwt>
<totfact> 0.31354878E+00</totfact>
</mgrwt>
</event>
<event>
13    1  0.3019759E-008  0.1325982E+03  0.7546771E-02  0.1267698E+00
          2   -1    0    0  502    0  0.00000000000E+00  0.00000000000E+00  0.22386891841E+04  0.22386891841E+04  0.00000000000E+00 0. -1.
          2   -1    0    0  503    0 -0.00000000000E+00 -0.00000000000E+00 -0.35984276286E+04  0.35984276286E+04  0.00000000000E+00 0. -1.
         25    2    1    2    0    0  0.18798904224E+03  0.10119822865E+03 -0.11643922057E+04  0.11903847789E+04  0.12500300677E+03 0.  0.
         24    2    1    2    0    0 -0.35545531529E+02 -0.11843931593E+03 -0.19922224192E+03  0.24770163164E+03  0.79845101725E+02 0.  0.
         24    2    1    2    0    0  0.10246832327E+02 -0.94705496457E+02  0.11028481530E+03  0.16646625811E+03  0.80462077856E+02 0.  0.
        -11    1    4    4    0    0  0.23564821508E+02 -0.46126743775E+02 -0.91361949968E+02  0.10502372687E+03  0.00000000000E+00 0.  1.
         12    1    4    4    0    0 -0.59110353038E+02 -0.72312572157E+02 -0.10786029196E+03  0.14267790477E+03  0.00000000000E+00 0. -1.
        -11    1    5    5    0    0  0.10283025883E+02 -0.45201377926E+02  0.85981243058E+00  0.46364258487E+02  0.00000000000E+00 0.  1.
         12    1    5    5    0    0 -0.36193555810E-01 -0.49504118531E+02  0.10942500287E+03  0.12010199962E+03  0.00000000000E+00 0. -1.
          5    1    3    3  501    0  0.84552298946E+02  0.11524111357E+02 -0.72801717847E+03  0.73301636991E+03  0.47000000000E+01 0. -1.
         -5    1    3    3    0  501  0.10343674329E+03  0.89674117291E+02 -0.43637502725E+03  0.45736840904E+03  0.47000000000E+01 0. -1.
          1    1    1    2  502    0 -0.84954953245E+02  0.52859295796E+01  0.20601907213E+04  0.20619483731E+04  0.00000000000E+00 0. -1.
          1    1    1    2  503    0 -0.77735389792E+02  0.10666065416E+03 -0.21665995335E+04  0.21706157708E+04  0.00000000000E+00 0. -1.
<mgrwt>
<rscale>  0 0.10623869E+03</rscale>
<asrwt>0</asrwt>
<pdfrwt beam="1">  1        2 0.32921900E+00 0.85119241E+02</pdfrwt>
<pdfrwt beam="2">  1        2 0.52918053E+00 0.13259821E+03</pdfrwt>
<totfact> 0.14067414E+00</totfact>
</mgrwt>
</event>
<event>
13    1  0.3019759E-008  0.8432470E+02  0.7546771E-02  0.1376004E+00
          2   -1    0    0  503    0  0.00000000000E+00  0.00000000000E+00  0.20068988807E+04  0.20068988807E+04  0.00000000000E+00 0. -1.
          2   -1    0    0  502    0 -0.00000000000E+00 -0.00000000000E+00 -0.68364781902E+03  0.68364781902E+03  0.00000000000E+00 0. -1.
         25    2    1    2    0    0  0.70949171805E+02 -0.65586461708E+02 -0.13110865370E+03  0.20530321945E+03  0.12499825559E+03 0.  0.
         24    2    1    2    0    0  0.19060268076E+01  0.54638856748E+02 -0.24478745273E+02  0.10145574764E+03  0.81884199661E+02 0.  0.
         24    2    1    2    0    0  0.54430588990E+01 -0.49424222291E+02  0.16007565114E+03  0.18562900385E+03  0.79759214775E+02 0.  0.
        -11    1    4    4    0    0  0.27045139393E+02 -0.95094786938E+01 -0.13501145981E+02  0.31688336855E+02  0.00000000000E+00 0.  1.
         12    1    4    4    0    0 -0.25139112585E+02  0.64148335442E+02 -0.10977599292E+02  0.69767410786E+02  0.00000000000E+00 0. -1.
        -11    1    5    5    0    0  0.41302643246E+02 -0.35062330194E+02  0.78641203860E+02  0.95497195155E+02  0.00000000000E+00 0.  1.
         12    1    5    5    0    0 -0.35859584347E+02 -0.14361892096E+02  0.81434447279E+02  0.90131808690E+02  0.00000000000E+00 0. -1.
          5    1    3    3  501    0  0.18917147569E+02  0.91468214428E+01  0.19626290194E+02  0.29134242420E+02  0.47000000000E+01 0.  1.
         -5    1    3    3    0  501  0.52032024236E+02 -0.74733283151E+02 -0.15073494389E+03  0.17616897703E+03  0.47000000000E+01 0.  1.
          1    1    1    2  502    0  0.54591363573E+01  0.50624496003E+02 -0.43720873459E+03  0.44016374154E+03  0.00000000000E+00 0. -1.
          1    1    1    2  503    0 -0.83757393869E+02  0.97473312481E+01  0.17559715441E+04  0.17579949873E+04  0.00000000000E+00 0. -1.
<mgrwt>
<rscale>  0 0.65525905E+02</rscale>
<asrwt>0</asrwt>
<pdfrwt beam="1">  1        2 0.29513219E+00 0.84324699E+02</pdfrwt>
<pdfrwt beam="2">  1        2 0.10053644E+00 0.50917991E+02</pdfrwt>
<totfact> 0.68712433E+01</totfact>
</mgrwt>
</event>
<event>
13    1  0.3019759E-008  0.5337580E+02  0.7546771E-02  0.1508923E+00
          2   -1    0    0  503    0  0.00000000000E+00  0.00000000000E+00  0.15521400184E+04  0.15521400184E+04  0.00000000000E+00 0. -1.
          2   -1    0    0  502    0 -0.00000000000E+00 -0.00000000000E+00 -0.14699673267E+04  0.14699673267E+04  0.00000000000E+00 0. -1.
         25    2    1    2    0    0 -0.10556067001E+03  0.27312396960E+03 -0.11002247130E+03  0.33685318682E+03  0.12500146982E+03 0.  0.
         24    2    1    2    0    0  0.56464425255E+02 -0.44948396590E+03  0.52995788585E+03  0.70295520986E+03  0.89814249240E+02 0.  0.
         24    2    1    2    0    0  0.67509370017E+02  0.15233511585E+03  0.22622041686E+03  0.29213919849E+03  0.80038314154E+02 0.  0.
        -11    1    4    4    0    0 -0.19247758688E+02 -0.14437901187E+03  0.19757737129E+03  0.24546403592E+03  0.00000000000E+00 0.  1.
         12    1    4    4    0    0  0.75712183942E+02 -0.30510495403E+03  0.33238051456E+03  0.45749117394E+03  0.00000000000E+00 0. -1.
        -13    1    5    5    0    0  0.73952873147E+02  0.11918586633E+03  0.13422214086E+03  0.19413881960E+03  0.00000000000E+00 0.  1.
         14    1    5    5    0    0 -0.64435031308E+01  0.33149249517E+02  0.91998275997E+02  0.98000378890E+02  0.00000000000E+00 0. -1.
          5    1    3    3  501    0 -0.13042165418E+03  0.24956454518E+03 -0.84998572192E+02  0.29417531739E+03  0.47000000000E+01 0. -1.
         -5    1    3    3    0  501  0.24860984164E+02  0.23559424428E+02 -0.25023899108E+02  0.42677869436E+02  0.47000000000E+01 0. -1.
          1    1    1    2  502    0 -0.86504667396E+01 -0.28549904902E+02 -0.11256038537E+04  0.11259990956E+04  0.00000000000E+00 0. -1.
          1    1    1    2  503    0 -0.97626585205E+01  0.52574785352E+02  0.56162071399E+03  0.56416065437E+03  0.00000000000E+00 0. -1.
<mgrwt>
<rscale>  0 0.39903488E+02</rscale>
<asrwt>0</asrwt>
<pdfrwt beam="1">  1        2 0.22825589E+00 0.53375795E+02</pdfrwt>
<pdfrwt beam="2">  1        2 0.21617167E+00 0.29831655E+02</pdfrwt>
<totfact> 0.45222128E+01</totfact>
</mgrwt>
</event>
<event>
13    1  0.3019759E-008  0.2246957E+03  0.7546771E-02  0.1367928E+00
          2   -1    0    0  502    0  0.00000000000E+00  0.00000000000E+00  0.26077660233E+04  0.26077660233E+04  0.00000000000E+00 0. -1.
          2   -1    0    0  503    0 -0.00000000000E+00 -0.00000000000E+00 -0.51997342801E+03  0.51997342801E+03  0.00000000000E+00 0. -1.
         25    2    1    2    0    0 -0.73207988674E+02 -0.15083662468E+03 -0.11989281885E+03  0.24106066135E+03  0.12499942995E+03 0.  0.
         24    2    1    2    0    0 -0.47670802067E+02  0.13137193649E+03 -0.61169476686E+02  0.17104459737E+03  0.77352817298E+02 0.  0.
         24    2    1    2    0    0 -0.89429480510E+02 -0.85194051169E+02  0.17944203940E+03  0.23216869292E+03  0.80294446436E+02 0.  0.
        -11    1    5    5    0    0 -0.10021744049E+03 -0.55961558178E+02  0.12714321621E+03  0.17129106457E+03  0.00000000000E+00 0.  1.
         12    1    5    5    0    0  0.10787959977E+02 -0.29232492990E+02  0.52298823186E+02  0.60877628350E+02  0.00000000000E+00 0. -1.
        -11    1    4    4    0    0  0.12701276758E+02  0.65835912654E+02 -0.44282640311E+02  0.80353233035E+02  0.00000000000E+00 0.  1.
         12    1    4    4    0    0 -0.60372078824E+02  0.65536023835E+02 -0.16886836375E+02  0.90691364332E+02  0.00000000000E+00 0. -1.
          5    1    3    3  501    0 -0.84229760948E+02 -0.32839381648E+02 -0.51724556372E+02  0.10426215684E+03  0.47000000000E+01 0.  1.
         -5    1    3    3    0  501  0.11021772274E+02 -0.11799724303E+03 -0.68168262475E+02  0.13679850451E+03  0.47000000000E+01 0.  1.
          1    1    1    2  502    0  0.19451557398E+03  0.11761270568E+03  0.22802432962E+04  0.22915450131E+04  0.00000000000E+00 0. -1.
          1    1    1    2  503    0  0.15792697273E+02 -0.12953966322E+02 -0.19083044477E+03  0.19192048661E+03  0.00000000000E+00 0. -1.
<mgrwt>
<rscale>  0 0.67746552E+02</rscale>
<asrwt>0</asrwt>
<pdfrwt beam="1">  1        2 0.38349500E+00 0.22469566E+03</pdfrwt>
<pdfrwt beam="2">  1        2 0.76466682E-01 0.20425830E+02</pdfrwt>
<totfact> 0.41841959E+01</totfact>
</mgrwt>
</event>
<event>
13    1  0.4965727E-008  0.1778809E+03  0.7546771E-02  0.1271483E+00
          2   -1    0    0  503    0  0.00000000000E+00  0.00000000000E+00  0.28127951100E+04  0.28127951100E+04  0.00000000000E+00 0. -1.
          2   -1    0    0  502    0 -0.00000000000E+00 -0.00000000000E+00 -0.21207262326E+04  0.21207262326E+04  0.00000000000E+00 0. -1.
         25    2    1    2    0    0  0.30364307645E+03  0.58859130179E+02 -0.62217177397E+03  0.70596547991E+03  0.12500410961E+03 0.  0.
         24    2    1    2    0    0 -0.26507026257E+02  0.20189394072E+01  0.70963270227E+02  0.11066285798E+03  0.80646040561E+02 0.  0.
         24    2    1    2    0    0 -0.19759054634E+03  0.26285145311E+03  0.10384091695E+04  0.10921525533E+04  0.79816576981E+02 0.  0.
        -13    1    5    5    0    0 -0.19027808541E+03  0.26396687824E+03  0.96529506436E+03  0.10186652168E+04  0.00000000000E+00 0.  1.
         14    1    5    5    0    0 -0.73124609323E+01 -0.11154251227E+01  0.73114105161E+02  0.73487336539E+02  0.00000000000E+00 0. -1.
        -13    1    4    4    0    0 -0.13497282410E+02  0.30831046034E+02  0.71521657918E+02  0.79044782139E+02  0.00000000000E+00 0.  1.
         14    1    4    4    0    0 -0.13009743847E+02 -0.28812106626E+02 -0.55838769155E+00  0.31618075843E+02  0.00000000000E+00 0. -1.
          5    1    3    3  501    0 -0.75546092948E+01 -0.11757748699E+01 -0.15806073203E+01  0.91127870403E+01  0.47000000000E+01 0.  1.
         -5    1    3    3    0  501  0.31119768574E+03  0.60034905049E+02 -0.62059116665E+03  0.69685269287E+03  0.47000000000E+01 0.  1.
          1    1    1    2  502    0  0.51411380085E+02  0.33143767175E+02 -0.13868802244E+04  0.13882285101E+04  0.00000000000E+00 0. -1.
          1    1    1    2  503    0 -0.13095688394E+03 -0.35687328987E+03  0.15917484361E+04  0.16365119414E+04  0.00000000000E+00 0. -1.
<mgrwt>
<rscale>  0 0.10431101E+03</rscale>
<asrwt>0</asrwt>
<pdfrwt beam="1">  1        2 0.41364634E+00 0.17788090E+03</pdfrwt>
<pdfrwt beam="2">  1        2 0.31187151E+00 0.61168941E+02</pdfrwt>
<totfact> 0.44172912E+00</totfact>
</mgrwt>
</event>
<event>
13    1  0.3019759E-008  0.2316455E+03  0.7546771E-02  0.1352149E+00
          2   -1    0    0  503    0  0.00000000000E+00  0.00000000000E+00  0.16650173337E+04  0.16650173337E+04  0.00000000000E+00 0. -1.
         -3   -1    0    0    0  501 -0.00000000000E+00 -0.00000000000E+00 -0.57880961622E+03  0.57880961622E+03  0.00000000000E+00 0.  1.
         25    2    1    2    0    0 -0.82462055267E+02  0.66185381538E+02  0.30714963355E+03  0.34806723417E+03  0.12501762607E+03 0.  0.
         24    2    1    2    0    0  0.30849648893E+02 -0.14224682155E+03  0.15058902834E+02  0.16658634014E+03  0.79613937789E+02 0.  0.
         24    2    1    2    0    0 -0.17571297736E+03  0.12211817788E+03  0.51966296052E+03  0.56811694158E+03  0.83182732584E+02 0.  0.
        -11    1    4    4    0    0 -0.14482458412E+02 -0.47709811073E+01 -0.11897872137E+02  0.19340714149E+02  0.00000000000E+00 0.  1.
         12    1    4    4    0    0  0.45332107305E+02 -0.13747584044E+03  0.26956774971E+02  0.14724562600E+03  0.00000000000E+00 0. -1.
        -11    1    5    5    0    0 -0.14271661961E+03  0.10800797137E+03  0.33315491493E+03  0.37818772155E+03  0.00000000000E+00 0.  1.
         12    1    5    5    0    0 -0.32996357750E+02  0.14110206509E+02  0.18650804559E+03  0.18992922003E+03  0.00000000000E+00 0. -1.
          5    1    3    3  502    0 -0.11152098735E+03  0.47818519318E+02  0.27562146776E+03  0.30118569837E+03  0.47000000000E+01 0.  1.
         -5    1    3    3    0  502  0.29058932085E+02  0.18366862220E+02  0.31528165784E+02  0.46881535805E+02  0.47000000000E+01 0.  1.
          1    1    1    2  503    0 -0.22088699595E+02 -0.48836688278E+01  0.66763624578E+03  0.66801939908E+03  0.00000000000E+00 0. -1.
         -4    1    1    2    0  501  0.24941408333E+03 -0.41173069036E+02 -0.42330002515E+03  0.49303703499E+03  0.00000000000E+00 0.  1.
<mgrwt>
<rscale>  0 0.72390019E+02</rscale>
<asrwt>0</asrwt>
<pdfrwt beam="1">  1        2 0.24485549E+00 0.22622132E+02</pdfrwt>
<pdfrwt beam="2">  1       -3 0.85119061E-01 0.23164549E+03</pdfrwt>
<totfact> 0.12279860E+01</totfact>
</mgrwt>
</event>
<event>
13    1  0.3019759E-008  0.3322822E+02  0.7546771E-02  0.1585278E+00
          2   -1    0    0  502    0  0.00000000000E+00  0.00000000000E+00  0.10965522059E+04  0.10965522059E+04  0.00000000000E+00 0. -1.
          2   -1    0    0  503    0 -0.00000000000E+00 -0.00000000000E+00 -0.23871851042E+04  0.23871851042E+04  0.00000000000E+00 0. -1.
         25    2    1    2    0    0  0.47379585719E+02 -0.76438202929E+00 -0.37430946208E+03  0.39746255458E+03  0.12499399773E+03 0.  0.
         24    2    1    2    0    0 -0.12714866216E+02  0.50758911301E+02  0.18355135204E+02  0.97131171162E+02  0.79745962428E+02 0.  0.
         24    2    1    2    0    0 -0.64267560184E+02  0.16347682335E+01  0.78735740550E+03  0.79424191085E+03  0.82192075028E+02 0.  0.
        -11    1    4    4    0    0 -0.27952269383E+02 -0.10203815839E+02  0.17017282449E+02  0.34278785324E+02  0.00000000000E+00 0.  1.
         12    1    4    4    0    0  0.15237403167E+02  0.60962727140E+02  0.13378527549E+01  0.62852385839E+02  0.00000000000E+00 0. -1.
        -13    1    5    5    0    0 -0.31682820851E+02  0.38457532856E+02  0.27050158920E+03  0.27505252722E+03  0.00000000000E+00 0.  1.
         14    1    5    5    0    0 -0.32584739332E+02 -0.36822764622E+02  0.51685581631E+03  0.51918938364E+03  0.00000000000E+00 0. -1.
          5    1    3    3  501    0  0.70822524192E+02 -0.29395641754E+02 -0.33324405037E+03  0.34198482538E+03  0.47000000000E+01 0.  1.
         -5    1    3    3    0  501 -0.23442938474E+02  0.28631259724E+02 -0.41065411714E+02  0.55477729198E+02  0.47000000000E+01 0.  1.
          1    1    1    2  502    0  0.76336241275E+01 -0.32273000920E+02  0.23515987845E+03  0.23748681488E+03  0.00000000000E+00 0. -1.
          1    1    1    2  503    0  0.21969216553E+02 -0.19356296586E+02 -0.19571958554E+04  0.19574148587E+04  0.00000000000E+00 0. -1.
<mgrwt>
<rscale>  0 0.31191648E+02</rscale>
<asrwt>0</asrwt>
<pdfrwt beam="1">  1        2 0.16125768E+00 0.33228215E+02</pdfrwt>
<pdfrwt beam="2">  1        2 0.35105662E+00 0.29279903E+02</pdfrwt>
<totfact> 0.30073863E+01</totfact>
</mgrwt>
</event>
<event>
13    1  0.3019759E-008  0.6103471E+02  0.7546771E-02  0.1398428E+00
          2   -1    0    0  503    0  0.00000000000E+00  0.00000000000E+00  0.95474306652E+03  0.95474306652E+03  0.00000000000E+00 0. -1.
          2   -1    0    0  502    0 -0.00000000000E+00 -0.00000000000E+00 -0.16337570654E+04  0.16337570654E+04  0.00000000000E+00 0. -1.
         25    2    1    2    0    0  0.22825997523E+02 -0.38473949477E+01 -0.16008620045E+03  0.20442475937E+03  0.12500424815E+03 0.  0.
         24    2    1    2    0    0  0.39268340126E+02 -0.12843581505E+03 -0.12657919045E+03  0.20127105276E+03  0.80311793018E+02 0.  0.
         24    2    1    2    0    0 -0.31750730949E+02  0.91944715521E+02  0.17386366398E+03  0.21449907802E+03  0.79494284011E+02 0.  0.
        -11    1    5    5    0    0 -0.34903941826E+02  0.26772294017E+01  0.35887435060E+02  0.50133429041E+02  0.00000000000E+00 0.  1.
         12    1    5    5    0    0  0.31532108771E+01  0.89267486119E+02  0.13797622892E+03  0.16436564898E+03  0.00000000000E+00 0. -1.
        -13    1    4    4    0    0 -0.49834314199E+01 -0.10403366178E+03 -0.99019498128E+02  0.14371046719E+03  0.00000000000E+00 0.  1.
         14    1    4    4    0    0  0.44251771546E+02 -0.24402153280E+02 -0.27559692321E+02  0.57560585564E+02  0.00000000000E+00 0. -1.
          5    1    3    3  501    0  0.58722957252E+02  0.52370456140E+01 -0.15604969305E+03  0.16688142214E+03  0.47000000000E+01 0.  1.
         -5    1    3    3    0  501 -0.35896959729E+02 -0.90844405617E+01 -0.40365074033E+01  0.37543337226E+02  0.47000000000E+01 0.  1.
          1    1    1    2  502    0 -0.60296392643E+02 -0.10149213178E+02 -0.12652902551E+04  0.12667667864E+04  0.00000000000E+00 0. -1.
          1    1    1    2  503    0  0.29952785942E+02  0.50487707660E+02  0.69907798309E+03  0.70153845543E+03  0.00000000000E+00 0. -1.
<mgrwt>
<rscale>  0 0.59858093E+02</rscale>
<asrwt>0</asrwt>
<pdfrwt beam="1">  1        2 0.14040339E+00 0.58704157E+02</pdfrwt>
<pdfrwt beam="2">  1        2 0.24025839E+00 0.61034712E+02</pdfrwt>
<totfact> 0.71552933E+01</totfact>
</mgrwt>
</event>
<event>
13    1  0.3019759E-008  0.1409978E+03  0.7546771E-02  0.1409593E+00
          2   -1    0    0  502    0  0.00000000000E+00  0.00000000000E+00  0.16313103946E+04  0.16313103946E+04  0.00000000000E+00 0. -1.
          2   -1    0    0  503    0 -0.00000000000E+00 -0.00000000000E+00 -0.15766980153E+04  0.15766980153E+04  0.00000000000E+00 0. -1.
         25    2    1    2    0    0 -0.61011280775E+02  0.11509572998E+03 -0.98357397468E+03  0.10000060693E+04  0.12499988627E+03 0.  0.
         24    2    1    2    0    0 -0.72130585652E+02 -0.60343313994E+02 -0.41923759413E+03  0.43718267134E+03  0.80773701559E+02 0.  0.
         24    2    1    2    0    0 -0.81110450752E+02 -0.10655624559E+03  0.26375214949E+03  0.30645866454E+03  0.80116028454E+02 0.  0.
        -11    1    5    5    0    0 -0.87100927316E+02 -0.11559191441E+03  0.25081819592E+03  0.28958216385E+03  0.00000000000E+00 0.  1.
         12    1    5    5    0    0  0.59904765640E+01  0.90356688209E+01  0.12933953566E+02  0.16876500684E+02  0.00000000000E+00 0. -1.
        -11    1    4    4    0    0 -0.11800960101E+02 -0.59947540930E+02 -0.16686030873E+03  0.17769449331E+03  0.00000000000E+00 0.  1.
         12    1    4    4    0    0 -0.60329625551E+02 -0.39577306444E+00 -0.25237728540E+03  0.25948817804E+03  0.00000000000E+00 0. -1.
          5    1    3    3  501    0 -0.41530062529E+02  0.22884478241E+02 -0.93479440213E+02  0.10492350156E+03  0.47000000000E+01 0.  1.
         -5    1    3    3    0  501 -0.19481218245E+02  0.92211251736E+02 -0.89009453447E+03  0.89508256776E+03  0.47000000000E+01 0.  1.
          1    1    1    2  502    0  0.20251291561E+03  0.71899931706E+02  0.13192531127E+04  0.13366412595E+04  0.00000000000E+00 0. -1.
          1    1    1    2  503    0  0.11739401571E+02 -0.20096102103E+02 -0.12558131413E+03  0.12771974526E+03  0.00000000000E+00 0. -1.
<mgrwt>
<rscale>  0 0.57284777E+02</rscale>
<asrwt>0</asrwt>
<pdfrwt beam="1">  1        2 0.23989859E+00 0.14099779E+03</pdfrwt>
<pdfrwt beam="2">  1        2 0.23186735E+00 0.23273738E+02</pdfrwt>
<totfact> 0.34883334E+01</totfact>
</mgrwt>
</event>
<event>
13    1  0.3019759E-008  0.9797123E+02  0.7546771E-02  0.1287204E+00
          2   -1    0    0  502    0  0.00000000000E+00  0.00000000000E+00  0.16348823096E+04  0.16348823096E+04  0.00000000000E+00 0. -1.
          2   -1    0    0  503    0 -0.00000000000E+00 -0.00000000000E+00 -0.23911769030E+04  0.23911769030E+04  0.00000000000E+00 0. -1.
         25    2    1    2    0    0  0.53086449796E+02 -0.46000569572E+02 -0.36811582185E+03  0.39505374142E+03  0.12499590697E+03 0.  0.
         24    2    1    2    0    0  0.60811705479E+02  0.88978164577E+02  0.17372339975E+03  0.21946793232E+03  0.79819649221E+02 0.  0.
         24    2    1    2    0    0 -0.42096596223E+02 -0.62782896489E+01  0.38699022072E+03  0.39714729270E+03  0.78441065937E+02 0.  0.
        -11    1    5    5    0    0 -0.63515480586E+02 -0.94902783708E+01  0.23481881653E+03  0.24344230991E+03  0.00000000000E+00 0.  1.
         12    1    5    5    0    0  0.21418884363E+02  0.32119887219E+01  0.15217140419E+03  0.15370498279E+03  0.00000000000E+00 0. -1.
        -11    1    4    4    0    0  0.79665927411E+02  0.75834938996E+02  0.13186413844E+03  0.17171414901E+03  0.00000000000E+00 0.  1.
         12    1    4    4    0    0 -0.18854221932E+02  0.13143225580E+02  0.41859261307E+02  0.47753783311E+02  0.00000000000E+00 0. -1.
          5    1    3    3  501    0  0.29256435231E+02 -0.48483775883E+02 -0.36617892477E+03  0.37056134509E+03  0.47000000000E+01 0.  1.
         -5    1    3    3    0  501  0.23830014565E+02  0.24832063108E+01 -0.19368970780E+01  0.24492396331E+02  0.47000000000E+01 0.  1.
          1    1    1    2  502    0  0.17543211797E+01 -0.97745957190E+02  0.10292786930E+04  0.10339110105E+04  0.00000000000E+00 0. -1.
          1    1    1    2  503    0 -0.73555880231E+02  0.61046651835E+02 -0.19781710850E+04  0.19804792356E+04  0.00000000000E+00 0. -1.
<mgrwt>
<rscale>  0 0.96785874E+02</rscale>
<asrwt>0</asrwt>
<pdfrwt beam="1">  1        2 0.24042387E+00 0.97971228E+02</pdfrwt>
<pdfrwt beam="2">  1        2 0.35164366E+00 0.95614861E+02</pdfrwt>
<totfact> 0.12763534E+01</totfact>
</mgrwt>
</event>
<event>
13    1  0.3019759E-008  0.6694668E+02  0.7546771E-02  0.1597630E+00
         -1   -1    0    0    0  501 -0.00000000000E+00  0.00000000000E+00  0.30464591149E+03  0.30464591149E+03  0.00000000000E+00 0.  1.
          2   -1    0    0  503    0  0.00000000000E+00 -0.00000000000E+00 -0.20527078573E+04  0.20527078573E+04  0.00000000000E+00 0. -1.
         25    2    1    2    0    0 -0.33552120438E+02 -0.79068833622E+02  0.10181175910E+03  0.18266288496E+03  0.12498987965E+03 0.  0.
         24    2    1    2    0    0  0.12681925608E+03 -0.18153214962E+03 -0.26794402515E+02  0.23751942761E+03  0.81611846098E+02 0.  0.
         24    2    1    2    0    0 -0.28596632265E+02  0.23661160155E+03 -0.87650854322E+03  0.91202963555E+03  0.82024462339E+02 0.  0.
        -13    1    4    4    0    0  0.53779381286E+02 -0.14366041934E+03 -0.11423618676E+02  0.15382144519E+03  0.00000000000E+00 0.  1.
         14    1    4    4    0    0  0.73039874796E+02 -0.37871730286E+02 -0.15370783839E+02  0.83697982418E+02  0.00000000000E+00 0. -1.
        -13    1    5    5    0    0  0.78378634961E+01 -0.37602126547E+01 -0.23694860302E+02  0.25239209737E+02  0.00000000000E+00 0.  1.
         14    1    5    5    0    0 -0.36434495761E+02  0.24037181420E+03 -0.85281368292E+03  0.88679042581E+03  0.00000000000E+00 0. -1.
          5    1    3    3  502    0  0.15945449088E+02  0.23147055239E+02  0.50423357431E+02  0.57919327409E+02  0.47000000000E+01 0.  1.
         -5    1    3    3    0  502 -0.49497569526E+02 -0.10221588886E+03  0.51388401668E+02  0.12474355755E+03  0.47000000000E+01 0.  1.
          1    1    1    2  503    0 -0.66101540214E+02  0.10584780309E+02 -0.98352750888E+03  0.98580313041E+03  0.00000000000E+00 0. -1.
         -2    1    1    2    0  501  0.14310368353E+01  0.13404601392E+02  0.36956749692E+02  0.39338690277E+02  0.00000000000E+00 0.  1.
<mgrwt>
<rscale>  0 0.30041520E+02</rscale>
<asrwt>0</asrwt>
<pdfrwt beam="2">  1        2 0.30186879E+00 0.66946683E+02</pdfrwt>
<pdfrwt beam="1">  1       -1 0.44800871E-01 0.13480772E+02</pdfrwt>
<totfact> 0.51390922E+01</totfact>
</mgrwt>
</event>
<event>
13    1  0.3019759E-008  0.8677027E+02  0.7546771E-02  0.1572271E+00
          2   -1    0    0  503    0  0.00000000000E+00  0.00000000000E+00  0.17965270290E+04  0.17965270290E+04  0.00000000000E+00 0. -1.
          2   -1    0    0  502    0 -0.00000000000E+00 -0.00000000000E+00 -0.60067147032E+03  0.60067147032E+03  0.00000000000E+00 0. -1.
         25    2    1    2    0    0  0.15221493855E+03  0.23009125984E+02 -0.21743672218E+03  0.29427619551E+03  0.12498377373E+03 0.  0.
         24    2    1    2    0    0 -0.94291893961E+02  0.44206464127E+02  0.33497038265E+02  0.13588854468E+03  0.80613102319E+02 0.  0.
         24    2    1    2    0    0 -0.92725256333E+02  0.97506457274E+00  0.38476175322E+03  0.40385133561E+03  0.80345321104E+02 0.  0.
        -13    1    5    5    0    0 -0.70566588564E+02 -0.28953113579E+02  0.32167019528E+03  0.33058983762E+03  0.00000000000E+00 0.  1.
         14    1    5    5    0    0 -0.22158667769E+02  0.29928178151E+02  0.63091557941E+02  0.73261497993E+02  0.00000000000E+00 0. -1.
        -13    1    4    4    0    0  0.12804400395E+02  0.11292645490E+02  0.14184616728E+02  0.22196393026E+02  0.00000000000E+00 0.  1.
         14    1    4    4    0    0 -0.10709629436E+03  0.32913818637E+02  0.19312421537E+02  0.11369215165E+03  0.00000000000E+00 0. -1.
          5    1    3    3  501    0  0.81646800661E+02  0.63540436311E+02 -0.67519864729E+02  0.12363093965E+03  0.47000000000E+01 0.  1.
         -5    1    3    3    0  501  0.70568137889E+02 -0.40531310327E+02 -0.14991685745E+03  0.17064525586E+03  0.47000000000E+01 0.  1.
          1    1    1    2  502    0  0.16315859484E+01  0.12041727417E+02 -0.28247048649E+03  0.28273174744E+03  0.00000000000E+00 0. -1.
          1    1    1    2  503    0  0.33170625795E+02 -0.80232382100E+02  0.12775039759E+04  0.12804506761E+04  0.00000000000E+00 0. -1.
<mgrwt>
<rscale>  0 0.32471703E+02</rscale>
<asrwt>0</asrwt>
<pdfrwt beam="1">  1        2 0.26419515E+00 0.86770269E+02</pdfrwt>
<pdfrwt beam="2">  1        2 0.88334041E-01 0.12151760E+02</pdfrwt>
<totfact> 0.10177453E+02</totfact>
</mgrwt>
</event>
<event>
13    1  0.3368561E-008  0.3548195E+02  0.7546771E-02  0.1606786E+00
          2   -1    0    0  502    0  0.00000000000E+00  0.00000000000E+00  0.26215921475E+04  0.26215921475E+04  0.00000000000E+00 0. -1.
          2   -1    0    0  503    0 -0.00000000000E+00 -0.00000000000E+00 -0.19178444011E+04  0.19178444011E+04  0.00000000000E+00 0. -1.
         25    2    1    2    0    0  0.37299422646E+03  0.10109957192E+03 -0.17144117739E+03  0.44086599430E+03  0.12499972482E+03 0.  0.
         24    2    1    2    0    0 -0.18223340545E+03  0.57443482300E+03  0.35481097155E+03  0.70398806119E+03  0.80771188107E+02 0.  0.
         24    2    1    2    0    0 -0.19736074230E+03 -0.64504956429E+03  0.12889539821E+04  0.14578691921E+04  0.94551627665E+02 0.  0.
        -11    1    4    4    0    0 -0.13266480289E+03  0.34608413899E+03  0.17920863319E+03  0.41169152942E+03  0.00000000000E+00 0.  1.
         12    1    4    4    0    0 -0.49568602567E+02  0.22835068401E+03  0.17560233836E+03  0.29229653177E+03  0.00000000000E+00 0. -1.
        -11    1    5    5    0    0 -0.19153880201E+03 -0.51119661542E+03  0.99791930318E+03  0.11374761659E+04  0.00000000000E+00 0.  1.
         12    1    5    5    0    0 -0.58219402861E+01 -0.13385294886E+03  0.29103467895E+03  0.32039302624E+03  0.00000000000E+00 0. -1.
          5    1    3    3  501    0  0.30413322647E+03  0.73604521617E+02 -0.79934374757E+02  0.32299572646E+03  0.47000000000E+01 0. -1.
         -5    1    3    3    0  501  0.68860999992E+02  0.27495050300E+02 -0.91506802632E+02  0.11787026783E+03  0.47000000000E+01 0. -1.
          1    1    1    2  502    0 -0.22081751902E+02 -0.95939425246E+01  0.58358768149E+03  0.58408409454E+03  0.00000000000E+00 0. -1.
          1    1    1    2  503    0  0.28681673188E+02 -0.20890888106E+02 -0.13521637114E+04  0.13526292064E+04  0.00000000000E+00 0. -1.
<mgrwt>
<rscale>  0 0.29227706E+02</rscale>
<asrwt>0</asrwt>
<pdfrwt beam="1">  1        2 0.38552826E+00 0.24075870E+02</pdfrwt>
<pdfrwt beam="2">  1        2 0.28203594E+00 0.35481949E+02</pdfrwt>
<totfact> 0.98002255E+00</totfact>
</mgrwt>
</event>
<event>
13    1  0.3019759E-008  0.1000669E+03  0.7546771E-02  0.1417549E+00
          2   -1    0    0  502    0  0.00000000000E+00  0.00000000000E+00  0.20665762849E+04  0.20665762849E+04  0.00000000000E+00 0. -1.
          2   -1    0    0  503    0 -0.00000000000E+00 -0.00000000000E+00 -0.35039077455E+04  0.35039077455E+04  0.00000000000E+00 0. -1.
         25    2    1    2    0    0 -0.46068238615E+02  0.10964183912E+03 -0.12336037027E+04  0.12456114502E+04  0.12500469622E+03 0.  0.
         24    2    1    2    0    0 -0.72141647917E+02  0.29560601621E+02  0.19198302758E+03  0.22181462670E+03  0.79158064677E+02 0.  0.
         24    2    1    2    0    0  0.78865442390E+02 -0.60967029960E+02  0.68347797118E+03  0.69530944630E+03  0.79852064927E+02 0.  0.
        -11    1    4    4    0    0  0.30218943007E+01  0.26469920691E+02  0.97318973110E+02  0.10089980710E+03  0.00000000000E+00 0.  1.
         12    1    4    4    0    0 -0.75163542217E+02  0.30906809298E+01  0.94664054474E+02  0.12091481959E+03  0.00000000000E+00 0. -1.
        -13    1    5    5    0    0  0.68976262926E+02 -0.10169045522E+02  0.49381445417E+03  0.49871219103E+03  0.00000000000E+00 0.  1.
         14    1    5    5    0    0  0.98891794646E+01 -0.50797984438E+02  0.18966351701E+03  0.19659725527E+03  0.00000000000E+00 0. -1.
          5    1    3    3  501    0  0.47870805278E+01  0.27638854698E+02 -0.83440520846E+03  0.83488979173E+03  0.47000000000E+01 0. -1.
         -5    1    3    3    0  501 -0.50855319142E+02  0.82002984418E+02 -0.39919849420E+03  0.41072165844E+03  0.47000000000E+01 0. -1.
          1    1    1    2  502    0  0.43446393802E+02 -0.10879063503E+03  0.11612268854E+04  0.11671207610E+04  0.00000000000E+00 0. -1.
          1    1    1    2  503    0 -0.41019496614E+01  0.30555224249E+02 -0.22404156422E+04  0.22406277463E+04  0.00000000000E+00 0. -1.
<mgrwt>
<rscale>  0 0.55542749E+02</rscale>
<asrwt>0</asrwt>
<pdfrwt beam="1">  1        2 0.30390828E+00 0.10006694E+03</pdfrwt>
<pdfrwt beam="2">  1        2 0.51528054E+00 0.30829332E+02</pdfrwt>
<totfact> 0.25237850E+00</totfact>
</mgrwt>
</event>
<event>
13    1  0.3019759E-008  0.1611867E+03  0.7546771E-02  0.1353289E+00
          2   -1    0    0  503    0  0.00000000000E+00  0.00000000000E+00  0.42224609405E+04  0.42224609405E+04  0.00000000000E+00 0. -1.
          2   -1    0    0  502    0 -0.00000000000E+00 -0.00000000000E+00 -0.30017690106E+04  0.30017690106E+04  0.00000000000E+00 0. -1.
         25    2    1    2    0    0  0.20142696257E+03 -0.84096689710E+01 -0.78381552540E+03  0.81892401019E+03  0.12500485124E+03 0.  0.
         24    2    1    2    0    0  0.35876283454E+02  0.17322741548E+03  0.11266786744E+03  0.22486064891E+03  0.81076617369E+02 0.  0.
         24    2    1    2    0    0 -0.16185348380E+03 -0.52022489451E+02  0.11031131814E+04  0.11187735704E+04  0.76764061564E+02 0.  0.
        -11    1    4    4    0    0  0.10830631309E+02  0.12839212616E+03  0.38182445231E+02  0.13438653116E+03  0.00000000000E+00 0.  1.
         12    1    4    4    0    0  0.25045652145E+02  0.44835289325E+02  0.74485422206E+02  0.90474117744E+02  0.00000000000E+00 0. -1.
        -13    1    5    5    0    0 -0.57633138167E+02 -0.54605783038E+02  0.57639822173E+03  0.58184042500E+03  0.00000000000E+00 0.  1.
         14    1    5    5    0    0 -0.10422034563E+03  0.25832935874E+01  0.52671495972E+03  0.53693314541E+03  0.00000000000E+00 0. -1.
          5    1    3    3  501    0  0.61095789162E+02 -0.13704778700E+01 -0.77777389266E+02  0.99025178333E+02  0.47000000000E+01 0.  1.
         -5    1    3    3    0  501  0.14033117341E+03 -0.70391911009E+01 -0.70603813613E+03  0.71989883186E+03  0.47000000000E+01 0.  1.
          1    1    1    2  502    0  0.31131691996E+02  0.82156598916E+01 -0.21341287830E+04  0.21343716504E+04  0.00000000000E+00 0. -1.
          1    1    1    2  503    0 -0.10658145423E+03 -0.12101091695E+03  0.29228551895E+04  0.29273000713E+04  0.00000000000E+00 0. -1.
<mgrwt>
<rscale>  0 0.72040339E+02</rscale>
<asrwt>0</asrwt>
<pdfrwt beam="1">  1        2 0.62095014E+00 0.16118673E+03</pdfrwt>
<pdfrwt beam="2">  1        2 0.44143662E+00 0.32197505E+02</pdfrwt>
<totfact> 0.25423485E-01</totfact>
</mgrwt>
</event>
<event>
13    1  0.3019759E-008  0.1630685E+03  0.7546771E-02  0.1235779E+00
          2   -1    0    0  502    0  0.00000000000E+00  0.00000000000E+00  0.10140322281E+04  0.10140322281E+04  0.00000000000E+00 0. -1.
          2   -1    0    0  503    0 -0.00000000000E+00 -0.00000000000E+00 -0.17366894529E+04  0.17366894529E+04  0.00000000000E+00 0. -1.
         25    2    1    2    0    0  0.12396107187E+01  0.10552912380E+01 -0.46692743577E+03  0.48337237751E+03  0.12499989917E+03 0.  0.
         24    2    1    2    0    0 -0.14077367641E+03 -0.82244228618E+02 -0.37701001497E+03  0.41838515037E+03  0.79550245449E+02 0.  0.
         24    2    1    2    0    0  0.12666881821E+03  0.20425540511E+03 -0.16647605582E+03  0.30297830627E+03  0.79475259572E+02 0.  0.
        -13    1    5    5    0    0 -0.96089136873E+01  0.26071789865E+02 -0.10257120622E+02  0.29618878650E+02  0.00000000000E+00 0.  1.
         14    1    5    5    0    0  0.13627773190E+03  0.17818361524E+03 -0.15621893520E+03  0.27335942762E+03  0.00000000000E+00 0. -1.
        -13    1    4    4    0    0  0.98204239205E+01 -0.98795544071E+00 -0.14802943983E+02  0.17791681553E+02  0.00000000000E+00 0.  1.
         14    1    4    4    0    0 -0.15059410033E+03 -0.81256273177E+02 -0.36220707098E+03  0.40059346881E+03  0.00000000000E+00 0. -1.
          5    1    3    3  501    0 -0.14888353749E+02 -0.31701702361E+02 -0.34518358682E+02  0.49399069790E+02  0.47000000000E+01 0. -1.
         -5    1    3    3    0  501  0.16127964468E+02  0.32756993599E+02 -0.43240907708E+03  0.43397330772E+03  0.47000000000E+01 0. -1.
          1    1    1    2  502    0 -0.80937074902E+02 -0.13887888459E+03  0.90616103147E+03  0.92030754079E+03  0.00000000000E+00 0. -1.
          1    1    1    2  503    0  0.93802322381E+02  0.15812416863E+02 -0.61840474969E+03  0.62567830605E+03  0.00000000000E+00 0. -1.
<mgrwt>
<rscale>  0 0.12454724E+03</rscale>
<asrwt>0</asrwt>
<pdfrwt beam="1">  1        2 0.14912239E+00 0.16306852E+03</pdfrwt>
<pdfrwt beam="2">  1        2 0.25539551E+00 0.95125749E+02</pdfrwt>
<totfact> 0.54056021E+01</totfact>
</mgrwt>
</event>
<event>
13    1  0.3019759E-008  0.1209940E+03  0.7546771E-02  0.1336662E+00
          2   -1    0    0  503    0  0.00000000000E+00  0.00000000000E+00  0.31680096286E+04  0.31680096286E+04  0.00000000000E+00 0. -1.
          2   -1    0    0  502    0 -0.00000000000E+00 -0.00000000000E+00 -0.34905158007E+04  0.34905158007E+04  0.00000000000E+00 0. -1.
         25    2    1    2    0    0 -0.80537368092E+01 -0.50541577402E+02 -0.57677325492E+03  0.59237765058E+03  0.12499831837E+03 0.  0.
         24    2    1    2    0    0  0.42311549525E+02 -0.76238430774E+02 -0.46557164676E+03  0.48036033092E+03  0.79915728796E+02 0.  0.
         24    2    1    2    0    0 -0.24667094050E+02  0.36564514917E+00  0.61954496823E+03  0.62544529007E+03  0.82080716251E+02 0.  0.
        -11    1    4    4    0    0  0.62405179326E+02 -0.58673195213E+02 -0.40812512710E+03  0.41701686970E+03  0.00000000000E+00 0.  1.
         12    1    4    4    0    0 -0.20093629801E+02 -0.17565235561E+02 -0.57446519652E+02  0.63343461218E+02  0.00000000000E+00 0. -1.
        -11    1    5    5    0    0 -0.46407507982E+02 -0.23374330767E+02  0.32222172996E+03  0.32638452689E+03  0.00000000000E+00 0.  1.
         12    1    5    5    0    0  0.21740413932E+02  0.23739975916E+02  0.29732323828E+03  0.29906076318E+03  0.00000000000E+00 0. -1.
          5    1    3    3  501    0  0.36927361649E+02  0.78174219166E+01 -0.38513452183E+03  0.38700831003E+03  0.47000000000E+01 0. -1.
         -5    1    3    3    0  501 -0.44981098458E+02 -0.58358999319E+02 -0.19163873309E+03  0.20536934056E+03  0.47000000000E+01 0. -1.
          1    1    1    2  502    0  0.40546758412E+02 -0.28367020299E+02 -0.24271563548E+04  0.24276607461E+04  0.00000000000E+00 0. -1.
          1    1    1    2  503    0 -0.50137477079E+02  0.15478138333E+03  0.25274501162E+04  0.25326814117E+04  0.00000000000E+00 0. -1.
<mgrwt>
<rscale>  0 0.77377907E+02</rscale>
<asrwt>0</asrwt>
<pdfrwt beam="1">  1        2 0.46588377E+00 0.12099397E+03</pdfrwt>
<pdfrwt beam="2">  1        2 0.51331115E+00 0.49484618E+02</pdfrwt>
<totfact> 0.62325586E-01</totfact>
</mgrwt>
</event>
<event>
13    1  0.3019759E-008  0.9875551E+02  0.7546771E-02  0.1409911E+00
          2   -1    0    0  503    0  0.00000000000E+00  0.00000000000E+00  0.38220323997E+03  0.38220323997E+03  0.00000000000E+00 0. -1.
          2   -1    0    0  502    0 -0.00000000000E+00 -0.00000000000E+00 -0.37096203179E+04  0.37096203179E+04  0.00000000000E+00 0. -1.
         25    2    1    2    0    0  0.19760031892E+03 -0.80812334458E+02 -0.10122629965E+04  0.10420531109E+04  0.12498716882E+03 0.  0.
         24    2    1    2    0    0 -0.78188487730E+02  0.18299589508E+02 -0.21778643164E+03  0.24579817195E+03  0.80854789196E+02 0.  0.
         24    2    1    2    0    0  0.18253454235E+02  0.31661387149E+02 -0.47014714122E+02  0.99795575477E+02  0.80082092336E+02 0.  0.
        -13    1    4    4    0    0  0.10802056961E+01 -0.21333218727E+02 -0.72815361005E+02  0.75883791839E+02  0.00000000000E+00 0.  1.
         14    1    4    4    0    0 -0.79268693426E+02  0.39632808235E+02 -0.14497107064E+03  0.16991438011E+03  0.00000000000E+00 0. -1.
        -13    1    5    5    0    0  0.80989049981E+01 -0.27043708179E+02 -0.18450766281E+02  0.33725141817E+02  0.00000000000E+00 0.  1.
         14    1    5    5    0    0  0.10154549237E+02  0.58705095328E+02 -0.28563947841E+02  0.66070433660E+02  0.00000000000E+00 0. -1.
          5    1    3    3  501    0  0.70160410918E+02  0.30108279240E+02 -0.37764180766E+03  0.38531080523E+03  0.47000000000E+01 0. -1.
         -5    1    3    3    0  501  0.12743990800E+03 -0.11092061370E+03 -0.63462118886E+03  0.65674230566E+03  0.47000000000E+01 0. -1.
          1    1    1    2  502    0 -0.32633318269E+02 -0.58110471322E+01 -0.23676812470E+04  0.23679132563E+04  0.00000000000E+00 0. -1.
          1    1    1    2  503    0 -0.10503196715E+03  0.36662404932E+02  0.31732831139E+03  0.33626344326E+03  0.00000000000E+00 0. -1.
<mgrwt>
<rscale>  0 0.57213778E+02</rscale>
<asrwt>0</asrwt>
<pdfrwt beam="1">  1        2 0.56206365E-01 0.98755512E+02</pdfrwt>
<pdfrwt beam="2">  1        2 0.54553234E+00 0.33146670E+02</pdfrwt>
<totfact> 0.19583911E+01</totfact>
</mgrwt>
</event>
<event>
13    1  0.3019759E-008  0.4879999E+02  0.7546771E-02  0.1603657E+00
          2   -1    0    0  503    0  0.00000000000E+00  0.00000000000E+00  0.24643200897E+04  0.24643200897E+04  0.00000000000E+00 0. -1.
          2   -1    0    0  502    0 -0.00000000000E+00 -0.00000000000E+00 -0.15385239002E+04  0.15385239002E+04  0.00000000000E+00 0. -1.
         25    2    1    2    0    0 -0.69854947667E+02 -0.51516825351E+02 -0.19489970562E+03  0.24727344691E+03  0.12499826113E+03 0.  0.
         24    2    1    2    0    0 -0.13808375032E+04 -0.34754773077E+03  0.14131049575E+03  0.14322023556E+04  0.61100701767E+02 0.  0.
         24    2    1    2    0    0  0.14949119494E+04  0.38432063362E+03  0.88134300959E+03  0.17783706181E+04  0.58072960000E+02 0.  0.
        -11    1    5    5    0    0  0.11195210183E+04  0.26361262051E+03  0.64525888117E+03  0.13187789610E+04  0.00000000000E+00 0.  1.
         12    1    5    5    0    0  0.37539093112E+03  0.12070801312E+03  0.23608412843E+03  0.45959165712E+03  0.00000000000E+00 0. -1.
        -11    1    4    4    0    0 -0.48397402588E+03 -0.94555485625E+02  0.36764660545E+02  0.49449290981E+03  0.00000000000E+00 0.  1.
         12    1    4    4    0    0 -0.89686347730E+03 -0.25299224515E+03  0.10454583521E+03  0.93770944577E+03  0.00000000000E+00 0. -1.
          5    1    3    3  501    0 -0.61239021335E+02  0.24652243429E+02 -0.13329037746E+03  0.14881655003E+03  0.47000000000E+01 0. -1.
         -5    1    3    3    0  501 -0.86159263313E+01 -0.76169068780E+02 -0.61609328161E+02  0.98456896873E+02  0.47000000000E+01 0. -1.
          1    1    1    2  502    0 -0.67353662682E+01 -0.16515007292E+02 -0.22126439791E+03  0.22198208127E+03  0.00000000000E+00 0. -1.
          1    1    1    2  503    0 -0.37484132326E+02  0.31258929797E+02  0.31930678767E+03  0.32301548805E+03  0.00000000000E+00 0. -1.
<mgrwt>
<rscale>  0 0.29502199E+02</rscale>
<asrwt>0</asrwt>
<pdfrwt beam="1">  1        2 0.36240001E+00 0.48799986E+02</pdfrwt>
<pdfrwt beam="2">  1        2 0.22625351E+00 0.17835656E+02</pdfrwt>
<totfact> 0.16620063E+01</totfact>
</mgrwt>
</event>
<event>
13    1  0.3019759E-008  0.1021558E+03  0.7546771E-02  0.1342561E+00
          2   -1    0    0  502    0  0.00000000000E+00  0.00000000000E+00  0.25493156486E+04  0.25493156486E+04  0.00000000000E+00 0. -1.
          2   -1    0    0  503    0 -0.00000000000E+00 -0.00000000000E+00 -0.15088569310E+04  0.15088569310E+04  0.00000000000E+00 0. -1.
         25    2    1    2    0    0  0.16210930058E+02  0.11397525930E+03 -0.49613597526E+03  0.52443300507E+03  0.12500366741E+03 0.  0.
         24    2    1    2    0    0 -0.10147788054E+02 -0.21214952214E+02 -0.55637863386E+02  0.10014853142E+03  0.79881817102E+02 0.  0.
         24    2    1    2    0    0 -0.34808788270E+02  0.51889948335E+02  0.24961241482E+02  0.10470652712E+03  0.80225773700E+02 0.  0.
        -11    1    4    4    0    0 -0.41694447177E+02 -0.87022872629E+01 -0.10846605497E+02  0.43952310289E+02  0.00000000000E+00 0.  1.
         12    1    4    4    0    0  0.31546659123E+02 -0.12512664951E+02 -0.44791257890E+02  0.56196221131E+02  0.00000000000E+00 0. -1.
        -13    1    5    5    0    0  0.61789694584E+01 -0.11473033713E+02  0.26167400145E+02  0.29232567395E+02  0.00000000000E+00 0.  1.
         14    1    5    5    0    0 -0.40987757728E+02  0.63362982048E+02 -0.12061586629E+01  0.75473959723E+02  0.00000000000E+00 0. -1.
          5    1    3    3  501    0  0.69381383265E+02  0.74944796186E+02 -0.26548912905E+03  0.28449440498E+03  0.47000000000E+01 0. -1.
         -5    1    3    3    0  501 -0.53170453207E+02  0.39030463119E+02 -0.23064684621E+03  0.23993860009E+03  0.47000000000E+01 0. -1.
          1    1    1    2  502    0  0.45423517198E+02 -0.91518278401E+02  0.24461302311E+04  0.24482630575E+04  0.00000000000E+00 0. -1.
          1    1    1    2  503    0 -0.16677870932E+02 -0.53131977023E+02 -0.87885891635E+03  0.88062145852E+03  0.00000000000E+00 0. -1.
<mgrwt>
<rscale>  0 0.75424506E+02</rscale>
<asrwt>0</asrwt>
<pdfrwt beam="1">  1        2 0.37489936E+00 0.10215579E+03</pdfrwt>
<pdfrwt beam="2">  1        2 0.22189072E+00 0.55688045E+02</pdfrwt>
<totfact> 0.12745476E+01</totfact>
</mgrwt>
</event>
<event>
13    1  0.3019759E-008  0.6580946E+02  0.7546771E-02  0.1433044E+00
          2   -1    0    0  503    0  0.00000000000E+00  0.00000000000E+00  0.18187157878E+04  0.18187157878E+04  0.00000000000E+00 0. -1.
          2   -1    0    0  502    0 -0.00000000000E+00 -0.00000000000E+00 -0.10903995856E+04  0.10903995856E+04  0.00000000000E+00 0. -1.
         25    2    1    2    0    0 -0.24719653384E+03  0.15474213332E+03 -0.13540658068E+03  0.34497610606E+03  0.12498926952E+03 0.  0.
         24    2    1    2    0    0  0.13945010149E+03 -0.35668536423E+02  0.61628614421E+03  0.63842440006E+03  0.84015044833E+02 0.  0.
         24    2    1    2    0    0  0.26032898495E+02 -0.79265993247E+02  0.39869398825E+03  0.41638987443E+03  0.86387625092E+02 0.  0.
        -11    1    5    5    0    0 -0.22890933960E+02 -0.15843565188E+02  0.39195415447E+02  0.48075919206E+02  0.00000000000E+00 0.  1.
         12    1    5    5    0    0  0.48923832455E+02 -0.63422428059E+02  0.35949857280E+03  0.36831395522E+03  0.00000000000E+00 0. -1.
        -13    1    4    4    0    0  0.47181010583E+02 -0.53326679932E+02  0.30907275358E+03  0.31716833000E+03  0.00000000000E+00 0.  1.
         14    1    4    4    0    0  0.92269090909E+02  0.17658143509E+02  0.30721339063E+03  0.32125607006E+03  0.00000000000E+00 0. -1.
          5    1    3    3  501    0 -0.54230255901E+02  0.82234583567E+01  0.18292274886E+02  0.58010716621E+02  0.47000000000E+01 0. -1.
         -5    1    3    3    0  501 -0.19296627794E+03  0.14651867496E+03 -0.15369885557E+03  0.28696538944E+03  0.47000000000E+01 0. -1.
          1    1    1    2  502    0  0.65776940720E+02 -0.13278572836E+01 -0.82834701629E+03  0.83095556351E+03  0.00000000000E+00 0. -1.
          1    1    1    2  503    0  0.15936593130E+02 -0.38479746363E+02  0.67708966674E+03  0.67836942936E+03  0.00000000000E+00 0. -1.
<mgrwt>
<rscale>  0 0.52353789E+02</rscale>
<asrwt>0</asrwt>
<pdfrwt beam="1">  1        2 0.26745821E+00 0.41649320E+02</pdfrwt>
<pdfrwt beam="2">  1        2 0.16035288E+00 0.65809458E+02</pdfrwt>
<totfact> 0.50838360E+01</totfact>
</mgrwt>
</event>
<event>
13    1  0.3019759E-008  0.2831426E+03  0.7546771E-02  0.1281293E+00
          2   -1    0    0  502    0  0.00000000000E+00  0.00000000000E+00  0.73086411292E+03  0.73086411292E+03  0.00000000000E+00 0. -1.
          2   -1    0    0  503    0 -0.00000000000E+00 -0.00000000000E+00 -0.21971421952E+04  0.21971421952E+04  0.00000000000E+00 0. -1.
         25    2    1    2    0    0 -0.28199205776E+02  0.69873630672E+01 -0.88974731943E+03  0.89895635800E+03  0.12501289015E+03 0.  0.
         24    2    1    2    0    0 -0.13814017769E+03  0.64735062786E+02 -0.10131789019E+03  0.19978200673E+03  0.79838576498E+02 0.  0.
         24    2    1    2    0    0 -0.86929451704E+02 -0.21778181164E+03 -0.26714626489E+03  0.36434983483E+03  0.79987675543E+02 0.  0.
        -11    1    5    5    0    0 -0.19635570820E+02 -0.15243649765E+03 -0.17394492348E+03  0.23211910275E+03  0.00000000000E+00 0.  1.
         12    1    5    5    0    0 -0.67293880883E+02 -0.65345313993E+02 -0.93201341409E+02  0.13223073208E+03  0.00000000000E+00 0. -1.
        -13    1    4    4    0    0 -0.10249409843E+03  0.81581999695E+02 -0.89386834343E+02  0.15858962463E+03  0.00000000000E+00 0.  1.
         14    1    4    4    0    0 -0.35646079258E+02 -0.16846936908E+02 -0.11931055843E+02  0.41192382101E+02  0.00000000000E+00 0. -1.
          5    1    3    3  501    0  0.14403714822E+01 -0.53512131448E+02 -0.25338549820E+03  0.25902108714E+03  0.47000000000E+01 0. -1.
         -5    1    3    3    0  501 -0.29639577258E+02  0.60499494515E+02 -0.63636182123E+03  0.63993527086E+03  0.47000000000E+01 0. -1.
          1    1    1    2  502    0  0.27169823953E+03  0.11632242260E+03  0.59327311156E+03  0.66281507547E+03  0.00000000000E+00 0. -1.
          1    1    1    2  503    0 -0.18429404366E+02  0.29736963194E+02 -0.80133971937E+03  0.80210303314E+03  0.00000000000E+00 0. -1.
<mgrwt>
<rscale>  0 0.99527200E+02</rscale>
<asrwt>0</asrwt>
<pdfrwt beam="1">  1        2 0.10748002E+00 0.28314265E+03</pdfrwt>
<pdfrwt beam="2">  1        2 0.32310914E+00 0.34984710E+02</pdfrwt>
<totfact> 0.54700645E+01</totfact>
</mgrwt>
</event>
<event>
13    1  0.3019759E-008  0.1297165E+03  0.7546771E-02  0.1409422E+00
          2   -1    0    0  503    0  0.00000000000E+00  0.00000000000E+00  0.98243624792E+03  0.98243624792E+03  0.00000000000E+00 0. -1.
          2   -1    0    0  502    0 -0.00000000000E+00 -0.00000000000E+00 -0.18337823788E+04  0.18337823788E+04  0.00000000000E+00 0. -1.
         25    2    1    2    0    0  0.24549241181E+02 -0.77863993250E+02 -0.58894235893E+03  0.60757145617E+03  0.12499802209E+03 0.  0.
         24    2    1    2    0    0 -0.11151145420E+03  0.12829277830E+03 -0.71121202458E+02  0.20117803599E+03  0.80749831855E+02 0.  0.
         24    2    1    2    0    0  0.13509424150E+02 -0.14581776221E+03  0.34057435758E+02  0.18487798346E+03  0.10758548005E+03 0.  0.
        -11    1    5    5    0    0 -0.25799638626E+02  0.33720289458E+01  0.13253462188E+02  0.29200106034E+02  0.00000000000E+00 0.  1.
         12    1    5    5    0    0  0.39309062776E+02 -0.14918979116E+03  0.20803973570E+02  0.15567787742E+03  0.00000000000E+00 0. -1.
        -11    1    4    4    0    0 -0.10562656880E+03  0.13968253548E+03 -0.63601268051E+02  0.18631506663E+03  0.00000000000E+00 0.  1.
         12    1    4    4    0    0 -0.58848854009E+01 -0.11389757181E+02 -0.75199344074E+01  0.14862969364E+02  0.00000000000E+00 0. -1.
          5    1    3    3  501    0  0.27964203375E+02  0.28440025016E+02 -0.21733083992E+03  0.22101044246E+03  0.47000000000E+01 0. -1.
         -5    1    3    3    0  501 -0.34149621940E+01 -0.10630401827E+03 -0.37161151900E+03  0.38656101371E+03  0.47000000000E+01 0. -1.
          1    1    1    2  502    0  0.14934059021E+02 -0.20461256240E+02 -0.10185337125E+04  0.10188486701E+04  0.00000000000E+00 0. -1.
          1    1    1    2  503    0  0.58518729850E+02  0.11585023340E+03  0.79319370731E+03  0.80374248092E+03  0.00000000000E+00 0. -1.
<mgrwt>
<rscale>  0 0.57322989E+02</rscale>
<asrwt>0</asrwt>
<pdfrwt beam="1">  1        2 0.14447592E+00 0.12971653E+03</pdfrwt>
<pdfrwt beam="2">  1        2 0.26967388E+00 0.25331584E+02</pdfrwt>
<totfact> 0.58712569E+01</totfact>
</mgrwt>
</event>
<event>
13    1  0.3019759E-008  0.3451757E+02  0.7546771E-02  0.1731190E+00
          2   -1    0    0  502    0  0.00000000000E+00  0.00000000000E+00  0.22278604187E+04  0.22278604187E+04  0.00000000000E+00 0. -1.
          2   -1    0    0  503    0 -0.00000000000E+00 -0.00000000000E+00 -0.29378033327E+03  0.29378033327E+03  0.00000000000E+00 0. -1.
         25    2    1    2    0    0  0.83030709069E+02  0.72538562665E+02 -0.22856581260E+03  0.28288252392E+03  0.12499699966E+03 0.  0.
         24    2    1    2    0    0 -0.17920892409E+02 -0.69156113763E+02  0.12393535774E+03  0.16304940538E+03  0.78239435325E+02 0.  0.
         24    2    1    2    0    0 -0.20756386383E+02 -0.17768538229E+02  0.14723374770E+04  0.14747842572E+04  0.80401558290E+02 0.  0.
        -13    1    4    4    0    0  0.14104370578E+02 -0.65142125650E+02  0.10834649747E+03  0.12720610566E+03  0.00000000000E+00 0.  1.
         14    1    4    4    0    0 -0.32025262987E+02 -0.40139881129E+01  0.15588860272E+02  0.35843299716E+02  0.00000000000E+00 0. -1.
        -13    1    5    5    0    0  0.87664348066E+01  0.15464684898E+02  0.90358276458E+02  0.92090308843E+02  0.00000000000E+00 0.  1.
         14    1    5    5    0    0 -0.29522821190E+02 -0.33233223127E+02  0.13819792005E+04  0.13826939483E+04  0.00000000000E+00 0. -1.
          5    1    3    3  501    0  0.88832550866E+02  0.30267092259E+01 -0.84409441080E+02  0.12266795346E+03  0.47000000000E+01 0. -1.
         -5    1    3    3    0  501 -0.58018417967E+01  0.69511853439E+02 -0.14415637152E+03  0.16021457046E+03  0.47000000000E+01 0. -1.
          1    1    1    2  502    0 -0.33473183498E+02  0.83352197945E+01  0.58082570441E+03  0.58184914609E+03  0.00000000000E+00 0. -1.
          1    1    1    2  503    0 -0.10880246778E+02  0.60508695329E+01 -0.14452641078E+02  0.19075419424E+02  0.00000000000E+00 0. -1.
<mgrwt>
<rscale>  0 0.20729936E+02</rscale>
<asrwt>0</asrwt>
<pdfrwt beam="1">  1        2 0.32762652E+00 0.34517565E+02</pdfrwt>
<pdfrwt beam="2">  1        2 0.43202991E-01 0.12449610E+02</pdfrwt>
<totfact> 0.14090782E+02</totfact>
</mgrwt>
</event>
<event>
13    1  0.3019759E-008  0.1349586E+03  0.7546771E-02  0.1317882E+00
          2   -1    0    0  503    0  0.00000000000E+00  0.00000000000E+00  0.67797029914E+03  0.67797029914E+03  0.00000000000E+00 0. -1.
          2   -1    0    0  502    0 -0.00000000000E+00 -0.00000000000E+00 -0.33156595608E+04  0.33156595608E+04  0.00000000000E+00 0. -1.
         25    2    1    2    0    0 -0.10673464166E+03  0.58005912433E+02 -0.39177241686E+03  0.42879647172E+03  0.12499527167E+03 0.  0.
         24    2    1    2    0    0  0.73033694371E+02 -0.11856559735E+03 -0.14535008165E+03  0.21782654410E+03  0.83246835904E+02 0.  0.
         24    2    1    2    0    0 -0.10671728337E+02 -0.17701862891E+02 -0.94675612597E+02  0.12641318396E+03  0.81176226343E+02 0.  0.
        -11    1    5    5    0    0 -0.25305713805E+02 -0.44963827937E+02 -0.48382924972E+02  0.70732117194E+02  0.00000000000E+00 0.  1.
         12    1    5    5    0    0  0.14633985468E+02  0.27261965046E+02 -0.46292687625E+02  0.55681066768E+02  0.00000000000E+00 0. -1.
        -11    1    4    4    0    0 -0.14503857629E+02 -0.42082981639E+02 -0.54023219064E+02  0.69998910190E+02  0.00000000000E+00 0.  1.
         12    1    4    4    0    0  0.87537551999E+02 -0.76482615710E+02 -0.91326862589E+02  0.14782763391E+03  0.00000000000E+00 0. -1.
          5    1    3    3  501    0 -0.68698072149E+02 -0.25697899087E+02 -0.10940364746E+03  0.13179929899E+03  0.47000000000E+01 0. -1.
         -5    1    3    3    0  501 -0.38036569512E+02  0.83703811521E+02 -0.28236876940E+03  0.29699717274E+03  0.47000000000E+01 0. -1.
          1    1    1    2  502    0 -0.47717592046E+02 -0.21578825451E+02 -0.26053820481E+04  0.26059083312E+04  0.00000000000E+00 0. -1.
          1    1    1    2  503    0  0.92090267673E+02  0.99840373257E+02  0.59949089747E+03  0.61468532899E+03  0.00000000000E+00 0. -1.
<mgrwt>
<rscale>  0 0.84070076E+02</rscale>
<asrwt>0</asrwt>
<pdfrwt beam="1">  1        2 0.99701514E-01 0.13495858E+03</pdfrwt>
<pdfrwt beam="2">  1        2 0.48759700E+00 0.52369975E+02</pdfrwt>
<totfact> 0.15913100E+01</totfact>
</mgrwt>
</event>
<event>
13    1  0.3019759E-008  0.1180506E+03  0.7546771E-02  0.1310239E+00
          2   -1    0    0  503    0  0.00000000000E+00  0.00000000000E+00  0.14021721499E+04  0.14021721499E+04  0.00000000000E+00 0. -1.
          2   -1    0    0  502    0 -0.00000000000E+00 -0.00000000000E+00 -0.58040243675E+03  0.58040243675E+03  0.00000000000E+00 0. -1.
         25    2    1    2    0    0 -0.46006011645E+02  0.23936674453E+03 -0.12846919010E+03  0.30255947362E+03  0.12499964313E+03 0.  0.
         24    2    1    2    0    0  0.25484751795E+02 -0.13557347920E+03  0.26352937556E+03  0.30820736252E+03  0.80711868349E+02 0.  0.
         24    2    1    2    0    0  0.47937689403E+02  0.19504258812E+02  0.28574909702E+03  0.30130064064E+03  0.80318686650E+02 0.  0.
        -11    1    5    5    0    0  0.30193126369E+02 -0.29078552013E+02  0.98712088201E+02  0.10724394353E+03  0.00000000000E+00 0.  1.
         12    1    5    5    0    0  0.17744563034E+02  0.48582810824E+02  0.18703700881E+03  0.19405669710E+03  0.00000000000E+00 0. -1.
        -13    1    4    4    0    0  0.50621912083E+02 -0.11739412812E+03  0.22452300628E+03  0.25836899901E+03  0.00000000000E+00 0.  1.
         14    1    4    4    0    0 -0.25137160288E+02 -0.18179351075E+02  0.39006369282E+02  0.49838363511E+02  0.00000000000E+00 0. -1.
          5    1    3    3  501    0 -0.61261621345E+02  0.10452303820E+03 -0.11327661141E+03  0.16592688889E+03  0.47000000000E+01 0. -1.
         -5    1    3    3    0  501  0.15255609701E+02  0.13484370633E+03 -0.15192578687E+02  0.13663258473E+03  0.47000000000E+01 0. -1.
          1    1    1    2  502    0 -0.59114474192E+02  0.24894308818E+02 -0.32379013108E+03  0.33008225741E+03  0.00000000000E+00 0. -1.
          1    1    1    2  503    0  0.31698044638E+02 -0.14819183296E+03  0.72475056179E+03  0.74042485250E+03  0.00000000000E+00 0. -1.
<mgrwt>
<rscale>  0 0.87017504E+02</rscale>
<asrwt>0</asrwt>
<pdfrwt beam="1">  1        2 0.20620179E+00 0.11805055E+03</pdfrwt>
<pdfrwt beam="2">  1        2 0.85353299E-01 0.64142402E+02</pdfrwt>
<totfact> 0.15653463E+02</totfact>
</mgrwt>
</event>
<event>
13    1  0.3019759E-008  0.1272183E+03  0.7546771E-02  0.1382768E+00
          2   -1    0    0  502    0  0.00000000000E+00  0.00000000000E+00  0.39560554676E+04  0.39560554676E+04  0.00000000000E+00 0. -1.
          2   -1    0    0  503    0 -0.00000000000E+00 -0.00000000000E+00 -0.20807006832E+04  0.20807006832E+04  0.00000000000E+00 0. -1.
         25    2    1    2    0    0 -0.46643213428E+03  0.22368423029E+03 -0.84740649941E+02  0.53888698199E+03  0.12499852334E+03 0.  0.
         24    2    1    2    0    0  0.12152072008E+04 -0.26362141380E+03  0.49354381190E+03  0.13392573056E+04  0.61642887058E+02 0.  0.
         24    2    1    2    0    0 -0.62608483574E+03  0.12550802619E+03  0.90405402346E+03  0.11096892093E+04  0.79762007101E+02 0.  0.
        -11    1    4    4    0    0  0.40635120329E+03 -0.11137148391E+03  0.18690264161E+03  0.46093112857E+03  0.00000000000E+00 0.  1.
         12    1    4    4    0    0  0.80885599753E+03 -0.15224992989E+03  0.30664117029E+03  0.87832617701E+03  0.00000000000E+00 0. -1.
        -13    1    5    5    0    0 -0.40902637873E+03  0.52367962292E+02  0.62319147072E+03  0.74727009250E+03  0.00000000000E+00 0.  1.
         14    1    5    5    0    0 -0.21705845701E+03  0.73140063898E+02  0.28086255274E+03  0.36241911682E+03  0.00000000000E+00 0. -1.
          5    1    3    3  501    0 -0.33975295200E+03  0.19218697989E+03 -0.11058778763E+03  0.40573347460E+03  0.47000000000E+01 0.  1.
         -5    1    3    3    0  501 -0.12667918228E+03  0.31497250395E+02  0.25847137688E+02  0.13315350739E+03  0.47000000000E+01 0.  1.
          1    1    1    2  502    0 -0.90926831807E+02 -0.88898724427E+02  0.18032655657E+04  0.18077437242E+04  0.00000000000E+00 0. -1.
          1    1    1    2  503    0 -0.31763398998E+02  0.33278817430E+01 -0.12407679668E+04  0.12411789297E+04  0.00000000000E+00 0. -1.
<mgrwt>
<rscale>  0 0.63741700E+02</rscale>
<asrwt>0</asrwt>
<pdfrwt beam="1">  1        2 0.58177286E+00 0.12721833E+03</pdfrwt>
<pdfrwt beam="2">  1        2 0.30598539E+00 0.31937256E+02</pdfrwt>
<totfact> 0.11212178E+00</totfact>
</mgrwt>
</event>
<event>
13    1  0.3019759E-008  0.8617100E+02  0.7546771E-02  0.1321430E+00
          2   -1    0    0  502    0  0.00000000000E+00  0.00000000000E+00  0.30976441514E+04  0.30976441514E+04  0.00000000000E+00 0. -1.
          2   -1    0    0  503    0 -0.00000000000E+00 -0.00000000000E+00 -0.15477299833E+04  0.15477299833E+04  0.00000000000E+00 0. -1.
         25    2    1    2    0    0  0.15102196516E+02 -0.23531291793E+03 -0.38075225180E+03  0.46497089813E+03  0.12500165268E+03 0.  0.
         24    2    1    2    0    0  0.21771966403E+02 -0.23532112524E+02  0.47300416695E+02  0.98077997596E+02  0.79713144161E+02 0.  0.
         24    2    1    2    0    0  0.95201277565E+02  0.15927150482E+03  0.57429543697E+03  0.60894551038E+03  0.81047456384E+02 0.  0.
        -13    1    5    5    0    0  0.38318048709E+01 -0.72734799020E+01  0.62405285042E+02  0.62944466315E+02  0.00000000000E+00 0.  1.
         14    1    5    5    0    0  0.91369472695E+02  0.16654498472E+03  0.51189015193E+03  0.54600104406E+03  0.00000000000E+00 0. -1.
        -13    1    4    4    0    0  0.62696030646E+01 -0.52532303690E+02  0.26534752691E+02  0.59186518346E+02  0.00000000000E+00 0.  1.
         14    1    4    4    0    0  0.15502363338E+02  0.29000191166E+02  0.20765664004E+02  0.38891479250E+02  0.00000000000E+00 0. -1.
          5    1    3    3  501    0 -0.45812323755E+02 -0.38447517651E+02 -0.10111336675E+03  0.11757118506E+03  0.47000000000E+01 0. -1.
         -5    1    3    3    0  501  0.60914520271E+02 -0.19686540028E+03 -0.27963888504E+03  0.34739971306E+03  0.47000000000E+01 0. -1.
          1    1    1    2  502    0 -0.65123011886E+02  0.45529475207E+02  0.23888531795E+04  0.23901743562E+04  0.00000000000E+00 0. -1.
          1    1    1    2  503    0 -0.66952428599E+02  0.54044050428E+02 -0.10797826132E+04  0.10832053724E+04  0.00000000000E+00 0. -1.
<mgrwt>
<rscale>  0 0.82747652E+02</rscale>
<asrwt>0</asrwt>
<pdfrwt beam="1">  1        2 0.45553590E+00 0.79460303E+02</pdfrwt>
<pdfrwt beam="2">  1        2 0.22760735E+00 0.86171002E+02</pdfrwt>
<totfact> 0.63632856E+00</totfact>
</mgrwt>
</event>
<event>
13    1  0.3019759E-008  0.8521821E+02  0.7546771E-02  0.1535486E+00
          2   -1    0    0  502    0  0.00000000000E+00  0.00000000000E+00  0.11443699203E+04  0.11443699203E+04  0.00000000000E+00 0. -1.
          2   -1    0    0  503    0 -0.00000000000E+00 -0.00000000000E+00 -0.56172059819E+03  0.56172059819E+03  0.00000000000E+00 0. -1.
         25    2    1    2    0    0 -0.19830545426E+02  0.53483300410E+02 -0.11065891759E+03  0.17642045698E+03  0.12500027057E+03 0.  0.
         24    2    1    2    0    0 -0.42805512841E+02  0.30092892830E+01  0.79328925730E+00  0.90092163695E+02  0.79212378451E+02 0.  0.
         24    2    1    2    0    0 -0.33140089681E+01  0.24771424371E+02  0.12772217318E+03  0.15174661056E+03  0.78035082981E+02 0.  0.
        -11    1    5    5    0    0 -0.33483885950E+02  0.20577505924E+01  0.23679796738E+02  0.41062607435E+02  0.00000000000E+00 0.  1.
         12    1    5    5    0    0  0.30169876982E+02  0.22713673779E+02  0.10404237644E+03  0.11068400313E+03  0.00000000000E+00 0. -1.
        -11    1    4    4    0    0  0.13592759063E+02 -0.14602921806E+02 -0.19227974271E+02  0.27707822339E+02  0.00000000000E+00 0.  1.
         12    1    4    4    0    0 -0.56398271904E+02  0.17612211089E+02  0.20021263528E+02  0.62384341356E+02  0.00000000000E+00 0. -1.
          5    1    3    3  501    0 -0.25825306470E+02 -0.17179087253E+02  0.12867270753E+02  0.33907582482E+02  0.47000000000E+01 0. -1.
         -5    1    3    3    0  501  0.59947610445E+01  0.70662387663E+02 -0.12352618835E+03  0.14251287450E+03  0.47000000000E+01 0. -1.
          1    1    1    2  502    0  0.79969574535E+02 -0.74303839105E+02  0.92292446920E+03  0.92935771864E+03  0.00000000000E+00 0. -1.
          1    1    1    2  503    0 -0.14019507300E+02 -0.69601749589E+01 -0.35813169193E+03  0.35847356860E+03  0.00000000000E+00 0. -1.
<mgrwt>
<rscale>  0 0.36521918E+02</rscale>
<asrwt>0</asrwt>
<pdfrwt beam="1">  1        2 0.16828970E+00 0.85218212E+02</pdfrwt>
<pdfrwt beam="2">  1        2 0.82605970E-01 0.15652176E+02</pdfrwt>
<totfact> 0.22965787E+02</totfact>
</mgrwt>
</event>
<event>
13    1  0.3019759E-008  0.1170608E+03  0.7546771E-02  0.1322832E+00
         -3   -1    0    0    0  502 -0.00000000000E+00  0.00000000000E+00  0.69982489897E+03  0.69982489897E+03  0.00000000000E+00 0.  1.
         -1   -1    0    0    0  501  0.00000000000E+00 -0.00000000000E+00 -0.94825653553E+03  0.94825653553E+03  0.00000000000E+00 0.  1.
         25    2    1    2    0    0 -0.26322863030E+02 -0.14964636448E+03  0.19325456741E+03  0.27578960296E+03  0.12500259899E+03 0.  0.
         24    2    1    2    0    0  0.28193313831E+02  0.40602138943E+03  0.68567842607E+02  0.42169279871E+03  0.86458289488E+02 0.  0.
         24    2    1    2    0    0  0.74321037404E+02 -0.14623963565E+03 -0.10421176444E+03  0.20977747059E+03  0.78973715151E+02 0.  0.
        -11    1    4    4    0    0  0.48437858841E+02  0.34986396537E+03  0.39827683562E+02  0.35543953749E+03  0.00000000000E+00 0.  1.
         12    1    4    4    0    0 -0.20244545010E+02  0.56157424057E+02  0.28740159045E+02  0.66253261213E+02  0.00000000000E+00 0. -1.
        -13    1    5    5    0    0  0.55199992046E+02 -0.77048566798E+02 -0.10013285221E+03  0.13787715133E+03  0.00000000000E+00 0.  1.
         14    1    5    5    0    0  0.19121045358E+02 -0.69191068855E+02 -0.40789122251E+01  0.71900319261E+02  0.00000000000E+00 0. -1.
          5    1    3    3  503    0 -0.18666228862E+02  0.44317703644E+01  0.85011511284E+02  0.87276089161E+02  0.47000000000E+01 0.  1.
         -5    1    3    3    0  503 -0.76566341683E+01 -0.15407813485E+03  0.10824305612E+03  0.18851351380E+03  0.47000000000E+01 0.  1.
         -2    1    1    2    0  501 -0.10150897143E+03 -0.58211861423E+02 -0.56223801055E+03  0.57428588055E+03  0.00000000000E+00 0.  1.
         -4    1    1    2    0  502  0.25317483222E+02 -0.51923527872E+02  0.15619572841E+03  0.16653568170E+03  0.00000000000E+00 0.  1.
<mgrwt>
<rscale>  0 0.82232926E+02</rscale>
<asrwt>0</asrwt>
<pdfrwt beam="2">  1       -1 0.13944949E+00 0.11706083E+03</pdfrwt>
<pdfrwt beam="1">  1       -3 0.10291543E+00 0.57767012E+02</pdfrwt>
<totfact> 0.18307163E+00</totfact>
</mgrwt>
</event>
<event>
13    1  0.3873189E-008  0.7795963E+02  0.7546771E-02  0.1459079E+00
          2   -1    0    0  502    0  0.00000000000E+00  0.00000000000E+00  0.28953436922E+04  0.28953436922E+04  0.00000000000E+00 0. -1.
          4   -1    0    0  503    0 -0.00000000000E+00 -0.00000000000E+00 -0.19533795187E+04  0.19533795187E+04  0.00000000000E+00 0. -1.
         25    2    1    2    0    0  0.23082343795E+03 -0.20543443410E+03 -0.46481049181E+03  0.57197405784E+03  0.12499105297E+03 0.  0.
         24    2    1    2    0    0 -0.92458747322E+03  0.12756797218E+03  0.17618477095E+03  0.95131558604E+03  0.53147789853E+02 0.  0.
         24    2    1    2    0    0  0.75630609128E+03  0.14042662893E+03  0.19390256417E+03  0.79728319336E+03  0.79647625314E+02 0.  0.
        -11    1    4    4    0    0 -0.26440458069E+03  0.51419599886E+02  0.70219193738E+02  0.27836036484E+03  0.00000000000E+00 0.  1.
         12    1    4    4    0    0 -0.66018289253E+03  0.76148372298E+02  0.10596557721E+03  0.67295522120E+03  0.00000000000E+00 0. -1.
        -11    1    5    5    0    0  0.49609180607E+03  0.11933703217E+03  0.15545919039E+03  0.53340038167E+03  0.00000000000E+00 0.  1.
         12    1    5    5    0    0  0.26021428521E+03  0.21089596758E+02  0.38443373778E+02  0.26388281169E+03  0.00000000000E+00 0. -1.
          5    1    3    3  501    0  0.21541050942E+03 -0.14016128501E+03 -0.41556977196E+03  0.48863810611E+03  0.47000000000E+01 0.  1.
         -5    1    3    3    0  501  0.15412928534E+02 -0.65273149093E+02 -0.49240719853E+02  0.83335951726E+02  0.47000000000E+01 0.  1.
          1    1    1    2  502    0  0.73481750591E+01 -0.28043561966E+02  0.17802635763E+04  0.17804996035E+04  0.00000000000E+00 0. -1.
          3    1    1    2  503    0 -0.69890231065E+02 -0.34516605041E+02 -0.74357624610E+03  0.74765077021E+03  0.00000000000E+00 0. -1.
<mgrwt>
<rscale>  0 0.47540219E+02</rscale>
<asrwt>0</asrwt>
<pdfrwt beam="1">  1        2 0.42578584E+00 0.28990292E+02</pdfrwt>
<pdfrwt beam="2">  1        4 0.28726169E+00 0.77959629E+02</pdfrwt>
<totfact> 0.98860906E-02</totfact>
</mgrwt>
</event>
<event>
13    1  0.3019759E-008  0.1198058E+03  0.7546771E-02  0.1307788E+00
          2   -1    0    0  503    0  0.00000000000E+00  0.00000000000E+00  0.65014201838E+03  0.65014201838E+03  0.00000000000E+00 0. -1.
          2   -1    0    0  502    0 -0.00000000000E+00 -0.00000000000E+00 -0.18123639161E+04  0.18123639161E+04  0.00000000000E+00 0. -1.
         25    2    1    2    0    0 -0.16195530511E+03 -0.31805205242E+02 -0.62491657771E+03  0.65832210862E+03  0.12500471058E+03 0.  0.
         24    2    1    2    0    0  0.44711272959E+02 -0.10777408810E+03 -0.26211361987E+03  0.29774317661E+03  0.79580760869E+02 0.  0.
         24    2    1    2    0    0  0.43987155103E+02  0.20703291577E+02  0.14006973513E+03  0.16885378824E+03  0.80799597817E+02 0.  0.
        -13    1    4    4    0    0  0.47568510540E+02 -0.18296121861E+02 -0.80765567107E+02  0.95501770142E+02  0.00000000000E+00 0.  1.
         14    1    4    4    0    0 -0.28572375810E+01 -0.89477966239E+02 -0.18134805276E+03  0.20224140647E+03  0.00000000000E+00 0. -1.
        -13    1    5    5    0    0  0.49555520568E+02 -0.19030198152E+02  0.66859834593E+02  0.85370577732E+02  0.00000000000E+00 0.  1.
         14    1    5    5    0    0 -0.55683654650E+01  0.39733489730E+02  0.73209900537E+02  0.83483210508E+02  0.00000000000E+00 0. -1.
          5    1    3    3  501    0 -0.14577308264E+03  0.96526139663E+01 -0.56461932504E+03  0.58323240375E+03  0.47000000000E+01 0.  1.
         -5    1    3    3    0  501 -0.16182222469E+02 -0.41457819208E+02 -0.60297252674E+02  0.75089704871E+02  0.47000000000E+01 0.  1.
          1    1    1    2  502    0  0.64126933381E+02 -0.80176522172E+01 -0.86642354101E+03  0.86883042002E+03  0.00000000000E+00 0. -1.
          1    1    1    2  503    0  0.91299436667E+01  0.12689365398E+03  0.45116210575E+03  0.46875644098E+03  0.00000000000E+00 0. -1.
<mgrwt>
<rscale>  0 0.87992007E+02</rscale>
<asrwt>0</asrwt>
<pdfrwt beam="1">  1        2 0.95609121E-01 0.11980579E+03</pdfrwt>
<pdfrwt beam="2">  1        2 0.26652410E+00 0.64626205E+02</pdfrwt>
<totfact> 0.90455041E+01</totfact>
</mgrwt>
</event>
<event>
13    1  0.3019759E-008  0.1078255E+03  0.7546771E-02  0.1276428E+00
          2   -1    0    0  503    0  0.00000000000E+00  0.00000000000E+00  0.75749195045E+03  0.75749195045E+03  0.00000000000E+00 0. -1.
         -1   -1    0    0    0  501 -0.00000000000E+00 -0.00000000000E+00 -0.10525107372E+04  0.10525107372E+04  0.00000000000E+00 0.  1.
         25    2    1    2    0    0 -0.53291833146E+02 -0.64407688207E+02 -0.24156177778E+03  0.28454489179E+03  0.12500133270E+03 0.  0.
         24    2    1    2    0    0  0.23773120056E+03  0.78709154513E+02 -0.32969648651E+03  0.42180363704E+03  0.80667715204E+02 0.  0.
         24    2    1    2    0    0 -0.14621072122E+03  0.42146588424E+02  0.25646563856E+02  0.17369130671E+03  0.79730884076E+02 0.  0.
        -11    1    5    5    0    0 -0.14393468967E+03  0.24641433304E+02  0.39471696719E+02  0.15126932923E+03  0.00000000000E+00 0.  1.
         12    1    5    5    0    0 -0.22760315484E+01  0.17505155119E+02 -0.13825132863E+02  0.22421977478E+02  0.00000000000E+00 0. -1.
        -11    1    4    4    0    0  0.11816292173E+03  0.64774493209E+02 -0.12216035174E+03  0.18188282651E+03  0.00000000000E+00 0.  1.
         12    1    4    4    0    0  0.11956827883E+03  0.13934661304E+02 -0.20753613477E+03  0.23992081052E+03  0.00000000000E+00 0. -1.
          5    1    3    3  502    0 -0.60308570043E+02 -0.13664895923E+02 -0.34042267713E+02  0.70744745333E+02  0.47000000000E+01 0.  1.
         -5    1    3    3    0  502  0.70167368973E+01 -0.50742792284E+02 -0.20751951007E+03  0.21380014645E+03  0.47000000000E+01 0.  1.
          1    1    1    2  503    0 -0.84994316613E+02  0.45121479554E+02  0.57698172031E+03  0.58495118373E+03  0.00000000000E+00 0. -1.
         -2    1    1    2    0  501  0.46765670416E+02 -0.10156953428E+03 -0.32638880661E+03  0.34501166836E+03  0.00000000000E+00 0.  1.
<mgrwt>
<rscale>  0 0.10186227E+03</rscale>
<asrwt>0</asrwt>
<pdfrwt beam="1">  1        2 0.11139588E+00 0.96228799E+02</pdfrwt>
<pdfrwt beam="2">  1       -1 0.15478099E+00 0.10782553E+03</pdfrwt>
<totfact> 0.17782101E+01</totfact>
</mgrwt>
</event>
<event>
13    1  0.3019759E-008  0.1314359E+03  0.7546771E-02  0.1249763E+00
          2   -1    0    0  503    0  0.00000000000E+00  0.00000000000E+00  0.12376918690E+04  0.12376918690E+04  0.00000000000E+00 0. -1.
          2   -1    0    0  502    0 -0.00000000000E+00 -0.00000000000E+00 -0.33564512074E+04  0.33564512074E+04  0.00000000000E+00 0. -1.
         25    2    1    2    0    0  0.12991482717E+03 -0.10169687986E+03 -0.11831218706E+04  0.12010933842E+04  0.12501135705E+03 0.  0.
         24    2    1    2    0    0  0.40432554069E+02 -0.71385329992E+02 -0.21097251844E+03  0.24077469429E+03  0.82051161516E+02 0.  0.
         24    2    1    2    0    0 -0.71078550457E+02  0.66495926488E+02 -0.10393599267E+01  0.11248543212E+03  0.56373962044E+02 0.  0.
        -11    1    5    5    0    0 -0.70566802296E+02  0.68236270118E+02  0.12383586376E+02  0.98940463701E+02  0.00000000000E+00 0.  1.
         12    1    5    5    0    0 -0.51174816152E+00 -0.17403436305E+01 -0.13422946303E+02  0.13544968423E+02  0.00000000000E+00 0. -1.
        -13    1    4    4    0    0 -0.17046999576E+02  0.11305428757E+00 -0.97787919183E+01  0.19652932280E+02  0.00000000000E+00 0.  1.
         14    1    4    4    0    0  0.57479553646E+02 -0.71498384280E+02 -0.20119372652E+03  0.22112176201E+03  0.00000000000E+00 0. -1.
          5    1    3    3  501    0  0.12438629688E+03 -0.23309877405E+02 -0.80073486185E+03  0.81068718395E+03  0.47000000000E+01 0.  1.
         -5    1    3    3    0  501  0.55285302910E+01 -0.78387002453E+02 -0.38238700871E+03  0.39040620029E+03  0.47000000000E+01 0.  1.
          1    1    1    2  502    0 -0.99378568433E+02 -0.24942587520E+02 -0.18765709213E+04  0.18793660249E+04  0.00000000000E+00 0. -1.
          1    1    1    2  503    0  0.10973764679E+00  0.13152887088E+03  0.11529453319E+04  0.11604235409E+04  0.00000000000E+00 0. -1.
<mgrwt>
<rscale>  0 0.11604758E+03</rscale>
<asrwt>0</asrwt>
<pdfrwt beam="1">  1        2 0.18201351E+00 0.13143593E+03</pdfrwt>
<pdfrwt beam="2">  1        2 0.49359576E+00 0.10246088E+03</pdfrwt>
<totfact> 0.61113536E+00</totfact>
</mgrwt>
</event>
<event>
13    1  0.3019759E-008  0.1046958E+03  0.7546771E-02  0.1420829E+00
          2   -1    0    0  502    0  0.00000000000E+00  0.00000000000E+00  0.28834301564E+04  0.28834301564E+04  0.00000000000E+00 0. -1.
          2   -1    0    0  503    0 -0.00000000000E+00 -0.00000000000E+00 -0.36325504661E+04  0.36325504661E+04  0.00000000000E+00 0. -1.
         25    2    1    2    0    0  0.22814951828E+03  0.71107800209E+02 -0.69608328198E+03  0.74650036984E+03  0.12498937870E+03 0.  0.
         24    2    1    2    0    0 -0.17140590219E+03  0.51080672135E+02 -0.65315986586E+02  0.20643260757E+03  0.79743494987E+02 0.  0.
         24    2    1    2    0    0  0.18529105173E+02 -0.26088862944E+02  0.71201168398E+03  0.71718774203E+03  0.79835222108E+02 0.  0.
        -11    1    5    5    0    0 -0.43237914132E+01  0.21740184553E+02  0.40707501657E+03  0.40767805915E+03  0.00000000000E+00 0.  1.
         12    1    5    5    0    0  0.22852896586E+02 -0.47829047497E+02  0.30493666741E+03  0.30950968288E+03  0.00000000000E+00 0. -1.
        -13    1    4    4    0    0  0.82660162734E+01  0.45146972340E+01 -0.74638824432E+01  0.12017448035E+02  0.00000000000E+00 0.  1.
         14    1    4    4    0    0 -0.17967191846E+03  0.46565974901E+02 -0.57852104143E+02  0.19441515954E+03  0.00000000000E+00 0. -1.
          5    1    3    3  501    0  0.30294349354E+02  0.32045435426E+02 -0.28673777847E+03  0.29014703365E+03  0.47000000000E+01 0.  1.
         -5    1    3    3    0  501  0.19785516893E+03  0.39062364783E+02 -0.40934550351E+03  0.45635333619E+03  0.47000000000E+01 0.  1.
          1    1    1    2  502    0 -0.28602020319E+02 -0.27252787747E+01  0.20719814707E+04  0.20721806673E+04  0.00000000000E+00 0. -1.
          1    1    1    2  503    0 -0.46670700943E+02 -0.93374330626E+02 -0.27717141959E+04  0.27736792359E+04  0.00000000000E+00 0. -1.
<mgrwt>
<rscale>  0 0.54845911E+02</rscale>
<asrwt>0</asrwt>
<pdfrwt beam="1">  1        2 0.42403385E+00 0.28731563E+02</pdfrwt>
<pdfrwt beam="2">  1        2 0.53419860E+00 0.10469580E+03</pdfrwt>
<totfact> 0.79803482E-01</totfact>
</mgrwt>
</event>
<event>
13    1  0.3019759E-008  0.2098481E+02  0.7546771E-02  0.1787317E+00
         -1   -1    0    0    0  501 -0.00000000000E+00  0.00000000000E+00  0.42562505659E+03  0.42562505659E+03  0.00000000000E+00 0.  1.
          2   -1    0    0  503    0  0.00000000000E+00 -0.00000000000E+00 -0.10928364823E+04  0.10928364823E+04  0.00000000000E+00 0. -1.
         25    2    1    2    0    0 -0.96634225417E+00 -0.14881650208E+03 -0.56262661323E+02  0.20233078881E+03  0.12499990373E+03 0.  0.
         24    2    1    2    0    0  0.22606790046E+03  0.66625593686E+02  0.15135316078E+03  0.29120893359E+03  0.79681857225E+02 0.  0.
         24    2    1    2    0    0 -0.20556460314E+03  0.53046780702E+02 -0.12786408662E+03  0.26031494237E+03  0.79648462420E+02 0.  0.
        -13    1    4    4    0    0  0.22119639037E+03  0.53735860949E+02  0.12081211152E+03  0.25770322496E+03  0.00000000000E+00 0.  1.
         14    1    4    4    0    0  0.48715100877E+01  0.12889732737E+02  0.30541049263E+02  0.33505708628E+02  0.00000000000E+00 0. -1.
        -13    1    5    5    0    0 -0.17414193670E+03  0.69589556487E+02 -0.88707532496E+02  0.20745396312E+03  0.00000000000E+00 0.  1.
         14    1    5    5    0    0 -0.31422666438E+02 -0.16542775785E+02 -0.39156554125E+02  0.52860979254E+02  0.00000000000E+00 0. -1.
          5    1    3    3  502    0  0.35526493118E+02 -0.57179104437E+02 -0.75993955633E+02  0.10163047274E+03  0.47000000000E+01 0. -1.
         -5    1    3    3    0  502 -0.36492835372E+02 -0.91637397641E+02  0.19731294310E+02  0.10070031606E+03  0.47000000000E+01 0. -1.
          1    1    1    2  503    0 -0.12241043639E+02  0.95285403779E+01 -0.69775148324E+03  0.69792389885E+03  0.00000000000E+00 0. -1.
         -2    1    1    2    0  501 -0.72959114233E+01  0.19615587312E+02  0.63313644683E+02  0.66682975279E+02  0.00000000000E+00 0.  1.
<mgrwt>
<rscale>  0 0.18042335E+02</rscale>
<asrwt>0</asrwt>
<pdfrwt beam="2">  1        2 0.16071124E+00 0.15512454E+02</pdfrwt>
<pdfrwt beam="1">  1       -1 0.62591921E-01 0.20984806E+02</pdfrwt>
<totfact> 0.92784418E+01</totfact>
</mgrwt>
</event>
<event>
13    1  0.5994918E-008  0.1801384E+03  0.7546771E-02  0.1457372E+00
          2   -1    0    0  502    0  0.00000000000E+00  0.00000000000E+00  0.21264024223E+04  0.21264024223E+04  0.00000000000E+00 0. -1.
          2   -1    0    0  503    0 -0.00000000000E+00 -0.00000000000E+00 -0.39686831959E+04  0.39686831959E+04  0.00000000000E+00 0. -1.
         25    2    1    2    0    0  0.38048676896E+03 -0.14133408690E+03 -0.97501164468E+03  0.10634931728E+04  0.12499806328E+03 0.  0.
         24    2    1    2    0    0  0.94412915611E+03  0.99777529781E+03 -0.48856766703E+03  0.14601568718E+04  0.80151835626E+02 0.  0.
         24    2    1    2    0    0 -0.13994703455E+04 -0.67948549177E+03  0.47744957194E+03  0.16281700633E+04  0.52553589474E+02 0.  0.
        -13    1    5    5    0    0 -0.68091065409E+03 -0.33654143625E+03  0.20620168132E+03  0.78703150543E+03  0.00000000000E+00 0.  1.
         14    1    5    5    0    0 -0.71855969145E+03 -0.34294405551E+03  0.27124789061E+03  0.84113855788E+03  0.00000000000E+00 0. -1.
        -13    1    4    4    0    0  0.17257337147E+03  0.22230224038E+03 -0.11823479688E+03  0.30525288174E+03  0.00000000000E+00 0.  1.
         14    1    4    4    0    0  0.77155578464E+03  0.77547305743E+03 -0.37033287014E+03  0.11549039901E+04  0.00000000000E+00 0. -1.
          5    1    3    3  501    0  0.21169057261E+03 -0.13468230046E+03 -0.50262394959E+03  0.56178745562E+03  0.47000000000E+01 0. -1.
         -5    1    3    3    0  501  0.16879619636E+03 -0.66517864397E+01 -0.47238769509E+03  0.50170571717E+03  0.47000000000E+01 0. -1.
          1    1    1    2  502    0  0.73674501989E+02 -0.16430733655E+03  0.52861404965E+03  0.55844216046E+03  0.00000000000E+00 0. -1.
          1    1    1    2  503    0  0.11799184692E+01 -0.12648382593E+02 -0.13847650835E+04  0.13848233499E+04  0.00000000000E+00 0. -1.
<mgrwt>
<rscale>  0 0.47836717E+02</rscale>
<asrwt>0</asrwt>
<pdfrwt beam="1">  1        2 0.31270624E+00 0.18013837E+03</pdfrwt>
<pdfrwt beam="2">  1        2 0.58362987E+00 0.12703298E+02</pdfrwt>
<totfact> 0.14853681E+00</totfact>
</mgrwt>
</event>
<event>
13    1  0.3210701E-008  0.4207455E+02  0.7546771E-02  0.1717715E+00
         -1   -1    0    0    0  501 -0.00000000000E+00  0.00000000000E+00  0.19259230200E+04  0.19259230200E+04  0.00000000000E+00 0.  1.
          2   -1    0    0  503    0  0.00000000000E+00 -0.00000000000E+00 -0.26227958053E+04  0.26227958053E+04  0.00000000000E+00 0. -1.
         25    2    1    2    0    0 -0.25472763688E+02 -0.13602215335E+04  0.28169358343E+03  0.13949295009E+04  0.12500222259E+03 0.  0.
         24    2    1    2    0    0 -0.68678095903E+02  0.10884426178E+04 -0.59459003580E+03  0.12449416983E+04  0.83177571512E+02 0.  0.
         24    2    1    2    0    0  0.79075053279E+02  0.29943678940E+03 -0.57381988388E+03  0.65471069236E+03  0.58835165111E+02 0.  0.
        -11    1    4    4    0    0 -0.39565030113E+02  0.61044633290E+03 -0.38026983175E+03  0.72028831859E+03  0.00000000000E+00 0.  1.
         12    1    4    4    0    0 -0.29113065790E+02  0.47799628494E+03 -0.21432020404E+03  0.52465337974E+03  0.00000000000E+00 0. -1.
        -11    1    5    5    0    0  0.29971079032E+02  0.18465675059E+03 -0.38943849941E+03  0.43204019019E+03  0.00000000000E+00 0.  1.
         12    1    5    5    0    0  0.49103974247E+02  0.11478003881E+03 -0.18438138447E+03  0.22267050217E+03  0.00000000000E+00 0. -1.
          5    1    3    3  502    0  0.21703170529E+02 -0.39151743923E+03  0.13087589346E+03  0.41340963018E+03  0.47000000000E+01 0. -1.
         -5    1    3    3    0  502 -0.47175934217E+02 -0.96870409423E+03  0.15081768997E+03  0.98151987068E+03  0.47000000000E+01 0. -1.
          1    1    1    2  503    0  0.22927759327E+02 -0.35287482997E+02 -0.53127311871E+03  0.53293715883E+03  0.00000000000E+00 0. -1.
         -2    1    1    2    0  501 -0.78519530149E+01  0.76296092168E+01  0.72111666967E+03  0.72119977494E+03  0.00000000000E+00 0.  1.
<mgrwt>
<rscale>  0 0.21462586E+02</rscale>
<asrwt>0</asrwt>
<pdfrwt beam="2">  1        2 0.38570526E+00 0.42074555E+02</pdfrwt>
<pdfrwt beam="1">  1       -1 0.28322397E+00 0.10948247E+02</pdfrwt>
<totfact> 0.43758994E-01</totfact>
</mgrwt>
</event>
<event>
13    1  0.3019759E-008  0.6634094E+02  0.7546771E-02  0.1377729E+00
          2   -1    0    0  503    0  0.00000000000E+00  0.00000000000E+00  0.41852462201E+04  0.41852462201E+04  0.00000000000E+00 0. -1.
          2   -1    0    0  502    0 -0.00000000000E+00 -0.00000000000E+00 -0.14665356188E+04  0.14665356188E+04  0.00000000000E+00 0. -1.
         25    2    1    2    0    0 -0.88224897827E+02  0.40998923694E+02 -0.18811127189E+03  0.24590897558E+03  0.12498331614E+03 0.  0.
         24    2    1    2    0    0 -0.20117257509E+02 -0.58245838671E+02  0.53602463077E+02  0.11440839766E+03  0.80117261784E+02 0.  0.
         24    2    1    2    0    0  0.23532271115E+02 -0.55350574090E+02  0.16055553972E+04  0.16086466614E+04  0.79488955767E+02 0.  0.
        -13    1    5    5    0    0  0.32885171883E+02  0.86331747167E+01  0.44934572122E+03  0.45063016257E+03  0.00000000000E+00 0.  1.
         14    1    5    5    0    0 -0.93529007685E+01 -0.63983748807E+02  0.11562096760E+04  0.11580164989E+04  0.00000000000E+00 0. -1.
        -13    1    4    4    0    0  0.28613886781E+02 -0.27451914921E+02  0.37451103072E+02  0.54543077204E+02  0.00000000000E+00 0.  1.
         14    1    4    4    0    0 -0.48731144290E+02 -0.30793923750E+02  0.16151360005E+02  0.59865320460E+02  0.00000000000E+00 0. -1.
          5    1    3    3  501    0 -0.94481081787E+02  0.43596269922E+02 -0.65548290926E+02  0.12306899695E+03  0.47000000000E+01 0.  1.
         -5    1    3    3    0  501  0.62561839600E+01 -0.25973462280E+01 -0.12256298097E+03  0.12283997863E+03  0.47000000000E+01 0.  1.
          1    1    1    2  502    0  0.19593863994E+02  0.60730103817E+02 -0.12162947463E+04  0.12179675590E+04  0.00000000000E+00 0. -1.
          1    1    1    2  503    0  0.65216020227E+02  0.11867385251E+02  0.24639587592E+04  0.24648502451E+04  0.00000000000E+00 0. -1.
<mgrwt>
<rscale>  0 0.65064560E+02</rscale>
<asrwt>0</asrwt>
<pdfrwt beam="1">  1        2 0.61547738E+00 0.66340944E+02</pdfrwt>
<pdfrwt beam="2">  1        2 0.21566700E+00 0.63812734E+02</pdfrwt>
<totfact> 0.16183656E+00</totfact>
</mgrwt>
</event>
<event>
13    1  0.3019759E-008  0.1290707E+03  0.7546771E-02  0.1276349E+00
          2   -1    0    0  503    0  0.00000000000E+00  0.00000000000E+00  0.41895719815E+04  0.41895719815E+04  0.00000000000E+00 0. -1.
          2   -1    0    0  502    0 -0.00000000000E+00 -0.00000000000E+00 -0.26153033152E+04  0.26153033152E+04  0.00000000000E+00 0. -1.
         25    2    1    2    0    0  0.98328627063E+02  0.13176709006E+03 -0.13011312860E+04  0.13174207409E+04  0.12499480066E+03 0.  0.
         24    2    1    2    0    0 -0.29110522904E+02  0.14319790656E+02 -0.76174206932E+02  0.11292183337E+03  0.76787705409E+02 0.  0.
         24    2    1    2    0    0 -0.80323979258E+01 -0.39819605610E+02  0.17778366912E+03  0.19888789123E+03  0.79367750786E+02 0.  0.
        -13    1    5    5    0    0 -0.14247667125E+02 -0.54226454932E+02  0.17391293130E+03  0.18272715208E+03  0.00000000000E+00 0.  1.
         14    1    5    5    0    0  0.62152691996E+01  0.14406849323E+02  0.38707378175E+01  0.16160739150E+02  0.00000000000E+00 0. -1.
        -13    1    4    4    0    0 -0.31355887781E+02  0.34271138654E+02 -0.79976625126E+02  0.92487638146E+02  0.00000000000E+00 0.  1.
         14    1    4    4    0    0  0.22453648775E+01 -0.19951347999E+02  0.38024181937E+01  0.20434195226E+02  0.00000000000E+00 0. -1.
          5    1    3    3  501    0  0.20933355808E+02 -0.23175625605E+02 -0.14678047524E+03  0.15013964473E+03  0.47000000000E+01 0. -1.
         -5    1    3    3    0  501  0.77395271255E+02  0.15494271566E+03 -0.11543508108E+04  0.11672810962E+04  0.47000000000E+01 0. -1.
          1    1    1    2  502    0 -0.68715492927E+02  0.41838542061E+02 -0.11981945506E+04  0.12008923614E+04  0.00000000000E+00 0. -1.
          1    1    1    2  503    0  0.75297866929E+01 -0.14810581717E+03  0.39719850408E+04  0.39747524697E+04  0.00000000000E+00 0. -1.
<mgrwt>
<rscale>  0 0.10190096E+03</rscale>
<asrwt>0</asrwt>
<pdfrwt beam="1">  1        2 0.61611352E+00 0.12907074E+03</pdfrwt>
<pdfrwt beam="2">  1        2 0.38460343E+00 0.80450498E+02</pdfrwt>
<totfact> 0.38002217E-01</totfact>
</mgrwt>
</event>
<event>
13    1  0.3019759E-008  0.8779715E+02  0.7546771E-02  0.1335180E+00
          2   -1    0    0  502    0  0.00000000000E+00  0.00000000000E+00  0.46810011828E+03  0.46810011828E+03  0.00000000000E+00 0. -1.
          2   -1    0    0  503    0 -0.00000000000E+00 -0.00000000000E+00 -0.27773747217E+04  0.27773747217E+04  0.00000000000E+00 0. -1.
         25    2    1    2    0    0  0.94000491547E+02  0.52249605261E+02 -0.12326915846E+04  0.12436732147E+04  0.12501363418E+03 0.  0.
         24    2    1    2    0    0 -0.89230330847E+02 -0.55040052989E+01 -0.20989849632E+03  0.24551645502E+03  0.90711658085E+02 0.  0.
         24    2    1    2    0    0  0.14141154313E+02 -0.21372959052E+02 -0.84630980367E+02  0.12100257117E+03  0.82598085742E+02 0.  0.
        -11    1    5    5    0    0  0.39720688339E+02 -0.31343513552E+02 -0.77640512067E+02  0.92672531195E+02  0.00000000000E+00 0.  1.
         12    1    5    5    0    0 -0.25579534026E+02  0.99705545003E+01 -0.69904682996E+01  0.28330039977E+02  0.00000000000E+00 0. -1.
        -13    1    4    4    0    0 -0.99176928709E+02  0.15228258083E+02 -0.19100019382E+03  0.21575225856E+03  0.00000000000E+00 0.  1.
         14    1    4    4    0    0  0.99465978612E+01 -0.20732263382E+02 -0.18898302494E+02  0.29764196463E+02  0.00000000000E+00 0. -1.
          5    1    3    3  501    0  0.11746246058E+03  0.66614613393E+02 -0.10836203978E+04  0.10920119931E+04  0.47000000000E+01 0. -1.
         -5    1    3    3    0  501 -0.23461969034E+02 -0.14365008132E+02 -0.14907118671E+03  0.15166122167E+03  0.47000000000E+01 0. -1.
          1    1    1    2  502    0 -0.86978824050E+02 -0.13580487795E+02  0.42107171669E+03  0.43017570373E+03  0.00000000000E+00 0. -1.
          1    1    1    2  503    0  0.68067509037E+02 -0.11792153116E+02 -0.12031252589E+04  0.12051068954E+04  0.00000000000E+00 0. -1.
<mgrwt>
<rscale>  0 0.77879075E+02</rscale>
<asrwt>0</asrwt>
<pdfrwt beam="1">  1        2 0.68838256E-01 0.87797146E+02</pdfrwt>
<pdfrwt beam="2">  1        2 0.40843744E+00 0.69081406E+02</pdfrwt>
<totfact> 0.44286618E+01</totfact>
</mgrwt>
</event>
<event>
13    1  0.3019759E-008  0.5069318E+02  0.7546771E-02  0.1590838E+00
          2   -1    0    0  502    0  0.00000000000E+00  0.00000000000E+00  0.40461198790E+03  0.40461198790E+03  0.00000000000E+00 0. -1.
          2   -1    0    0  503    0 -0.00000000000E+00 -0.00000000000E+00 -0.15260446786E+04  0.15260446786E+04  0.00000000000E+00 0. -1.
         25    2    1    2    0    0  0.17144660435E+02 -0.15417682505E+02 -0.89697259804E+03  0.90593357041E+03  0.12499659216E+03 0.  0.
         24    2    1    2    0    0  0.20419434191E+02  0.70534447640E+02 -0.12616455067E+03  0.16585162865E+03  0.78722342969E+02 0.  0.
         24    2    1    2    0    0 -0.33164638777E+02  0.20867929592E+01  0.80235749176E+02  0.11883895642E+03  0.81121354442E+02 0.  0.
        -13    1    5    5    0    0 -0.19960555658E+02  0.22797717108E+02 -0.44834626388E+01  0.30631048378E+02  0.00000000000E+00 0.  1.
         14    1    5    5    0    0 -0.13204083118E+02 -0.20710924149E+02  0.84719211815E+02  0.88207908039E+02  0.00000000000E+00 0. -1.
        -13    1    4    4    0    0  0.28637869097E+02 -0.71570713656E+01 -0.33603725037E+02  0.44727637466E+02  0.00000000000E+00 0.  1.
         14    1    4    4    0    0 -0.82184349062E+01  0.77691519006E+02 -0.92560825630E+02  0.12112399118E+03  0.00000000000E+00 0. -1.
          5    1    3    3  501    0  0.67875537241E+02 -0.26063898994E+02 -0.60337782861E+03  0.60776089825E+03  0.47000000000E+01 0.  1.
         -5    1    3    3    0  501 -0.50730876805E+02  0.10646216489E+02 -0.29359476943E+03  0.29817267216E+03  0.47000000000E+01 0.  1.
          1    1    1    2  502    0 -0.19692936676E+02 -0.46703045345E+02  0.27827320009E+03  0.28285148062E+03  0.00000000000E+00 0. -1.
          1    1    1    2  503    0  0.15293480826E+02 -0.10500512749E+02 -0.45680449127E+03  0.45718103041E+03  0.00000000000E+00 0. -1.
<mgrwt>
<rscale>  0 0.30666352E+02</rscale>
<asrwt>0</asrwt>
<pdfrwt beam="1">  1        2 0.59501762E-01 0.50693177E+02</pdfrwt>
<pdfrwt beam="2">  1        2 0.22441834E+00 0.18551316E+02</pdfrwt>
<totfact> 0.23247181E+02</totfact>
</mgrwt>
</event>
<event>
13    1  0.3019759E-008  0.1318214E+03  0.7546771E-02  0.1274774E+00
          2   -1    0    0  502    0  0.00000000000E+00  0.00000000000E+00  0.27396558553E+04  0.27396558553E+04  0.00000000000E+00 0. -1.
          2   -1    0    0  503    0 -0.00000000000E+00 -0.00000000000E+00 -0.14951152573E+04  0.14951152573E+04  0.00000000000E+00 0. -1.
         25    2    1    2    0    0  0.60334067915E+02 -0.11771192938E+03 -0.31971531507E+03  0.36788599650E+03  0.12500370259E+03 0.  0.
         24    2    1    2    0    0 -0.63827495943E+02  0.14048739229E+03  0.32778083557E+03  0.37127558478E+03  0.81207309116E+02 0.  0.
         24    2    1    2    0    0  0.59663877841E+02 -0.15907572028E+02  0.27123130753E+03  0.28963685460E+03  0.80686158587E+02 0.  0.
        -11    1    4    4    0    0  0.13908584317E+02  0.39530014353E+01  0.12913470924E+02  0.19386404239E+02  0.00000000000E+00 0.  1.
         12    1    4    4    0    0 -0.77736080259E+02  0.13653439086E+03  0.31486736465E+03  0.35188918054E+03  0.00000000000E+00 0. -1.
        -11    1    5    5    0    0  0.74127654231E+02 -0.23865525552E+02  0.25443564424E+03  0.26608639479E+03  0.00000000000E+00 0.  1.
         12    1    5    5    0    0 -0.14463776389E+02  0.79579535243E+01  0.16795663294E+02  0.23550459809E+02  0.00000000000E+00 0. -1.
          5    1    3    3  501    0  0.12746336505E+02 -0.12694490351E+03 -0.18620000703E+03  0.22576538760E+03  0.47000000000E+01 0.  1.
         -5    1    3    3    0  501  0.47587731410E+02  0.92329741342E+01 -0.13351530804E+03  0.14212060890E+03  0.47000000000E+01 0.  1.
          1    1    1    2  502    0  0.67086896627E+02  0.43525750529E+02  0.20808807468E+04  0.20824168230E+04  0.00000000000E+00 0. -1.
          1    1    1    2  503    0 -0.12325734644E+03 -0.50393641415E+02 -0.11156369767E+04  0.11235558537E+04  0.00000000000E+00 0. -1.
<mgrwt>
<rscale>  0 0.10267284E+03</rscale>
<asrwt>0</asrwt>
<pdfrwt beam="1">  1        2 0.40289057E+00 0.79969636E+02</pdfrwt>
<pdfrwt beam="2">  1        2 0.21986989E+00 0.13182144E+03</pdfrwt>
<totfact> 0.10035982E+01</totfact>
</mgrwt>
</event>
<event>
13    1  0.3019759E-008  0.1064044E+03  0.7546771E-02  0.1275086E+00
          2   -1    0    0  503    0  0.00000000000E+00  0.00000000000E+00  0.23322265607E+04  0.23322265607E+04  0.00000000000E+00 0. -1.
         -1   -1    0    0    0  501 -0.00000000000E+00 -0.00000000000E+00 -0.72483144620E+03  0.72483144620E+03  0.00000000000E+00 0.  1.
         25    2    1    2    0    0  0.35288207004E+02  0.20291841562E+03  0.18716969123E+01  0.24094032541E+03  0.12501038440E+03 0.  0.
         24    2    1    2    0    0  0.25038674614E+02  0.54303758459E+02  0.53247696906E+01  0.99202315999E+02  0.78974128157E+02 0.  0.
         24    2    1    2    0    0 -0.34940405964E+02 -0.27402868061E+02  0.36070352305E+03  0.37234045579E+03  0.80985395776E+02 0.  0.
        -11    1    4    4    0    0 -0.16652038028E+02  0.43916104089E+02 -0.18018893597E+02  0.50305020578E+02  0.00000000000E+00 0.  1.
         12    1    4    4    0    0  0.41690712642E+02  0.10387654370E+02  0.23343663288E+02  0.48897295422E+02  0.00000000000E+00 0. -1.
        -13    1    5    5    0    0 -0.16647111337E+02 -0.50094024070E+02  0.30436695380E+03  0.30891063454E+03  0.00000000000E+00 0.  1.
         14    1    5    5    0    0 -0.18293294627E+02  0.22691156008E+02  0.56336569246E+02  0.63429821249E+02  0.00000000000E+00 0. -1.
          5    1    3    3  502    0 -0.38102002299E+02  0.88919111494E+02  0.31945812532E+02  0.10198527299E+03  0.47000000000E+01 0.  1.
         -5    1    3    3    0  502  0.73390209303E+02  0.11399930413E+03 -0.30074115620E+02  0.13895505242E+03  0.47000000000E+01 0.  1.
          1    1    1    2  503    0  0.26017573149E+02 -0.92466066031E+02  0.17809863612E+04  0.17835748671E+04  0.00000000000E+00 0. -1.
         -2    1    1    2    0  501 -0.51404048803E+02 -0.13735323999E+03 -0.54149123638E+03  0.56100004265E+03  0.00000000000E+00 0.  1.
<mgrwt>
<rscale>  0 0.10251916E+03</rscale>
<asrwt>0</asrwt>
<pdfrwt beam="1">  1        2 0.34297449E+00 0.10640440E+03</pdfrwt>
<pdfrwt beam="2">  1       -1 0.10659286E+00 0.98775794E+02</pdfrwt>
<totfact> 0.66179381E+00</totfact>
</mgrwt>
</event>
<event>
13    1  0.3019759E-008  0.9656769E+02  0.7546771E-02  0.1388604E+00
          2   -1    0    0  503    0  0.00000000000E+00  0.00000000000E+00  0.19745790631E+04  0.19745790631E+04  0.00000000000E+00 0. -1.
          2   -1    0    0  502    0 -0.00000000000E+00 -0.00000000000E+00 -0.13829815392E+04  0.13829815392E+04  0.00000000000E+00 0. -1.
         25    2    1    2    0    0  0.54359465450E+02  0.26560690386E+03 -0.80073660733E+03  0.85457961956E+03  0.12500093194E+03 0.  0.
         24    2    1    2    0    0 -0.12802273434E+02 -0.32200831942E+03  0.47003472184E+03  0.57460406438E+03  0.73375302996E+02 0.  0.
         24    2    1    2    0    0  0.77277862541E+02  0.54907834885E+02 -0.15834495852E+00  0.12229322807E+03  0.77258463541E+02 0.  0.
        -11    1    5    5    0    0  0.45936356519E+02 -0.86972558435E+01 -0.16406831663E+02  0.49547706654E+02  0.00000000000E+00 0.  1.
         12    1    5    5    0    0  0.31341506022E+02  0.63605090728E+02  0.16248486705E+02  0.72745521419E+02  0.00000000000E+00 0. -1.
        -13    1    4    4    0    0  0.21016405501E+02 -0.49091054710E+02  0.54423704831E+02  0.76246708783E+02  0.00000000000E+00 0.  1.
         14    1    4    4    0    0 -0.33818678935E+02 -0.27291726471E+03  0.41561101701E+03  0.49835735560E+03  0.00000000000E+00 0. -1.
          5    1    3    3  501    0  0.32387135490E+02  0.18027678098E+02 -0.21576086388E+03  0.21897206238E+03  0.47000000000E+01 0. -1.
         -5    1    3    3    0  501  0.21972329960E+02  0.24757922576E+03 -0.58497574345E+03  0.63560755717E+03  0.47000000000E+01 0. -1.
          1    1    1    2  502    0 -0.26614732644E+02  0.30040682401E+02 -0.43918903339E+03  0.44101904000E+03  0.00000000000E+00 0. -1.
          1    1    1    2  503    0 -0.92220321914E+02 -0.28547101723E+02  0.13616467878E+04  0.13650646503E+04  0.00000000000E+00 0. -1.
<mgrwt>
<rscale>  0 0.62255170E+02</rscale>
<asrwt>0</asrwt>
<pdfrwt beam="1">  1        2 0.29037927E+00 0.96567689E+02</pdfrwt>
<pdfrwt beam="2">  1        2 0.20337964E+00 0.40134606E+02</pdfrwt>
<totfact> 0.28874678E+01</totfact>
</mgrwt>
</event>
<event>
13    1  0.3019759E-008  0.1005236E+03  0.7546771E-02  0.1515982E+00
          2   -1    0    0  503    0  0.00000000000E+00  0.00000000000E+00  0.11925028538E+04  0.11925028538E+04  0.00000000000E+00 0. -1.
         -1   -1    0    0    0  501 -0.00000000000E+00 -0.00000000000E+00 -0.29403590781E+03  0.29403590781E+03  0.00000000000E+00 0.  1.
         25    2    1    2    0    0 -0.48900603446E+02  0.11844891020E+03 -0.11937961826E+02  0.17941167242E+03  0.12499847967E+03 0.  0.
         24    2    1    2    0    0  0.27598824112E+02 -0.25911436233E+03  0.36854921792E+03  0.45846431565E+03  0.80368245221E+02 0.  0.
         24    2    1    2    0    0  0.93541968775E+02  0.18716789763E+03  0.19390827244E+03  0.29661370094E+03  0.81224058251E+02 0.  0.
        -11    1    5    5    0    0  0.23404658857E+02  0.13347283297E+03  0.10657100775E+03  0.17239534475E+03  0.00000000000E+00 0.  1.
         12    1    5    5    0    0  0.70137309919E+02  0.53695064655E+02  0.87337264694E+02  0.12421835619E+03  0.00000000000E+00 0. -1.
        -13    1    4    4    0    0  0.33828918518E+02 -0.41261169364E+02  0.92077412149E+02  0.10641959243E+03  0.00000000000E+00 0.  1.
         14    1    4    4    0    0 -0.62300944055E+01 -0.21785319296E+03  0.27647180577E+03  0.35204472322E+03  0.00000000000E+00 0. -1.
          5    1    3    3  502    0  0.37090826636E+02  0.17621828177E+02  0.15245400094E+02  0.44054176566E+02  0.47000000000E+01 0.  1.
         -5    1    3    3    0  502 -0.85991430082E+02  0.10082708203E+03 -0.27183361921E+02  0.13535749585E+03  0.47000000000E+01 0.  1.
          1    1    1    2  503    0 -0.85671075661E+02 -0.53408308772E+02  0.44373694897E+03  0.45507632385E+03  0.00000000000E+00 0. -1.
         -2    1    1    2    0  501  0.13430886219E+02  0.69058632642E+01 -0.95789531520E+02  0.96972748754E+02  0.00000000000E+00 0.  1.
<mgrwt>
<rscale>  0 0.38963296E+02</rscale>
<asrwt>0</asrwt>
<pdfrwt beam="1">  1        2 0.17536807E+00 0.10052361E+03</pdfrwt>
<pdfrwt beam="2">  1       -1 0.43240575E-01 0.15102306E+02</pdfrwt>
<totfact> 0.13912738E+02</totfact>
</mgrwt>
</event>
<event>
13    1  0.3019759E-008  0.8375982E+02  0.7546771E-02  0.1364862E+00
          2   -1    0    0  502    0  0.00000000000E+00  0.00000000000E+00  0.20509575444E+04  0.20509575444E+04  0.00000000000E+00 0. -1.
          2   -1    0    0  503    0 -0.00000000000E+00 -0.00000000000E+00 -0.31194065583E+04  0.31194065583E+04  0.00000000000E+00 0. -1.
         25    2    1    2    0    0  0.23875001243E+03 -0.82665988288E+02 -0.38464465098E+03  0.47688203400E+03  0.12501892963E+03 0.  0.
         24    2    1    2    0    0 -0.15461754564E+03  0.55794589702E+02  0.87066837443E+03  0.89069993637E+03  0.90902897466E+02 0.  0.
         24    2    1    2    0    0  0.50878132132E+02  0.10227776073E+02  0.34198735851E+03  0.35482650838E+03  0.79077847353E+02 0.  0.
        -11    1    5    5    0    0  0.35131338061E+02  0.42562276976E+02  0.15811245842E+03  0.16746733366E+03  0.00000000000E+00 0.  1.
         12    1    5    5    0    0  0.15746794071E+02 -0.32334500903E+02  0.18387490009E+03  0.18735917473E+03  0.00000000000E+00 0. -1.
        -13    1    4    4    0    0  0.11682428172E+02  0.43041757975E+00  0.36889517629E+02  0.38697556747E+02  0.00000000000E+00 0.  1.
         14    1    4    4    0    0 -0.16629997382E+03  0.55364172122E+02  0.83377885680E+03  0.85200237963E+03  0.00000000000E+00 0. -1.
          5    1    3    3  501    0  0.22127882049E+03 -0.26551946899E+02 -0.30654026682E+03  0.37902288515E+03  0.47000000000E+01 0.  1.
         -5    1    3    3    0  501  0.17471191938E+02 -0.56114041389E+02 -0.78104384160E+02  0.97859148850E+02  0.47000000000E+01 0.  1.
          1    1    1    2  502    0 -0.51485562681E+02  0.22558717800E+02  0.77407243181E+03  0.77611068064E+03  0.00000000000E+00 0. -1.
          1    1    1    2  503    0 -0.83525036236E+02 -0.59150952871E+01 -0.26705325277E+04  0.26718449433E+04  0.00000000000E+00 0. -1.
<mgrwt>
<rscale>  0 0.68616398E+02</rscale>
<asrwt>0</asrwt>
<pdfrwt beam="1">  1        2 0.30161141E+00 0.56210843E+02</pdfrwt>
<pdfrwt beam="2">  1        2 0.45873626E+00 0.83759818E+02</pdfrwt>
<totfact> 0.36904147E+00</totfact>
</mgrwt>
</event>
<event>
13    1  0.3019759E-008  0.1363972E+03  0.7546771E-02  0.1388944E+00
          2   -1    0    0  502    0  0.00000000000E+00  0.00000000000E+00  0.18598292532E+04  0.18598292532E+04  0.00000000000E+00 0. -1.
          2   -1    0    0  503    0 -0.00000000000E+00 -0.00000000000E+00 -0.27993524468E+04  0.27993524468E+04  0.00000000000E+00 0. -1.
         25    2    1    2    0    0 -0.36799232054E+03  0.33543339297E+03 -0.67597325209E+03  0.84882229537E+03  0.12500216988E+03 0.  0.
         24    2    1    2    0    0  0.97423806289E+03  0.40297145078E+03 -0.39834596299E+03  0.11295940406E+04  0.76009190309E+02 0.  0.
         24    2    1    2    0    0 -0.71963603712E+03 -0.80861215223E+03  0.49510371701E+03  0.11929699173E+04  0.79497763680E+02 0.  0.
        -11    1    4    4    0    0  0.73097882696E+03  0.27115286521E+03 -0.31191975602E+03  0.83973082352E+03  0.00000000000E+00 0.  1.
         12    1    4    4    0    0  0.24325923593E+03  0.13181858557E+03 -0.86426206968E+02  0.28986321708E+03  0.00000000000E+00 0. -1.
        -13    1    5    5    0    0 -0.54858267676E+03 -0.57730311115E+03  0.38934997598E+03  0.88646220404E+03  0.00000000000E+00 0.  1.
         14    1    5    5    0    0 -0.17105336036E+03 -0.23130904108E+03  0.10575374103E+03  0.30650771331E+03  0.00000000000E+00 0. -1.
          5    1    3    3  501    0 -0.16126354730E+03  0.11701685645E+03 -0.36701911152E+03  0.41764098769E+03  0.47000000000E+01 0. -1.
         -5    1    3    3    0  501 -0.20672877324E+03  0.21841653652E+03 -0.30895414057E+03  0.43118130767E+03  0.47000000000E+01 0. -1.
          1    1    1    2  502    0  0.98542660278E+02  0.94343247042E+02  0.55526801813E+03  0.57178131844E+03  0.00000000000E+00 0. -1.
          1    1    1    2  503    0  0.14847634497E+02 -0.24135938554E+02 -0.91557571360E+03  0.91601412823E+03  0.00000000000E+00 0. -1.
<mgrwt>
<rscale>  0 0.62170015E+02</rscale>
<asrwt>0</asrwt>
<pdfrwt beam="1">  1        2 0.27350430E+00 0.13639715E+03</pdfrwt>
<pdfrwt beam="2">  1        2 0.41166948E+00 0.28337180E+02</pdfrwt>
<totfact> 0.72775365E+00</totfact>
</mgrwt>
</event>
<event>
13    1  0.3019759E-008  0.4445857E+02  0.7546771E-02  0.1508579E+00
          2   -1    0    0  502    0  0.00000000000E+00  0.00000000000E+00  0.27465849789E+04  0.27465849789E+04  0.00000000000E+00 0. -1.
          2   -1    0    0  503    0 -0.00000000000E+00 -0.00000000000E+00 -0.40029447139E+04  0.40029447139E+04  0.00000000000E+00 0. -1.
         25    2    1    2    0    0 -0.97851328489E+02  0.22863938242E+02 -0.80730690189E+03  0.82308404020E+03  0.12500104493E+03 0.  0.
         24    2    1    2    0    0  0.96422642675E+02 -0.46301327429E+02  0.36785860492E+02  0.13552025512E+03  0.74641818523E+02 0.  0.
         24    2    1    2    0    0 -0.70762362539E+02 -0.62826145474E+01  0.72712204907E+02  0.12983358328E+03  0.80764543003E+02 0.  0.
        -13    1    4    4    0    0  0.96287242332E+01  0.65205552264E+01 -0.16970177183E+02  0.20572235767E+02  0.00000000000E+00 0.  1.
         14    1    4    4    0    0  0.86793918442E+02 -0.52821882655E+02  0.53756037675E+02  0.11494801935E+03  0.00000000000E+00 0. -1.
        -13    1    5    5    0    0 -0.64729473122E+02  0.28157562391E+02  0.59956267442E+02  0.92614831512E+02  0.00000000000E+00 0.  1.
         14    1    5    5    0    0 -0.60328894171E+01 -0.34440176939E+02  0.12755937465E+02  0.37218751764E+02  0.00000000000E+00 0. -1.
          5    1    3    3  501    0 -0.23692003811E+02  0.38761921604E+02 -0.82446054916E+02  0.94250939424E+02  0.47000000000E+01 0.  1.
         -5    1    3    3    0  501 -0.74159324678E+02 -0.15897983362E+02 -0.72486084697E+03  0.72883310078E+03  0.47000000000E+01 0.  1.
          1    1    1    2  502    0  0.36568948714E+02  0.25271778544E+02  0.25509732185E+04  0.25513604826E+04  0.00000000000E+00 0. -1.
          1    1    1    2  503    0  0.35622099639E+02  0.44482251911E+01 -0.31095241170E+04  0.31097313317E+04  0.00000000000E+00 0. -1.
<mgrwt>
<rscale>  0 0.39950060E+02</rscale>
<asrwt>0</asrwt>
<pdfrwt beam="1">  1        2 0.40390957E+00 0.44458569E+02</pdfrwt>
<pdfrwt beam="2">  1        2 0.58866833E+00 0.35898756E+02</pdfrwt>
<totfact> 0.63726230E-01</totfact>
</mgrwt>
</event>
<event>
13    1  0.3019759E-008  0.5327233E+02  0.7546771E-02  0.1446603E+00
          2   -1    0    0  502    0  0.00000000000E+00  0.00000000000E+00  0.75557278932E+02  0.75557278932E+02  0.00000000000E+00 0. -1.
          2   -1    0    0  503    0 -0.00000000000E+00 -0.00000000000E+00 -0.19152994271E+04  0.19152994271E+04  0.00000000000E+00 0. -1.
         25    2    1    2    0    0 -0.75182872342E+02  0.62155825630E+02 -0.85535385543E+03  0.86992571961E+03  0.12499891473E+03 0.  0.
         24    2    1    2    0    0  0.35666118214E+02  0.50935897086E+02 -0.36986838471E+03  0.38397989969E+03  0.82288539631E+02 0.  0.
         24    2    1    2    0    0  0.70382374551E+02 -0.51303466916E+02 -0.19130843165E+03  0.22487092512E+03  0.79889251977E+02 0.  0.
        -11    1    4    4    0    0 -0.10873535531E+02  0.55162893583E+02 -0.19048567340E+03  0.19861009635E+03  0.00000000000E+00 0.  1.
         12    1    4    4    0    0  0.46539653745E+02 -0.42269964974E+01 -0.17938271132E+03  0.18536980334E+03  0.00000000000E+00 0. -1.
        -11    1    5    5    0    0  0.15197099096E+02 -0.29063222502E+01 -0.12500095464E+03  0.12595490142E+03  0.00000000000E+00 0.  1.
         12    1    5    5    0    0  0.55185275455E+02 -0.48397144666E+02 -0.66307477008E+02  0.98916023707E+02  0.00000000000E+00 0. -1.
          5    1    3    3  501    0 -0.17367690598E+00  0.69293139935E+02 -0.23659293378E+03  0.24657630810E+03  0.47000000000E+01 0.  1.
         -5    1    3    3    0  501 -0.75009195436E+02 -0.71373143050E+01 -0.61876092166E+03  0.62334941151E+03  0.47000000000E+01 0.  1.
          1    1    1    2  502    0 -0.49686115393E+02 -0.19275734857E+02  0.26814007852E+02  0.59659492407E+02  0.00000000000E+00 0. -1.
          1    1    1    2  503    0  0.18820494970E+02 -0.42512520943E+02 -0.45002548419E+03  0.45242066916E+03  0.00000000000E+00 0. -1.
<mgrwt>
<rscale>  0 0.49766940E+02</rscale>
<asrwt>0</asrwt>
<pdfrwt beam="1">  1        2 0.11111367E-01 0.53272332E+02</pdfrwt>
<pdfrwt beam="2">  1        2 0.28166162E+00 0.46492209E+02</pdfrwt>
<totfact> 0.85972619E+02</totfact>
</mgrwt>
</event>
<event>
13    1  0.3019759E-008  0.1216198E+03  0.7546771E-02  0.1308847E+00
          2   -1    0    0  502    0  0.00000000000E+00  0.00000000000E+00  0.15748826443E+04  0.15748826443E+04  0.00000000000E+00 0. -1.
          4   -1    0    0  503    0 -0.00000000000E+00 -0.00000000000E+00 -0.61048198969E+03  0.61048198969E+03  0.00000000000E+00 0. -1.
         25    2    1    2    0    0  0.26288175407E+03  0.36417865672E+01 -0.38881427363E+02  0.29369255639E+03  0.12499389207E+03 0.  0.
         24    2    1    2    0    0 -0.77774637069E+02 -0.10690880209E+03  0.22819056407E+03  0.27606340911E+03  0.81619153288E+02 0.  0.
         24    2    1    2    0    0 -0.81333914812E+02  0.10686347501E+03  0.33027383629E+03  0.36250600177E+03  0.65534619813E+02 0.  0.
        -11    1    5    5    0    0 -0.68459583355E+02  0.10004006419E+03  0.32523013775E+03  0.34708697973E+03  0.00000000000E+00 0.  1.
         12    1    5    5    0    0 -0.12874331458E+02  0.68234108200E+01  0.50436985318E+01  0.15419022037E+02  0.00000000000E+00 0. -1.
        -13    1    4    4    0    0 -0.75107797864E+02 -0.74585291134E+02  0.21754154530E+03  0.24192658160E+03  0.00000000000E+00 0.  1.
         14    1    4    4    0    0 -0.26668392051E+01 -0.32323510958E+02  0.10649018778E+02  0.34136827517E+02  0.00000000000E+00 0. -1.
          5    1    3    3  501    0  0.27408689635E+03  0.52196993161E+01 -0.48093445685E+02  0.27836296723E+03  0.47000000000E+01 0. -1.
         -5    1    3    3    0  501 -0.11205142280E+02 -0.15779127488E+01  0.92120183215E+01  0.15329589157E+02  0.47000000000E+01 0. -1.
          1    1    1    2  502    0 -0.10256737676E+03 -0.66637171507E+02  0.84205521674E+03  0.85089221846E+03  0.00000000000E+00 0. -1.
          3    1    1    2  503    0 -0.12058254278E+01  0.63040712025E+02 -0.39723753511E+03  0.40221044826E+03  0.00000000000E+00 0. -1.
<mgrwt>
<rscale>  0 0.87569403E+02</rscale>
<asrwt>0</asrwt>
<pdfrwt beam="1">  1        2 0.23160039E+00 0.12161979E+03</pdfrwt>
<pdfrwt beam="2">  1        4 0.89776763E-01 0.63052243E+02</pdfrwt>
<totfact> 0.79167913E+00</totfact>
</mgrwt>
</event>
<event>
13    1  0.3019759E-008  0.4477382E+02  0.7546771E-02  0.1583887E+00
          2   -1    0    0  502    0  0.00000000000E+00  0.00000000000E+00  0.16541259750E+04  0.16541259750E+04  0.00000000000E+00 0. -1.
          2   -1    0    0  503    0 -0.00000000000E+00 -0.00000000000E+00 -0.95785537959E+03  0.95785537959E+03  0.00000000000E+00 0. -1.
         25    2    1    2    0    0  0.30569796709E+02 -0.11451319264E+03 -0.19541265979E+03  0.26053100151E+03  0.12507002591E+03 0.  0.
         24    2    1    2    0    0  0.51363769267E+01  0.12006482431E+03  0.52114661835E+03  0.54062416806E+03  0.78985751056E+02 0.  0.
         24    2    1    2    0    0 -0.45905242967E+02  0.16819880125E+02  0.76482300951E+03  0.77070219552E+03  0.81470476890E+02 0.  0.
        -11    1    5    5    0    0  0.16410556879E+02  0.23238450089E+02  0.35265440940E+03  0.35380003449E+03  0.00000000000E+00 0.  1.
         12    1    5    5    0    0 -0.62315799845E+02 -0.64185699634E+01  0.41216860011E+03  0.41690216103E+03  0.00000000000E+00 0. -1.
        -13    1    4    4    0    0 -0.30371484382E+02  0.60742992156E+02  0.34034975303E+03  0.34705920611E+03  0.00000000000E+00 0.  1.
         14    1    4    4    0    0  0.35507861309E+02  0.59321832158E+02  0.18079686533E+03  0.19356496196E+03  0.00000000000E+00 0. -1.
          5    1    3    3  501    0 -0.21239862292E+02 -0.11509975201E+03 -0.15689342352E+03  0.19579765322E+03  0.47000000000E+01 0.  1.
         -5    1    3    3    0  501  0.51809659002E+02  0.58655936587E+00 -0.38519236264E+02  0.64733348284E+02  0.47000000000E+01 0.  1.
          1    1    1    2  502    0  0.25906395458E+01  0.21762312052E+02  0.32184665621E+03  0.32259197100E+03  0.00000000000E+00 0. -1.
          1    1    1    2  503    0  0.76084297846E+01 -0.44133823848E+02 -0.71613302885E+03  0.71753201853E+03  0.00000000000E+00 0. -1.
<mgrwt>
<rscale>  0 0.31325094E+02</rscale>
<asrwt>0</asrwt>
<pdfrwt beam="1">  1        2 0.24325382E+00 0.21915968E+02</pdfrwt>
<pdfrwt beam="2">  1        2 0.14086108E+00 0.44773816E+02</pdfrwt>
<totfact> 0.77856030E+01</totfact>
</mgrwt>
</event>
<event>
13    1  0.3019759E-008  0.1901212E+03  0.7546771E-02  0.1292480E+00
          2   -1    0    0  503    0  0.00000000000E+00  0.00000000000E+00  0.12016133583E+04  0.12016133583E+04  0.00000000000E+00 0. -1.
          2   -1    0    0  502    0 -0.00000000000E+00 -0.00000000000E+00 -0.16556671092E+04  0.16556671092E+04  0.00000000000E+00 0. -1.
         25    2    1    2    0    0  0.32500347078E+03 -0.46268214278E+02  0.12912787291E+02  0.35151174317E+03  0.12500304732E+03 0.  0.
         24    2    1    2    0    0 -0.15987764447E+03 -0.96100003458E+02  0.56743955658E+02  0.20808023301E+03  0.72673482092E+02 0.  0.
         24    2    1    2    0    0 -0.57215540623E+02  0.22055724030E+01  0.77520830499E+02  0.13678226761E+03  0.97064035213E+02 0.  0.
        -13    1    4    4    0    0 -0.14794154723E+03 -0.70681336281E+02  0.68427460595E+02  0.17766505019E+03  0.00000000000E+00 0.  1.
         14    1    4    4    0    0 -0.11936097241E+02 -0.25418667178E+02 -0.11683504937E+02  0.30415182821E+02  0.00000000000E+00 0. -1.
        -13    1    5    5    0    0 -0.26912849746E+02 -0.35517634169E+02 -0.97286276340E+00  0.44572977020E+02  0.00000000000E+00 0.  1.
         14    1    5    5    0    0 -0.30302690877E+02  0.37723206572E+02  0.78493693262E+02  0.92209290586E+02  0.00000000000E+00 0. -1.
          5    1    3    3  501    0  0.10296975317E+03  0.43223765299E+02  0.72632520186E+01  0.11200852103E+03  0.47000000000E+01 0. -1.
         -5    1    3    3    0  501  0.22203371761E+03 -0.89491979578E+02  0.56495352724E+01  0.23950322214E+03  0.47000000000E+01 0. -1.
          1    1    1    2  502    0 -0.32368525325E+02 -0.33932690536E+02 -0.13691154676E+04  0.13699183598E+04  0.00000000000E+00 0. -1.
          1    1    1    2  503    0 -0.75541760365E+02  0.17409533587E+03  0.76788414322E+03  0.79098786396E+03  0.00000000000E+00 0. -1.
<mgrwt>
<rscale>  0 0.94423256E+02</rscale>
<asrwt>0</asrwt>
<pdfrwt beam="1">  1        2 0.17670785E+00 0.19012123E+03</pdfrwt>
<pdfrwt beam="2">  1        2 0.24348046E+00 0.46895084E+02</pdfrwt>
<totfact> 0.49020665E+01</totfact>
</mgrwt>
</event>
<event>
13    1  0.3019759E-008  0.1673697E+02  0.7546771E-02  0.1861752E+00
          2   -1    0    0  502    0  0.00000000000E+00  0.00000000000E+00  0.32854428823E+04  0.32854428823E+04  0.00000000000E+00 0. -1.
          2   -1    0    0  503    0 -0.00000000000E+00 -0.00000000000E+00 -0.17491694074E+04  0.17491694074E+04  0.00000000000E+00 0. -1.
         25    2    1    2    0    0  0.16621812670E+02 -0.71275543496E+03 -0.29991407487E+03  0.78349963743E+03  0.12500653913E+03 0.  0.
         24    2    1    2    0    0  0.22281011903E+03  0.29062519087E+03  0.53985707024E+03  0.65711252942E+03  0.79018158188E+02 0.  0.
         24    2    1    2    0    0 -0.23579997112E+03  0.42406562166E+03  0.17976470375E+04  0.18630659641E+04  0.63613185334E+02 0.  0.
        -11    1    5    5    0    0 -0.53287082777E+02  0.11014363010E+03  0.35809714914E+03  0.37842396946E+03  0.00000000000E+00 0.  1.
         12    1    5    5    0    0 -0.18251288834E+03  0.31392199156E+03  0.14395498884E+04  0.14846419947E+04  0.00000000000E+00 0. -1.
        -13    1    4    4    0    0  0.17607463344E+03  0.19089693151E+03  0.32824778731E+03  0.41855767210E+03  0.00000000000E+00 0.  1.
         14    1    4    4    0    0  0.46735485588E+02  0.99728259365E+02  0.21160928294E+03  0.23855485733E+03  0.00000000000E+00 0. -1.
          5    1    3    3  501    0 -0.33370989818E+02 -0.72909908592E+02 -0.17014307324E+02  0.82103924304E+02  0.47000000000E+01 0. -1.
         -5    1    3    3    0  501  0.49992802487E+02 -0.63984552637E+03 -0.28289976754E+03  0.70139571312E+03  0.47000000000E+01 0. -1.
          1    1    1    2  502    0  0.27163114746E+01  0.13551270212E+02  0.61466836780E+03  0.61482372892E+03  0.00000000000E+00 0. -1.
          1    1    1    2  503    0 -0.63482720527E+01 -0.15486647786E+02 -0.11159849258E+04  0.11161104298E+04  0.00000000000E+00 0. -1.
<mgrwt>
<rscale>  0 0.15209167E+02</rscale>
<asrwt>0</asrwt>
<pdfrwt beam="1">  1        2 0.48315337E+00 0.13820827E+02</pdfrwt>
<pdfrwt beam="2">  1        2 0.25723079E+00 0.16736969E+02</pdfrwt>
<totfact> 0.67180003E+00</totfact>
</mgrwt>
</event>
<event>
13    1  0.3019759E-008  0.1002309E+03  0.7546771E-02  0.1294552E+00
          2   -1    0    0  502    0  0.00000000000E+00  0.00000000000E+00  0.18374287785E+04  0.18374287785E+04  0.00000000000E+00 0. -1.
          2   -1    0    0  503    0 -0.00000000000E+00 -0.00000000000E+00 -0.33445400974E+03  0.33445400974E+03  0.00000000000E+00 0. -1.
         25    2    1    2    0    0  0.11660808625E+03 -0.18278536934E+03  0.16518767459E+03  0.29986165535E+03  0.12498842942E+03 0.  0.
         24    2    1    2    0    0 -0.17411742198E+03  0.16809850391E+03  0.13983930371E+03  0.29108425408E+03  0.81246713503E+02 0.  0.
         24    2    1    2    0    0  0.17166816828E+02 -0.42666011649E+02  0.30807074409E+03  0.32124055823E+03  0.78567326147E+02 0.  0.
        -13    1    5    5    0    0 -0.18919008229E+02 -0.50072906560E+02  0.16291541923E+03  0.17148369796E+03  0.00000000000E+00 0.  1.
         14    1    5    5    0    0  0.36085825057E+02  0.74068949107E+01  0.14515532486E+03  0.14975686027E+03  0.00000000000E+00 0. -1.
        -13    1    4    4    0    0 -0.16516821231E+03  0.13073167230E+03  0.92355911445E+02  0.23000200625E+03  0.00000000000E+00 0.  1.
         14    1    4    4    0    0 -0.89492096698E+01  0.37366831611E+02  0.47483392268E+02  0.61082247828E+02  0.00000000000E+00 0. -1.
          5    1    3    3  501    0  0.10104799817E+03 -0.17201033338E+03  0.84247995224E+02  0.21660578807E+03  0.47000000000E+01 0.  1.
         -5    1    3    3    0  501  0.15560088073E+02 -0.10775035955E+02  0.80939679368E+02  0.83255867282E+02  0.47000000000E+01 0.  1.
          1    1    1    2  502    0  0.98038046784E+02 -0.81013209925E+01  0.10620927134E+04  0.10666386557E+04  0.00000000000E+00 0. -1.
          1    1    1    2  503    0 -0.57695527875E+02  0.65454198070E+02 -0.17221566704E+03  0.19305766485E+03  0.00000000000E+00 0. -1.
<mgrwt>
<rscale>  0 0.93516893E+02</rscale>
<asrwt>0</asrwt>
<pdfrwt beam="1">  1        2 0.27021011E+00 0.10023087E+03</pdfrwt>
<pdfrwt beam="2">  1        2 0.49184414E-01 0.87252656E+02</pdfrwt>
<totfact> 0.17304338E+02</totfact>
</mgrwt>
</event>
<event>
13    1  0.3019759E-008  0.9873405E+02  0.7546771E-02  0.1378685E+00
          2   -1    0    0  503    0  0.00000000000E+00  0.00000000000E+00  0.37083969278E+04  0.37083969278E+04  0.00000000000E+00 0. -1.
          2   -1    0    0  502    0 -0.00000000000E+00 -0.00000000000E+00 -0.35604082002E+04  0.35604082002E+04  0.00000000000E+00 0. -1.
         25    2    1    2    0    0  0.38517876628E+02 -0.12437942403E+03 -0.10588483412E+04  0.10741223700E+04  0.12500075240E+03 0.  0.
         24    2    1    2    0    0  0.13802049742E+03  0.34743521232E+01 -0.21681771077E+03  0.26972716379E+03  0.81737961542E+02 0.  0.
         24    2    1    2    0    0 -0.76971389235E+02  0.54562042365E+02  0.96372334220E+03  0.97157849327E+03  0.79375544450E+02 0.  0.
        -11    1    5    5    0    0 -0.85584327424E+02  0.45420593598E+02  0.93759704311E+03  0.94259000773E+03  0.00000000000E+00 0.  1.
         12    1    5    5    0    0  0.86129381885E+01  0.91414487672E+01  0.26126299090E+02  0.28988485541E+02  0.00000000000E+00 0. -1.
        -13    1    4    4    0    0  0.79478025784E+01 -0.25644201537E+02 -0.30395241827E+02  0.40554449374E+02  0.00000000000E+00 0.  1.
         14    1    4    4    0    0  0.13007269484E+03  0.29118553660E+02 -0.18642246894E+03  0.22917271442E+03  0.00000000000E+00 0. -1.
          5    1    3    3  501    0 -0.50379754380E+01 -0.10431827101E+03 -0.39740630059E+03  0.41092765861E+03  0.47000000000E+01 0. -1.
         -5    1    3    3    0  501  0.43555852066E+02 -0.20061153022E+02 -0.66144204059E+03  0.66319471136E+03  0.47000000000E+01 0. -1.
          1    1    1    2  502    0 -0.40567728499E+02 -0.12812578352E+02 -0.22456210533E+04  0.22460240021E+04  0.00000000000E+00 0. -1.
          1    1    1    2  503    0 -0.58999256309E+02  0.79155607897E+02  0.27055524906E+04  0.27073530989E+04  0.00000000000E+00 0. -1.
<mgrwt>
<rscale>  0 0.64810786E+02</rscale>
<asrwt>0</asrwt>
<pdfrwt beam="1">  1        2 0.54535249E+00 0.98734050E+02</pdfrwt>
<pdfrwt beam="2">  1        2 0.52358944E+00 0.42542952E+02</pdfrwt>
<totfact> 0.29358366E-01</totfact>
</mgrwt>
</event>
<event>
13    1  0.3019759E-008  0.1822143E+03  0.7546771E-02  0.1201649E+00
          2   -1    0    0  503    0  0.00000000000E+00  0.00000000000E+00  0.30263067395E+04  0.30263067395E+04  0.00000000000E+00 0. -1.
          2   -1    0    0  502    0 -0.00000000000E+00 -0.00000000000E+00 -0.10499450743E+04  0.10499450743E+04  0.00000000000E+00 0. -1.
         25    2    1    2    0    0 -0.15032326600E+02  0.14193381723E+02 -0.41704815490E+03  0.43586783693E+03  0.12499673931E+03 0.  0.
         24    2    1    2    0    0 -0.16892657788E+03 -0.25197614640E+01 -0.10618210383E+02  0.18697698724E+03  0.79404719343E+02 0.  0.
         24    2    1    2    0    0  0.14062479549E+03 -0.12838646277E+03  0.14912805924E+03  0.25723499709E+03  0.87591373688E+02 0.  0.
        -11    1    5    5    0    0 -0.65054616378E+01  0.26888887341E+01  0.21109946363E+02  0.22252662519E+02  0.00000000000E+00 0.  1.
         12    1    5    5    0    0  0.14713025713E+03 -0.13107535150E+03  0.12801811288E+03  0.23498233457E+03  0.00000000000E+00 0. -1.
        -13    1    4    4    0    0 -0.15044776584E+03  0.24088949932E+02 -0.18920207429E+02  0.15353430237E+03  0.00000000000E+00 0.  1.
         14    1    4    4    0    0 -0.18478812044E+02 -0.26608711396E+02  0.83019970462E+01  0.33442684876E+02  0.00000000000E+00 0. -1.
          5    1    3    3  501    0  0.44779308784E+02 -0.21451861815E+02 -0.24828921550E+03  0.25324887641E+03  0.47000000000E+01 0.  1.
         -5    1    3    3    0  501 -0.59811635383E+02  0.35645243537E+02 -0.16875893940E+03  0.18261896052E+03  0.47000000000E+01 0.  1.
          1    1    1    2  502    0 -0.65909205096E+02  0.17083937369E+03 -0.45140048012E+03  0.48712678880E+03  0.00000000000E+00 0. -1.
          1    1    1    2  503    0  0.10924331409E+03 -0.54126531178E+02  0.27063004513E+04  0.27090452038E+04  0.00000000000E+00 0. -1.
<mgrwt>
<rscale>  0 0.14904711E+03</rscale>
<asrwt>0</asrwt>
<pdfrwt beam="1">  1        2 0.44504511E+00 0.12191712E+03</pdfrwt>
<pdfrwt beam="2">  1        2 0.15440369E+00 0.18221430E+03</pdfrwt>
<totfact> 0.11298019E+01</totfact>
</mgrwt>
</event>
<event>
13    1  0.3019759E-008  0.9133772E+02  0.7546771E-02  0.1444763E+00
          2   -1    0    0  503    0  0.00000000000E+00  0.00000000000E+00  0.27144182046E+04  0.27144182046E+04  0.00000000000E+00 0. -1.
          2   -1    0    0  502    0 -0.00000000000E+00 -0.00000000000E+00 -0.16624902369E+04  0.16624902369E+04  0.00000000000E+00 0. -1.
         25    2    1    2    0    0 -0.26957385268E+02 -0.99721743424E+02 -0.34030274429E+03  0.37696389973E+03  0.12499878878E+03 0.  0.
         24    2    1    2    0    0 -0.15944260552E+03 -0.26398567940E+02 -0.11734685194E+03  0.21534967094E+03  0.80537992706E+02 0.  0.
         24    2    1    2    0    0  0.25035224996E+03  0.13123789940E+03  0.11858020088E+04  0.12219952841E+04  0.85125995803E+02 0.  0.
        -11    1    5    5    0    0  0.17080302710E+02 -0.12083397933E+02  0.10425906509E+03  0.10633765983E+03  0.00000000000E+00 0.  1.
         12    1    5    5    0    0  0.23327194725E+03  0.14332129733E+03  0.10815429437E+04  0.11156576243E+04  0.00000000000E+00 0. -1.
        -13    1    4    4    0    0 -0.15434983965E+03 -0.44717544959E+02 -0.11099354991E+03  0.19530258562E+03  0.00000000000E+00 0.  1.
         14    1    4    4    0    0 -0.50927658723E+01  0.18318977019E+02 -0.63533020272E+01  0.20047085322E+02  0.00000000000E+00 0. -1.
          5    1    3    3  501    0  0.79474596223E+01 -0.18792871920E+02 -0.24934674787E+03  0.25022434898E+03  0.47000000000E+01 0. -1.
         -5    1    3    3    0  501 -0.34904844891E+02 -0.80928871503E+02 -0.90955996418E+02  0.12673955075E+03  0.47000000000E+01 0. -1.
          1    1    1    2  502    0  0.27408278739E+02 -0.20998118715E+01 -0.11177954082E+04  0.11181333541E+04  0.00000000000E+00 0. -1.
          1    1    1    2  503    0 -0.91360537907E+02 -0.30177761648E+01  0.14415709633E+04  0.14444662326E+04  0.00000000000E+00 0. -1.
<mgrwt>
<rscale>  0 0.50107343E+02</rscale>
<asrwt>0</asrwt>
<pdfrwt beam="1">  1        2 0.39917915E+00 0.91337724E+02</pdfrwt>
<pdfrwt beam="2">  1        2 0.24448386E+00 0.27488597E+02</pdfrwt>
<totfact> 0.96585853E+00</totfact>
</mgrwt>
</event>
<event>
13    1  0.3019759E-008  0.8397613E+02  0.7546771E-02  0.1367085E+00
          2   -1    0    0  502    0  0.00000000000E+00  0.00000000000E+00  0.80754501102E+03  0.80754501102E+03  0.00000000000E+00 0. -1.
          2   -1    0    0  503    0 -0.00000000000E+00 -0.00000000000E+00 -0.25841634610E+04  0.25841634610E+04  0.00000000000E+00 0. -1.
         25    2    1    2    0    0 -0.25817092317E+03  0.39678392005E+02 -0.10852279838E+04  0.11231967668E+04  0.12499839872E+03 0.  0.
         24    2    1    2    0    0  0.25208852056E+02  0.29758074738E+02 -0.75135239011E+02  0.11514746961E+03  0.78055149614E+02 0.  0.
         24    2    1    2    0    0  0.10019696354E+03 -0.10637588915E+03  0.20875825864E+03  0.26752679676E+03  0.81457443745E+02 0.  0.
        -11    1    4    4    0    0  0.11341394231E+02 -0.45824853112E+01 -0.77096372582E+02  0.78060726746E+02  0.00000000000E+00 0.  1.
         12    1    4    4    0    0  0.13867457825E+02  0.34340560049E+02  0.19611335718E+01  0.37086742860E+02  0.00000000000E+00 0. -1.
        -13    1    5    5    0    0  0.50284320702E+02 -0.24095889495E+02  0.13567533358E+03  0.14668647157E+03  0.00000000000E+00 0.  1.
         14    1    5    5    0    0  0.49912642837E+02 -0.82279999656E+02  0.73082925061E+02  0.12084032520E+03  0.00000000000E+00 0. -1.
          5    1    3    3  501    0 -0.20066281357E+03  0.12736705752E+02 -0.57809763095E+03  0.61208393978E+03  0.47000000000E+01 0. -1.
         -5    1    3    3    0  501 -0.57508109598E+02  0.26941686252E+02 -0.50713035286E+03  0.51111282700E+03  0.47000000000E+01 0. -1.
          1    1    1    2  502    0  0.78113022165E+02  0.30434826483E+02  0.52653591152E+03  0.53316788071E+03  0.00000000000E+00 0. -1.
          1    1    1    2  503    0  0.54652085408E+02  0.65045959259E+01 -0.13515493974E+04  0.13526695582E+04  0.00000000000E+00 0. -1.
<mgrwt>
<rscale>  0 0.67984277E+02</rscale>
<asrwt>0</asrwt>
<pdfrwt beam="1">  1        2 0.11875662E+00 0.83976128E+02</pdfrwt>
<pdfrwt beam="2">  1        2 0.38002404E+00 0.55037807E+02</pdfrwt>
<totfact> 0.31082498E+01</totfact>
</mgrwt>
</event>
<event>
13    1  0.3019759E-008  0.1110430E+03  0.7546771E-02  0.1363960E+00
         -1   -1    0    0    0  501 -0.00000000000E+00  0.00000000000E+00  0.44604573959E+03  0.44604573959E+03  0.00000000000E+00 0.  1.
          2   -1    0    0  503    0  0.00000000000E+00 -0.00000000000E+00 -0.13453789158E+04  0.13453789158E+04  0.00000000000E+00 0. -1.
         25    2    1    2    0    0 -0.39612083152E+02 -0.11361362671E+02  0.79707495718E+02  0.15388754483E+03  0.12501957401E+03 0.  0.
         24    2    1    2    0    0  0.13203007895E+03 -0.51456834509E+02 -0.24976014008E+03  0.29841970470E+03  0.81206188300E+02 0.  0.
         24    2    1    2    0    0 -0.43865494956E+02 -0.75102317553E+01 -0.14890465414E+03  0.17513572330E+03  0.80742431970E+02 0.  0.
        -11    1    4    4    0    0  0.30805846527E+02 -0.53828281491E+02 -0.91296415534E+02  0.11036992144E+03  0.00000000000E+00 0.  1.
         12    1    4    4    0    0  0.10122423242E+03  0.23714469826E+01 -0.15846372454E+03  0.18804978327E+03  0.00000000000E+00 0. -1.
        -11    1    5    5    0    0 -0.52837891576E+01  0.22987892353E+02 -0.64832405798E+01  0.24462093760E+02  0.00000000000E+00 0.  1.
         12    1    5    5    0    0 -0.38581705799E+02 -0.30498124108E+02 -0.14242141356E+03  0.15067362954E+03  0.00000000000E+00 0. -1.
          5    1    3    3  502    0  0.29614385903E+02  0.28185062568E+02  0.58017280277E+02  0.71130193414E+02  0.47000000000E+01 0.  1.
         -5    1    3    3    0  502 -0.69226469055E+02 -0.39546425239E+02  0.21690215441E+02  0.82757351413E+02  0.47000000000E+01 0.  1.
          1    1    1    2  503    0 -0.52684585692E+02  0.11284864766E+03 -0.86613694163E+03  0.87504496142E+03  0.00000000000E+00 0. -1.
         -2    1    1    2    0  501  0.41320848528E+01 -0.42520218720E+02  0.28576106397E+03  0.28893672111E+03  0.00000000000E+00 0.  1.
<mgrwt>
<rscale>  0 0.68875350E+02</rscale>
<asrwt>0</asrwt>
<pdfrwt beam="2">  1        2 0.19784984E+00 0.11104297E+03</pdfrwt>
<pdfrwt beam="1">  1       -1 0.65594963E-01 0.42720523E+02</pdfrwt>
<totfact> 0.55422098E+01</totfact>
</mgrwt>
</event>
<event>
13    1  0.3019759E-008  0.6238887E+02  0.7546771E-02  0.1448571E+00
          2   -1    0    0  503    0  0.00000000000E+00  0.00000000000E+00  0.11911328812E+04  0.11911328812E+04  0.00000000000E+00 0. -1.
         -1   -1    0    0    0  501 -0.00000000000E+00 -0.00000000000E+00 -0.78232663401E+03  0.78232663401E+03  0.00000000000E+00 0.  1.
         25    2    1    2    0    0 -0.51467462472E+02  0.69714071196E+02 -0.30674038935E+02  0.15516835289E+03  0.12500947828E+03 0.  0.
         24    2    1    2    0    0  0.78234808286E+02 -0.95010693467E+02  0.33664740228E+02  0.14441187409E+03  0.67629561164E+02 0.  0.
         24    2    1    2    0    0 -0.71167209117E+02  0.26395058256E+02  0.18797760277E+03  0.21552535824E+03  0.73171921843E+02 0.  0.
        -13    1    5    5    0    0 -0.71385576362E+02  0.42022573037E+02  0.12026475503E+03  0.14603221720E+03  0.00000000000E+00 0.  1.
         14    1    5    5    0    0  0.21836724498E+00 -0.15627514781E+02  0.67712847739E+02  0.69493141038E+02  0.00000000000E+00 0. -1.
        -13    1    4    4    0    0  0.61425937234E+01 -0.23603481079E+02  0.35326077085E+02  0.42927700834E+02  0.00000000000E+00 0.  1.
         14    1    4    4    0    0  0.72092214562E+02 -0.71407212389E+02 -0.16613368567E+01  0.10148417326E+03  0.00000000000E+00 0. -1.
          5    1    3    3  502    0 -0.63884432895E+02  0.90097560123E+02 -0.52595633484E+02  0.12242214574E+03  0.47000000000E+01 0.  1.
         -5    1    3    3    0  502  0.12416970422E+02 -0.20383488928E+02  0.21921594549E+02  0.32746207153E+02  0.47000000000E+01 0.  1.
          1    1    1    2  503    0 -0.35905053996E+01  0.38959910715E+02  0.83606224444E+03  0.83697720575E+03  0.00000000000E+00 0. -1.
         -2    1    1    2    0  501  0.47990368704E+02 -0.40058346699E+02 -0.61822430133E+03  0.62137672421E+03  0.00000000000E+00 0.  1.
<mgrwt>
<rscale>  0 0.49406125E+02</rscale>
<asrwt>0</asrwt>
<pdfrwt beam="1">  1        2 0.17516660E+00 0.39125010E+02</pdfrwt>
<pdfrwt beam="2">  1       -1 0.11504803E+00 0.62388870E+02</pdfrwt>
<totfact> 0.22157646E+01</totfact>
</mgrwt>
</event>
<event>
13    1  0.3019759E-008  0.1604010E+03  0.7546771E-02  0.1302104E+00
          2   -1    0    0  502    0  0.00000000000E+00  0.00000000000E+00  0.26164074240E+04  0.26164074240E+04  0.00000000000E+00 0. -1.
          2   -1    0    0  503    0 -0.00000000000E+00 -0.00000000000E+00 -0.17278972295E+04  0.17278972295E+04  0.00000000000E+00 0. -1.
         25    2    1    2    0    0  0.55579364490E+02 -0.52465858699E+03 -0.32406209727E+03  0.63166158649E+03  0.12499767322E+03 0.  0.
         24    2    1    2    0    0  0.53172000927E+03  0.82244221786E+03  0.45267038563E+03  0.10821815243E+04  0.84077366180E+02 0.  0.
         24    2    1    2    0    0 -0.42052335265E+03 -0.22812334520E+03  0.26609460032E+03  0.55359074695E+03  0.82317847624E+02 0.  0.
        -13    1    4    4    0    0  0.18769412087E+03  0.26164913690E+03  0.10925582607E+03  0.34003851162E+03  0.00000000000E+00 0.  1.
         14    1    4    4    0    0  0.34402588840E+03  0.56079308095E+03  0.34341455956E+03  0.74214301267E+03  0.00000000000E+00 0. -1.
        -13    1    5    5    0    0 -0.28380381416E+03 -0.17234584173E+03  0.22227217463E+03  0.39956553118E+03  0.00000000000E+00 0.  1.
         14    1    5    5    0    0 -0.13671953849E+03 -0.55777503461E+02  0.43822425686E+02  0.15402521576E+03  0.00000000000E+00 0. -1.
          5    1    3    3  501    0  0.77782680246E+01 -0.18618375380E+03 -0.48626911841E+02  0.19264360406E+03  0.47000000000E+01 0. -1.
         -5    1    3    3    0  501  0.47801096466E+02 -0.33847483319E+03 -0.27543518543E+03  0.43901798243E+03  0.47000000000E+01 0. -1.
          1    1    1    2  502    0 -0.41122704886E+02  0.29904101992E+02  0.12767100606E+04  0.12777221572E+04  0.00000000000E+00 0. -1.
          1    1    1    2  503    0 -0.12565331622E+03 -0.99564387671E+02 -0.78290275474E+03  0.79914863858E+03  0.00000000000E+00 0. -1.
<mgrwt>
<rscale>  0 0.90309333E+02</rscale>
<asrwt>0</asrwt>
<pdfrwt beam="1">  1        2 0.38476580E+00 0.50846162E+02</pdfrwt>
<pdfrwt beam="2">  1        2 0.25410253E+00 0.16040101E+03</pdfrwt>
<totfact> 0.93121248E+00</totfact>
</mgrwt>
</event>
<event>
13    1  0.3019759E-008  0.1202084E+03  0.7546771E-02  0.1418468E+00
          2   -1    0    0  502    0  0.00000000000E+00  0.00000000000E+00  0.20623285359E+04  0.20623285359E+04  0.00000000000E+00 0. -1.
          2   -1    0    0  503    0 -0.00000000000E+00 -0.00000000000E+00 -0.21103493613E+04  0.21103493613E+04  0.00000000000E+00 0. -1.
         25    2    1    2    0    0  0.14202307758E+03  0.19929555462E+03 -0.16685888535E+04  0.16910657360E+04  0.12500115479E+03 0.  0.
         24    2    1    2    0    0  0.18394441399E+03  0.24495206839E+02 -0.82221860435E+02  0.22819124544E+03  0.10428445504E+03 0.  0.
         24    2    1    2    0    0 -0.24536910383E+03 -0.31470125526E+03  0.40023420756E+03  0.57094198253E+03  0.80897770901E+02 0.  0.
        -13    1    4    4    0    0  0.92869288083E+02  0.64692078343E+02 -0.47747364774E+02  0.12283965366E+03  0.00000000000E+00 0.  1.
         14    1    4    4    0    0  0.91075125910E+02 -0.40196871504E+02 -0.34474495661E+02  0.10535159177E+03  0.00000000000E+00 0. -1.
        -13    1    5    5    0    0 -0.13189840994E+03 -0.12032515507E+03  0.14002163867E+03  0.22689511405E+03  0.00000000000E+00 0.  1.
         14    1    5    5    0    0 -0.11347069389E+03 -0.19437610019E+03  0.26021256889E+03  0.34404686847E+03  0.00000000000E+00 0. -1.
          5    1    3    3  501    0  0.13329991136E+03  0.16074361186E+03 -0.10151925175E+04  0.10364580612E+04  0.47000000000E+01 0. -1.
         -5    1    3    3    0  501  0.87231662206E+01  0.38551942765E+02 -0.65339633603E+03  0.65460767476E+03  0.47000000000E+01 0. -1.
          1    1    1    2  502    0 -0.96815768921E+02  0.71254428671E+02  0.14892297778E+04  0.14940735651E+04  0.00000000000E+00 0. -1.
          1    1    1    2  503    0  0.16217381174E+02  0.19656065127E+02 -0.18667409681E+03  0.18840536820E+03  0.00000000000E+00 0. -1.
<mgrwt>
<rscale>  0 0.55346419E+02</rscale>
<asrwt>0</asrwt>
<pdfrwt beam="1">  1        2 0.30328361E+00 0.12020841E+03</pdfrwt>
<pdfrwt beam="2">  1        2 0.31034549E+00 0.25482628E+02</pdfrwt>
<totfact> 0.12463893E+01</totfact>
</mgrwt>
</event>
<event>
13    1  0.3019759E-008  0.5728099E+02  0.7546771E-02  0.1508799E+00
          2   -1    0    0  503    0  0.00000000000E+00  0.00000000000E+00  0.98683338243E+02  0.98683338243E+02  0.00000000000E+00 0. -1.
          2   -1    0    0  502    0 -0.00000000000E+00 -0.00000000000E+00 -0.17848698509E+04  0.17848698509E+04  0.00000000000E+00 0. -1.
         25    2    1    2    0    0 -0.23722262197E+02 -0.98998129045E+02 -0.68958056656E+03  0.70817316537E+03  0.12499799638E+03 0.  0.
         24    2    1    2    0    0 -0.20518283071E+01  0.14890494868E+02 -0.10706723707E+03  0.13295052286E+03  0.77372549646E+02 0.  0.
         24    2    1    2    0    0  0.38915274801E+02  0.17053543313E+02 -0.30281115215E+02  0.90576930238E+02  0.74040613181E+02 0.  0.
        -11    1    5    5    0    0  0.17719242972E+02  0.24724224720E+02 -0.51375339852E+02  0.59704978054E+02  0.00000000000E+00 0.  1.
         12    1    5    5    0    0  0.21196031830E+02 -0.76706814077E+01  0.21094224637E+02  0.30871952183E+02  0.00000000000E+00 0. -1.
        -13    1    4    4    0    0 -0.28539315086E+02 -0.97818436842E+01 -0.85840220251E+02  0.90987473776E+02  0.00000000000E+00 0.  1.
         14    1    4    4    0    0  0.26487486779E+02  0.24672338552E+02 -0.21227016817E+02  0.41963049085E+02  0.00000000000E+00 0. -1.
          5    1    3    3  501    0  0.36082555937E+02 -0.58985732981E+02 -0.16956747515E+03  0.18318429563E+03  0.47000000000E+01 0.  1.
         -5    1    3    3    0  501 -0.59804818134E+02 -0.40012396064E+02 -0.52001309141E+03  0.52498886974E+03  0.47000000000E+01 0.  1.
          1    1    1    2  502    0 -0.25455773846E+02  0.11226003264E+02 -0.88760461076E+03  0.88804051969E+03  0.00000000000E+00 0. -1.
          1    1    1    2  503    0  0.12314589549E+02  0.55828087600E+02  0.28347016945E+02  0.63812050982E+02  0.00000000000E+00 0. -1.
<mgrwt>
<rscale>  0 0.39920248E+02</rscale>
<asrwt>0</asrwt>
<pdfrwt beam="1">  1        2 0.14512255E-01 0.57280986E+02</pdfrwt>
<pdfrwt beam="2">  1        2 0.26248087E+00 0.27821207E+02</pdfrwt>
<totfact> 0.76820299E+02</totfact>
</mgrwt>
</event>
<event>
13    1  0.3019759E-008  0.6404101E+02  0.7546771E-02  0.1562082E+00
          2   -1    0    0  503    0  0.00000000000E+00  0.00000000000E+00  0.22725838386E+04  0.22725838386E+04  0.00000000000E+00 0. -1.
          2   -1    0    0  502    0 -0.00000000000E+00 -0.00000000000E+00 -0.76806914018E+03  0.76806914018E+03  0.00000000000E+00 0. -1.
         25    2    1    2    0    0 -0.76049579327E+02 -0.10958005169E+03 -0.12674987412E+02  0.18323876029E+03  0.12499784687E+03 0.  0.
         24    2    1    2    0    0  0.28310057252E+02  0.44418590712E+02  0.20410600821E+03  0.22511270150E+03  0.79006298789E+02 0.  0.
         24    2    1    2    0    0  0.77868126331E+01  0.43444207197E+01  0.66950303484E+03  0.67440979617E+03  0.80714007819E+02 0.  0.
        -11    1    4    4    0    0 -0.16012209303E+02  0.32744765911E+02  0.37414135631E+02  0.52234357336E+02  0.00000000000E+00 0.  1.
         12    1    4    4    0    0  0.44322266555E+02  0.11673824801E+02  0.16669187258E+03  0.17287834417E+03  0.00000000000E+00 0. -1.
        -13    1    5    5    0    0 -0.19807304239E+02 -0.16494355086E+02  0.83510492280E+02  0.87397914001E+02  0.00000000000E+00 0.  1.
         14    1    5    5    0    0  0.27594116872E+02  0.20838775806E+02  0.58599254256E+03  0.58701188216E+03  0.00000000000E+00 0. -1.
          5    1    3    3  501    0 -0.10990682213E+03 -0.85537371904E+02 -0.20106828533E+02  0.14079249304E+03  0.47000000000E+01 0.  1.
         -5    1    3    3    0  501  0.33857242800E+02 -0.24042679786E+02  0.74318411213E+01  0.42446267253E+02  0.47000000000E+01 0.  1.
          1    1    1    2  502    0  0.17530283044E+02  0.88219314796E+00 -0.65625107701E+03  0.65648576921E+03  0.00000000000E+00 0. -1.
          1    1    1    2  503    0  0.22422426398E+02  0.59934847110E+02  0.12998317198E+04  0.13014059516E+04  0.00000000000E+00 0. -1.
<mgrwt>
<rscale>  0 0.33527269E+02</rscale>
<asrwt>0</asrwt>
<pdfrwt beam="1">  1        2 0.33420350E+00 0.64041012E+02</pdfrwt>
<pdfrwt beam="2">  1        2 0.11295135E+00 0.17552467E+02</pdfrwt>
<totfact> 0.48058516E+01</totfact>
</mgrwt>
</event>
<event>
13    1  0.3019759E-008  0.1013953E+03  0.7546771E-02  0.1367692E+00
         -3   -1    0    0    0  501 -0.00000000000E+00  0.00000000000E+00  0.20745720480E+03  0.20745720480E+03  0.00000000000E+00 0.  1.
          2   -1    0    0  503    0  0.00000000000E+00 -0.00000000000E+00 -0.21244956195E+04  0.21244956195E+04  0.00000000000E+00 0. -1.
         25    2    1    2    0    0  0.51825784763E+01  0.10801504148E+03 -0.56557133110E+02  0.17469573458E+03  0.12500312824E+03 0.  0.
         24    2    1    2    0    0 -0.10955044642E+03 -0.27388352525E+03 -0.16533637992E+03  0.34746930853E+03  0.79908173092E+02 0.  0.
         24    2    1    2    0    0  0.22502534593E+03  0.17765600225E+03 -0.70198765275E+03  0.76359210589E+03  0.89934298884E+02 0.  0.
        -11    1    5    5    0    0  0.90556782624E+02  0.19362835746E+02 -0.20459915191E+03  0.22458019336E+03  0.00000000000E+00 0.  1.
         12    1    5    5    0    0  0.13446856330E+03  0.15829316651E+03 -0.49738850084E+03  0.53901191253E+03  0.00000000000E+00 0. -1.
        -11    1    4    4    0    0 -0.76140818116E+02 -0.13445350380E+03 -0.12438076977E+03  0.19835761835E+03  0.00000000000E+00 0.  1.
         12    1    4    4    0    0 -0.33409628307E+02 -0.13943002145E+03 -0.40955610149E+02  0.14911169018E+03  0.00000000000E+00 0. -1.
          5    1    3    3  502    0  0.44547549060E+02  0.11202073075E+03 -0.23478444212E+02  0.12290832188E+03  0.47000000000E+01 0.  1.
         -5    1    3    3    0  502 -0.39364970584E+02 -0.40056892671E+01 -0.33078688898E+02  0.51787412706E+02  0.47000000000E+01 0.  1.
          1    1    1    2  503    0 -0.90392937299E+02 -0.45565998101E+02 -0.99564154654E+03  0.10007743165E+04  0.00000000000E+00 0. -1.
         -4    1    1    2    0  501 -0.30264540682E+02  0.33778479619E+02  0.24842975739E+01  0.45421358880E+02  0.00000000000E+00 0.  1.
<mgrwt>
<rscale>  0 0.67813126E+02</rscale>
<asrwt>0</asrwt>
<pdfrwt beam="2">  1        2 0.31242581E+00 0.10139534E+03</pdfrwt>
<pdfrwt beam="1">  1       -3 0.30508414E-01 0.45353369E+02</pdfrwt>
<totfact> 0.45724043E+01</totfact>
</mgrwt>
</event>
<event>
13    1  0.3019759E-008  0.1596049E+03  0.7546771E-02  0.1253593E+00
          2   -1    0    0  503    0  0.00000000000E+00  0.00000000000E+00  0.52844915690E+03  0.52844915690E+03  0.00000000000E+00 0. -1.
          2   -1    0    0  502    0 -0.00000000000E+00 -0.00000000000E+00 -0.17510418899E+04  0.17510418899E+04  0.00000000000E+00 0. -1.
         25    2    1    2    0    0  0.72673005481E+02 -0.29897872480E+03 -0.61155453071E+03  0.69591135231E+03  0.12499609048E+03 0.  0.
         24    2    1    2    0    0  0.93942310042E+02  0.41620776814E+02 -0.62633984515E+02  0.14302497352E+03  0.77302524902E+02 0.  0.
         24    2    1    2    0    0 -0.16479228058E+03  0.57929203671E+02  0.12012518692E+03  0.22740287781E+03  0.82278307756E+02 0.  0.
        -13    1    4    4    0    0  0.57241168175E+01 -0.11851485007E+02  0.10279102599E+02  0.16699795222E+02  0.00000000000E+00 0.  1.
         14    1    4    4    0    0  0.88218193224E+02  0.53472261821E+02 -0.72913087114E+02  0.12632517830E+03  0.00000000000E+00 0. -1.
        -13    1    5    5    0    0 -0.37765617297E+02 -0.10507243837E+02 -0.69961858911E+00  0.39206293998E+02  0.00000000000E+00 0.  1.
         14    1    5    5    0    0 -0.12702666328E+03  0.68436447508E+02  0.12082480551E+03  0.18819658382E+03  0.00000000000E+00 0. -1.
          5    1    3    3  501    0  0.18138570321E+02 -0.15752868212E+03 -0.43571780913E+03  0.46369860105E+03  0.47000000000E+01 0.  1.
         -5    1    3    3    0  501  0.54534435159E+02 -0.14145004268E+03 -0.17583672158E+03  0.23221275126E+03  0.47000000000E+01 0.  1.
          1    1    1    2  502    0 -0.60366568192E+02  0.54336690709E+02 -0.91642197094E+03  0.92001403649E+03  0.00000000000E+00 0. -1.
          1    1    1    2  503    0  0.58543533250E+02  0.14509205361E+03  0.24789256624E+03  0.29313780667E+03  0.00000000000E+00 0. -1.
<mgrwt>
<rscale>  0 0.11385528E+03</rscale>
<asrwt>0</asrwt>
<pdfrwt beam="1">  1        2 0.77713110E-01 0.15960494E+03</pdfrwt>
<pdfrwt beam="2">  1        2 0.25750616E+00 0.81219447E+02</pdfrwt>
<totfact> 0.11875251E+02</totfact>
</mgrwt>
</event>
<event>
13    1  0.3019759E-008  0.1246543E+03  0.7546771E-02  0.1235923E+00
          2   -1    0    0  503    0  0.00000000000E+00  0.00000000000E+00  0.14110062012E+04  0.14110062012E+04  0.00000000000E+00 0. -1.
          2   -1    0    0  502    0 -0.00000000000E+00 -0.00000000000E+00 -0.62742297313E+03  0.62742297313E+03  0.00000000000E+00 0. -1.
         25    2    1    2    0    0 -0.14328121222E+03  0.24368907420E+02 -0.45705913154E+03  0.49562345554E+03  0.12496483721E+03 0.  0.
         24    2    1    2    0    0  0.14479560788E+03  0.10487053727E+03  0.20356830859E+03  0.28291506496E+03  0.81469503959E+02 0.  0.
         24    2    1    2    0    0 -0.95114285261E+01 -0.33605786867E+02  0.21577031286E+03  0.23241872367E+03  0.79005183476E+02 0.  0.
        -11    1    4    4    0    0 -0.91216893114E+01  0.16663176175E+02  0.22043387636E+02  0.29099443200E+02  0.00000000000E+00 0.  1.
         12    1    4    4    0    0  0.15391729719E+03  0.88207361097E+02  0.18152492095E+03  0.25381562176E+03  0.00000000000E+00 0. -1.
        -13    1    5    5    0    0  0.70632995138E+01  0.24572782744E+02  0.73558194554E+02  0.77875027048E+02  0.00000000000E+00 0.  1.
         14    1    5    5    0    0 -0.16574728040E+02 -0.58178569611E+02  0.14221211831E+03  0.15454369662E+03  0.00000000000E+00 0. -1.
          5    1    3    3  501    0 -0.57202400164E+02  0.43117337033E+02 -0.76236073160E+02  0.10471508100E+03  0.47000000000E+01 0. -1.
         -5    1    3    3    0  501 -0.86078812057E+02 -0.18748429613E+02 -0.38082305838E+03  0.39090837455E+03  0.47000000000E+01 0. -1.
          1    1    1    2  502    0  0.12363969149E+03  0.16419684208E+02 -0.55131794380E+02  0.13636676315E+03  0.00000000000E+00 0. -1.
          1    1    1    2  503    0 -0.11564265862E+03 -0.11205334203E+03  0.87643553252E+03  0.89110516698E+03  0.00000000000E+00 0. -1.
<mgrwt>
<rscale>  0 0.12445501E+03</rscale>
<asrwt>0</asrwt>
<pdfrwt beam="1">  1        2 0.20750091E+00 0.12465434E+03</pdfrwt>
<pdfrwt beam="2">  1        2 0.92268084E-01 0.12425600E+03</pdfrwt>
<totfact> 0.13967859E+02</totfact>
</mgrwt>
</event>
<event>
13    1  0.3019759E-008  0.1049687E+03  0.7546771E-02  0.1493433E+00
          4   -1    0    0  503    0 -0.00000000000E+00  0.00000000000E+00  0.12104072646E+04  0.12104072646E+04  0.00000000000E+00 0. -1.
          2   -1    0    0  502    0  0.00000000000E+00 -0.00000000000E+00 -0.10922222089E+04  0.10922222089E+04  0.00000000000E+00 0. -1.
         25    2    1    2    0    0  0.63635230803E+02  0.79250518876E+01  0.16381155006E+03  0.21578032846E+03  0.12495870186E+03 0.  0.
         24    2    1    2    0    0  0.81807796514E+01  0.70829579533E+02 -0.84153063490E+01  0.10544162203E+03  0.77222819062E+02 0.  0.
         24    2    1    2    0    0 -0.56062551843E+02  0.48406905812E+02 -0.27789354077E+03  0.29807120115E+03  0.78328683781E+02 0.  0.
        -13    1    5    5    0    0  0.17035753821E+02  0.18099451915E+02 -0.10542261774E+03  0.10831313585E+03  0.00000000000E+00 0.  1.
         14    1    5    5    0    0 -0.73098305664E+02  0.30307453897E+02 -0.17247092304E+03  0.18975806530E+03  0.00000000000E+00 0. -1.
        -13    1    4    4    0    0  0.31128857333E+02  0.29983106191E+01 -0.12590082759E+02  0.33712101823E+02  0.00000000000E+00 0.  1.
         14    1    4    4    0    0 -0.22948077682E+02  0.67831268914E+02  0.41747764103E+01  0.71729520212E+02  0.00000000000E+00 0. -1.
          5    1    3    3  501    0  0.37217253014E+02 -0.47807533517E+02  0.28745512618E+02  0.67224092992E+02  0.47000000000E+01 0. -1.
         -5    1    3    3    0  501  0.26417977788E+02  0.55732585405E+02  0.13506603744E+03  0.14855623547E+03  0.47000000000E+01 0. -1.
          1    1    1    2  502    0 -0.27052387579E+02 -0.11463446040E+03 -0.71644404482E+03  0.72606126501E+03  0.00000000000E+00 0. -1.
          3    1    1    2  503    0  0.11298928967E+02 -0.12527076829E+02  0.95712639756E+03  0.95727505679E+03  0.00000000000E+00 0. -1.
<mgrwt>
<rscale>  0 0.42081007E+02</rscale>
<asrwt>0</asrwt>
<pdfrwt beam="2">  1        2 0.16062091E+00 0.10496870E+03</pdfrwt>
<pdfrwt beam="1">  1        4 0.17800107E+00 0.16869898E+02</pdfrwt>
<totfact> 0.26031048E+00</totfact>
</mgrwt>
</event>
<event>
13    1  0.3019759E-008  0.6447897E+02  0.7546771E-02  0.1435109E+00
          2   -1    0    0  503    0  0.00000000000E+00  0.00000000000E+00  0.30574813041E+04  0.30574813041E+04  0.00000000000E+00 0. -1.
          2   -1    0    0  502    0 -0.00000000000E+00 -0.00000000000E+00 -0.47265481503E+03  0.47265481503E+03  0.00000000000E+00 0. -1.
         25    2    1    2    0    0 -0.16203999925E+03  0.34835585759E+02  0.22305037838E+03  0.30470398174E+03  0.12499026282E+03 0.  0.
         24    2    1    2    0    0  0.40342029723E+02  0.33555187753E+02  0.45059561790E+03  0.46071873553E+03  0.80448197101E+02 0.  0.
         24    2    1    2    0    0  0.12453389233E+03  0.34832851443E+02  0.19979220600E+04  0.20036941041E+04  0.79846647999E+02 0.  0.
        -11    1    5    5    0    0  0.64289929324E+01  0.29585619856E+02  0.26025701259E+03  0.26201212464E+03  0.00000000000E+00 0.  1.
         12    1    5    5    0    0  0.11810489939E+03  0.52472315870E+01  0.17376650474E+04  0.17416819794E+04  0.00000000000E+00 0. -1.
        -11    1    4    4    0    0  0.20393154656E+01  0.17408230398E+02  0.14785186085E+02  0.22930482348E+02  0.00000000000E+00 0.  1.
         12    1    4    4    0    0  0.38302714258E+02  0.16146957355E+02  0.43581043181E+03  0.43778825318E+03  0.00000000000E+00 0. -1.
          5    1    3    3  501    0 -0.34657508749E+02 -0.25306973431E+02  0.12701511779E+03  0.13415109379E+03  0.47000000000E+01 0.  1.
         -5    1    3    3    0  501 -0.12738249050E+03  0.60142559189E+02  0.96035260590E+02  0.17055288795E+03  0.47000000000E+01 0.  1.
          1    1    1    2  502    0  0.10562796948E+02 -0.63574125938E+02 -0.42011489805E+03  0.42502913986E+03  0.00000000000E+00 0. -1.
          1    1    1    2  503    0 -0.13398719751E+02 -0.39649499016E+02  0.33337333085E+03  0.33599015787E+03  0.00000000000E+00 0. -1.
<mgrwt>
<rscale>  0 0.51947937E+02</rscale>
<asrwt>0</asrwt>
<pdfrwt beam="1">  1        2 0.44962959E+00 0.41852222E+02</pdfrwt>
<pdfrwt beam="2">  1        2 0.69508063E-01 0.64478970E+02</pdfrwt>
<totfact> 0.34286639E+01</totfact>
</mgrwt>
</event>
<event>
13    1  0.3019759E-008  0.4012932E+02  0.7546771E-02  0.1597879E+00
          2   -1    0    0  503    0  0.00000000000E+00  0.00000000000E+00  0.35016319304E+04  0.35016319304E+04  0.00000000000E+00 0. -1.
          2   -1    0    0  502    0 -0.00000000000E+00 -0.00000000000E+00 -0.66059643340E+03  0.66059643340E+03  0.00000000000E+00 0. -1.
         25    2    1    2    0    0 -0.12841433303E+03 -0.10222519468E+03  0.47711599646E+00  0.20631627481E+03  0.12500378497E+03 0.  0.
         24    2    1    2    0    0  0.73846491029E+02  0.94900904015E+02  0.48549432596E+03  0.50660732398E+03  0.80540389592E+02 0.  0.
         24    2    1    2    0    0  0.22726054677E+02 -0.11967297139E+02  0.24398211071E+03  0.25874380785E+03  0.82227720333E+02 0.  0.
        -11    1    4    4    0    0 -0.50223605631E+01  0.50055798981E+02  0.12208071035E+03  0.13203979308E+03  0.00000000000E+00 0.  1.
         12    1    4    4    0    0  0.78868851592E+02  0.44845105034E+02  0.36341361561E+03  0.37456753090E+03  0.00000000000E+00 0. -1.
        -13    1    5    5    0    0  0.13546054215E+01 -0.16148297955E+02  0.26369172846E+01  0.16418155057E+02  0.00000000000E+00 0.  1.
         14    1    5    5    0    0  0.21371449256E+02  0.41810008162E+01  0.24134519343E+03  0.24232565279E+03  0.00000000000E+00 0. -1.
          5    1    3    3  501    0 -0.92225627577E+02 -0.16619502297E+02 -0.43460984836E+02  0.10340561610E+03  0.47000000000E+01 0.  1.
         -5    1    3    3    0  501 -0.36188705450E+02 -0.85605692381E+02  0.43938100832E+02  0.10291065870E+03  0.47000000000E+01 0.  1.
          1    1    1    2  502    0  0.14678133366E+02 -0.16994591376E+02 -0.53935389889E+03  0.53982116667E+03  0.00000000000E+00 0. -1.
          1    1    1    2  503    0  0.17163653954E+02  0.36286179178E+02  0.26504358432E+04  0.26507397905E+04  0.00000000000E+00 0. -1.
<mgrwt>
<rscale>  0 0.30018939E+02</rscale>
<asrwt>0</asrwt>
<pdfrwt beam="1">  1        2 0.51494586E+00 0.40129322E+02</pdfrwt>
<pdfrwt beam="2">  1        2 0.97146536E-01 0.22455817E+02</pdfrwt>
<totfact> 0.14199040E+01</totfact>
</mgrwt>
</event>
<event>
13    1  0.3019759E-008  0.6113141E+02  0.7546771E-02  0.1465588E+00
          2   -1    0    0  502    0  0.00000000000E+00  0.00000000000E+00  0.20003910287E+04  0.20003910287E+04  0.00000000000E+00 0. -1.
          2   -1    0    0  503    0 -0.00000000000E+00 -0.00000000000E+00 -0.13478291394E+04  0.13478291394E+04  0.00000000000E+00 0. -1.
         25    2    1    2    0    0  0.46054167776E+02  0.32583663850E+03 -0.10096646463E+03  0.36620153705E+03  0.12497534716E+03 0.  0.
         24    2    1    2    0    0  0.52913970031E+03  0.47374656343E+03  0.38736443119E+01  0.71855490979E+03  0.10900240572E+03 0.  0.
         24    2    1    2    0    0 -0.51234183178E+03 -0.76271564745E+03  0.10637452793E+03  0.92823147852E+03  0.77902670471E+02 0.  0.
        -11    1    4    4    0    0  0.31540134578E+03  0.35096160473E+03  0.10354898530E+02  0.47197381372E+03  0.00000000000E+00 0.  1.
         12    1    4    4    0    0  0.21373835453E+03  0.12278495870E+03 -0.64812542186E+01  0.24658109606E+03  0.00000000000E+00 0. -1.
        -13    1    5    5    0    0 -0.28098683322E+03 -0.39344768175E+03  0.92519201358E+02  0.49225448839E+03  0.00000000000E+00 0.  1.
         14    1    5    5    0    0 -0.23135499856E+03 -0.36926796570E+03  0.13855326571E+02  0.43597699014E+03  0.00000000000E+00 0. -1.
          5    1    3    3  501    0  0.87515260288E+01  0.23230361419E+03 -0.13783474975E+02  0.23292409183E+03  0.47000000000E+01 0.  1.
         -5    1    3    3    0  501  0.37302641747E+02  0.93533024317E+02 -0.87182989655E+02  0.13327744522E+03  0.47000000000E+01 0.  1.
          1    1    1    2  502    0 -0.31600029749E+02  0.15663148711E+02  0.98623881142E+03  0.98686923615E+03  0.00000000000E+00 0. -1.
          1    1    1    2  503    0 -0.31252006553E+02 -0.52530703192E+02 -0.34295862973E+03  0.34836300664E+03  0.00000000000E+00 0. -1.
<mgrwt>
<rscale>  0 0.46433161E+02</rscale>
<asrwt>0</asrwt>
<pdfrwt beam="1">  1        2 0.29417515E+00 0.35268911E+02</pdfrwt>
<pdfrwt beam="2">  1        2 0.19821017E+00 0.61131415E+02</pdfrwt>
<totfact> 0.31634312E+01</totfact>
</mgrwt>
</event>
<event>
13    1  0.3019759E-008  0.1607557E+03  0.7546771E-02  0.1359624E+00
          2   -1    0    0  502    0  0.00000000000E+00  0.00000000000E+00  0.35408116532E+04  0.35408116532E+04  0.00000000000E+00 0. -1.
          2   -1    0    0  503    0 -0.00000000000E+00 -0.00000000000E+00 -0.66092593285E+03  0.66092593285E+03  0.00000000000E+00 0. -1.
         25    2    1    2    0    0  0.67025502339E+02 -0.72357634024E+02 -0.15887227762E+03  0.22493602360E+03  0.12501107532E+03 0.  0.
         24    2    1    2    0    0  0.15474188252E+03 -0.36601748774E+03  0.73499881904E+03  0.83782910857E+03  0.61810190430E+02 0.  0.
         24    2    1    2    0    0 -0.11972090763E+03  0.35441854902E+03  0.70432574590E+03  0.80102202379E+03  0.74939459835E+02 0.  0.
        -13    1    5    5    0    0 -0.88841717743E+02  0.15155531939E+03  0.34825358976E+03  0.39005439163E+03  0.00000000000E+00 0.  1.
         14    1    5    5    0    0 -0.30879189883E+02  0.20286322963E+03  0.35607215614E+03  0.41096763216E+03  0.00000000000E+00 0. -1.
        -13    1    4    4    0    0  0.14463291199E+03 -0.29090961559E+03  0.62262686518E+03  0.70229003760E+03  0.00000000000E+00 0.  1.
         14    1    4    4    0    0  0.10108970532E+02 -0.75107872159E+02  0.11237195386E+03  0.13553907097E+03  0.00000000000E+00 0. -1.
          5    1    3    3  501    0  0.53857150708E+01 -0.27054329971E+02  0.17241753165E+02  0.32868081009E+02  0.47000000000E+01 0.  1.
         -5    1    3    3    0  501  0.61639787268E+02 -0.45303304053E+02 -0.17611403078E+03  0.19206794259E+03  0.47000000000E+01 0.  1.
          1    1    1    2  502    0  0.27127450991E+02 -0.14161282472E+02  0.19507513698E+04  0.19509913755E+04  0.00000000000E+00 0. -1.
          1    1    1    2  503    0 -0.12917392822E+03  0.98117855216E+02 -0.35131793676E+03  0.38695905460E+03  0.00000000000E+00 0. -1.
<mgrwt>
<rscale>  0 0.70137987E+02</rscale>
<asrwt>0</asrwt>
<pdfrwt beam="1">  1        2 0.52070759E+00 0.30601316E+02</pdfrwt>
<pdfrwt beam="2">  1        2 0.97194992E-01 0.16075574E+03</pdfrwt>
<totfact> 0.13617627E+01</totfact>
</mgrwt>
</event>
<event>
13    1  0.3019759E-008  0.3473031E+03  0.7546771E-02  0.1264213E+00
          2   -1    0    0  503    0  0.00000000000E+00  0.00000000000E+00  0.14844750350E+04  0.14844750350E+04  0.00000000000E+00 0. -1.
         -1   -1    0    0    0  501 -0.00000000000E+00 -0.00000000000E+00 -0.16032028190E+04  0.16032028190E+04  0.00000000000E+00 0.  1.
         25    2    1    2    0    0  0.38636357503E+03  0.16266387549E+03 -0.53554738159E+03  0.69150031769E+03  0.12500137175E+03 0.  0.
         24    2    1    2    0    0 -0.13237751420E+02 -0.64511133786E+02  0.21929469205E+03  0.24258215340E+03  0.80118753994E+02 0.  0.
         24    2    1    2    0    0 -0.34153711277E+02  0.10511785990E+02  0.31168592744E+03  0.32419914506E+03  0.81731234285E+02 0.  0.
        -11    1    5    5    0    0  0.16006117736E+02  0.21564738860E+02  0.43373018337E+02  0.51014238079E+02  0.00000000000E+00 0.  1.
         12    1    5    5    0    0 -0.50159829013E+02 -0.11052952869E+02  0.26831290910E+03  0.27318490698E+03  0.00000000000E+00 0. -1.
        -11    1    4    4    0    0  0.10441521297E+02 -0.76351918322E+02  0.15691893616E+03  0.17482046026E+03  0.00000000000E+00 0.  1.
         12    1    4    4    0    0 -0.23679272718E+02  0.11840784536E+02  0.62375755892E+02  0.67761693145E+02  0.00000000000E+00 0. -1.
          5    1    3    3  502    0  0.27588833899E+02 -0.88388351152E+01 -0.88127199125E+02  0.92885746957E+02  0.47000000000E+01 0.  1.
         -5    1    3    3    0  502  0.35877474113E+03  0.17150271061E+03 -0.44742018247E+03  0.59861457074E+03  0.47000000000E+01 0.  1.
          1    1    1    2  503    0 -0.33247169757E+02 -0.49881901447E+01  0.83045734190E+03  0.83113756567E+03  0.00000000000E+00 0. -1.
         -2    1    1    2    0  501 -0.30572494258E+03 -0.10367633755E+03 -0.94461836373E+03  0.99825867218E+03  0.00000000000E+00 0.  1.
<mgrwt>
<rscale>  0 0.10805591E+03</rscale>
<asrwt>0</asrwt>
<pdfrwt beam="1">  1        2 0.21830515E+00 0.33619285E+02</pdfrwt>
<pdfrwt beam="2">  1       -1 0.23576512E+00 0.34730306E+03</pdfrwt>
<totfact> 0.19647857E+00</totfact>
</mgrwt>
</event>
<event>
13    1  0.3019759E-008  0.1051607E+03  0.7546771E-02  0.1382973E+00
          2   -1    0    0  503    0  0.00000000000E+00  0.00000000000E+00  0.10399606996E+04  0.10399606996E+04  0.00000000000E+00 0. -1.
          2   -1    0    0  502    0 -0.00000000000E+00 -0.00000000000E+00 -0.35794109804E+03  0.35794109804E+03  0.00000000000E+00 0. -1.
         25    2    1    2    0    0  0.95889663606E+02  0.22012238896E+02 -0.29057103917E+02  0.16169803064E+03  0.12499028593E+03 0.  0.
         24    2    1    2    0    0 -0.23559779495E+02 -0.58303568736E+02  0.28106185959E+02  0.10530590426E+03  0.79655548746E+02 0.  0.
         24    2    1    2    0    0 -0.42941212753E+01  0.68200791270E+02  0.28947754387E+03  0.30781629419E+03  0.79270644979E+02 0.  0.
        -11    1    5    5    0    0  0.19258387480E+02 -0.10802507473E+02  0.54898788053E+02  0.59173106947E+02  0.00000000000E+00 0.  1.
         12    1    5    5    0    0 -0.23552508756E+02  0.79003298743E+02  0.23457875582E+03  0.24864318724E+03  0.00000000000E+00 0. -1.
        -11    1    4    4    0    0 -0.22399281367E+02 -0.37966238410E+01  0.43135846036E+02  0.48752880649E+02  0.00000000000E+00 0.  1.
         12    1    4    4    0    0 -0.11604981277E+01 -0.54506944896E+02 -0.15029660077E+02  0.56553023613E+02  0.00000000000E+00 0. -1.
          5    1    3    3  501    0  0.17463488014E+02 -0.16778243055E+02  0.42118487359E+02  0.48811267460E+02  0.47000000000E+01 0.  1.
         -5    1    3    3    0  501  0.78426175592E+02  0.38790481950E+02 -0.71175591276E+02  0.11288676318E+03  0.47000000000E+01 0.  1.
          1    1    1    2  502    0  0.35159425333E+02 -0.15862114767E+02 -0.20852998810E+03  0.21206731906E+03  0.00000000000E+00 0. -1.
          1    1    1    2  503    0 -0.10319518817E+03 -0.16047346662E+02  0.60202296380E+03  0.61101424954E+03  0.00000000000E+00 0. -1.
<mgrwt>
<rscale>  0 0.63688700E+02</rscale>
<asrwt>0</asrwt>
<pdfrwt beam="1">  1        2 0.15293540E+00 0.10516075E+03</pdfrwt>
<pdfrwt beam="2">  1        2 0.52638397E-01 0.38571905E+02</pdfrwt>
<totfact> 0.40681810E+02</totfact>
</mgrwt>
</event>
<event>
13    1  0.3019759E-008  0.8477395E+02  0.7546771E-02  0.1457156E+00
          2   -1    0    0  503    0  0.00000000000E+00  0.00000000000E+00  0.32007622946E+04  0.32007622946E+04  0.00000000000E+00 0. -1.
          2   -1    0    0  502    0 -0.00000000000E+00 -0.00000000000E+00 -0.16982896282E+03  0.16982896282E+03  0.00000000000E+00 0. -1.
         25    2    1    2    0    0  0.71637713519E+01  0.72292546222E+02 -0.26583118454E+02  0.14700191919E+03  0.12500148079E+03 0.  0.
         24    2    1    2    0    0 -0.15613620058E+02 -0.15731493236E+02  0.22228460771E+03  0.23737335884E+03  0.80277018196E+02 0.  0.
         24    2    1    2    0    0  0.41172757475E+02  0.28675986289E+02  0.19294277966E+03  0.21004593330E+03  0.66142797984E+02 0.  0.
        -11    1    4    4    0    0 -0.66505167162E+01 -0.40060730599E+02  0.56535404404E+02  0.69608501347E+02  0.00000000000E+00 0.  1.
         12    1    4    4    0    0 -0.89631033414E+01  0.24329237363E+02  0.16574920331E+03  0.16776485749E+03  0.00000000000E+00 0. -1.
        -13    1    5    5    0    0  0.45366193850E+02 -0.75716187807E+01  0.95593654591E+02  0.10608283440E+03  0.00000000000E+00 0.  1.
         14    1    5    5    0    0 -0.41934363756E+01  0.36247605070E+02  0.97349125073E+02  0.10396309891E+03  0.00000000000E+00 0. -1.
          5    1    3    3  501    0 -0.25505508611E+02  0.98800317630E+02 -0.16318667738E+02  0.10344284726E+03  0.47000000000E+01 0. -1.
         -5    1    3    3    0  501  0.32669279963E+02 -0.26507771407E+02 -0.10264450717E+02  0.43559071923E+02  0.47000000000E+01 0. -1.
          1    1    1    2  502    0 -0.27030257579E+02 -0.56099317814E+00 -0.63517942324E+02  0.69032445525E+02  0.00000000000E+00 0. -1.
          1    1    1    2  503    0 -0.56926511896E+01 -0.84676046098E+02  0.27058070052E+04  0.27071376006E+04  0.00000000000E+00 0. -1.
<mgrwt>
<rscale>  0 0.47874368E+02</rscale>
<asrwt>0</asrwt>
<pdfrwt beam="1">  1        2 0.47070030E+00 0.84773947E+02</pdfrwt>
<pdfrwt beam="2">  1        2 0.24974849E-01 0.27036078E+02</pdfrwt>
<totfact> 0.71577184E+01</totfact>
</mgrwt>
</event>
<event>
13    1  0.3019759E-008  0.7257630E+02  0.7546771E-02  0.1434544E+00
          2   -1    0    0  502    0  0.00000000000E+00  0.00000000000E+00  0.16732914156E+04  0.16732914156E+04  0.00000000000E+00 0. -1.
          2   -1    0    0  503    0 -0.00000000000E+00 -0.00000000000E+00 -0.24352301448E+04  0.24352301448E+04  0.00000000000E+00 0. -1.
         25    2    1    2    0    0  0.35387780700E+02  0.33684836679E+02 -0.67033529237E+03  0.68363840765E+03  0.12500041987E+03 0.  0.
         24    2    1    2    0    0 -0.43257087929E+02 -0.43698506836E+02  0.11036123172E+03  0.15014473540E+03  0.81136335544E+02 0.  0.
         24    2    1    2    0    0 -0.49748178153E+02 -0.53419533149E+02  0.26623250096E+03  0.28698798300E+03  0.78446351517E+02 0.  0.
        -11    1    5    5    0    0 -0.11306033801E+02  0.53547370937E+01  0.92674604194E+00  0.12544260356E+02  0.00000000000E+00 0.  1.
         12    1    5    5    0    0 -0.38442144353E+02 -0.58774270243E+02  0.26530575492E+03  0.27444372264E+03  0.00000000000E+00 0. -1.
        -13    1    4    4    0    0 -0.36918715026E+02 -0.61561411412E+02  0.10979981776E+03  0.13118231159E+03  0.00000000000E+00 0.  1.
         14    1    4    4    0    0 -0.63383729029E+01  0.17862904576E+02  0.56141395713E+00  0.18962423806E+02  0.00000000000E+00 0. -1.
          5    1    3    3  501    0  0.98110139295E+01  0.40355347980E+02 -0.62362645631E+02  0.75073295352E+02  0.47000000000E+01 0. -1.
         -5    1    3    3    0  501  0.25576766770E+02 -0.66705113008E+01 -0.60797264674E+03  0.60856511230E+03  0.47000000000E+01 0. -1.
          1    1    1    2  502    0  0.67219230658E+02  0.27347466859E+02  0.12585295196E+04  0.12606200303E+04  0.00000000000E+00 0. -1.
          1    1    1    2  503    0 -0.96017452753E+01  0.36085736447E+02 -0.17267266892E+04  0.17271304042E+04  0.00000000000E+00 0. -1.
<mgrwt>
<rscale>  0 0.52058569E+02</rscale>
<asrwt>0</asrwt>
<pdfrwt beam="1">  1        2 0.24607227E+00 0.72576302E+02</pdfrwt>
<pdfrwt beam="2">  1        2 0.35812208E+00 0.37341316E+02</pdfrwt>
<totfact> 0.13556206E+01</totfact>
</mgrwt>
</event>
<event>
13    1  0.3019759E-008  0.1757825E+03  0.7546771E-02  0.1289600E+00
         -1   -1    0    0    0  501 -0.00000000000E+00  0.00000000000E+00  0.39818581610E+03  0.39818581610E+03  0.00000000000E+00 0.  1.
          2   -1    0    0  503    0  0.00000000000E+00 -0.00000000000E+00 -0.21526147718E+04  0.21526147718E+04  0.00000000000E+00 0. -1.
         25    2    1    2    0    0  0.59137411328E+02  0.27249814430E+03 -0.52264609821E+03  0.60542140536E+03  0.12499464800E+03 0.  0.
         24    2    1    2    0    0 -0.89848369548E+00 -0.94270450815E+02 -0.78447481366E+02  0.14564875746E+03  0.78560982983E+02 0.  0.
         24    2    1    2    0    0  0.67141312579E+02  0.29859913063E+01 -0.89619434667E+03  0.90261440699E+03  0.83854568748E+02 0.  0.
        -11    1    5    5    0    0  0.27854130313E+02  0.10745378096E+02 -0.79215268789E+02  0.84654441911E+02  0.00000000000E+00 0.  1.
         12    1    5    5    0    0  0.39287182266E+02 -0.77593867894E+01 -0.81697907788E+03  0.81795996508E+03  0.00000000000E+00 0. -1.
        -13    1    4    4    0    0 -0.68541256600E+01  0.79757052498E+01  0.66902826922E+01  0.12463979914E+02  0.00000000000E+00 0.  1.
         14    1    4    4    0    0  0.59556419645E+01 -0.10224615606E+03 -0.85137764058E+02  0.13318477755E+03  0.00000000000E+00 0. -1.
          5    1    3    3  502    0  0.54047918137E+02  0.62800729962E+02 -0.23619760958E+03  0.25035277093E+03  0.47000000000E+01 0.  1.
         -5    1    3    3    0  502  0.50894931915E+01  0.20969741434E+03 -0.28644848862E+03  0.35506863443E+03  0.47000000000E+01 0.  1.
          1    1    1    2  503    0 -0.12083957329E+02 -0.50684008260E+02 -0.55247296293E+03  0.55492455837E+03  0.00000000000E+00 0. -1.
         -2    1    1    2    0  501 -0.11329628288E+03 -0.13052967653E+03  0.29533193348E+03  0.34219145972E+03  0.00000000000E+00 0.  1.
<mgrwt>
<rscale>  0 0.95703069E+02</rscale>
<asrwt>0</asrwt>
<pdfrwt beam="2">  1        2 0.31656100E+00 0.52104613E+02</pdfrwt>
<pdfrwt beam="1">  1       -1 0.58556737E-01 0.17578247E+03</pdfrwt>
<totfact> 0.29470364E+01</totfact>
</mgrwt>
</event>
<event>
13    1  0.3019759E-008  0.1068723E+03  0.7546771E-02  0.1312899E+00
          2   -1    0    0  502    0  0.00000000000E+00  0.00000000000E+00  0.11440019222E+04  0.11440019222E+04  0.00000000000E+00 0. -1.
          2   -1    0    0  503    0 -0.00000000000E+00 -0.00000000000E+00 -0.12283421547E+04  0.12283421547E+04  0.00000000000E+00 0. -1.
         25    2    1    2    0    0 -0.19418302674E+03 -0.11677846798E+03 -0.30200411551E+03  0.39771461793E+03  0.12500469220E+03 0.  0.
         24    2    1    2    0    0  0.54346048996E+02  0.39865321696E+02  0.21276781252E+03  0.23734764250E+03  0.80752860266E+02 0.  0.
         24    2    1    2    0    0  0.21589708737E+02 -0.16543283309E+02  0.17308299261E+03  0.19494677421E+03  0.85479393411E+02 0.  0.
        -13    1    4    4    0    0 -0.75307583346E+00  0.49274338177E+02  0.98268118878E+02  0.10993248252E+03  0.00000000000E+00 0.  1.
         14    1    4    4    0    0  0.55099124830E+02 -0.94090164811E+01  0.11449969364E+03  0.12741515998E+03  0.00000000000E+00 0. -1.
        -13    1    5    5    0    0  0.30287991605E+01 -0.49830033444E+02  0.11627338642E+03  0.12653737095E+03  0.00000000000E+00 0.  1.
         14    1    5    5    0    0  0.18560909577E+02  0.33286750135E+02  0.56809606190E+02  0.68409403260E+02  0.00000000000E+00 0. -1.
          5    1    3    3  501    0 -0.15193529378E+03 -0.22748085353E+02 -0.15670894942E+03  0.21950306083E+03  0.47000000000E+01 0. -1.
         -5    1    3    3    0  501 -0.42247732959E+02 -0.94030382622E+02 -0.14529516609E+03  0.17821155710E+03  0.47000000000E+01 0. -1.
          1    1    1    2  502    0  0.10852123654E+03  0.24977970253E+02  0.68114684217E+03  0.69018966841E+03  0.00000000000E+00 0. -1.
          1    1    1    2  503    0  0.97260324653E+01  0.68478459335E+02 -0.84933376429E+03  0.85214537390E+03  0.00000000000E+00 0. -1.
<mgrwt>
<rscale>  0 0.85976156E+02</rscale>
<asrwt>0</asrwt>
<pdfrwt beam="1">  1        2 0.16823558E+00 0.10687232E+03</pdfrwt>
<pdfrwt beam="2">  1        2 0.18063855E+00 0.69165708E+02</pdfrwt>
<totfact> 0.85330197E+01</totfact>
</mgrwt>
</event>
<event>
13    1  0.3019759E-008  0.1022214E+03  0.7546771E-02  0.1576834E+00
          2   -1    0    0  503    0  0.00000000000E+00  0.00000000000E+00  0.21460668594E+04  0.21460668594E+04  0.00000000000E+00 0. -1.
          2   -1    0    0  502    0 -0.00000000000E+00 -0.00000000000E+00 -0.19345110411E+03  0.19345110411E+03  0.00000000000E+00 0. -1.
         25    2    1    2    0    0  0.35973394385E+02 -0.23975369690E+02  0.73740898999E+02  0.15143039639E+03  0.12499816522E+03 0.  0.
         24    2    1    2    0    0 -0.22429376405E+02 -0.92864656091E+02  0.49383171491E+03  0.50948065662E+03  0.81079316380E+02 0.  0.
         24    2    1    2    0    0 -0.45792867191E+02  0.15761918784E+02  0.86925480613E+03  0.87443063671E+03  0.81728793424E+02 0.  0.
        -11    1    5    5    0    0  0.15618170231E+02 -0.18869013120E+02  0.22096513985E+03  0.22231860005E+03  0.00000000000E+00 0.  1.
         12    1    5    5    0    0 -0.61411037422E+02  0.34630931903E+02  0.64828966628E+03  0.65211203666E+03  0.00000000000E+00 0. -1.
        -13    1    4    4    0    0 -0.31961022761E+02 -0.25871712466E+02  0.32503435716E+03  0.32762506896E+03  0.00000000000E+00 0.  1.
         14    1    4    4    0    0  0.95316463557E+01 -0.66992943626E+02  0.16879735775E+03  0.18185558766E+03  0.00000000000E+00 0. -1.
          5    1    3    3  501    0  0.43820050068E+02 -0.43451198376E+02  0.99925777916E+02  0.11753916165E+03  0.47000000000E+01 0. -1.
         -5    1    3    3    0  501 -0.78466556829E+01  0.19475828686E+02 -0.26184878916E+02  0.33891234741E+02  0.47000000000E+01 0. -1.
          1    1    1    2  502    0  0.39570730416E+02  0.94228308853E+02 -0.12604092572E+03  0.16226870262E+03  0.00000000000E+00 0. -1.
          1    1    1    2  503    0 -0.73218812047E+01  0.68497981439E+01  0.64182926102E+03  0.64190757121E+03  0.00000000000E+00 0. -1.
<mgrwt>
<rscale>  0 0.32014328E+02</rscale>
<asrwt>0</asrwt>
<pdfrwt beam="1">  1        2 0.31559805E+00 0.10026449E+02</pdfrwt>
<pdfrwt beam="2">  1        2 0.28448693E-01 0.10222136E+03</pdfrwt>
<totfact> 0.29626451E+02</totfact>
</mgrwt>
</event>
<event>
13    1  0.3019759E-008  0.6281774E+02  0.7546771E-02  0.1419654E+00
         -1   -1    0    0    0  501 -0.00000000000E+00  0.00000000000E+00  0.19014843395E+03  0.19014843395E+03  0.00000000000E+00 0.  1.
          2   -1    0    0  503    0  0.00000000000E+00 -0.00000000000E+00 -0.11180132111E+04  0.11180132111E+04  0.00000000000E+00 0. -1.
         25    2    1    2    0    0 -0.37224737901E+02  0.26978092900E+02 -0.60909877701E+02  0.14645981014E+03  0.12500785645E+03 0.  0.
         24    2    1    2    0    0 -0.93645671044E+01 -0.81663035077E+02 -0.32232641853E+03  0.34185771234E+03  0.78840528822E+02 0.  0.
         24    2    1    2    0    0 -0.14085228315E+02  0.79527254186E+02 -0.37835479236E+03  0.39533100976E+03  0.81309781479E+02 0.  0.
        -11    1    4    4    0    0 -0.39612518967E+02 -0.19211482960E+02 -0.14070099959E+03  0.14742796214E+03  0.00000000000E+00 0.  1.
         12    1    4    4    0    0  0.30247951863E+02 -0.62451552116E+02 -0.18162541894E+03  0.19442975019E+03  0.00000000000E+00 0. -1.
        -11    1    5    5    0    0 -0.42492312672E+02  0.63982647193E+02 -0.31439360845E+03  0.32363979485E+03  0.00000000000E+00 0.  1.
         12    1    5    5    0    0  0.28407084358E+02  0.15544606993E+02 -0.63961183908E+02  0.71691214910E+02  0.00000000000E+00 0. -1.
          5    1    3    3  502    0  0.29020976171E+02 -0.82244506591E+01  0.19629770506E+02  0.36294304466E+02  0.47000000000E+01 0.  1.
         -5    1    3    3    0  502 -0.66245714072E+02  0.35202543559E+02 -0.80539648208E+02  0.11016550567E+03  0.47000000000E+01 0.  1.
          1    1    1    2  503    0  0.22292584756E+01 -0.48268895213E+02 -0.28556485054E+03  0.28962413522E+03  0.00000000000E+00 0. -1.
         -2    1    1    2    0  501  0.58445274845E+02  0.23426583203E+02  0.11929116198E+03  0.13488897760E+03  0.00000000000E+00 0.  1.
<mgrwt>
<rscale>  0 0.55094238E+02</rscale>
<asrwt>0</asrwt>
<pdfrwt beam="2">  1        2 0.16441371E+00 0.48320346E+02</pdfrwt>
<pdfrwt beam="1">  1       -1 0.27963004E-01 0.62817742E+02</pdfrwt>
<totfact> 0.33729230E+02</totfact>
</mgrwt>
</event>
<event>
13    1  0.3019759E-008  0.6379372E+02  0.7546771E-02  0.1503754E+00
          2   -1    0    0  503    0  0.00000000000E+00  0.00000000000E+00  0.23495272548E+04  0.23495272548E+04  0.00000000000E+00 0. -1.
          2   -1    0    0  502    0 -0.00000000000E+00 -0.00000000000E+00 -0.23190029125E+04  0.23190029125E+04  0.00000000000E+00 0. -1.
         25    2    1    2    0    0 -0.41475661125E+03 -0.22374213057E+01 -0.21644815574E+03  0.48424877322E+03  0.12497606815E+03 0.  0.
         24    2    1    2    0    0  0.54758513153E+02  0.11411860333E+03  0.34919303093E+03  0.37977789266E+03  0.79208108893E+02 0.  0.
         24    2    1    2    0    0  0.37377084943E+03 -0.17899599802E+03  0.13360631788E+04  0.14024918003E+04  0.10086732468E+03 0.  0.
        -11    1    4    4    0    0  0.74129294635E+02  0.81375689095E+02  0.27915367268E+03  0.30007320451E+03  0.00000000000E+00 0.  1.
         12    1    4    4    0    0 -0.19370781483E+02  0.32742914232E+02  0.70039358253E+02  0.79704688144E+02  0.00000000000E+00 0. -1.
        -11    1    5    5    0    0 -0.19954201173E+01 -0.13742405661E+02  0.75721182412E+02  0.76983978077E+02  0.00000000000E+00 0.  1.
         12    1    5    5    0    0  0.37576626955E+03 -0.16525359236E+03  0.12603419964E+04  0.13255078223E+04  0.00000000000E+00 0. -1.
          5    1    3    3  501    0 -0.28187358108E+03 -0.59429051410E+02 -0.13510251877E+03  0.31821267800E+03  0.47000000000E+01 0. -1.
         -5    1    3    3    0  501 -0.13288303017E+03  0.57191630104E+02 -0.81345636969E+02  0.16603609521E+03  0.47000000000E+01 0. -1.
          1    1    1    2  502    0 -0.25476856984E+02  0.44022371994E+01 -0.19179486819E+04  0.19181229356E+04  0.00000000000E+00 0. -1.
          1    1    1    2  503    0  0.11704105652E+02  0.62712578802E+02  0.47966497022E+03  0.48388876540E+03  0.00000000000E+00 0. -1.
<mgrwt>
<rscale>  0 0.40612170E+02</rscale>
<asrwt>0</asrwt>
<pdfrwt beam="1">  1        2 0.34551871E+00 0.63793724E+02</pdfrwt>
<pdfrwt beam="2">  1        2 0.34102984E+00 0.25854399E+02</pdfrwt>
<totfact> 0.78337496E+00</totfact>
</mgrwt>
</event>
<event>
13    1  0.3019759E-008  0.1257796E+03  0.7546771E-02  0.1331488E+00
          2   -1    0    0  502    0  0.00000000000E+00  0.00000000000E+00  0.12822043458E+04  0.12822043458E+04  0.00000000000E+00 0. -1.
          2   -1    0    0  503    0 -0.00000000000E+00 -0.00000000000E+00 -0.42960311541E+04  0.42960311541E+04  0.00000000000E+00 0. -1.
         25    2    1    2    0    0 -0.37535035300E+03  0.12364245405E+03 -0.35953512143E+03  0.54869400484E+03  0.12499705385E+03 0.  0.
         24    2    1    2    0    0  0.51312921849E+03  0.18173091220E+03  0.37244320454E+03  0.66271452593E+03  0.64411823042E+02 0.  0.
         24    2    1    2    0    0 -0.12396119475E+03 -0.22574148942E+03  0.21906289029E+03  0.34722660847E+03  0.79070663838E+02 0.  0.
        -11    1    4    4    0    0  0.34330201033E+03  0.89056730565E+02  0.24397711746E+03  0.43047904177E+03  0.00000000000E+00 0.  1.
         12    1    4    4    0    0  0.16982720816E+03  0.92674181637E+02  0.12846608707E+03  0.23223548416E+03  0.00000000000E+00 0. -1.
        -11    1    5    5    0    0 -0.23875102635E+01 -0.76827160696E+02  0.70076017792E+02  0.10401327365E+03  0.00000000000E+00 0.  1.
         12    1    5    5    0    0 -0.12157368448E+03 -0.14891432873E+03  0.14898687250E+03  0.24321333482E+03  0.00000000000E+00 0. -1.
          5    1    3    3  501    0 -0.11358816962E+03  0.10020513100E+03 -0.13707982968E+03  0.20434360832E+03  0.47000000000E+01 0.  1.
         -5    1    3    3    0  501 -0.26176218338E+03  0.23437323048E+02 -0.22245529175E+03  0.34435039652E+03  0.47000000000E+01 0.  1.
          1    1    1    2  502    0 -0.18837409081E+02  0.46104454202E+02  0.38420375692E+03  0.38741837270E+03  0.00000000000E+00 0. -1.
          1    1    1    2  503    0  0.50197383336E+01 -0.12573633103E+03 -0.36300015387E+04  0.36321819880E+04  0.00000000000E+00 0. -1.
<mgrwt>
<rscale>  0 0.79147729E+02</rscale>
<asrwt>0</asrwt>
<pdfrwt beam="1">  1        2 0.18855946E+00 0.49804304E+02</pdfrwt>
<pdfrwt beam="2">  1        2 0.63176928E+00 0.12577955E+03</pdfrwt>
<totfact> 0.14653745E+00</totfact>
</mgrwt>
</event>
<event>
13    1  0.3019759E-008  0.1435671E+03  0.7546771E-02  0.1247594E+00
          2   -1    0    0  502    0  0.00000000000E+00  0.00000000000E+00  0.11750421807E+04  0.11750421807E+04  0.00000000000E+00 0. -1.
          2   -1    0    0  503    0 -0.00000000000E+00 -0.00000000000E+00 -0.10416612805E+04  0.10416612805E+04  0.00000000000E+00 0. -1.
         25    2    1    2    0    0  0.15390314491E+03  0.98533073361E+02 -0.28325367522E+03  0.35951749521E+03  0.12500096111E+03 0.  0.
         24    2    1    2    0    0  0.22631914092E+01  0.35289250381E+02  0.70719047097E+02  0.10421077711E+03  0.67884086624E+02 0.  0.
         24    2    1    2    0    0  0.19934245664E+02  0.40708656203E+02 -0.89140341223E+01  0.90119443793E+02  0.77378842749E+02 0.  0.
        -11    1    5    5    0    0  0.14248600825E+02 -0.14765773701E+02 -0.24749639774E+02  0.32149578029E+02  0.00000000000E+00 0.  1.
         12    1    5    5    0    0  0.56856448387E+01  0.55474429904E+02  0.15835605652E+02  0.57969865765E+02  0.00000000000E+00 0. -1.
        -13    1    4    4    0    0  0.22628186121E+02 -0.10049705692E+02  0.12743866810E+02  0.27846679028E+02  0.00000000000E+00 0.  1.
         14    1    4    4    0    0 -0.20364994711E+02  0.45338956072E+02  0.57975180287E+02  0.76364098087E+02  0.00000000000E+00 0. -1.
          5    1    3    3  501    0 -0.52844148704E+01  0.49362568199E+01 -0.96339331704E+02  0.96724601343E+02  0.47000000000E+01 0.  1.
         -5    1    3    3    0  501  0.15918755978E+03  0.93596816542E+02 -0.18691434352E+03  0.26279289387E+03  0.47000000000E+01 0.  1.
          1    1    1    2  502    0 -0.26349813715E+03 -0.12967933499E+03  0.98357466748E+03  0.10264828906E+04  0.00000000000E+00 0. -1.
          1    1    1    2  503    0  0.87397555175E+02 -0.44851644956E+02 -0.62874510512E+03  0.63637285448E+03  0.00000000000E+00 0. -1.
<mgrwt>
<rscale>  0 0.11731435E+03</rscale>
<asrwt>0</asrwt>
<pdfrwt beam="1">  1        2 0.17280032E+00 0.14356707E+03</pdfrwt>
<pdfrwt beam="2">  1        2 0.15318548E+00 0.95862218E+02</pdfrwt>
<totfact> 0.99838878E+01</totfact>
</mgrwt>
</event>
<event>
13    1  0.3019759E-008  0.7386424E+02  0.7546771E-02  0.1527271E+00
          2   -1    0    0  503    0  0.00000000000E+00  0.00000000000E+00  0.71961990663E+03  0.71961990663E+03  0.00000000000E+00 0. -1.
         -3   -1    0    0    0  501 -0.00000000000E+00 -0.00000000000E+00 -0.18562928379E+04  0.18562928379E+04  0.00000000000E+00 0.  1.
         25    2    1    2    0    0 -0.43051238095E+02 -0.41345611066E+01 -0.11148502694E+04  0.11226693809E+04  0.12499964734E+03 0.  0.
         24    2    1    2    0    0  0.43016551121E+01  0.20186918115E+02 -0.11109685053E+03  0.13877792301E+03  0.80565413293E+02 0.  0.
         24    2    1    2    0    0 -0.21761549236E+02 -0.11360419931E+02 -0.72877157715E+01  0.83880094522E+02  0.79875749072E+02 0.  0.
        -13    1    5    5    0    0  0.12444106680E+02  0.20817395345E+02  0.18315556545E+02  0.30392093570E+02  0.00000000000E+00 0.  1.
         14    1    5    5    0    0 -0.34205655916E+02 -0.32177815276E+02 -0.25603272317E+02  0.53488000953E+02  0.00000000000E+00 0. -1.
        -13    1    4    4    0    0 -0.26635773506E+01  0.29684716394E+02 -0.12023294096E+03  0.12387185768E+03  0.00000000000E+00 0.  1.
         14    1    4    4    0    0  0.69652324626E+01 -0.94977982787E+01  0.91360904350E+01  0.14906065337E+02  0.00000000000E+00 0. -1.
          5    1    3    3  502    0  0.18271788242E+02 -0.34000699549E+02 -0.13642806227E+03  0.14186124203E+03  0.47000000000E+01 0.  1.
         -5    1    3    3    0  502 -0.61323026337E+02  0.29866138442E+02 -0.97842220714E+03  0.98080813884E+03  0.47000000000E+01 0.  1.
          1    1    1    2  503    0  0.73278915699E+02  0.94622127828E+01  0.66135554424E+03  0.66547012619E+03  0.00000000000E+00 0. -1.
         -4    1    1    2    0  501 -0.12767783480E+02 -0.14154149860E+02 -0.56479363982E+03  0.56511521997E+03  0.00000000000E+00 0.  1.
<mgrwt>
<rscale>  0 0.37523235E+02</rscale>
<asrwt>0</asrwt>
<pdfrwt beam="1">  1        2 0.10582646E+00 0.73864240E+02</pdfrwt>
<pdfrwt beam="2">  1       -3 0.27298424E+00 0.19061906E+02</pdfrwt>
<totfact> 0.19821392E+00</totfact>
</mgrwt>
</event>
<event>
13    1  0.3019759E-008  0.1182026E+03  0.7546771E-02  0.1487328E+00
          2   -1    0    0  503    0  0.00000000000E+00  0.00000000000E+00  0.70429529919E+03  0.70429529919E+03  0.00000000000E+00 0. -1.
          2   -1    0    0  502    0 -0.00000000000E+00 -0.00000000000E+00 -0.25567882878E+04  0.25567882878E+04  0.00000000000E+00 0. -1.
         25    2    1    2    0    0 -0.15291155602E+03  0.64964424021E+02 -0.86948939715E+03  0.89399941212E+03  0.12498326592E+03 0.  0.
         24    2    1    2    0    0  0.23563914820E+03 -0.19416662455E+02 -0.64950030671E+02  0.25666363726E+03  0.75861065510E+02 0.  0.
         24    2    1    2    0    0 -0.14935077928E+03 -0.12668884706E+03  0.33479995000E+03  0.39617538015E+03  0.80673453372E+02 0.  0.
        -11    1    5    5    0    0 -0.14311162451E+03 -0.13723478323E+03  0.32392772924E+03  0.37979401861E+03  0.00000000000E+00 0.  1.
         12    1    5    5    0    0 -0.62391547710E+01  0.10545936169E+02  0.10872220758E+02  0.16381361547E+02  0.00000000000E+00 0. -1.
        -13    1    4    4    0    0  0.13123331653E+03  0.13873992934E+02 -0.57023011836E+01  0.13208780143E+03  0.00000000000E+00 0.  1.
         14    1    4    4    0    0  0.10440583167E+03 -0.33290655388E+02 -0.59247729487E+02  0.12457583583E+03  0.00000000000E+00 0. -1.
          5    1    3    3  501    0  0.43353525001E+01  0.30411965147E+02 -0.31674952586E+03  0.31827038039E+03  0.47000000000E+01 0. -1.
         -5    1    3    3    0  501 -0.15724690852E+03  0.34552458874E+02 -0.55273987129E+03  0.57572903172E+03  0.47000000000E+01 0. -1.
          1    1    1    2  502    0 -0.17167493871E+01 -0.15537122857E+02 -0.14683150518E+04  0.14683982569E+04  0.00000000000E+00 0. -1.
          1    1    1    2  503    0  0.68339936490E+02  0.96678208355E+02  0.21546154100E+03  0.24584690061E+03  0.00000000000E+00 0. -1.
<mgrwt>
<rscale>  0 0.42984947E+02</rscale>
<asrwt>0</asrwt>
<pdfrwt beam="1">  1        2 0.10357284E+00 0.11820263E+03</pdfrwt>
<pdfrwt beam="2">  1        2 0.37599828E+00 0.15631680E+02</pdfrwt>
<totfact> 0.45415004E+01</totfact>
</mgrwt>
</event>
<event>
13    1  0.3019759E-008  0.8390854E+02  0.7546771E-02  0.1396471E+00
          2   -1    0    0  502    0  0.00000000000E+00  0.00000000000E+00  0.19944864141E+04  0.19944864141E+04  0.00000000000E+00 0. -1.
          2   -1    0    0  503    0 -0.00000000000E+00 -0.00000000000E+00 -0.19804542890E+04  0.19804542890E+04  0.00000000000E+00 0. -1.
         25    2    1    2    0    0  0.75859799771E+02  0.10385737675E+03 -0.13088742692E+04  0.13211039079E+04  0.12499047569E+03 0.  0.
         24    2    1    2    0    0 -0.99035240535E+01 -0.12309601135E+02 -0.46732355442E+02  0.93928449256E+02  0.79931436029E+02 0.  0.
         24    2    1    2    0    0 -0.23474903237E+02  0.46118040552E+02  0.21552323057E+03  0.23662578273E+03  0.82846565352E+02 0.  0.
        -11    1    4    4    0    0 -0.17349745837E+02 -0.44395671320E+02 -0.34290460127E+02  0.58718182604E+02  0.00000000000E+00 0.  1.
         12    1    4    4    0    0  0.74462217837E+01  0.32086070184E+02 -0.12441895315E+02  0.35210266653E+02  0.00000000000E+00 0. -1.
        -13    1    5    5    0    0  0.23413904893E+02 -0.56094133045E+01  0.88088530519E+02  0.91319579878E+02  0.00000000000E+00 0.  1.
         14    1    5    5    0    0 -0.46888808130E+02  0.51727453856E+02  0.12743470005E+03  0.14530620286E+03  0.00000000000E+00 0. -1.
          5    1    3    3  501    0  0.80676487009E+02  0.46833220774E+02 -0.11149992165E+04  0.11189045486E+04  0.47000000000E+01 0.  1.
         -5    1    3    3    0  501 -0.48166872374E+01  0.57024155980E+02 -0.19387505270E+03  0.20219935930E+03  0.47000000000E+01 0.  1.
          1    1    1    2  502    0 -0.10069774180E+02 -0.10884773102E+03  0.17361733273E+04  0.17396111782E+04  0.00000000000E+00 0. -1.
          1    1    1    2  503    0 -0.32411598300E+02 -0.28818085150E+02 -0.58205780814E+03  0.58367138507E+03  0.00000000000E+00 0. -1.
<mgrwt>
<rscale>  0 0.60325358E+02</rscale>
<asrwt>0</asrwt>
<pdfrwt beam="1">  1        2 0.29330683E+00 0.83908535E+02</pdfrwt>
<pdfrwt beam="2">  1        2 0.29124328E+00 0.43370425E+02</pdfrwt>
<totfact> 0.14984872E+01</totfact>
</mgrwt>
</event>
<event>
13    1  0.3019759E-008  0.8505538E+02  0.7546771E-02  0.1470965E+00
          2   -1    0    0  503    0  0.00000000000E+00  0.00000000000E+00  0.28280414116E+04  0.28280414116E+04  0.00000000000E+00 0. -1.
          2   -1    0    0  502    0 -0.00000000000E+00 -0.00000000000E+00 -0.69904341043E+03  0.69904341043E+03  0.00000000000E+00 0. -1.
         25    2    1    2    0    0 -0.88318907098E+02  0.25810649640E+02  0.32517382910E+02  0.15859180702E+03  0.12501024789E+03 0.  0.
         24    2    1    2    0    0  0.38644174613E+02  0.25210393155E+02  0.24432968572E+03  0.26063637618E+03  0.78136989371E+02 0.  0.
         24    2    1    2    0    0 -0.27673157051E+02 -0.26283336596E+01  0.39510413575E+03  0.40436722829E+03  0.81442405842E+02 0.  0.
        -11    1    4    4    0    0  0.63177959070E+01  0.39256780588E+02  0.53938724791E+02  0.67010412619E+02  0.00000000000E+00 0.  1.
         12    1    4    4    0    0  0.32326378706E+02 -0.14046387433E+02  0.19039096093E+03  0.19362596356E+03  0.00000000000E+00 0. -1.
        -11    1    5    5    0    0  0.11225786456E+02 -0.34132141889E+02  0.15718183646E+03  0.16123632067E+03  0.00000000000E+00 0.  1.
         12    1    5    5    0    0 -0.38898943507E+02  0.31503808230E+02  0.23792229929E+03  0.24313090762E+03  0.00000000000E+00 0. -1.
          5    1    3    3  501    0 -0.10324498650E+03 -0.13112957125E+02 -0.21000646145E+01  0.10420161780E+03  0.47000000000E+01 0. -1.
         -5    1    3    3    0  501  0.14926079401E+02  0.38923606765E+02  0.34617447524E+02  0.54390189216E+02  0.47000000000E+01 0. -1.
          1    1    1    2  502    0  0.97633151534E+01  0.22349252224E+02 -0.62183178531E+03  0.62230987507E+03  0.00000000000E+00 0. -1.
          1    1    1    2  503    0  0.67584574382E+02 -0.70741961360E+02  0.20788785821E+04  0.20811795355E+04  0.00000000000E+00 0. -1.
<mgrwt>
<rscale>  0 0.45545524E+02</rscale>
<asrwt>0</asrwt>
<pdfrwt beam="1">  1        2 0.41588844E+00 0.85055376E+02</pdfrwt>
<pdfrwt beam="2">  1        2 0.10280050E+00 0.24388756E+02</pdfrwt>
<totfact> 0.26942382E+01</totfact>
</mgrwt>
</event>
<event>
13    1  0.3019759E-008  0.8967609E+02  0.7546771E-02  0.1375403E+00
         -1   -1    0    0    0  501 -0.00000000000E+00  0.00000000000E+00  0.18953848797E+04  0.18953848797E+04  0.00000000000E+00 0.  1.
          2   -1    0    0  503    0  0.00000000000E+00 -0.00000000000E+00 -0.74394458174E+03  0.74394458174E+03  0.00000000000E+00 0. -1.
         25    2    1    2    0    0 -0.38978710389E+02  0.16548329459E+03  0.11100840779E+04  0.11299625902E+04  0.12499893825E+03 0.  0.
         24    2    1    2    0    0  0.12271096833E+03 -0.22368582559E+03  0.78497101594E+02  0.27781183612E+03  0.76969416072E+02 0.  0.
         24    2    1    2    0    0 -0.78548471834E+02 -0.17655268995E+02 -0.18792126608E+03  0.21977979046E+03  0.80667112856E+02 0.  0.
        -11    1    4    4    0    0  0.95039485496E+01  0.51586292811E+00  0.16600579409E+02  0.19135579148E+02  0.00000000000E+00 0.  1.
         12    1    4    4    0    0  0.11320701978E+03 -0.22420168851E+03  0.61896522184E+02  0.25867625697E+03  0.00000000000E+00 0. -1.
        -11    1    5    5    0    0  0.66257305663E+01  0.13137021564E+02 -0.67590236924E+02  0.69173128949E+02  0.00000000000E+00 0.  1.
         12    1    5    5    0    0 -0.85174202400E+02 -0.30792290559E+02 -0.12033102916E+03  0.15060666151E+03  0.00000000000E+00 0. -1.
          5    1    3    3  502    0  0.22577824576E+02  0.11106690486E+03  0.42220068453E+03  0.43717401973E+03  0.47000000000E+01 0.  1.
         -5    1    3    3    0  502 -0.61556534964E+02  0.54416389727E+02  0.68788339342E+03  0.69278857049E+03  0.47000000000E+01 0.  1.
          1    1    1    2  503    0 -0.53170153787E+02  0.72325922493E+02 -0.42480313933E+03  0.43418407559E+03  0.00000000000E+00 0. -1.
         -2    1    1    2    0  501  0.47986367679E+02  0.35318775022E+01  0.57558352387E+03  0.57759116907E+03  0.00000000000E+00 0.  1.
<mgrwt>
<rscale>  0 0.65687670E+02</rscale>
<asrwt>0</asrwt>
<pdfrwt beam="2">  1        2 0.10940362E+00 0.89676093E+02</pdfrwt>
<pdfrwt beam="1">  1       -1 0.27873307E+00 0.48116168E+02</pdfrwt>
<totfact> 0.31595735E+00</totfact>
</mgrwt>
</event>
<event>
13    1  0.3019759E-008  0.6722370E+02  0.7546771E-02  0.1383978E+00
          2   -1    0    0  503    0  0.00000000000E+00  0.00000000000E+00  0.32179999844E+04  0.32179999844E+04  0.00000000000E+00 0. -1.
          2   -1    0    0  502    0 -0.00000000000E+00 -0.00000000000E+00 -0.21945358435E+04  0.21945358435E+04  0.00000000000E+00 0. -1.
         25    2    1    2    0    0  0.12625639055E+03  0.11595029227E+03 -0.41807835989E+02  0.21623626362E+03  0.12500032049E+03 0.  0.
         24    2    1    2    0    0  0.40165926659E+02 -0.42279605964E+02  0.79034183199E+02  0.12494011248E+03  0.77218928040E+02 0.  0.
         24    2    1    2    0    0 -0.92170056954E+02  0.19158044297E+02  0.49366078689E+03  0.50903250412E+03  0.80936812906E+02 0.  0.
        -13    1    5    5    0    0 -0.10066884119E+03 -0.18483211566E+01  0.37847005376E+03  0.39163403002E+03  0.00000000000E+00 0.  1.
         14    1    5    5    0    0  0.84987842357E+01  0.21006365453E+02  0.11519073312E+03  0.11739847410E+03  0.00000000000E+00 0. -1.
        -13    1    4    4    0    0 -0.54138994426E+01 -0.49954447621E+02  0.36266025455E+02  0.61967586258E+02  0.00000000000E+00 0.  1.
         14    1    4    4    0    0  0.45579826102E+02  0.76748416573E+01  0.42768157744E+02  0.62972526222E+02  0.00000000000E+00 0. -1.
          5    1    3    3  501    0 -0.23777722408E+02  0.22696646089E+02  0.46140586415E+01  0.33524578502E+02  0.47000000000E+01 0.  1.
         -5    1    3    3    0  501  0.15003411296E+03  0.93253646182E+02 -0.46421894630E+02  0.18271168512E+03  0.47000000000E+01 0.  1.
          1    1    1    2  502    0 -0.57038290942E+02 -0.35507931807E+02 -0.20339658856E+04  0.20350752821E+04  0.00000000000E+00 0. -1.
          1    1    1    2  503    0 -0.17213969315E+02 -0.57320798797E+02  0.25265428924E+04  0.25272516657E+04  0.00000000000E+00 0. -1.
<mgrwt>
<rscale>  0 0.63429667E+02</rscale>
<asrwt>0</asrwt>
<pdfrwt beam="1">  1        2 0.47323529E+00 0.59849768E+02</pdfrwt>
<pdfrwt beam="2">  1        2 0.32272586E+00 0.67223698E+02</pdfrwt>
<totfact> 0.28953195E+00</totfact>
</mgrwt>
</event>
<event>
13    1  0.3019759E-008  0.1203327E+03  0.7546771E-02  0.1260373E+00
          2   -1    0    0  503    0  0.00000000000E+00  0.00000000000E+00  0.11331664796E+04  0.11331664796E+04  0.00000000000E+00 0. -1.
          2   -1    0    0  502    0 -0.00000000000E+00 -0.00000000000E+00 -0.26340263226E+04  0.26340263226E+04  0.00000000000E+00 0. -1.
         25    2    1    2    0    0  0.14660508229E+02 -0.94045897009E+02 -0.24907274359E+03  0.29448633599E+03  0.12500163696E+03 0.  0.
         24    2    1    2    0    0  0.10268193537E+02 -0.45034194939E+01  0.32738923015E+02  0.87261642090E+02  0.80106432416E+02 0.  0.
         24    2    1    2    0    0 -0.34717374522E+02 -0.67198940385E+02  0.46118704117E+02  0.12293700166E+03  0.85238358886E+02 0.  0.
        -11    1    5    5    0    0 -0.23210393923E+02 -0.85084505946E+01 -0.21429803929E+02  0.32716243886E+02  0.00000000000E+00 0.  1.
         12    1    5    5    0    0 -0.11506980598E+02 -0.58690489790E+02  0.67548508046E+02  0.90220757775E+02  0.00000000000E+00 0. -1.
        -13    1    4    4    0    0 -0.31442182574E+02  0.12701449244E+02  0.49471278074E+01  0.34269691149E+02  0.00000000000E+00 0.  1.
         14    1    4    4    0    0  0.41710376111E+02 -0.17204868738E+02  0.27791795207E+02  0.52991950940E+02  0.00000000000E+00 0. -1.
          5    1    3    3  501    0 -0.28368485097E+02 -0.10240393313E+03 -0.21076476640E+03  0.23608306425E+03  0.47000000000E+01 0. -1.
         -5    1    3    3    0  501  0.43028993326E+02  0.83580361239E+01 -0.38307977182E+02  0.58403271743E+02  0.47000000000E+01 0. -1.
          1    1    1    2  502    0  0.10027906039E+03 -0.96052862555E+01 -0.22853774313E+04  0.22875965892E+04  0.00000000000E+00 0. -1.
          1    1    1    2  503    0 -0.90490387638E+02  0.17535354314E+03  0.95473270469E+03  0.97491123327E+03  0.00000000000E+00 0. -1.
<mgrwt>
<rscale>  0 0.11010636E+03</rscale>
<asrwt>0</asrwt>
<pdfrwt beam="1">  1        2 0.16664213E+00 0.12033275E+03</pdfrwt>
<pdfrwt beam="2">  1        2 0.38735681E+00 0.10074905E+03</pdfrwt>
<totfact> 0.17064663E+01</totfact>
</mgrwt>
</event>
<event>
13    1  0.3019759E-008  0.8292711E+02  0.7546771E-02  0.1341539E+00
          2   -1    0    0  502    0  0.00000000000E+00  0.00000000000E+00  0.85347346677E+03  0.85347346677E+03  0.00000000000E+00 0. -1.
          2   -1    0    0  503    0 -0.00000000000E+00 -0.00000000000E+00 -0.30067843452E+04  0.30067843452E+04  0.00000000000E+00 0. -1.
         25    2    1    2    0    0  0.52313756002E+02 -0.18197559054E+03 -0.15594797561E+04  0.15758989089E+04  0.12501366609E+03 0.  0.
         24    2    1    2    0    0 -0.18600051926E+02  0.10016977077E+03 -0.24183362155E+03  0.27436543587E+03  0.80080877760E+02 0.  0.
         24    2    1    2    0    0 -0.15497979437E+02 -0.66066057740E+02 -0.87739355183E+01  0.10515658725E+03  0.79849950195E+02 0.  0.
        -11    1    5    5    0    0 -0.29978506651E+02  0.65973262361E+01 -0.22847635069E+01  0.30780768651E+02  0.00000000000E+00 0.  1.
         12    1    5    5    0    0  0.14480527214E+02 -0.72663383976E+02 -0.64891720115E+01  0.74375818602E+02  0.00000000000E+00 0. -1.
        -13    1    4    4    0    0 -0.45820267176E+02  0.40668263500E+02 -0.14591145128E+03  0.15825155972E+03  0.00000000000E+00 0.  1.
         14    1    4    4    0    0  0.27220215249E+02  0.59501507269E+02 -0.95922170270E+02  0.11611387615E+03  0.00000000000E+00 0. -1.
          5    1    3    3  501    0  0.73311755087E+02 -0.52216890117E+02 -0.47532150385E+03  0.48379111099E+03  0.47000000000E+01 0.  1.
         -5    1    3    3    0  501 -0.20997999085E+02 -0.12975870042E+03 -0.10841582522E+04  0.10921077979E+04  0.47000000000E+01 0.  1.
          1    1    1    2  502    0 -0.19917787729E+02  0.66280902559E+02  0.77778680658E+03  0.78085990600E+03  0.00000000000E+00 0. -1.
          1    1    1    2  503    0  0.17020630897E+01  0.81590974951E+02 -0.11210103718E+04  0.11239769739E+04  0.00000000000E+00 0. -1.
<mgrwt>
<rscale>  0 0.75758145E+02</rscale>
<asrwt>0</asrwt>
<pdfrwt beam="1">  1        2 0.12551081E+00 0.69208932E+02</pdfrwt>
<pdfrwt beam="2">  1        2 0.44217416E+00 0.82927107E+02</pdfrwt>
<totfact> 0.16788040E+01</totfact>
</mgrwt>
</event>
<event>
13    1  0.3019759E-008  0.9267931E+02  0.7546771E-02  0.1313171E+00
          2   -1    0    0  502    0  0.00000000000E+00  0.00000000000E+00  0.48270540298E+03  0.48270540298E+03  0.00000000000E+00 0. -1.
          2   -1    0    0  503    0 -0.00000000000E+00 -0.00000000000E+00 -0.13714333392E+04  0.13714333392E+04  0.00000000000E+00 0. -1.
         25    2    1    2    0    0  0.76976070252E+02 -0.11418685642E+03 -0.19193629510E+03  0.26725957985E+03  0.12499675227E+03 0.  0.
         24    2    1    2    0    0 -0.19200144808E+02  0.39003146189E+02  0.12326225379E+03  0.15460635555E+03  0.82581178219E+02 0.  0.
         24    2    1    2    0    0  0.36399047367E+01 -0.20218295420E+02  0.93525739912E+02  0.12335767322E+03  0.77769037150E+02 0.  0.
        -13    1    5    5    0    0 -0.33479542297E+02 -0.14400437181E+02  0.22018049462E+02  0.42579887805E+02  0.00000000000E+00 0.  1.
         14    1    5    5    0    0  0.37119447033E+02 -0.58178582390E+01  0.71507690450E+02  0.80777785412E+02  0.00000000000E+00 0. -1.
        -13    1    4    4    0    0 -0.26358333078E+02 -0.15303476356E+02  0.77332890286E+02  0.83122403907E+02  0.00000000000E+00 0.  1.
         14    1    4    4    0    0  0.71581882699E+01  0.54306622546E+02  0.45929363499E+02  0.71483951647E+02  0.00000000000E+00 0. -1.
          5    1    3    3  501    0 -0.20489586193E+02 -0.76077473419E+02 -0.62084854460E+02  0.10042023829E+03  0.47000000000E+01 0. -1.
         -5    1    3    3    0  501  0.97465656445E+02 -0.38109383001E+02 -0.12985144064E+03  0.16683934157E+03  0.47000000000E+01 0. -1.
          1    1    1    2  502    0  0.30600380261E+02  0.82243493305E+02  0.18586996640E+03  0.20554323115E+03  0.00000000000E+00 0. -1.
          1    1    1    2  503    0 -0.92016210442E+02  0.13158512347E+02 -0.10994496012E+04  0.11033719024E+04  0.00000000000E+00 0. -1.
<mgrwt>
<rscale>  0 0.85870623E+02</rscale>
<asrwt>0</asrwt>
<pdfrwt beam="1">  1        2 0.70986089E-01 0.79562139E+02</pdfrwt>
<pdfrwt beam="2">  1        2 0.20168137E+00 0.92679306E+02</pdfrwt>
<totfact> 0.20049740E+02</totfact>
</mgrwt>
</event>
<event>
13    1  0.3019759E-008  0.1099850E+03  0.7546771E-02  0.1319232E+00
          2   -1    0    0  503    0  0.00000000000E+00  0.00000000000E+00  0.42472564999E+04  0.42472564999E+04  0.00000000000E+00 0. -1.
          2   -1    0    0  502    0 -0.00000000000E+00 -0.00000000000E+00 -0.83095435437E+03  0.83095435437E+03  0.00000000000E+00 0. -1.
         25    2    1    2    0    0  0.59966118271E+02  0.41261542705E+02 -0.17717504373E+03  0.22872268891E+03  0.12499848821E+03 0.  0.
         24    2    1    2    0    0 -0.16515651615E+03 -0.71781748174E+02  0.67605868490E+02  0.20819145033E+03  0.79648178483E+02 0.  0.
         24    2    1    2    0    0 -0.24265260011E+02 -0.76892777283E+02  0.97730514710E+03  0.98387240820E+03  0.79864028315E+02 0.  0.
        -11    1    5    5    0    0  0.42855446487E+01  0.45558415852E+01  0.57653230770E+01  0.85064996131E+01  0.00000000000E+00 0.  1.
         12    1    5    5    0    0 -0.28550804659E+02 -0.81448618868E+02  0.97153982403E+03  0.97536590859E+03  0.00000000000E+00 0. -1.
        -11    1    4    4    0    0 -0.14168118297E+03 -0.59423790904E+02  0.21689210005E+02  0.15516174259E+03  0.00000000000E+00 0.  1.
         12    1    4    4    0    0 -0.23475333182E+02 -0.12357957270E+02  0.45916658485E+02  0.53029707734E+02  0.00000000000E+00 0. -1.
          5    1    3    3  501    0  0.62821618231E+02  0.32676073707E+02 -0.23569240750E+02  0.74778878165E+02  0.47000000000E+01 0.  1.
         -5    1    3    3    0  501 -0.28554999607E+01  0.85854689986E+01 -0.15360580298E+03  0.15394381075E+03  0.47000000000E+01 0.  1.
          1    1    1    2  502    0  0.31127699433E+01  0.63413114994E+02 -0.55116384528E+03  0.55480852267E+03  0.00000000000E+00 0. -1.
          1    1    1    2  503    0  0.12634288795E+03  0.43999867757E+02  0.30997300189E+04  0.31026157841E+04  0.00000000000E+00 0. -1.
<mgrwt>
<rscale>  0 0.83563697E+02</rscale>
<asrwt>0</asrwt>
<pdfrwt beam="1">  1        2 0.62459653E+00 0.10998504E+03</pdfrwt>
<pdfrwt beam="2">  1        2 0.12219917E+00 0.63489468E+02</pdfrwt>
<totfact> 0.28636565E+00</totfact>
</mgrwt>
</event>
<event>
13    1  0.3019759E-008  0.1677151E+03  0.7546771E-02  0.1213673E+00
          2   -1    0    0  502    0  0.00000000000E+00  0.00000000000E+00  0.42309954922E+03  0.42309954922E+03  0.00000000000E+00 0. -1.
          2   -1    0    0  503    0 -0.00000000000E+00 -0.00000000000E+00 -0.19628780787E+04  0.19628780787E+04  0.00000000000E+00 0. -1.
         25    2    1    2    0    0 -0.65330256728E+02  0.67031616192E+02 -0.89070239383E+03  0.90428792036E+03  0.12499843406E+03 0.  0.
         24    2    1    2    0    0 -0.15887744332E+03 -0.66545498417E+02 -0.20104698660E+03  0.27661569764E+03  0.80162385222E+02 0.  0.
         24    2    1    2    0    0  0.32639138898E+02 -0.83398809127E+02 -0.21793909446E+02  0.14155280664E+03  0.10743159603E+03 0.  0.
        -11    1    4    4    0    0 -0.34086973368E+02 -0.62665911715E+01 -0.97909887226E+02  0.10386307301E+03  0.00000000000E+00 0.  1.
         12    1    4    4    0    0 -0.12479046995E+03 -0.60278907245E+02 -0.10313709937E+03  0.17275262463E+03  0.00000000000E+00 0. -1.
        -11    1    5    5    0    0  0.26907592084E+02 -0.63091893632E+02  0.37812194848E+02  0.78322203959E+02  0.00000000000E+00 0.  1.
         12    1    5    5    0    0  0.57315468140E+01 -0.20306915496E+02 -0.59606104294E+02  0.63230602678E+02  0.00000000000E+00 0. -1.
          5    1    3    3  501    0 -0.63160966138E+02  0.97569380343E+02 -0.80068996916E+03  0.80909554957E+03  0.47000000000E+01 0.  1.
         -5    1    3    3    0  501 -0.21692905905E+01 -0.30537764151E+02 -0.90012424671E+02  0.95192370787E+02  0.47000000000E+01 0.  1.
          1    1    1    2  502    0  0.16812025128E+03 -0.31140764842E+02  0.29066613638E+03  0.33722539786E+03  0.00000000000E+00 0. -1.
          1    1    1    2  503    0  0.23448309872E+02  0.11405345619E+03 -0.71690137603E+03  0.72629580548E+03  0.00000000000E+00 0. -1.
<mgrwt>
<rscale>  0 0.13974463E+03</rscale>
<asrwt>0</asrwt>
<pdfrwt beam="1">  1        2 0.62220521E-01 0.16771513E+03</pdfrwt>
<pdfrwt beam="2">  1        2 0.28865854E+00 0.11643889E+03</pdfrwt>
<totfact> 0.11551859E+02</totfact>
</mgrwt>
</event>
<event>
13    1  0.3019759E-008  0.1332919E+03  0.7546771E-02  0.1387283E+00
         -1   -1    0    0    0  501 -0.00000000000E+00  0.00000000000E+00  0.28161012543E+03  0.28161012543E+03  0.00000000000E+00 0.  1.
          2   -1    0    0  503    0  0.00000000000E+00 -0.00000000000E+00 -0.34935727459E+04  0.34935727459E+04  0.00000000000E+00 0. -1.
         25    2    1    2    0    0 -0.50962747807E+02  0.17267226593E+03 -0.51886407123E+02  0.22523366251E+03  0.12500036158E+03 0.  0.
         24    2    1    2    0    0 -0.85891182329E+02 -0.59513094404E+02 -0.45268024774E+03  0.47150516166E+03  0.80489795455E+02 0.  0.
         24    2    1    2    0    0 -0.38057954103E+02  0.27699928385E+02 -0.35299401557E+03  0.36509142401E+03  0.80444259897E+02 0.  0.
        -11    1    5    5    0    0  0.18897972448E+02 -0.13048249568E+02 -0.98077735633E+02  0.10073049392E+03  0.00000000000E+00 0.  1.
         12    1    5    5    0    0 -0.56955926551E+02  0.40748177953E+02 -0.25491627994E+03  0.26436093008E+03  0.00000000000E+00 0. -1.
        -13    1    4    4    0    0 -0.24962271692E+02  0.86286312661E+01 -0.21893204873E+03  0.22051941013E+03  0.00000000000E+00 0.  1.
         14    1    4    4    0    0 -0.60928910637E+02 -0.68141725670E+02 -0.23374819901E+03  0.25098575153E+03  0.00000000000E+00 0. -1.
          5    1    3    3  502    0 -0.30406902857E+02  0.16736172972E+03 -0.81352399265E+02  0.18861291361E+03  0.47000000000E+01 0.  1.
         -5    1    3    3    0  502 -0.20555844950E+02  0.53105362143E+01  0.29465992142E+02  0.36620748892E+02  0.47000000000E+01 0.  1.
          1    1    1    2  503    0  0.15956086426E+03 -0.16591906279E+03 -0.25274075514E+04  0.25378687389E+04  0.00000000000E+00 0. -1.
         -2    1    1    2    0  501  0.15351019981E+02  0.25059962871E+02  0.17300560135E+03  0.17548388431E+03  0.00000000000E+00 0.  1.
<mgrwt>
<rscale>  0 0.62587424E+02</rscale>
<asrwt>0</asrwt>
<pdfrwt beam="2">  1        2 0.51376069E+00 0.13329194E+03</pdfrwt>
<pdfrwt beam="1">  1       -1 0.41413254E-01 0.29388017E+02</pdfrwt>
<totfact> 0.96095003E+00</totfact>
</mgrwt>
</event>
<event>
13    1  0.3019759E-008  0.1581235E+03  0.7546771E-02  0.1413416E+00
          4   -1    0    0  503    0 -0.00000000000E+00  0.00000000000E+00  0.18080586374E+03  0.18080586374E+03  0.00000000000E+00 0. -1.
          2   -1    0    0  502    0  0.00000000000E+00 -0.00000000000E+00 -0.25353795464E+04  0.25353795464E+04  0.00000000000E+00 0. -1.
         25    2    1    2    0    0  0.85699540961E+02 -0.17510401204E+02 -0.27423105978E+02  0.15501037254E+03  0.12500065352E+03 0.  0.
         24    2    1    2    0    0  0.22925123010E+02 -0.42565227018E+02 -0.72086009306E+02  0.11893680179E+03  0.81315498316E+02 0.  0.
         24    2    1    2    0    0  0.23210580502E+02 -0.60774228475E+02 -0.23346359880E+03  0.25608523532E+03  0.82717337281E+02 0.  0.
        -11    1    4    4    0    0  0.34489368967E+02 -0.59617906416E+02 -0.70040031373E+02  0.98231447775E+02  0.00000000000E+00 0.  1.
         12    1    4    4    0    0 -0.11564245956E+02  0.17052679398E+02 -0.20459779326E+01  0.20705354015E+02  0.00000000000E+00 0. -1.
        -13    1    5    5    0    0  0.38399706673E+02 -0.53720183789E+02 -0.89886151811E+02  0.11153437096E+03  0.00000000000E+00 0.  1.
         14    1    5    5    0    0 -0.15189126170E+02 -0.70540446857E+01 -0.14357744699E+03  0.14455086435E+03  0.00000000000E+00 0. -1.
          5    1    3    3  501    0  0.64651359893E+02 -0.67380109003E+02  0.13923904897E+01  0.93508856140E+02  0.47000000000E+01 0. -1.
         -5    1    3    3    0  501  0.21048181068E+02  0.49869707799E+02 -0.28815496468E+02  0.61501516395E+02  0.47000000000E+01 0. -1.
          1    1    1    2  502    0 -0.12634195650E+03  0.10146893674E+03 -0.20994731940E+04  0.21057174377E+04  0.00000000000E+00 0. -1.
          3    1    1    2  503    0 -0.54932879701E+01  0.19380919957E+02  0.77872225426E+02  0.80435562806E+02  0.00000000000E+00 0. -1.
<mgrwt>
<rscale>  0 0.56438474E+02</rscale>
<asrwt>0</asrwt>
<pdfrwt beam="2">  1        2 0.37284993E+00 0.15812353E+03</pdfrwt>
<pdfrwt beam="1">  1        4 0.26589098E-01 0.20144386E+02</pdfrwt>
<totfact> 0.24416196E+01</totfact>
</mgrwt>
</event>
<event>
13    1  0.3019759E-008  0.1913391E+03  0.7546771E-02  0.1233496E+00
          2   -1    0    0  502    0  0.00000000000E+00  0.00000000000E+00  0.11242600531E+04  0.11242600531E+04  0.00000000000E+00 0. -1.
          2   -1    0    0  503    0 -0.00000000000E+00 -0.00000000000E+00 -0.16030885387E+04  0.16030885387E+04  0.00000000000E+00 0. -1.
         25    2    1    2    0    0  0.13855794651E+03 -0.72315808658E+02  0.67488447173E+02  0.21120472325E+03  0.12499945560E+03 0.  0.
         24    2    1    2    0    0 -0.16682831964E-03  0.28255756981E+02  0.86203283746E+01  0.85670940029E+02  0.80416491478E+02 0.  0.
         24    2    1    2    0    0 -0.29886293711E+01  0.67967797065E+01  0.24483941521E+03  0.25879791699E+03  0.83515833678E+02 0.  0.
        -11    1    4    4    0    0  0.77772155796E+01 -0.22678122888E+02  0.21890770942E+02  0.32465184311E+02  0.00000000000E+00 0.  1.
         12    1    4    4    0    0 -0.77773824079E+01  0.50933879869E+02 -0.13270442567E+02  0.53205755719E+02  0.00000000000E+00 0. -1.
        -13    1    5    5    0    0 -0.33328895709E+02  0.29949673316E+02  0.11346857336E+03  0.12199555468E+03  0.00000000000E+00 0.  1.
         14    1    5    5    0    0  0.30340266338E+02 -0.23152893610E+02  0.13137084185E+03  0.13680236230E+03  0.00000000000E+00 0. -1.
          5    1    3    3  501    0  0.13244435552E+03 -0.80416510417E+01  0.29032259146E+02  0.13590856313E+03  0.47000000000E+01 0.  1.
         -5    1    3    3    0  501  0.61135909876E+01 -0.64274157616E+02  0.38456188027E+02  0.75296160125E+02  0.47000000000E+01 0.  1.
          1    1    1    2  502    0  0.57218679023E+02  0.60109870271E+02  0.67706291300E+03  0.68213001832E+03  0.00000000000E+00 0. -1.
          1    1    1    2  503    0 -0.19278782933E+03 -0.22846598301E+02 -0.14768395893E+04  0.14895449932E+04  0.00000000000E+00 0. -1.
<mgrwt>
<rscale>  0 0.12601205E+03</rscale>
<asrwt>0</asrwt>
<pdfrwt beam="1">  1        2 0.16533236E+00 0.82988998E+02</pdfrwt>
<pdfrwt beam="2">  1        2 0.23574831E+00 0.19133906E+03</pdfrwt>
<totfact> 0.53272614E+01</totfact>
</mgrwt>
</event>
<event>
13    1  0.3019759E-008  0.7940703E+02  0.7546771E-02  0.1563039E+00
          2   -1    0    0  502    0  0.00000000000E+00  0.00000000000E+00  0.44058117904E+04  0.44058117904E+04  0.00000000000E+00 0. -1.
          2   -1    0    0  503    0 -0.00000000000E+00 -0.00000000000E+00 -0.29112067687E+04  0.29112067687E+04  0.00000000000E+00 0. -1.
         25    2    1    2    0    0 -0.11576344258E+03 -0.13224847288E+03 -0.22752093208E+04  0.22854089436E+04  0.12500301121E+03 0.  0.
         24    2    1    2    0    0  0.47978140033E+02  0.73400118095E+02 -0.31995349849E+03  0.34160388165E+03  0.81446249168E+02 0.  0.
         24    2    1    2    0    0 -0.32146306214E+01  0.98074473190E+02  0.11669003274E+04  0.11731660152E+04  0.70944970213E+02 0.  0.
        -13    1    5    5    0    0 -0.13989375430E+01  0.33296302710E+02  0.79238209370E+03  0.79308258285E+03  0.00000000000E+00 0.  1.
         14    1    5    5    0    0 -0.18156930784E+01  0.64778170480E+02  0.37451823373E+03  0.38008343230E+03  0.00000000000E+00 0. -1.
        -13    1    4    4    0    0  0.20827409795E+02  0.86786802888E+02 -0.24630225561E+03  0.26197429506E+03  0.00000000000E+00 0.  1.
         14    1    4    4    0    0  0.27150730238E+02 -0.13386684793E+02 -0.73651242888E+02  0.79629586594E+02  0.00000000000E+00 0. -1.
          5    1    3    3  501    0 -0.65490611593E+02 -0.10321064767E+03 -0.82391522994E+03  0.83294648935E+03  0.47000000000E+01 0.  1.
         -5    1    3    3    0  501 -0.50272830985E+02 -0.29037825214E+02 -0.14512940909E+04  0.14524624543E+04  0.47000000000E+01 0.  1.
          1    1    1    2  502    0  0.75109383344E+02 -0.25769019378E+02  0.32191970802E+04  0.32201762845E+04  0.00000000000E+00 0. -1.
          1    1    1    2  503    0 -0.41094501775E+01 -0.13457099026E+02 -0.29632956661E+03  0.29666343412E+03  0.00000000000E+00 0. -1.
<mgrwt>
<rscale>  0 0.33426076E+02</rscale>
<asrwt>0</asrwt>
<pdfrwt beam="1">  1        2 0.64791350E+00 0.79407028E+02</pdfrwt>
<pdfrwt beam="2">  1        2 0.42811864E+00 0.14070576E+02</pdfrwt>
<totfact> 0.28180973E-01</totfact>
</mgrwt>
</event>
<event>
13    1  0.3019759E-008  0.1585862E+03  0.7546771E-02  0.1222620E+00
          2   -1    0    0  502    0  0.00000000000E+00  0.00000000000E+00  0.20106927182E+04  0.20106927182E+04  0.00000000000E+00 0. -1.
          2   -1    0    0  503    0 -0.00000000000E+00 -0.00000000000E+00 -0.32419907173E+04  0.32419907173E+04  0.00000000000E+00 0. -1.
         25    2    1    2    0    0 -0.24520068553E+03  0.99286484558E+02 -0.73011678026E+03  0.78655991562E+03  0.12499922335E+03 0.  0.
         24    2    1    2    0    0 -0.54807342621E+02 -0.35514626212E+02 -0.11007384956E+03  0.15151325047E+03  0.81085629006E+02 0.  0.
         24    2    1    2    0    0  0.39994604698E+02  0.73258022106E+02 -0.11412646634E+03  0.16143243908E+03  0.77905557322E+02 0.  0.
        -11    1    4    4    0    0 -0.50105549665E+02 -0.58750107577E+02 -0.66481287681E+02  0.10189162311E+03  0.00000000000E+00 0.  1.
         12    1    4    4    0    0 -0.47017929565E+01  0.23235481365E+02 -0.43592561876E+02  0.49621627364E+02  0.00000000000E+00 0. -1.
        -13    1    5    5    0    0 -0.16511719864E+02 -0.50774953886E+01 -0.21804203907E+02  0.27818000653E+02  0.00000000000E+00 0.  1.
         14    1    5    5    0    0  0.56506324563E+02  0.78335517495E+02 -0.92322262431E+02  0.13361443843E+03  0.00000000000E+00 0. -1.
          5    1    3    3  501    0 -0.19814575949E+02 -0.27090481263E+02 -0.95595267122E+02  0.10142512850E+03  0.47000000000E+01 0.  1.
         -5    1    3    3    0  501 -0.22538610959E+03  0.12637696582E+03 -0.63452151314E+03  0.68513478712E+03  0.47000000000E+01 0.  1.
          1    1    1    2  502    0  0.48544986856E+01 -0.11194599772E+03  0.19290481598E+04  0.19322997375E+04  0.00000000000E+00 0. -1.
          1    1    1    2  503    0  0.25515892477E+03 -0.25083882727E+02 -0.22060290627E+04  0.22208780929E+04  0.00000000000E+00 0. -1.
<mgrwt>
<rscale>  0 0.13331361E+03</rscale>
<asrwt>0</asrwt>
<pdfrwt beam="1">  1        2 0.29569011E+00 0.11206851E+03</pdfrwt>
<pdfrwt beam="2">  1        2 0.47676334E+00 0.15858620E+03</pdfrwt>
<totfact> 0.27625920E+00</totfact>
</mgrwt>
</event>
<event>
13    1  0.3019759E-008  0.1274614E+03  0.7546771E-02  0.1311321E+00
          2   -1    0    0  503    0  0.00000000000E+00  0.00000000000E+00  0.82253829330E+03  0.82253829330E+03  0.00000000000E+00 0. -1.
         -1   -1    0    0    0  501 -0.00000000000E+00 -0.00000000000E+00 -0.13810332977E+04  0.13810332977E+04  0.00000000000E+00 0.  1.
         25    2    1    2    0    0  0.53891278851E+02  0.16394862725E+03 -0.17637356333E+03  0.27661337060E+03  0.12499560249E+03 0.  0.
         24    2    1    2    0    0 -0.14857443832E+03 -0.11007028216E+03 -0.39970783344E+02  0.20576350547E+03  0.80939025952E+02 0.  0.
         24    2    1    2    0    0  0.23953144524E+02  0.65102557967E+02  0.18550083335E+02  0.10823900568E+03  0.80990620281E+02 0.  0.
        -11    1    4    4    0    0 -0.11804862837E+03 -0.59308074661E+02 -0.57368054252E+02  0.14402784463E+03  0.00000000000E+00 0.  1.
         12    1    4    4    0    0 -0.30525809950E+02 -0.50762207501E+02  0.17397270908E+02  0.61735660834E+02  0.00000000000E+00 0. -1.
        -11    1    5    5    0    0  0.43504378718E+02  0.54355569452E+01  0.82115351234E+01  0.44604994743E+02  0.00000000000E+00 0.  1.
         12    1    5    5    0    0 -0.19551234194E+02  0.59667001022E+02  0.10338548212E+02  0.63634010942E+02  0.00000000000E+00 0. -1.
          5    1    3    3  502    0  0.24892109448E+02  0.17725554176E+03 -0.13549402261E+03  0.22454368030E+03  0.47000000000E+01 0. -1.
         -5    1    3    3    0  502  0.28999169403E+02 -0.13306914505E+02 -0.40879540715E+02  0.52069690308E+02  0.47000000000E+01 0. -1.
          1    1    1    2  503    0  0.10578315003E+03 -0.71737916394E+02  0.61871293762E+03  0.63177694059E+03  0.00000000000E+00 0. -1.
         -2    1    1    2    0  501 -0.35053135084E+02 -0.47242986666E+02 -0.97941367871E+03  0.98117876868E+03  0.00000000000E+00 0.  1.
<mgrwt>
<rscale>  0 0.86592039E+02</rscale>
<asrwt>0</asrwt>
<pdfrwt beam="1">  1        2 0.12096152E+00 0.12746145E+03</pdfrwt>
<pdfrwt beam="2">  1       -1 0.20309313E+00 0.58827052E+02</pdfrwt>
<totfact> 0.78386189E+00</totfact>
</mgrwt>
</event>
<event>
13    1  0.3019759E-008  0.1172748E+03  0.7546771E-02  0.1429249E+00
          2   -1    0    0  502    0  0.00000000000E+00  0.00000000000E+00  0.28391290602E+04  0.28391290602E+04  0.00000000000E+00 0. -1.
          2   -1    0    0  503    0 -0.00000000000E+00 -0.00000000000E+00 -0.11310959277E+04  0.11310959277E+04  0.00000000000E+00 0. -1.
         25    2    1    2    0    0 -0.94075568738E+02  0.48876628741E+02 -0.28624229671E+03  0.32984772533E+03  0.12500292801E+03 0.  0.
         24    2    1    2    0    0  0.26034313376E+02  0.40329875516E+02  0.19636697545E+03  0.21762545320E+03  0.80601268610E+02 0.  0.
         24    2    1    2    0    0 -0.21289767001E+02 -0.19155815054E+03  0.74719216719E+03  0.77568882873E+03  0.79052166979E+02 0.  0.
        -11    1    5    5    0    0 -0.40592932103E+02 -0.61486036866E+02  0.20696103745E+03  0.21968429596E+03  0.00000000000E+00 0.  1.
         12    1    5    5    0    0  0.19303165102E+02 -0.13007211367E+03  0.54023112973E+03  0.55600453278E+03  0.00000000000E+00 0. -1.
        -11    1    4    4    0    0  0.50162062077E+02  0.70682008507E+01  0.85393901406E+02  0.99289024230E+02  0.00000000000E+00 0.  1.
         12    1    4    4    0    0 -0.24127748702E+02  0.33261674665E+02  0.11097307404E+03  0.11833642897E+03  0.00000000000E+00 0. -1.
          5    1    3    3  501    0 -0.39261106132E+02  0.49862895399E+01 -0.24511454023E+03  0.24833349628E+03  0.47000000000E+01 0.  1.
         -5    1    3    3    0  501 -0.54814462606E+02  0.43890339201E+02 -0.41127756476E+02  0.81514229057E+02  0.47000000000E+01 0.  1.
          1    1    1    2  502    0  0.73551281503E+02  0.84198606717E+02  0.18470177827E+04  0.18503983047E+04  0.00000000000E+00 0. -1.
          1    1    1    2  503    0  0.15779740861E+02  0.18153039566E+02 -0.79630149614E+03  0.79666467589E+03  0.00000000000E+00 0. -1.
<mgrwt>
<rscale>  0 0.53110985E+02</rscale>
<asrwt>0</asrwt>
<pdfrwt beam="1">  1        2 0.41751898E+00 0.11727478E+03</pdfrwt>
<pdfrwt beam="2">  1        2 0.16633764E+00 0.24052714E+02</pdfrwt>
<totfact> 0.14441412E+01</totfact>
</mgrwt>
</event>
<event>
13    1  0.3019759E-008  0.5120387E+02  0.7546771E-02  0.1483078E+00
          2   -1    0    0  502    0  0.00000000000E+00  0.00000000000E+00  0.14930162176E+04  0.14930162176E+04  0.00000000000E+00 0. -1.
          2   -1    0    0  503    0 -0.00000000000E+00 -0.00000000000E+00 -0.16924394499E+04  0.16924394499E+04  0.00000000000E+00 0. -1.
         25    2    1    2    0    0  0.31176127649E+02 -0.69176406400E+01 -0.65753139831E+03  0.67006884595E+03  0.12499965548E+03 0.  0.
         24    2    1    2    0    0  0.73278902170E+02 -0.85885487088E+02  0.24891315353E+03  0.28469416539E+03  0.79667404921E+02 0.  0.
         24    2    1    2    0    0 -0.31680807502E+02  0.10228385848E+03  0.15928687186E+03  0.20689775108E+03  0.77257430611E+02 0.  0.
        -11    1    5    5    0    0  0.17093202734E+02  0.35258384167E+02  0.18069623800E+02  0.43149073432E+02  0.00000000000E+00 0.  1.
         12    1    5    5    0    0 -0.48774010236E+02  0.67025474318E+02  0.14121724806E+03  0.16374867765E+03  0.00000000000E+00 0. -1.
        -13    1    4    4    0    0 -0.11746787097E+02  0.13414440380E+01  0.67342479657E+01  0.13606490175E+02  0.00000000000E+00 0.  1.
         14    1    4    4    0    0  0.85025689267E+02 -0.87226931126E+02  0.24217890557E+03  0.27108767521E+03  0.00000000000E+00 0. -1.
          5    1    3    3  501    0  0.78007030979E+02  0.77082704309E+01 -0.44699763645E+03  0.45384302496E+03  0.47000000000E+01 0.  1.
         -5    1    3    3    0  501 -0.46830903330E+02 -0.14625911071E+02 -0.21053376186E+03  0.21622582099E+03  0.47000000000E+01 0.  1.
          1    1    1    2  502    0 -0.24905159947E+02 -0.27601862211E+02  0.10358542131E+04  0.10365211434E+04  0.00000000000E+00 0. -1.
          1    1    1    2  503    0 -0.47869062371E+02  0.18121131455E+02 -0.98594607251E+03  0.98727376165E+03  0.00000000000E+00 0. -1.
<mgrwt>
<rscale>  0 0.43630342E+02</rscale>
<asrwt>0</asrwt>
<pdfrwt beam="1">  1        2 0.21956121E+00 0.37177006E+02</pdfrwt>
<pdfrwt beam="2">  1        2 0.24888815E+00 0.51203873E+02</pdfrwt>
<totfact> 0.37310784E+01</totfact>
</mgrwt>
</event>
<event>
13    1  0.3019759E-008  0.4084639E+02  0.7546771E-02  0.1579055E+00
          2   -1    0    0  503    0  0.00000000000E+00  0.00000000000E+00  0.70032086842E+03  0.70032086842E+03  0.00000000000E+00 0. -1.
          2   -1    0    0  502    0 -0.00000000000E+00 -0.00000000000E+00 -0.25528480102E+04  0.25528480102E+04  0.00000000000E+00 0. -1.
         25    2    1    2    0    0  0.77432570913E+02 -0.16333735845E+03 -0.88597561633E+03  0.91282684590E+03  0.12500064864E+03 0.  0.
         24    2    1    2    0    0 -0.15793733603E+03  0.49188105342E+02 -0.30966906886E+03  0.36060619786E+03  0.82329981839E+02 0.  0.
         24    2    1    2    0    0  0.59747661108E+02  0.52988289287E+02  0.10921834982E+03  0.15567885619E+03  0.77004652581E+02 0.  0.
        -11    1    5    5    0    0 -0.27606922840E+01 -0.38271571661E+01 -0.91299095844E+01  0.10277344155E+02  0.00000000000E+00 0.  1.
         12    1    5    5    0    0  0.62508353392E+02  0.56815446453E+02  0.11834825940E+03  0.14540151204E+03  0.00000000000E+00 0. -1.
        -13    1    4    4    0    0 -0.11959789144E+02  0.17800769052E+02 -0.10553874072E+03  0.10769554182E+03  0.00000000000E+00 0.  1.
         14    1    4    4    0    0 -0.14597754688E+03  0.31387336290E+02 -0.20413032814E+03  0.25291065605E+03  0.00000000000E+00 0. -1.
          5    1    3    3  501    0  0.44633602318E+02 -0.11931721809E+03 -0.32430386265E+03  0.34845924054E+03  0.47000000000E+01 0.  1.
         -5    1    3    3    0  501  0.32798968595E+02 -0.44020140364E+02 -0.56167175368E+03  0.56436760536E+03  0.47000000000E+01 0.  1.
          1    1    1    2  502    0  0.12970131783E+02  0.21078477411E+02 -0.12941724486E+04  0.12944090749E+04  0.00000000000E+00 0. -1.
          1    1    1    2  503    0  0.77869722242E+01  0.40082486410E+02  0.52807164220E+03  0.52964790375E+03  0.00000000000E+00 0. -1.
<mgrwt>
<rscale>  0 0.31794944E+02</rscale>
<asrwt>0</asrwt>
<pdfrwt beam="1">  1        2 0.10298836E+00 0.40846390E+02</pdfrwt>
<pdfrwt beam="2">  1        2 0.37541882E+00 0.24749273E+02</pdfrwt>
<totfact> 0.43782844E+01</totfact>
</mgrwt>
</event>
<event>
13    1  0.3019759E-008  0.3048307E+02  0.7546771E-02  0.1614228E+00
          2   -1    0    0  503    0  0.00000000000E+00  0.00000000000E+00  0.32002629311E+04  0.32002629311E+04  0.00000000000E+00 0. -1.
          2   -1    0    0  502    0 -0.00000000000E+00 -0.00000000000E+00 -0.14354852497E+04  0.14354852497E+04  0.00000000000E+00 0. -1.
         25    2    1    2    0    0  0.83444920382E+02 -0.27007714520E+03 -0.62421151954E+03  0.69654221836E+03  0.12500528682E+03 0.  0.
         24    2    1    2    0    0  0.32032101592E+03  0.12967409887E+03  0.31324643842E+03  0.47352746198E+03  0.81755739309E+02 0.  0.
         24    2    1    2    0    0 -0.41040525438E+03  0.12023341569E+03  0.50492303393E+03  0.66790741712E+03  0.90909298635E+02 0.  0.
        -11    1    5    5    0    0 -0.19885787650E+03  0.78068169042E+02  0.18821158510E+03  0.28471511170E+03  0.00000000000E+00 0.  1.
         12    1    5    5    0    0 -0.21154737787E+03  0.42165246644E+02  0.31671144883E+03  0.38319230541E+03  0.00000000000E+00 0. -1.
        -13    1    4    4    0    0  0.16961631495E+03  0.39570572516E+02  0.11504543722E+03  0.20873662145E+03  0.00000000000E+00 0.  1.
         14    1    4    4    0    0  0.15070470097E+03  0.90103526350E+02  0.19820100120E+03  0.26479084053E+03  0.00000000000E+00 0. -1.
          5    1    3    3  501    0  0.10692096856E+02 -0.22873815751E+02 -0.18903979330E+03  0.19077648134E+03  0.47000000000E+01 0. -1.
         -5    1    3    3    0  501  0.72752823526E+02 -0.24720332945E+03 -0.43517172624E+03  0.50576573702E+03  0.47000000000E+01 0. -1.
          1    1    1    2  502    0 -0.20024631235E+02  0.22993001168E+02 -0.61301447620E+03  0.61377228024E+03  0.00000000000E+00 0. -1.
          1    1    1    2  503    0  0.26663949307E+02 -0.28233705156E+01  0.21838342048E+04  0.21839988031E+04  0.00000000000E+00 0. -1.
<mgrwt>
<rscale>  0 0.28589210E+02</rscale>
<asrwt>0</asrwt>
<pdfrwt beam="1">  1        2 0.47062690E+00 0.26813012E+02</pdfrwt>
<pdfrwt beam="2">  1        2 0.21110077E+00 0.30483070E+02</pdfrwt>
<totfact> 0.84223853E+00</totfact>
</mgrwt>
</event>
<event>
13    1  0.3019759E-008  0.1342615E+03  0.7546771E-02  0.1419462E+00
          2   -1    0    0  503    0  0.00000000000E+00  0.00000000000E+00  0.14555320177E+04  0.14555320177E+04  0.00000000000E+00 0. -1.
          2   -1    0    0  502    0 -0.00000000000E+00 -0.00000000000E+00 -0.24758464295E+04  0.24758464295E+04  0.00000000000E+00 0. -1.
         25    2    1    2    0    0 -0.12688473778E+03  0.88260632413E+02 -0.32677964334E+03  0.38250204513E+03  0.12503280895E+03 0.  0.
         24    2    1    2    0    0  0.23393845033E+02 -0.23294535521E+02  0.21136971495E+02  0.89640684261E+02  0.80614969703E+02 0.  0.
         24    2    1    2    0    0 -0.12339998368E+02 -0.15539843914E+03  0.23310068984E+03  0.29123185460E+03  0.78607322081E+02 0.  0.
        -11    1    5    5    0    0  0.57580333199E+01 -0.40077983862E+00 -0.42564007453E+01  0.71716469166E+01  0.00000000000E+00 0.  1.
         12    1    5    5    0    0 -0.18098031687E+02 -0.15499765930E+03  0.23735709058E+03  0.28406020768E+03  0.00000000000E+00 0. -1.
        -13    1    4    4    0    0  0.50721830266E+02 -0.16958781823E+02  0.28549730181E+02  0.60625006720E+02  0.00000000000E+00 0.  1.
         14    1    4    4    0    0 -0.27327985233E+02 -0.63357536978E+01 -0.74127586859E+01  0.29015677540E+02  0.00000000000E+00 0. -1.
          5    1    3    3  501    0 -0.90892929929E+02 -0.12187853380E+02 -0.15900765452E+03  0.18361806196E+03  0.47000000000E+01 0. -1.
         -5    1    3    3    0  501 -0.35991807848E+02  0.10044848579E+03 -0.16777198882E+03  0.19888398318E+03  0.47000000000E+01 0. -1.
          1    1    1    2  502    0  0.21983769493E+02 -0.54167731419E+01 -0.20537731642E+04  0.20538979618E+04  0.00000000000E+00 0. -1.
          1    1    1    2  503    0  0.93847121619E+02  0.95849115386E+02  0.11060007343E+04  0.11141059014E+04  0.00000000000E+00 0. -1.
<mgrwt>
<rscale>  0 0.55134848E+02</rscale>
<asrwt>0</asrwt>
<pdfrwt beam="1">  1        2 0.21404883E+00 0.13426147E+03</pdfrwt>
<pdfrwt beam="2">  1        2 0.36409505E+00 0.22641280E+02</pdfrwt>
<totfact> 0.17031928E+01</totfact>
</mgrwt>
</event>
<event>
13    1  0.3019759E-008  0.5995332E+02  0.7546771E-02  0.1409751E+00
          2   -1    0    0  502    0  0.00000000000E+00  0.00000000000E+00  0.68742954784E+03  0.68742954784E+03  0.00000000000E+00 0. -1.
          2   -1    0    0  503    0 -0.00000000000E+00 -0.00000000000E+00 -0.21448670748E+04  0.21448670748E+04  0.00000000000E+00 0. -1.
         25    2    1    2    0    0 -0.90311972333E+02 -0.23960964198E+02 -0.52602916422E+03  0.54869159278E+03  0.12500160890E+03 0.  0.
         24    2    1    2    0    0 -0.33454320505E+01 -0.34167678037E+02 -0.22454359961E+02  0.90031136506E+02  0.80142280485E+02 0.  0.
         24    2    1    2    0    0 -0.71504789671E+01  0.47039219065E+02  0.34817914110E+03  0.36059001820E+03  0.80824683434E+02 0.  0.
        -11    1    4    4    0    0 -0.14060541712E+02  0.23781961859E+02 -0.12252899757E+02  0.30222741364E+02  0.00000000000E+00 0.  1.
         12    1    4    4    0    0  0.10715109662E+02 -0.57949639896E+02 -0.10201460204E+02  0.59808395142E+02  0.00000000000E+00 0. -1.
        -13    1    5    5    0    0  0.24340667123E+02 -0.79932110485E+01  0.15944003564E+03  0.16148524534E+03  0.00000000000E+00 0.  1.
         14    1    5    5    0    0 -0.31491146090E+02  0.55032430114E+02  0.18873910546E+03  0.19910477286E+03  0.00000000000E+00 0. -1.
          5    1    3    3  501    0 -0.77194670776E+02  0.36282031271E+02 -0.21072943514E+03  0.22738598863E+03  0.47000000000E+01 0.  1.
         -5    1    3    3    0  501 -0.13117301557E+02 -0.60242995469E+02 -0.31529972907E+03  0.32130560415E+03  0.47000000000E+01 0.  1.
          1    1    1    2  502    0  0.50381077244E+02  0.32200533767E+02  0.28433137964E+03  0.29055027236E+03  0.00000000000E+00 0. -1.
          1    1    1    2  503    0  0.50426806107E+02 -0.21111110597E+02 -0.15414645235E+04  0.15424336027E+04  0.00000000000E+00 0. -1.
<mgrwt>
<rscale>  0 0.57249465E+02</rscale>
<asrwt>0</asrwt>
<pdfrwt beam="1">  1        2 0.10109258E+00 0.59953315E+02</pdfrwt>
<pdfrwt beam="2">  1        2 0.31542162E+00 0.54667557E+02</pdfrwt>
<totfact> 0.61435277E+01</totfact>
</mgrwt>
</event>
<event>
13    1  0.3019759E-008  0.1292633E+03  0.7546771E-02  0.1434936E+00
          2   -1    0    0  503    0  0.00000000000E+00  0.00000000000E+00  0.25464836374E+04  0.25464836374E+04  0.00000000000E+00 0. -1.
          2   -1    0    0  502    0 -0.00000000000E+00 -0.00000000000E+00 -0.10949293278E+04  0.10949293278E+04  0.00000000000E+00 0. -1.
         25    2    1    2    0    0 -0.92746347854E+02  0.12820246821E+03 -0.22100373996E+03  0.29918009685E+03  0.12501327679E+03 0.  0.
         24    2    1    2    0    0 -0.11835652345E+03 -0.12903892377E+03 -0.11422910911E+03  0.22257259640E+03  0.76360728178E+02 0.  0.
         24    2    1    2    0    0  0.17946842928E+03  0.11312210554E+03  0.28276057823E+03  0.36253515397E+03  0.80452876834E+02 0.  0.
        -11    1    4    4    0    0 -0.75516542411E+02 -0.35848086651E+02 -0.76418572653E+02  0.11325913535E+03  0.00000000000E+00 0.  1.
         12    1    4    4    0    0 -0.42839981037E+02 -0.93190837123E+02 -0.37810536459E+02  0.10931346105E+03  0.00000000000E+00 0. -1.
        -13    1    5    5    0    0  0.65468760657E+02  0.12187991854E+02  0.45620592459E+02  0.80721398797E+02  0.00000000000E+00 0.  1.
         14    1    5    5    0    0  0.11399966863E+03  0.10093411369E+03  0.23713998577E+03  0.28181375518E+03  0.00000000000E+00 0. -1.
          5    1    3    3  501    0 -0.92726830977E+01 -0.87164876178E+01  0.10755653027E+02  0.17312824156E+02  0.47000000000E+01 0. -1.
         -5    1    3    3    0  501 -0.83473664757E+02  0.13691895583E+03 -0.23175939299E+03  0.28186727269E+03  0.47000000000E+01 0. -1.
          1    1    1    2  502    0  0.13703368500E+02  0.15785793931E+02 -0.62441184369E+03  0.62476165386E+03  0.00000000000E+00 0. -1.
          1    1    1    2  503    0  0.17931073517E+02 -0.12807144391E+03  0.21284384241E+04  0.21323634642E+04  0.00000000000E+00 0. -1.
<mgrwt>
<rscale>  0 0.51981816E+02</rscale>
<asrwt>0</asrwt>
<pdfrwt beam="1">  1        2 0.37448289E+00 0.12926332E+03</pdfrwt>
<pdfrwt beam="2">  1        2 0.16101902E+00 0.20903913E+02</pdfrwt>
<totfact> 0.21185734E+01</totfact>
</mgrwt>
</event>
<event>
13    1  0.3019759E-008  0.1329404E+03  0.7546771E-02  0.1228832E+00
          2   -1    0    0  502    0  0.00000000000E+00  0.00000000000E+00  0.18080792465E+04  0.18080792465E+04  0.00000000000E+00 0. -1.
          2   -1    0    0  503    0 -0.00000000000E+00 -0.00000000000E+00 -0.47034411449E+03  0.47034411449E+03  0.00000000000E+00 0. -1.
         25    2    1    2    0    0  0.59128791108E+02  0.31563434395E+01 -0.14900712600E+02  0.13911381858E+03  0.12499778734E+03 0.  0.
         24    2    1    2    0    0  0.78023497213E+02  0.67604987104E+02 -0.65408906462E+02  0.14665805431E+03  0.81068856233E+02 0.  0.
         24    2    1    2    0    0 -0.13424427671E+03 -0.12145059763E+03  0.39795360949E+03  0.44397796701E+03  0.77314852339E+02 0.  0.
        -11    1    4    4    0    0  0.42058917184E+02 -0.94124644378E+01 -0.37682138510E+02  0.57249371736E+02  0.00000000000E+00 0.  1.
         12    1    4    4    0    0  0.35964580030E+02  0.77017451541E+02 -0.27726767952E+02  0.89408682574E+02  0.00000000000E+00 0. -1.
        -13    1    5    5    0    0 -0.13518514515E+03 -0.11639708381E+03  0.32414788635E+03  0.36999345510E+03  0.00000000000E+00 0.  1.
         14    1    5    5    0    0  0.94086843768E+00 -0.50535138187E+01  0.73805723139E+02  0.73984511916E+02  0.00000000000E+00 0. -1.
          5    1    3    3  501    0  0.64792380745E+02 -0.51287075046E+02 -0.25660843255E+01  0.82807556769E+02  0.47000000000E+01 0.  1.
         -5    1    3    3    0  501 -0.56635896364E+01  0.54443418485E+02 -0.12334628275E+02  0.56306261806E+02  0.47000000000E+01 0.  1.
          1    1    1    2  502    0  0.12238924587E+03  0.53329200919E+02  0.12658149147E+04  0.12728356254E+04  0.00000000000E+00 0. -1.
          1    1    1    2  503    0 -0.12529725748E+03 -0.26399338347E+01 -0.24572377312E+03  0.27583789562E+03  0.00000000000E+00 0. -1.
<mgrwt>
<rscale>  0 0.12907656E+03</rscale>
<asrwt>0</asrwt>
<pdfrwt beam="1">  1        2 0.26589400E+00 0.13294036E+03</pdfrwt>
<pdfrwt beam="2">  1        2 0.69168253E-01 0.12532507E+03</pdfrwt>
<totfact> 0.12132561E+02</totfact>
</mgrwt>
</event>
<event>
13    1  0.3019759E-008  0.1692705E+03  0.7546771E-02  0.1289627E+00
          2   -1    0    0  503    0  0.00000000000E+00  0.00000000000E+00  0.12468432125E+04  0.12468432125E+04  0.00000000000E+00 0. -1.
          2   -1    0    0  502    0 -0.00000000000E+00 -0.00000000000E+00 -0.15082683710E+04  0.15082683710E+04  0.00000000000E+00 0. -1.
         25    2    1    2    0    0  0.40281784980E+02 -0.23983905878E+03 -0.28386117931E+03  0.39414210421E+03  0.12500173149E+03 0.  0.
         24    2    1    2    0    0 -0.48641538187E+02  0.19583048989E+03 -0.32277109170E+03  0.38898994207E+03  0.80102542914E+02 0.  0.
         24    2    1    2    0    0 -0.19529660614E+03 -0.23410292572E+02  0.64123608386E+03  0.67556421227E+03  0.80712350208E+02 0.  0.
        -13    1    4    4    0    0  0.19285906253E+02  0.19910286416E+02 -0.31040938321E+02  0.41616169177E+02  0.00000000000E+00 0.  1.
         14    1    4    4    0    0 -0.67927444439E+02  0.17592020348E+03 -0.29173015338E+03  0.34737377289E+03  0.00000000000E+00 0. -1.
        -13    1    5    5    0    0 -0.34725587530E+02  0.14598884723E+02  0.55849372332E+02  0.67365764706E+02  0.00000000000E+00 0.  1.
         14    1    5    5    0    0 -0.16057101861E+03 -0.38009177295E+02  0.58538671153E+03  0.60819844756E+03  0.00000000000E+00 0. -1.
          5    1    3    3  501    0  0.83290289918E+02 -0.18795314355E+03 -0.20625635506E+03  0.29125149024E+03  0.47000000000E+01 0.  1.
         -5    1    3    3    0  501 -0.43008504938E+02 -0.51885915225E+02 -0.77604824256E+02  0.10289061397E+03  0.47000000000E+01 0.  1.
          1    1    1    2  502    0  0.15882513496E+03  0.97692476261E+02 -0.78378936876E+03  0.80566433333E+03  0.00000000000E+00 0. -1.
          1    1    1    2  503    0  0.44831224388E+02 -0.30273614805E+02  0.48776039747E+03  0.49075099162E+03  0.00000000000E+00 0. -1.
<mgrwt>
<rscale>  0 0.95691089E+02</rscale>
<asrwt>0</asrwt>
<pdfrwt beam="1">  1        2 0.18335930E+00 0.54095568E+02</pdfrwt>
<pdfrwt beam="2">  1        2 0.22180417E+00 0.16927051E+03</pdfrwt>
<totfact> 0.53179549E+01</totfact>
</mgrwt>
</event>
<event>
13    1  0.3019759E-008  0.6426678E+02  0.7546771E-02  0.1500315E+00
          2   -1    0    0  503    0  0.00000000000E+00  0.00000000000E+00  0.61896144239E+03  0.61896144239E+03  0.00000000000E+00 0. -1.
          2   -1    0    0  502    0 -0.00000000000E+00 -0.00000000000E+00 -0.15153915399E+04  0.15153915399E+04  0.00000000000E+00 0. -1.
         25    2    1    2    0    0 -0.16604038862E+03 -0.36960971246E+02 -0.63663511133E+03  0.67070744039E+03  0.12493470925E+03 0.  0.
         24    2    1    2    0    0  0.17734497160E+03  0.17888236795E+03  0.19375064543E+03  0.32585288449E+03  0.72046160307E+02 0.  0.
         24    2    1    2    0    0 -0.20573007539E+02 -0.58627013843E+02  0.71600728365E+02  0.12648601557E+03  0.83735729778E+02 0.  0.
        -11    1    4    4    0    0  0.11163150087E+02  0.14560690393E+01 -0.45414731706E+01  0.12139235374E+02  0.00000000000E+00 0.  1.
         12    1    4    4    0    0  0.16618182151E+03  0.17742629891E+03  0.19829211860E+03  0.31371364912E+03  0.00000000000E+00 0. -1.
        -13    1    5    5    0    0  0.24792432608E+02 -0.49779578745E+02  0.25410999764E+02  0.61142375515E+02  0.00000000000E+00 0.  1.
         14    1    5    5    0    0 -0.45365440147E+02 -0.88474350985E+01  0.46189728601E+02  0.65343640056E+02  0.00000000000E+00 0. -1.
          5    1    3    3  501    0 -0.73345741069E+01  0.29872133427E+02 -0.46562474678E+02  0.56002628339E+02  0.47000000000E+01 0. -1.
         -5    1    3    3    0  501 -0.15870581451E+03 -0.66833104673E+02 -0.59007263665E+03  0.61470481205E+03  0.47000000000E+01 0. -1.
          1    1    1    2  502    0  0.17446306491E+02 -0.19648332143E+02 -0.76376171357E+03  0.76421357334E+03  0.00000000000E+00 0. -1.
          1    1    1    2  503    0 -0.81778819297E+01 -0.63646050716E+02  0.23861535359E+03  0.24709306849E+03  0.00000000000E+00 0. -1.
<mgrwt>
<rscale>  0 0.41093513E+02</rscale>
<asrwt>0</asrwt>
<pdfrwt beam="1">  1        2 0.91023742E-01 0.64266780E+02</pdfrwt>
<pdfrwt beam="2">  1        2 0.22285170E+00 0.26276045E+02</pdfrwt>
<totfact> 0.14500114E+02</totfact>
</mgrwt>
</event>
<event>
13    1  0.3019759E-008  0.9315505E+02  0.7546771E-02  0.1490986E+00
          2   -1    0    0  503    0  0.00000000000E+00  0.00000000000E+00  0.24789931756E+04  0.24789931756E+04  0.00000000000E+00 0. -1.
          2   -1    0    0  502    0 -0.00000000000E+00 -0.00000000000E+00 -0.83651561193E+03  0.83651561193E+03  0.00000000000E+00 0. -1.
         25    2    1    2    0    0 -0.18686234783E+03  0.59666348243E+02 -0.35600619933E+03  0.42525778748E+03  0.12500464675E+03 0.  0.
         24    2    1    2    0    0 -0.10109545008E+03 -0.11600747719E+02 -0.36818654913E+01  0.12912773995E+03  0.79407491556E+02 0.  0.
         24    2    1    2    0    0  0.29986159947E+03 -0.12949355591E+03  0.51135635645E+03  0.61212633417E+03  0.80794590386E+02 0.  0.
        -13    1    4    4    0    0 -0.15613749499E+02 -0.25736541858E+02  0.23644293592E+02  0.38278079624E+02  0.00000000000E+00 0.  1.
         14    1    4    4    0    0 -0.85481700582E+02  0.14135794139E+02 -0.27326159083E+02  0.90849660322E+02  0.00000000000E+00 0. -1.
        -13    1    5    5    0    0  0.79640976422E+02 -0.27070292264E+01  0.91255064577E+02  0.12115073233E+03  0.00000000000E+00 0.  1.
         14    1    5    5    0    0  0.22022062305E+03 -0.12678652669E+03  0.42010129188E+03  0.49097560184E+03  0.00000000000E+00 0. -1.
          5    1    3    3  501    0 -0.11504262003E+03  0.54176916658E+02 -0.10781029372E+03  0.16677857223E+03  0.47000000000E+01 0.  1.
         -5    1    3    3    0  501 -0.71819727795E+02  0.54894315842E+01 -0.24819590561E+03  0.25847921526E+03  0.47000000000E+01 0.  1.
          1    1    1    2  502    0  0.18102800907E+02 -0.67923638729E+01 -0.32761579546E+03  0.32818585747E+03  0.00000000000E+00 0. -1.
          1    1    1    2  503    0 -0.30006602473E+02  0.88220319263E+02  0.18184250675E+04  0.18208110684E+04  0.00000000000E+00 0. -1.
<mgrwt>
<rscale>  0 0.42440145E+02</rscale>
<asrwt>0</asrwt>
<pdfrwt beam="1">  1        2 0.36455782E+00 0.93155052E+02</pdfrwt>
<pdfrwt beam="2">  1        2 0.12301700E+00 0.19335139E+02</pdfrwt>
<totfact> 0.33009253E+01</totfact>
</mgrwt>
</event>
<event>
13    1  0.3019759E-008  0.1871105E+02  0.7546771E-02  0.1907760E+00
          2   -1    0    0  503    0  0.00000000000E+00  0.00000000000E+00  0.22455627448E+04  0.22455627448E+04  0.00000000000E+00 0. -1.
          2   -1    0    0  502    0 -0.00000000000E+00 -0.00000000000E+00 -0.34844463745E+03  0.34844463745E+03  0.00000000000E+00 0. -1.
         25    2    1    2    0    0 -0.45158877216E+02 -0.31998486911E+02  0.24802084278E+03  0.28320337752E+03  0.12500634875E+03 0.  0.
         24    2    1    2    0    0  0.39924714826E+02  0.53368134316E+02  0.40498819150E+03  0.41752759222E+03  0.76627112679E+02 0.  0.
         24    2    1    2    0    0 -0.27127743789E+01 -0.16905695990E+02  0.91732031629E+03  0.92099273078E+03  0.80360971693E+02 0.  0.
        -11    1    4    4    0    0 -0.98163501005E+01  0.43325195059E+02  0.11794684445E+03  0.12603527829E+03  0.00000000000E+00 0.  1.
         12    1    4    4    0    0  0.49741064926E+02  0.10042939257E+02  0.28704134704E+03  0.29149231393E+03  0.00000000000E+00 0. -1.
        -13    1    5    5    0    0 -0.35480924763E+02  0.10318236758E+02  0.31319630025E+03  0.31536849006E+03  0.00000000000E+00 0.  1.
         14    1    5    5    0    0  0.32768150384E+02 -0.27223932749E+02  0.60412401604E+03  0.60562424072E+03  0.00000000000E+00 0. -1.
          5    1    3    3  501    0  0.76550064932E+01 -0.17485822123E+02 -0.80910445278E+01  0.21258130239E+02  0.47000000000E+01 0. -1.
         -5    1    3    3    0  501 -0.52813883709E+02 -0.14512664788E+02  0.25611188731E+03  0.26194524728E+03  0.47000000000E+01 0. -1.
          1    1    1    2  502    0 -0.57440460372E+01  0.83660520872E+01 -0.32253213898E+03  0.32269175008E+03  0.00000000000E+00 0. -1.
          1    1    1    2  503    0  0.13690982806E+02 -0.12830003502E+02  0.64932089578E+03  0.64959193167E+03  0.00000000000E+00 0. -1.
<mgrwt>
<rscale>  0 0.13779787E+02</rscale>
<asrwt>0</asrwt>
<pdfrwt beam="1">  1        2 0.33022981E+00 0.18711054E+02</pdfrwt>
<pdfrwt beam="2">  1        2 0.51241860E-01 0.10148147E+02</pdfrwt>
<totfact> 0.12740910E+02</totfact>
</mgrwt>
</event>
<event>
13    1  0.3019759E-008  0.1114485E+03  0.7546771E-02  0.1359585E+00
         -3   -1    0    0    0  501 -0.00000000000E+00  0.00000000000E+00  0.70566892443E+03  0.70566892443E+03  0.00000000000E+00 0.  1.
          2   -1    0    0  503    0  0.00000000000E+00 -0.00000000000E+00 -0.40604426025E+04  0.40604426025E+04  0.00000000000E+00 0. -1.
         25    2    1    2    0    0  0.15777715680E+03  0.44797118995E+03 -0.16401563809E+03  0.51777886725E+03  0.12498802983E+03 0.  0.
         24    2    1    2    0    0 -0.94372431150E+02 -0.31446592755E+03 -0.23264060284E+04  0.23508853592E+04  0.81865668081E+02 0.  0.
         24    2    1    2    0    0  0.57415229672E+02 -0.58631309912E+02 -0.41642237085E+03  0.43170449010E+03  0.78911575348E+02 0.  0.
        -13    1    5    5    0    0  0.66841781024E+02 -0.57484809521E+02 -0.25141593495E+03  0.26642503516E+03  0.00000000000E+00 0.  1.
         14    1    5    5    0    0 -0.94265513517E+01 -0.11465003915E+01 -0.16500643590E+03  0.16527945493E+03  0.00000000000E+00 0. -1.
        -13    1    4    4    0    0 -0.72841556348E+01 -0.11763518082E+03 -0.63564545657E+03  0.64647988457E+03  0.00000000000E+00 0.  1.
         14    1    4    4    0    0 -0.87088275515E+02 -0.19683074673E+03 -0.16907605719E+04  0.17044054746E+04  0.00000000000E+00 0. -1.
          5    1    3    3  502    0  0.39542364599E+02  0.14018012828E+03  0.78271825136E+01  0.14593636199E+03  0.47000000000E+01 0. -1.
         -5    1    3    3    0  502  0.11823479220E+03  0.30779106167E+03 -0.17184282060E+03  0.37184250526E+03  0.47000000000E+01 0. -1.
          1    1    1    2  503    0 -0.43799817535E+02  0.55874138989E+01 -0.95022290863E+03  0.95124824273E+03  0.00000000000E+00 0. -1.
         -4    1    1    2    0  501 -0.77020137789E+02 -0.80461366386E+02  0.50229326795E+03  0.51449456764E+03  0.00000000000E+00 0.  1.
<mgrwt>
<rscale>  0 0.70149722E+02</rscale>
<asrwt>0</asrwt>
<pdfrwt beam="2">  1        2 0.59712392E+00 0.44154764E+02</pdfrwt>
<pdfrwt beam="1">  1       -3 0.10377484E+00 0.11144853E+03</pdfrwt>
<totfact> 0.41171438E-01</totfact>
</mgrwt>
</event>
<event>
13    1  0.3019759E-008  0.5284252E+02  0.7546771E-02  0.1466471E+00
          2   -1    0    0  503    0  0.00000000000E+00  0.00000000000E+00  0.88019358491E+03  0.88019358491E+03  0.00000000000E+00 0. -1.
          2   -1    0    0  502    0 -0.00000000000E+00 -0.00000000000E+00 -0.28840835424E+04  0.28840835424E+04  0.00000000000E+00 0. -1.
         25    2    1    2    0    0 -0.59164480307E+02 -0.26781499464E+02 -0.18859618033E+04  0.18912151013E+04  0.12499980621E+03 0.  0.
         24    2    1    2    0    0  0.43039733843E+02 -0.37937927579E+02 -0.23807472812E+03  0.25787732602E+03  0.80804913643E+02 0.  0.
         24    2    1    2    0    0  0.25453138073E+02  0.32827180603E+01  0.95737858831E+02  0.12862491574E+03  0.81975562580E+02 0.  0.
        -11    1    5    5    0    0  0.45107754894E+01  0.36262922115E+02  0.77137576904E+02  0.85355447316E+02  0.00000000000E+00 0.  1.
         12    1    5    5    0    0  0.20942362584E+02 -0.32980204055E+02  0.18600281927E+02  0.43269468426E+02  0.00000000000E+00 0. -1.
        -13    1    4    4    0    0  0.54666971884E+02 -0.52272931776E+02 -0.15119734843E+03  0.16906086296E+03  0.00000000000E+00 0.  1.
         14    1    4    4    0    0 -0.11627238041E+02  0.14335004197E+02 -0.86877379683E+02  0.88816463059E+02  0.00000000000E+00 0. -1.
          5    1    3    3  501    0 -0.21405034447E+02 -0.71912038271E+02 -0.76061873945E+03  0.76432484819E+03  0.47000000000E+01 0. -1.
         -5    1    3    3    0  501 -0.37759445861E+02  0.45130538807E+02 -0.11253430639E+04  0.11268902532E+04  0.47000000000E+01 0. -1.
          1    1    1    2  502    0  0.30502346347E+02  0.26707893525E+02 -0.72958794721E+03  0.73071353992E+03  0.00000000000E+00 0. -1.
          1    1    1    2  503    0 -0.39830737956E+02  0.34728815458E+02  0.75399666229E+03  0.75584624432E+03  0.00000000000E+00 0. -1.
<mgrwt>
<rscale>  0 0.46285793E+02</rscale>
<asrwt>0</asrwt>
<pdfrwt beam="1">  1        2 0.12944023E+00 0.52842519E+02</pdfrwt>
<pdfrwt beam="2">  1        2 0.42412993E+00 0.40542628E+02</pdfrwt>
<totfact> 0.21253827E+01</totfact>
</mgrwt>
</event>
<event>
13    1  0.3019759E-008  0.1086597E+03  0.7546771E-02  0.1274631E+00
          2   -1    0    0  502    0  0.00000000000E+00  0.00000000000E+00  0.43343521960E+04  0.43343521960E+04  0.00000000000E+00 0. -1.
          2   -1    0    0  503    0 -0.00000000000E+00 -0.00000000000E+00 -0.41815416285E+03  0.41815416285E+03  0.00000000000E+00 0. -1.
         25    2    1    2    0    0 -0.70418750058E+02  0.94061284533E+01 -0.13442974971E+03  0.19683607274E+03  0.12500322521E+03 0.  0.
         24    2    1    2    0    0  0.40496258146E+02 -0.36168233007E+02  0.26530069973E+03  0.28225849108E+03  0.79607201339E+02 0.  0.
         24    2    1    2    0    0  0.13459085864E+02  0.19490949043E+02  0.21376669951E+03  0.23007322005E+03  0.81709489506E+02 0.  0.
        -11    1    4    4    0    0  0.48465070556E+02 -0.35590675262E+02  0.99444888099E+02  0.11621034807E+03  0.00000000000E+00 0.  1.
         12    1    4    4    0    0 -0.79688124098E+01 -0.57755774482E+00  0.16585581163E+03  0.16604814301E+03  0.00000000000E+00 0. -1.
        -11    1    5    5    0    0  0.23359771049E+02  0.23889343078E+02  0.26906363833E+02  0.42899091259E+02  0.00000000000E+00 0.  1.
         12    1    5    5    0    0 -0.99006851853E+01 -0.43983940342E+01  0.18686033568E+03  0.18717412879E+03  0.00000000000E+00 0. -1.
          5    1    3    3  501    0 -0.52747986762E+02  0.24018390869E+01 -0.15773044658E+03  0.16640042884E+03  0.47000000000E+01 0. -1.
         -5    1    3    3    0  501 -0.17670763296E+02  0.70042893664E+01  0.23300696874E+02  0.30435643904E+02  0.47000000000E+01 0. -1.
          1    1    1    2  502    0 -0.53480174937E+02 -0.14997200958E+03  0.37741567264E+04  0.37775138290E+04  0.00000000000E+00 0. -1.
          1    1    1    2  503    0  0.69943580986E+02  0.15724316509E+03 -0.20259634277E+03  0.26582474601E+03  0.00000000000E+00 0. -1.
<mgrwt>
<rscale>  0 0.10274292E+03</rscale>
<asrwt>0</asrwt>
<pdfrwt beam="1">  1        2 0.63740471E+00 0.10865975E+03</pdfrwt>
<pdfrwt beam="2">  1        2 0.61493262E-01 0.97148283E+02</pdfrwt>
<totfact> 0.52519529E+00</totfact>
</mgrwt>
</event>
<event>
13    1  0.3019759E-008  0.8834251E+02  0.7546771E-02  0.1455497E+00
          2   -1    0    0  502    0  0.00000000000E+00  0.00000000000E+00  0.27694989853E+04  0.27694989853E+04  0.00000000000E+00 0. -1.
          2   -1    0    0  503    0 -0.00000000000E+00 -0.00000000000E+00 -0.28017675917E+04  0.28017675917E+04  0.00000000000E+00 0. -1.
         25    2    1    2    0    0  0.67685394847E+02  0.10190704914E+03 -0.84979079358E+03  0.86760341874E+03  0.12499976003E+03 0.  0.
         24    2    1    2    0    0  0.19080399999E+02 -0.76782375047E+02 -0.24311383452E+03  0.26808846350E+03  0.80669033372E+02 0.  0.
         24    2    1    2    0    0 -0.17221122613E+02 -0.57217172378E+02  0.70161553758E+03  0.70868075029E+03  0.79960436338E+02 0.  0.
        -11    1    4    4    0    0  0.12048749586E+01 -0.63082415584E+02 -0.72988317687E+02  0.96478688830E+02  0.00000000000E+00 0.  1.
         12    1    4    4    0    0  0.17875525041E+02 -0.13699959463E+02 -0.17012551683E+03  0.17160977467E+03  0.00000000000E+00 0. -1.
        -13    1    5    5    0    0 -0.18129932946E+02 -0.77384969955E+02  0.57456345164E+03  0.58003473000E+03  0.00000000000E+00 0.  1.
         14    1    5    5    0    0  0.90881033383E+00  0.20167797577E+02  0.12705208594E+03  0.12864602029E+03  0.00000000000E+00 0. -1.
          5    1    3    3  501    0 -0.32109624090E+02  0.35113654041E+02 -0.36599074213E+03  0.36910067730E+03  0.47000000000E+01 0.  1.
         -5    1    3    3    0  501  0.99795018937E+02  0.66793395101E+02 -0.48380005145E+03  0.49850274144E+03  0.47000000000E+01 0.  1.
          1    1    1    2  502    0 -0.87415619469E+02  0.12851246309E+02  0.20418994178E+04  0.20438101373E+04  0.00000000000E+00 0. -1.
          1    1    1    2  503    0  0.17870947235E+02  0.19241251975E+02 -0.16828789337E+04  0.16830838072E+04  0.00000000000E+00 0. -1.
<mgrwt>
<rscale>  0 0.48165231E+02</rscale>
<asrwt>0</asrwt>
<pdfrwt beam="1">  1        2 0.40727926E+00 0.88342514E+02</pdfrwt>
<pdfrwt beam="2">  1        2 0.41202465E+00 0.26260170E+02</pdfrwt>
<totfact> 0.27523374E+00</totfact>
</mgrwt>
</event>
<event>
13    1  0.3019759E-008  0.8269368E+02  0.7546771E-02  0.1415768E+00
          2   -1    0    0  503    0  0.00000000000E+00  0.00000000000E+00  0.87916894560E+03  0.87916894560E+03  0.00000000000E+00 0. -1.
          2   -1    0    0  502    0 -0.00000000000E+00 -0.00000000000E+00 -0.23286865092E+04  0.23286865092E+04  0.00000000000E+00 0. -1.
         25    2    1    2    0    0 -0.12995963925E+02 -0.14494035755E+03 -0.69983442389E+03  0.72565107311E+03  0.12499862685E+03 0.  0.
         24    2    1    2    0    0  0.18199068262E+02  0.14156508962E+03 -0.21644823341E+03  0.27072844923E+03  0.77924160514E+02 0.  0.
         24    2    1    2    0    0 -0.99954655712E+02 -0.70817103648E+02 -0.22585899909E+03  0.26868526253E+03  0.78571543602E+02 0.  0.
        -11    1    5    5    0    0 -0.92307360222E+02 -0.86003437242E+02 -0.21221160622E+03  0.24688257489E+03  0.00000000000E+00 0.  1.
         12    1    5    5    0    0 -0.76472954893E+01  0.15186333594E+02 -0.13647392871E+02  0.21802687644E+02  0.00000000000E+00 0. -1.
        -13    1    4    4    0    0 -0.12018373268E+02  0.56089041801E+01 -0.59215008105E+02  0.60682108459E+02  0.00000000000E+00 0.  1.
         14    1    4    4    0    0  0.30217441530E+02  0.13595618544E+03 -0.15723322530E+03  0.21004634077E+03  0.00000000000E+00 0. -1.
          5    1    3    3  501    0  0.12219152353E+02 -0.11811549162E+03 -0.66225714775E+03  0.67283519289E+03  0.47000000000E+01 0. -1.
         -5    1    3    3    0  501 -0.25215116278E+02 -0.26824865929E+02 -0.37577276140E+02  0.52815880217E+02  0.47000000000E+01 0. -1.
          1    1    1    2  502    0  0.31187538024E+02  0.21399601905E+02 -0.11226766165E+04  0.11233135763E+04  0.00000000000E+00 0. -1.
          1    1    1    2  503    0  0.63564013350E+02  0.52792769677E+02  0.81530070932E+03  0.81947709360E+03  0.00000000000E+00 0. -1.
<mgrwt>
<rscale>  0 0.55926306E+02</rscale>
<asrwt>0</asrwt>
<pdfrwt beam="1">  1        2 0.12928955E+00 0.82693680E+02</pdfrwt>
<pdfrwt beam="2">  1        2 0.34245390E+00 0.37823346E+02</pdfrwt>
<totfact> 0.39130328E+01</totfact>
</mgrwt>
</event>
<event>
13    1  0.3019759E-008  0.9370520E+02  0.7546771E-02  0.1303896E+00
          2   -1    0    0  502    0  0.00000000000E+00  0.00000000000E+00  0.26210545441E+04  0.26210545441E+04  0.00000000000E+00 0. -1.
          2   -1    0    0  503    0 -0.00000000000E+00 -0.00000000000E+00 -0.55306762095E+03  0.55306762095E+03  0.00000000000E+00 0. -1.
         25    2    1    2    0    0  0.23717126864E+03 -0.49653015127E+02 -0.18398806829E+03  0.32892046768E+03  0.12498572801E+03 0.  0.
         24    2    1    2    0    0 -0.75173651535E+02  0.23482919634E+02  0.11457899786E+03  0.16049938030E+03  0.80182160894E+02 0.  0.
         24    2    1    2    0    0 -0.16161338041E+02 -0.77069673813E+02  0.85582644270E+03  0.86319486796E+03  0.80408684744E+02 0.  0.
        -11    1    5    5    0    0 -0.41506242232E+02 -0.14599410642E+02  0.28008605951E+03  0.28352091928E+03  0.00000000000E+00 0.  1.
         12    1    5    5    0    0  0.25344904192E+02 -0.62470263170E+02  0.57574038318E+03  0.57967394868E+03  0.00000000000E+00 0. -1.
        -13    1    4    4    0    0 -0.81175196695E+02 -0.59938268933E+01  0.74151030874E+02  0.11010773769E+03  0.00000000000E+00 0.  1.
         14    1    4    4    0    0  0.60015451602E+01  0.29476746528E+02  0.40427966985E+02  0.50391642608E+02  0.00000000000E+00 0. -1.
          5    1    3    3  501    0  0.11319468977E+03 -0.70550104155E+02 -0.14530041560E+03  0.19729332417E+03  0.47000000000E+01 0. -1.
         -5    1    3    3    0  501  0.12397657887E+03  0.20897089028E+02 -0.38687652692E+02  0.13162714351E+03  0.47000000000E+01 0. -1.
          1    1    1    2  502    0 -0.69593202281E+02  0.49872011107E+02  0.15422952682E+04  0.15446699083E+04  0.00000000000E+00 0. -1.
          1    1    1    2  503    0 -0.76243076779E+02  0.53367758199E+02 -0.26072571728E+03  0.27683754085E+03  0.00000000000E+00 0. -1.
<mgrwt>
<rscale>  0 0.89570342E+02</rscale>
<asrwt>0</asrwt>
<pdfrwt beam="1">  1        2 0.38544919E+00 0.85617938E+02</pdfrwt>
<pdfrwt beam="2">  1        2 0.81333475E-01 0.93705201E+02</pdfrwt>
<totfact> 0.42973432E+01</totfact>
</mgrwt>
</event>
<event>
13    1  0.3019759E-008  0.1047144E+03  0.7546771E-02  0.1325285E+00
          2   -1    0    0  503    0  0.00000000000E+00  0.00000000000E+00  0.29976059104E+04  0.29976059104E+04  0.00000000000E+00 0. -1.
          2   -1    0    0  502    0 -0.00000000000E+00 -0.00000000000E+00 -0.16008623024E+04  0.16008623024E+04  0.00000000000E+00 0. -1.
         25    2    1    2    0    0  0.21847064800E+03  0.25466910058E+03 -0.54569582004E+03  0.65269083062E+03  0.12504246294E+03 0.  0.
         24    2    1    2    0    0 -0.14089919624E+03 -0.39337689909E+02  0.61971835091E+02  0.17729915122E+03  0.78704785954E+02 0.  0.
         24    2    1    2    0    0 -0.32181902269E+02 -0.81039737098E+02  0.57220006705E+02  0.13160389212E+03  0.80264197698E+02 0.  0.
        -11    1    5    5    0    0  0.22949253092E+02 -0.49627221632E+02  0.21215556827E+02  0.58648352030E+02  0.00000000000E+00 0.  1.
         12    1    5    5    0    0 -0.55131155361E+02 -0.31412515467E+02  0.36004449878E+02  0.72955540093E+02  0.00000000000E+00 0. -1.
        -13    1    4    4    0    0 -0.11563936222E+02 -0.34545196937E+02  0.17794968874E+02  0.40543262937E+02  0.00000000000E+00 0.  1.
         14    1    4    4    0    0 -0.12933526002E+03 -0.47924929729E+01  0.44176866216E+02  0.13675588829E+03  0.00000000000E+00 0. -1.
          5    1    3    3  501    0  0.17148369220E+02  0.10236835413E+03 -0.13131207394E+03  0.16744640115E+03  0.47000000000E+01 0. -1.
         -5    1    3    3    0  501  0.20132227878E+03  0.15230074645E+03 -0.41438374610E+03  0.48524442947E+03  0.47000000000E+01 0. -1.
          1    1    1    2  502    0 -0.55552633710E+02 -0.30107351824E+02 -0.90470761667E+03  0.90691147275E+03  0.00000000000E+00 0. -1.
          1    1    1    2  503    0  0.10163084214E+02 -0.10418432175E+03  0.27279552029E+04  0.27299628661E+04  0.00000000000E+00 0. -1.
<mgrwt>
<rscale>  0 0.81342154E+02</rscale>
<asrwt>0</asrwt>
<pdfrwt beam="1">  1        2 0.44082440E+00 0.10471437E+03</pdfrwt>
<pdfrwt beam="2">  1        2 0.23542093E+00 0.63186610E+02</pdfrwt>
<totfact> 0.66656935E+00</totfact>
</mgrwt>
</event>
<event>
13    1  0.3019759E-008  0.7343262E+02  0.7546771E-02  0.1412996E+00
         -1   -1    0    0    0  501  0.00000000000E+00  0.00000000000E+00  0.98378237335E+03  0.98378237335E+03  0.00000000000E+00 0.  1.
         -3   -1    0    0    0  502 -0.00000000000E+00 -0.00000000000E+00 -0.93938907913E+03  0.93938907913E+03  0.00000000000E+00 0.  1.
         25    2    1    2    0    0  0.12120659176E+03  0.31484997414E+02 -0.22884451395E+03  0.28927030266E+03  0.12500061394E+03 0.  0.
         24    2    1    2    0    0  0.10858210014E+01  0.28413143959E+02  0.14682240702E+03  0.16948435426E+03  0.79747359701E+02 0.  0.
         24    2    1    2    0    0 -0.73817556627E+01 -0.40280549197E+02  0.16821353834E+03  0.18927995764E+03  0.76512057370E+02 0.  0.
        -11    1    4    4    0    0 -0.33987812870E+02  0.22262584928E+02  0.40542038941E+02  0.57397308585E+02  0.00000000000E+00 0.  1.
         12    1    4    4    0    0  0.35073633871E+02  0.61505590312E+01  0.10628036808E+03  0.11208704568E+03  0.00000000000E+00 0. -1.
        -13    1    5    5    0    0  0.16536719624E+02  0.13745416505E+02  0.18633120297E+02  0.28453343262E+02  0.00000000000E+00 0.  1.
         14    1    5    5    0    0 -0.23918475287E+02 -0.54025965702E+02  0.14958041805E+03  0.16082661438E+03  0.00000000000E+00 0. -1.
          5    1    3    3  503    0 -0.12138516951E+02 -0.26589997497E+02 -0.24619303290E+02  0.38504177113E+02  0.47000000000E+01 0.  1.
         -5    1    3    3    0  503  0.13334510871E+03  0.58074994912E+02 -0.20422521066E+03  0.25076612555E+03  0.47000000000E+01 0.  1.
         -2    1    1    2    0  501 -0.72305586926E+02 -0.10746067845E+02  0.61377907726E+03  0.61811676208E+03  0.00000000000E+00 0.  1.
         -4    1    1    2    0  502 -0.42605070169E+02 -0.88715243307E+01 -0.65557721445E+03  0.65702007584E+03  0.00000000000E+00 0.  1.
<mgrwt>
<rscale>  0 0.56530595E+02</rscale>
<asrwt>0</asrwt>
<pdfrwt beam="1">  1       -1 0.14467388E+00 0.73432625E+02</pdfrwt>
<pdfrwt beam="2">  1       -3 0.13814545E+00 0.43518915E+02</pdfrwt>
<totfact> 0.86991625E-01</totfact>
</mgrwt>
</event>
<event>
13    1  0.3203539E-008  0.3411403E+02  0.7546771E-02  0.1564195E+00
          2   -1    0    0  502    0  0.00000000000E+00  0.00000000000E+00  0.32106360714E+04  0.32106360714E+04  0.00000000000E+00 0. -1.
          2   -1    0    0  503    0 -0.00000000000E+00 -0.00000000000E+00 -0.12745578325E+04  0.12745578325E+04  0.00000000000E+00 0. -1.
         25    2    1    2    0    0  0.31085209517E+03 -0.62778457325E+03 -0.29312455282E+03  0.76960403189E+03  0.12500346776E+03 0.  0.
         24    2    1    2    0    0 -0.72011488434E+03  0.64993170084E+03  0.14184401835E+03  0.98197154081E+03  0.56318016782E+02 0.  0.
         24    2    1    2    0    0  0.34984883581E+03 -0.75025849848E+01  0.20504676283E+03  0.41351734551E+03  0.80634504965E+02 0.  0.
        -11    1    4    4    0    0 -0.46068721511E+03  0.42623594664E+03  0.11774827021E+03  0.63857219444E+03  0.00000000000E+00 0.  1.
         12    1    4    4    0    0 -0.25942766923E+03  0.22369575421E+03  0.24095748139E+02  0.34339934638E+03  0.00000000000E+00 0. -1.
        -11    1    5    5    0    0  0.79671147551E+02  0.21987651617E+02  0.77473019348E+02  0.11328290825E+03  0.00000000000E+00 0.  1.
         12    1    5    5    0    0  0.27017768825E+03 -0.29490236602E+02  0.12757374348E+03  0.30023443725E+03  0.00000000000E+00 0. -1.
          5    1    3    3  501    0  0.15524380233E+03 -0.19190503850E+03 -0.75649188635E+02  0.25821129275E+03  0.47000000000E+01 0.  1.
         -5    1    3    3    0  501  0.15560829284E+03 -0.43587953475E+03 -0.21747536419E+03  0.51139273913E+03  0.47000000000E+01 0.  1.
          1    1    1    2  502    0  0.32020735197E+02  0.56422489775E+01  0.20997528172E+04  0.21000045371E+04  0.00000000000E+00 0. -1.
          1    1    1    2  503    0  0.27393218167E+02 -0.20286791588E+02 -0.21744080659E+03  0.22009644860E+03  0.00000000000E+00 0. -1.
<mgrwt>
<rscale>  0 0.33304427E+02</rscale>
<asrwt>0</asrwt>
<pdfrwt beam="1">  1        2 0.47215236E+00 0.32514035E+02</pdfrwt>
<pdfrwt beam="2">  1        2 0.18743498E+00 0.34114034E+02</pdfrwt>
<totfact> 0.94777046E+00</totfact>
</mgrwt>
</event>
<event>
13    1  0.3019759E-008  0.2502264E+03  0.7546771E-02  0.1291349E+00
          2   -1    0    0  502    0  0.00000000000E+00  0.00000000000E+00  0.12320415065E+04  0.12320415065E+04  0.00000000000E+00 0. -1.
          2   -1    0    0  503    0 -0.00000000000E+00 -0.00000000000E+00 -0.76987943148E+03  0.76987943148E+03  0.00000000000E+00 0. -1.
         25    2    1    2    0    0  0.17851382126E+03 -0.21365127440E+03 -0.37248640918E+03  0.48154615051E+03  0.12500607430E+03 0.  0.
         24    2    1    2    0    0 -0.41055805603E+01 -0.10592577528E+02  0.24709462334E+01  0.80411808193E+02  0.79566920458E+02 0.  0.
         24    2    1    2    0    0 -0.21692262803E+02  0.12683418143E+02  0.16985699237E+03  0.19061059952E+03  0.82762185983E+02 0.  0.
        -11    1    5    5    0    0  0.73426744965E+01  0.43520662308E+02  0.87300774550E+02  0.97823249554E+02  0.00000000000E+00 0.  1.
         12    1    5    5    0    0 -0.29034937300E+02 -0.30837244164E+02  0.82556217823E+02  0.92787349962E+02  0.00000000000E+00 0. -1.
        -11    1    4    4    0    0 -0.32534189883E+02 -0.31281544750E+02  0.31759010348E+01  0.45244832862E+02  0.00000000000E+00 0.  1.
         12    1    4    4    0    0  0.28428609323E+02  0.20688967222E+02 -0.70495480137E+00  0.35166975332E+02  0.00000000000E+00 0. -1.
          5    1    3    3  501    0  0.11834741324E+02 -0.87182247005E+02 -0.64541465552E+02  0.10921765457E+03  0.47000000000E+01 0.  1.
         -5    1    3    3    0  501  0.16667907993E+03 -0.12646902739E+03 -0.30794494363E+03  0.37232849593E+03  0.47000000000E+01 0.  1.
          1    1    1    2  502    0 -0.97664813795E+01  0.34659301965E+02  0.91136805327E+03  0.91207915221E+03  0.00000000000E+00 0. -1.
          1    1    1    2  503    0 -0.14294949651E+03  0.17690113182E+03 -0.24904750764E+03  0.33727322760E+03  0.00000000000E+00 0. -1.
<mgrwt>
<rscale>  0 0.94923194E+02</rscale>
<asrwt>0</asrwt>
<pdfrwt beam="1">  1        2 0.18118258E+00 0.36009046E+02</pdfrwt>
<pdfrwt beam="2">  1        2 0.11321756E+00 0.25022637E+03</pdfrwt>
<totfact> 0.14420945E+02</totfact>
</mgrwt>
</event>
<event>
13    1  0.3019759E-008  0.7339308E+02  0.7546771E-02  0.1501545E+00
          2   -1    0    0  503    0  0.00000000000E+00  0.00000000000E+00  0.14559280032E+04  0.14559280032E+04  0.00000000000E+00 0. -1.
          2   -1    0    0  502    0 -0.00000000000E+00 -0.00000000000E+00 -0.29383721716E+04  0.29383721716E+04  0.00000000000E+00 0. -1.
         25    2    1    2    0    0  0.31062878147E+02 -0.15059477657E+03 -0.34370921963E+03  0.39674199323E+03  0.12499796962E+03 0.  0.
         24    2    1    2    0    0 -0.33807362998E+03  0.10633473372E+03  0.45427121360E+03  0.58179915951E+03  0.80790294100E+02 0.  0.
         24    2    1    2    0    0  0.33162140298E+03 -0.35607114497E+02  0.27875343251E+03  0.44215214347E+03  0.80959374517E+02 0.  0.
        -11    1    5    5    0    0  0.33603343590E+02 -0.29684857164E+02  0.42851358514E+02  0.62021080060E+02  0.00000000000E+00 0.  1.
         12    1    5    5    0    0  0.29801805939E+03 -0.59222573338E+01  0.23590207399E+03  0.38013106341E+03  0.00000000000E+00 0. -1.
        -11    1    4    4    0    0 -0.22687664856E+03  0.92092921567E+02  0.35970934754E+03  0.43513783400E+03  0.00000000000E+00 0.  1.
         12    1    4    4    0    0 -0.11119698142E+03  0.14241812148E+02  0.94561866056E+02  0.14666132551E+03  0.00000000000E+00 0. -1.
          5    1    3    3  501    0  0.99626830920E+01 -0.33100673075E+02 -0.22722212216E+03  0.22988451973E+03  0.47000000000E+01 0.  1.
         -5    1    3    3    0  501  0.21100195055E+02 -0.11749410349E+03 -0.11648709747E+03  0.16685747350E+03  0.47000000000E+01 0.  1.
          1    1    1    2  502    0  0.14368983012E+02  0.17722018378E+02 -0.24201872256E+04  0.24202947640E+04  0.00000000000E+00 0. -1.
          1    1    1    2  503    0 -0.38979634156E+02  0.62145138974E+02  0.54842763062E+03  0.55331211464E+03  0.00000000000E+00 0. -1.
<mgrwt>
<rscale>  0 0.40920467E+02</rscale>
<asrwt>0</asrwt>
<pdfrwt beam="1">  1        2 0.21410706E+00 0.73393079E+02</pdfrwt>
<pdfrwt beam="2">  1        2 0.43211355E+00 0.22815293E+02</pdfrwt>
<totfact> 0.10740362E+01</totfact>
</mgrwt>
</event>
<event>
13    1  0.3019759E-008  0.1416714E+03  0.7546771E-02  0.1343360E+00
          2   -1    0    0  502    0  0.00000000000E+00  0.00000000000E+00  0.83213166271E+03  0.83213166271E+03  0.00000000000E+00 0. -1.
          2   -1    0    0  503    0 -0.00000000000E+00 -0.00000000000E+00 -0.28702876647E+04  0.28702876647E+04  0.00000000000E+00 0. -1.
         25    2    1    2    0    0  0.85019144161E+02 -0.97688265943E+02 -0.16607202876E+04  0.16704449845E+04  0.12499328187E+03 0.  0.
         24    2    1    2    0    0  0.38283049533E+02  0.48498471184E+02 -0.37718777320E+03  0.39082300692E+03  0.81573971931E+02 0.  0.
         24    2    1    2    0    0 -0.81292458651E+02 -0.44984816814E+02  0.51246873922E+02  0.13293007324E+03  0.80075368920E+02 0.  0.
        -13    1    5    5    0    0 -0.26881181782E+02 -0.47521832051E+02 -0.47579694668E+01  0.54804750971E+02  0.00000000000E+00 0.  1.
         14    1    5    5    0    0 -0.54411276869E+02  0.25370152373E+01  0.56004843389E+02  0.78125322270E+02  0.00000000000E+00 0. -1.
        -13    1    4    4    0    0  0.95073963315E+01  0.65047338724E+02 -0.19922203070E+03  0.20978790331E+03  0.00000000000E+00 0.  1.
         14    1    4    4    0    0  0.28775653202E+02 -0.16548867540E+02 -0.17796574251E+03  0.18103510361E+03  0.00000000000E+00 0. -1.
          5    1    3    3  501    0  0.50225085874E+02 -0.25413075605E+02 -0.12844254515E+04  0.12856668363E+04  0.47000000000E+01 0. -1.
         -5    1    3    3    0  501  0.34794058286E+02 -0.72275190338E+02 -0.37629483611E+03  0.38477814818E+03  0.47000000000E+01 0. -1.
          1    1    1    2  502    0 -0.64347170123E+02  0.12721142855E+03  0.72086817790E+03  0.73482939229E+03  0.00000000000E+00 0. -1.
          1    1    1    2  503    0  0.22337435080E+02 -0.33036816982E+02 -0.77236299305E+03  0.77339187048E+03  0.00000000000E+00 0. -1.
<mgrwt>
<rscale>  0 0.75165254E+02</rscale>
<asrwt>0</asrwt>
<pdfrwt beam="1">  1        2 0.12237230E+00 0.14167138E+03</pdfrwt>
<pdfrwt beam="2">  1        2 0.42210114E+00 0.39879723E+02</pdfrwt>
<totfact> 0.22331105E+01</totfact>
</mgrwt>
</event>
<event>
13    1  0.3019759E-008  0.1348646E+03  0.7546771E-02  0.1237737E+00
          2   -1    0    0  503    0  0.00000000000E+00  0.00000000000E+00  0.23984948556E+04  0.23984948556E+04  0.00000000000E+00 0. -1.
          2   -1    0    0  502    0 -0.00000000000E+00 -0.00000000000E+00 -0.25204166320E+04  0.25204166320E+04  0.00000000000E+00 0. -1.
         25    2    1    2    0    0  0.11038903521E+03 -0.36658518100E+02 -0.89342151629E+03  0.90959139268E+03  0.12499963929E+03 0.  0.
         24    2    1    2    0    0 -0.38237652704E+02 -0.10251221138E+03 -0.29379527858E+02  0.13883403803E+03  0.80254980485E+02 0.  0.
         24    2    1    2    0    0 -0.35341319189E+02 -0.14438352367E+02  0.21256281226E+03  0.23009261714E+03  0.79386324025E+02 0.  0.
        -13    1    4    4    0    0 -0.47108878506E+02 -0.10837364480E+03 -0.39056681792E+02  0.12445689099E+03  0.00000000000E+00 0.  1.
         14    1    4    4    0    0  0.88712258018E+01  0.58614334180E+01  0.96771539340E+01  0.14377147047E+02  0.00000000000E+00 0. -1.
        -13    1    5    5    0    0  0.11719498100E+02  0.24399377471E+02  0.64332702257E+02  0.69795220727E+02  0.00000000000E+00 0.  1.
         14    1    5    5    0    0 -0.47060817290E+02 -0.38837729838E+02  0.14823011001E+03  0.16029739641E+03  0.00000000000E+00 0. -1.
          5    1    3    3  501    0  0.49433567097E+02 -0.40771662214E+02 -0.14417353129E+03  0.15784201951E+03  0.47000000000E+01 0.  1.
         -5    1    3    3    0  501  0.60955468118E+02  0.41131441140E+01 -0.74924798499E+03  0.75174937317E+03  0.47000000000E+01 0.  1.
          1    1    1    2  502    0 -0.15298546712E+03  0.20232428073E+02 -0.15184216340E+04  0.15262431532E+04  0.00000000000E+00 0. -1.
          1    1    1    2  503    0  0.11617540380E+03  0.13337665378E+03  0.21067380895E+04  0.21141502865E+04  0.00000000000E+00 0. -1.
<mgrwt>
<rscale>  0 0.12330816E+03</rscale>
<asrwt>0</asrwt>
<pdfrwt beam="1">  1        2 0.35271983E+00 0.11274199E+03</pdfrwt>
<pdfrwt beam="2">  1        2 0.37064950E+00 0.13486459E+03</pdfrwt>
<totfact> 0.44246678E+00</totfact>
</mgrwt>
</event>
<event>
13    1  0.3019759E-008  0.6841890E+02  0.7546771E-02  0.1425913E+00
          2   -1    0    0  503    0  0.00000000000E+00  0.00000000000E+00  0.15010656079E+04  0.15010656079E+04  0.00000000000E+00 0. -1.
          2   -1    0    0  502    0 -0.00000000000E+00 -0.00000000000E+00 -0.97694977676E+03  0.97694977676E+03  0.00000000000E+00 0. -1.
         25    2    1    2    0    0 -0.86393726152E+01  0.87275411684E+02 -0.10192455279E+03  0.18359269053E+03  0.12500410117E+03 0.  0.
         24    2    1    2    0    0  0.72620870931E+01 -0.16462284195E+02 -0.30443288488E+01  0.81007744755E+02  0.78925547589E+02 0.  0.
         24    2    1    2    0    0 -0.83963889963E+01  0.38494460190E+02  0.12597037684E+02  0.89551849244E+02  0.79426226973E+02 0.  0.
        -11    1    5    5    0    0 -0.10889315362E+02  0.61100957930E+02 -0.27334932057E+01  0.62123878132E+02  0.00000000000E+00 0.  1.
         12    1    5    5    0    0  0.24929263661E+01 -0.22606497741E+02  0.15330530890E+02  0.27427971112E+02  0.00000000000E+00 0. -1.
        -11    1    4    4    0    0  0.36804221778E+02  0.37344588200E+00 -0.21186092650E+02  0.42468114207E+02  0.00000000000E+00 0.  1.
         12    1    4    4    0    0 -0.29542134685E+02 -0.16835730077E+02  0.18141763802E+02  0.38539630548E+02  0.00000000000E+00 0. -1.
          5    1    3    3  501    0 -0.13583057121E+02  0.59109463481E+02  0.15392623933E+02  0.62749111431E+02  0.47000000000E+01 0.  1.
         -5    1    3    3    0  501  0.49436845061E+01  0.28165948202E+02 -0.11731717672E+03  0.12084357910E+03  0.47000000000E+01 0.  1.
          1    1    1    2  502    0 -0.27319489389E+01 -0.42199520074E+02 -0.75224326774E+03  0.75343095032E+03  0.00000000000E+00 0. -1.
          1    1    1    2  503    0  0.12505623457E+02 -0.67108067604E+02  0.13687309428E+04  0.13704321498E+04  0.00000000000E+00 0. -1.
<mgrwt>
<rscale>  0 0.53789302E+02</rscale>
<asrwt>0</asrwt>
<pdfrwt beam="1">  1        2 0.22074494E+00 0.68418905E+02</pdfrwt>
<pdfrwt beam="2">  1        2 0.14366909E+00 0.42287859E+02</pdfrwt>
<totfact> 0.80976700E+01</totfact>
</mgrwt>
</event>
<event>
13    1  0.3019759E-008  0.1670513E+03  0.7546771E-02  0.1249899E+00
          2   -1    0    0  503    0  0.00000000000E+00  0.00000000000E+00  0.14145858041E+04  0.14145858041E+04  0.00000000000E+00 0. -1.
          2   -1    0    0  502    0 -0.00000000000E+00 -0.00000000000E+00 -0.23100697247E+04  0.23100697247E+04  0.00000000000E+00 0. -1.
         25    2    1    2    0    0  0.11749321699E+03 -0.45969421649E+02 -0.31489171727E+03  0.36152417201E+03  0.12500035830E+03 0.  0.
         24    2    1    2    0    0 -0.37588105602E+02  0.72933229501E+02 -0.16724153319E+03  0.20236268502E+03  0.79049378356E+02 0.  0.
         24    2    1    2    0    0  0.10497857561E+03  0.15800936355E+02  0.63386613415E+02  0.14780267224E+03  0.80978986381E+02 0.  0.
        -11    1    5    5    0    0  0.15276954077E+02 -0.11885189730E+02  0.49186291038E+02  0.52857679544E+02  0.00000000000E+00 0.  1.
         12    1    5    5    0    0  0.89701621529E+02  0.27686126085E+02  0.14200322378E+02  0.94944992696E+02  0.00000000000E+00 0. -1.
        -13    1    4    4    0    0  0.10652564239E+02 -0.12093818254E+02 -0.25998181786E+02  0.30588282414E+02  0.00000000000E+00 0.  1.
         14    1    4    4    0    0 -0.48240669841E+02  0.85027047755E+02 -0.14124335140E+03  0.17177440261E+03  0.00000000000E+00 0. -1.
          5    1    3    3  501    0  0.11866192147E+02 -0.21741361582E+02  0.32307596499E+01  0.25416945674E+02  0.47000000000E+01 0.  1.
         -5    1    3    3    0  501  0.10562702484E+03 -0.24228060067E+02 -0.31812247692E+03  0.33610722633E+03  0.47000000000E+01 0.  1.
          1    1    1    2  502    0 -0.52099030266E+02  0.61377131162E+02 -0.17383017567E+04  0.17401650664E+04  0.00000000000E+00 0. -1.
          1    1    1    2  503    0 -0.13278465673E+03 -0.10414187537E+03  0.12615644731E+04  0.12728009330E+04  0.00000000000E+00 0. -1.
<mgrwt>
<rscale>  0 0.11596932E+03</rscale>
<asrwt>0</asrwt>
<pdfrwt beam="1">  1        2 0.20802733E+00 0.16705126E+03</pdfrwt>
<pdfrwt beam="2">  1        2 0.33971613E+00 0.80507523E+02</pdfrwt>
<totfact> 0.17662630E+01</totfact>
</mgrwt>
</event>
<event>
13    1  0.3019759E-008  0.3766421E+03  0.7546771E-02  0.1202932E+00
          2   -1    0    0  503    0  0.00000000000E+00  0.00000000000E+00  0.16425549752E+04  0.16425549752E+04  0.00000000000E+00 0. -1.
          2   -1    0    0  502    0 -0.00000000000E+00 -0.00000000000E+00 -0.31124271601E+04  0.31124271601E+04  0.00000000000E+00 0. -1.
         25    2    1    2    0    0 -0.14383093250E+03  0.15924341072E+03 -0.15758475559E+04  0.15952951386E+04  0.12500103424E+03 0.  0.
         24    2    1    2    0    0 -0.22907360584E+02 -0.13558958313E+03 -0.16340844070E+03  0.22874319964E+03  0.81925885201E+02 0.  0.
         24    2    1    2    0    0  0.42730759895E+03 -0.16330489287E+03  0.56790910782E+03  0.73553851026E+03  0.96103450400E+02 0.  0.
        -13    1    4    4    0    0 -0.30624924765E+02 -0.11635314522E+03 -0.84160483576E+02  0.14682958631E+03  0.00000000000E+00 0.  1.
         14    1    4    4    0    0  0.77175641807E+01 -0.19236437910E+02 -0.79247957122E+02  0.81913613327E+02  0.00000000000E+00 0. -1.
        -13    1    5    5    0    0  0.36286468547E+03 -0.17330651824E+03  0.49370489645E+03  0.63674991481E+03  0.00000000000E+00 0.  1.
         14    1    5    5    0    0  0.64442913472E+02  0.10001625365E+02  0.74204211364E+02  0.98788595449E+02  0.00000000000E+00 0. -1.
          5    1    3    3  501    0 -0.49068362390E+02  0.13283935938E+03 -0.11202246827E+04  0.11291498702E+04  0.47000000000E+01 0. -1.
         -5    1    3    3    0  501 -0.94762570108E+02  0.26404051336E+02 -0.45562287325E+03  0.46614526840E+03  0.47000000000E+01 0. -1.
          1    1    1    2  502    0  0.58024744863E+02  0.40923604783E+01 -0.12146472461E+04  0.12160392884E+04  0.00000000000E+00 0. -1.
          1    1    1    2  503    0 -0.31859405073E+03  0.13555870481E+03  0.91612195007E+03  0.97936599850E+03  0.00000000000E+00 0. -1.
<mgrwt>
<rscale>  0 0.14801639E+03</rscale>
<asrwt>0</asrwt>
<pdfrwt beam="1">  1        2 0.24155220E+00 0.37664213E+03</pdfrwt>
<pdfrwt beam="2">  1        2 0.45770987E+00 0.58168879E+02</pdfrwt>
<totfact> 0.52604945E+00</totfact>
</mgrwt>
</event>
<event>
13    1  0.3019759E-008  0.6915601E+02  0.7546771E-02  0.1371768E+00
          2   -1    0    0  503    0  0.00000000000E+00  0.00000000000E+00  0.73801301665E+03  0.73801301665E+03  0.00000000000E+00 0. -1.
          2   -1    0    0  502    0 -0.00000000000E+00 -0.00000000000E+00 -0.91097457110E+03  0.91097457110E+03  0.00000000000E+00 0. -1.
         25    2    1    2    0    0  0.14316659770E+02  0.70104933577E+00 -0.60093582406E+02  0.13943190466E+03  0.12499823668E+03 0.  0.
         24    2    1    2    0    0  0.71613760181E+02 -0.38546249337E+02 -0.15564689931E+03  0.19280245631E+03  0.79576918198E+02 0.  0.
         24    2    1    2    0    0 -0.36503850475E+02  0.10111670552E+03  0.14841789982E+03  0.20002888902E+03  0.80165854473E+02 0.  0.
        -11    1    5    5    0    0  0.22892232765E+02  0.46557824981E+02  0.73383511239E+02  0.89871158386E+02  0.00000000000E+00 0.  1.
         12    1    5    5    0    0 -0.59396083240E+02  0.54558880536E+02  0.75034388580E+02  0.11015773064E+03  0.00000000000E+00 0. -1.
        -13    1    4    4    0    0  0.53174656136E+02  0.11309417027E+02 -0.11014625104E+03  0.12283176945E+03  0.00000000000E+00 0.  1.
         14    1    4    4    0    0  0.18439104046E+02 -0.49855666364E+02 -0.45500648270E+02  0.69970686860E+02  0.00000000000E+00 0. -1.
          5    1    3    3  501    0  0.23392936026E+02 -0.57374010940E+02 -0.11880849107E+02  0.63263347704E+02  0.47000000000E+01 0.  1.
         -5    1    3    3    0  501 -0.90762762563E+01  0.58075060275E+02 -0.48212733298E+02  0.76168556956E+02  0.47000000000E+01 0.  1.
          1    1    1    2  502    0  0.14708094677E+02 -0.67726445447E+02 -0.60715842366E+03  0.61110109710E+03  0.00000000000E+00 0. -1.
          1    1    1    2  503    0 -0.64134664153E+02  0.44549399308E+01  0.50151945112E+03  0.50562324065E+03  0.00000000000E+00 0. -1.
<mgrwt>
<rscale>  0 0.66678219E+02</rscale>
<asrwt>0</asrwt>
<pdfrwt beam="1">  1        2 0.10853133E+00 0.64289203E+02</pdfrwt>
<pdfrwt beam="2">  1        2 0.13396685E+00 0.69156011E+02</pdfrwt>
<totfact> 0.22765624E+02</totfact>
</mgrwt>
</event>
<event>
13    1  0.3019759E-008  0.5679648E+02  0.7546771E-02  0.1457726E+00
          2   -1    0    0  502    0  0.00000000000E+00  0.00000000000E+00  0.46414018088E+04  0.46414018088E+04  0.00000000000E+00 0. -1.
          4   -1    0    0  503    0 -0.00000000000E+00 -0.00000000000E+00 -0.42148456281E+03  0.42148456281E+03  0.00000000000E+00 0. -1.
         25    2    1    2    0    0  0.31132569775E+03  0.64289321289E+02 -0.13241665045E+03  0.36635503256E+03  0.12500013463E+03 0.  0.
         24    2    1    2    0    0 -0.23413217539E+03 -0.66912440930E+02  0.48369269469E+03  0.54761011550E+03  0.81382217893E+02 0.  0.
         24    2    1    2    0    0 -0.71751913567E+02 -0.14622358816E+02  0.30287678174E+03  0.32152075246E+03  0.79240765200E+02 0.  0.
        -13    1    5    5    0    0 -0.31423073842E+02 -0.46278468561E+02  0.17604683878E+03  0.18472031742E+03  0.00000000000E+00 0.  1.
         14    1    5    5    0    0 -0.40328839725E+02  0.31656109745E+02  0.12682994295E+03  0.13680043504E+03  0.00000000000E+00 0. -1.
        -13    1    4    4    0    0 -0.10510181862E+03 -0.56676722638E+02  0.30004064515E+03  0.32292883412E+03  0.00000000000E+00 0.  1.
         14    1    4    4    0    0 -0.12903035677E+03 -0.10235718292E+02  0.18365204954E+03  0.22468128137E+03  0.00000000000E+00 0. -1.
          5    1    3    3  501    0  0.25867648549E+03  0.93045166605E+02 -0.79452130708E+02  0.28619164602E+03  0.47000000000E+01 0.  1.
         -5    1    3    3    0  501  0.52649212252E+02 -0.28755845316E+02 -0.52964519743E+02  0.80163386544E+02  0.47000000000E+01 0.  1.
          1    1    1    2  502    0 -0.54751709871E+01 -0.39811653364E+02  0.36902463733E+04  0.36904651795E+04  0.00000000000E+00 0. -1.
          3    1    1    2  503    0  0.33562202511E-01  0.57057131821E+02 -0.12448195325E+03  0.13693529167E+03  0.00000000000E+00 0. -1.
<mgrwt>
<rscale>  0 0.47774940E+02</rscale>
<asrwt>0</asrwt>
<pdfrwt beam="1">  1        2 0.68255906E+00 0.40186381E+02</pdfrwt>
<pdfrwt beam="2">  1        4 0.61983027E-01 0.56796478E+02</pdfrwt>
<totfact> 0.37343012E-01</totfact>
</mgrwt>
</event>
<event>
13    1  0.3019759E-008  0.1292986E+03  0.7546771E-02  0.1312298E+00
          2   -1    0    0  503    0  0.00000000000E+00  0.00000000000E+00  0.11482749005E+04  0.11482749005E+04  0.00000000000E+00 0. -1.
         -1   -1    0    0    0  501 -0.00000000000E+00 -0.00000000000E+00 -0.20353009588E+04  0.20353009588E+04  0.00000000000E+00 0.  1.
         25    2    1    2    0    0 -0.99969353139E+02  0.48249771167E+02 -0.83665936237E+03  0.85319628655E+03  0.12499241079E+03 0.  0.
         24    2    1    2    0    0 -0.17992389829E+02  0.66788255151E+02 -0.80427492701E+02  0.13285938943E+03  0.79991491163E+02 0.  0.
         24    2    1    2    0    0  0.28370810339E+02  0.81225574663E+02  0.32774786507E+03  0.34846354493E+03  0.81275348207E+02 0.  0.
        -11    1    4    4    0    0 -0.15759001553E+02  0.79884536046E+02 -0.86019526577E+02  0.11844511042E+03  0.00000000000E+00 0.  1.
         12    1    4    4    0    0 -0.22333882757E+01 -0.13096280895E+02  0.55920338760E+01  0.14414279008E+02  0.00000000000E+00 0. -1.
        -13    1    5    5    0    0  0.54953763591E+02  0.40766235590E+02  0.21867428359E+03  0.22912931808E+03  0.00000000000E+00 0.  1.
         14    1    5    5    0    0 -0.26582953252E+02  0.40459339073E+02  0.10907358148E+03  0.11933422685E+03  0.00000000000E+00 0. -1.
          5    1    3    3  502    0 -0.44969602385E+02 -0.37590395522E+02 -0.20201036405E+03  0.21039386911E+03  0.47000000000E+01 0.  1.
         -5    1    3    3    0  502 -0.54999750754E+02  0.85840166689E+02 -0.63464899832E+03  0.64280241744E+03  0.47000000000E+01 0.  1.
          1    1    1    2  503    0  0.10045197317E+03 -0.13981848210E+03  0.76534596788E+03  0.78447068614E+03  0.00000000000E+00 0. -1.
         -2    1    1    2    0  501 -0.10861040543E+02 -0.56445118877E+02 -0.10630330362E+04  0.10645859523E+04  0.00000000000E+00 0.  1.
<mgrwt>
<rscale>  0 0.86209944E+02</rscale>
<asrwt>0</asrwt>
<pdfrwt beam="1">  1        2 0.16886396E+00 0.12929860E+03</pdfrwt>
<pdfrwt beam="2">  1       -1 0.29930896E+00 0.57480550E+02</pdfrwt>
<totfact> 0.13084422E+00</totfact>
</mgrwt>
</event>
<event>
13    1  0.3019759E-008  0.1283045E+03  0.7546771E-02  0.1404684E+00
          2   -1    0    0  503    0  0.00000000000E+00  0.00000000000E+00  0.20657735337E+04  0.20657735337E+04  0.00000000000E+00 0. -1.
          2   -1    0    0  502    0 -0.00000000000E+00 -0.00000000000E+00 -0.15027169841E+04  0.15027169841E+04  0.00000000000E+00 0. -1.
         25    2    1    2    0    0 -0.11936293192E+01  0.14697879593E+03 -0.57677192056E+03  0.60819439783E+03  0.12502154214E+03 0.  0.
         24    2    1    2    0    0 -0.65701863517E+03  0.16836944060E+03  0.70666581786E+03  0.98271883849E+03  0.79611443374E+02 0.  0.
         24    2    1    2    0    0  0.54533379648E+03 -0.28775266504E+03  0.73174040731E+03  0.96129333312E+03  0.91925528510E+02 0.  0.
        -11    1    5    5    0    0  0.23624735171E+03 -0.12097960100E+03  0.38609100312E+03  0.46852442598E+03  0.00000000000E+00 0.  1.
         12    1    5    5    0    0  0.30908644477E+03 -0.16677306404E+03  0.34564940419E+03  0.49276890715E+03  0.00000000000E+00 0. -1.
        -13    1    4    4    0    0 -0.16346785568E+03  0.20731030915E+02  0.13355222244E+03  0.21210306835E+03  0.00000000000E+00 0.  1.
         14    1    4    4    0    0 -0.49355077949E+03  0.14763840968E+03  0.57311359542E+03  0.77061577015E+03  0.00000000000E+00 0. -1.
          5    1    3    3  501    0  0.59033410863E+02  0.71657005494E+02 -0.34032473618E+03  0.35279269563E+03  0.47000000000E+01 0.  1.
         -5    1    3    3    0  501 -0.60227040182E+02  0.75321790440E+02 -0.23644718438E+03  0.25540170220E+03  0.47000000000E+01 0.  1.
          1    1    1    2  502    0  0.11647768902E+03 -0.53929985554E+02 -0.65066005447E+03  0.66319982046E+03  0.00000000000E+00 0. -1.
          1    1    1    2  503    0 -0.35992210090E+01  0.26334414058E+02  0.35208229944E+03  0.35308412784E+03  0.00000000000E+00 0. -1.
<mgrwt>
<rscale>  0 0.58397218E+02</rscale>
<asrwt>0</asrwt>
<pdfrwt beam="1">  1        2 0.30379023E+00 0.26579235E+02</pdfrwt>
<pdfrwt beam="2">  1        2 0.22098779E+00 0.12830449E+03</pdfrwt>
<totfact> 0.24250671E+01</totfact>
</mgrwt>
</event>
<event>
13    1  0.3019759E-008  0.2069036E+03  0.7546771E-02  0.1244907E+00
          2   -1    0    0  502    0  0.00000000000E+00  0.00000000000E+00  0.22302420019E+04  0.22302420019E+04  0.00000000000E+00 0. -1.
          2   -1    0    0  503    0 -0.00000000000E+00 -0.00000000000E+00 -0.49562286581E+03  0.49562286581E+03  0.00000000000E+00 0. -1.
         25    2    1    2    0    0  0.19715739260E+02 -0.14202226405E+03  0.10293682560E+03  0.21629793247E+03  0.12501908522E+03 0.  0.
         24    2    1    2    0    0 -0.63298911016E+02  0.34673859489E+02  0.18837309373E+03  0.21887438665E+03  0.84926709727E+02 0.  0.
         24    2    1    2    0    0 -0.11322523638E+03 -0.13861020517E+03  0.71643210887E+03  0.74287138158E+03  0.80933181212E+02 0.  0.
        -11    1    4    4    0    0 -0.82056019534E+02  0.32636773585E+02  0.12713405294E+03  0.15479475685E+03  0.00000000000E+00 0.  1.
         12    1    4    4    0    0  0.18757108518E+02  0.20370859035E+01  0.61239040791E+02  0.64079629805E+02  0.00000000000E+00 0. -1.
        -11    1    5    5    0    0 -0.85985223343E+02 -0.45227128764E+02  0.30517936303E+03  0.32027081576E+03  0.00000000000E+00 0.  1.
         12    1    5    5    0    0 -0.27240013039E+02 -0.93383076409E+02  0.41125274583E+03  0.42260056581E+03  0.00000000000E+00 0. -1.
          5    1    3    3  501    0  0.39647514978E+02 -0.34515105357E+02  0.92324579618E+02  0.10634442131E+03  0.47000000000E+01 0.  1.
         -5    1    3    3    0  501 -0.19931775718E+02 -0.10750715869E+03  0.10612245983E+02  0.10995351117E+03  0.47000000000E+01 0.  1.
          1    1    1    2  502    0  0.44926522335E+02  0.51494946433E+02  0.11055591212E+04  0.11076692161E+04  0.00000000000E+00 0. -1.
          1    1    1    2  503    0  0.11188188580E+03  0.19446366330E+03 -0.37868201327E+03  0.44015195091E+03  0.00000000000E+00 0. -1.
<mgrwt>
<rscale>  0 0.11890936E+03</rscale>
<asrwt>0</asrwt>
<pdfrwt beam="1">  1        2 0.32797676E+00 0.68338290E+02</pdfrwt>
<pdfrwt beam="2">  1        2 0.72885716E-01 0.20690355E+03</pdfrwt>
<totfact> 0.76538190E+01</totfact>
</mgrwt>
</event>
<event>
13    1  0.3019759E-008  0.7256260E+02  0.7546771E-02  0.1504183E+00
          2   -1    0    0  503    0  0.00000000000E+00  0.00000000000E+00  0.27812126026E+04  0.27812126026E+04  0.00000000000E+00 0. -1.
          2   -1    0    0  502    0 -0.00000000000E+00 -0.00000000000E+00 -0.45538238610E+03  0.45538238610E+03  0.00000000000E+00 0. -1.
         25    2    1    2    0    0 -0.25639923373E+03  0.23928212557E+03  0.50011627299E+01  0.37235337560E+03  0.12500208805E+03 0.  0.
         24    2    1    2    0    0  0.14393482261E+03 -0.16350089048E+03  0.43374084249E+03  0.49220027308E+03  0.81732588531E+02 0.  0.
         24    2    1    2    0    0  0.15884482942E+03 -0.57049276291E+02  0.54330439751E+03  0.57456890267E+03  0.80395620555E+02 0.  0.
        -11    1    4    4    0    0  0.40114860188E+01 -0.41576009510E+02  0.12690736616E+03  0.13360440177E+03  0.00000000000E+00 0.  1.
         12    1    4    4    0    0  0.13992333660E+03 -0.12192488097E+03  0.30683347633E+03  0.35859587131E+03  0.00000000000E+00 0. -1.
        -13    1    5    5    0    0  0.58286600693E+01 -0.26622921011E+00 -0.13474502563E+01  0.59883034650E+01  0.00000000000E+00 0.  1.
         14    1    5    5    0    0  0.15301616935E+03 -0.56783047081E+02  0.54465184777E+03  0.56858059921E+03  0.00000000000E+00 0. -1.
          5    1    3    3  501    0 -0.99957126272E+02  0.15618874190E+03  0.44597112448E+02  0.19078087595E+03  0.47000000000E+01 0.  1.
         -5    1    3    3    0  501 -0.15644210746E+03  0.83093383668E+02 -0.39595949718E+02  0.18157249965E+03  0.47000000000E+01 0.  1.
          1    1    1    2  502    0  0.20369280222E+02  0.99359719907E+01 -0.22543583197E+03  0.22657216390E+03  0.00000000000E+00 0. -1.
          1    1    1    2  503    0 -0.66749698523E+02 -0.28667930789E+02  0.15692196458E+04  0.15709002735E+04  0.00000000000E+00 0. -1.
<mgrwt>
<rscale>  0 0.40552650E+02</rscale>
<asrwt>0</asrwt>
<pdfrwt beam="1">  1        2 0.40900185E+00 0.72562597E+02</pdfrwt>
<pdfrwt beam="2">  1        2 0.66967999E-01 0.22663431E+02</pdfrwt>
<totfact> 0.45308465E+01</totfact>
</mgrwt>
</event>
<event>
13    1  0.3019759E-008  0.2617752E+03  0.7546771E-02  0.1396182E+00
         -3   -1    0    0    0  501 -0.00000000000E+00  0.00000000000E+00  0.18659231778E+04  0.18659231778E+04  0.00000000000E+00 0.  1.
          2   -1    0    0  503    0  0.00000000000E+00 -0.00000000000E+00 -0.39711543803E+04  0.39711543803E+04  0.00000000000E+00 0. -1.
         25    2    1    2    0    0 -0.14884132016E+02 -0.23363381803E+02  0.60532771406E+03  0.61871955479E+03  0.12499944429E+03 0.  0.
         24    2    1    2    0    0 -0.33733016747E+03  0.28918761412E+03  0.37009420993E+03  0.58391637357E+03  0.81040045980E+02 0.  0.
         24    2    1    2    0    0  0.37943150192E+03 -0.14730234860E+02 -0.97064793944E+02  0.40014695223E+03  0.80689309641E+02 0.  0.
        -11    1    5    5    0    0  0.20002159067E+03 -0.43559605911E+02 -0.32319001522E+02  0.20724525052E+03  0.00000000000E+00 0.  1.
         12    1    5    5    0    0  0.17940991125E+03  0.28829371051E+02 -0.64745792422E+02  0.19290170172E+03  0.00000000000E+00 0. -1.
        -11    1    4    4    0    0 -0.31986502996E+03  0.28997950755E+03  0.34182540596E+03  0.55067809140E+03  0.00000000000E+00 0.  1.
         12    1    4    4    0    0 -0.17465137512E+02 -0.79189343289E+00  0.28268803969E+02  0.33238282166E+02  0.00000000000E+00 0. -1.
          5    1    3    3  502    0 -0.31719690278E+02  0.42413508507E+02  0.17052133053E+03  0.17861875216E+03  0.47000000000E+01 0. -1.
         -5    1    3    3    0  502  0.16835558262E+02 -0.65776890310E+02  0.43480638352E+03  0.44010080263E+03  0.47000000000E+01 0. -1.
          1    1    1    2  503    0 -0.38856733773E+02 -0.25875399282E+03 -0.36041205628E+04  0.36136060253E+04  0.00000000000E+00 0. -1.
         -4    1    1    2    0  501  0.11639531340E+02  0.76599953683E+01  0.62053223031E+03  0.62068865228E+03  0.00000000000E+00 0.  1.
<mgrwt>
<rscale>  0 0.60394992E+02</rscale>
<asrwt>0</asrwt>
<pdfrwt beam="2">  1        2 0.58399328E+00 0.26177517E+03</pdfrwt>
<pdfrwt beam="1">  1       -3 0.27440047E+00 0.13933923E+02</pdfrwt>
<totfact> 0.28432440E-02</totfact>
</mgrwt>
</event>
<event>
13    1  0.3019759E-008  0.3060774E+03  0.7546771E-02  0.1281043E+00
          2   -1    0    0  502    0  0.00000000000E+00  0.00000000000E+00  0.10244777237E+04  0.10244777237E+04  0.00000000000E+00 0. -1.
          2   -1    0    0  503    0 -0.00000000000E+00 -0.00000000000E+00 -0.31852608579E+04  0.31852608579E+04  0.00000000000E+00 0. -1.
         25    2    1    2    0    0 -0.56180281033E+03 -0.28894609066E+03 -0.15069896128E+04  0.16388281069E+04  0.12501051922E+03 0.  0.
         24    2    1    2    0    0  0.39031861686E+03 -0.48679750789E+02 -0.48282397058E+03  0.62775335722E+03  0.78974363776E+02 0.  0.
         24    2    1    2    0    0 -0.23562632928E+03  0.86542972618E+02 -0.59992075866E+02  0.27039767691E+03  0.80662267219E+02 0.  0.
        -11    1    4    4    0    0  0.36259842271E+03 -0.25689224594E+02 -0.45418870241E+03  0.58174301011E+03  0.00000000000E+00 0.  1.
         12    1    4    4    0    0  0.27720194156E+02 -0.22990526196E+02 -0.28635268164E+02  0.46010347115E+02  0.00000000000E+00 0. -1.
        -13    1    5    5    0    0 -0.68697581284E+02  0.63927069531E+02 -0.83766151066E+01  0.94213563640E+02  0.00000000000E+00 0.  1.
         14    1    5    5    0    0 -0.16692874799E+03  0.22615903087E+02 -0.51615460759E+02  0.17618411327E+03  0.00000000000E+00 0. -1.
          5    1    3    3  501    0 -0.38867969598E+03 -0.13588391501E+03 -0.91860595208E+03  0.10066753844E+04  0.47000000000E+01 0. -1.
         -5    1    3    3    0  501 -0.17312311436E+03 -0.15306217565E+03 -0.58838366073E+03  0.63215272249E+03  0.47000000000E+01 0. -1.
          1    1    1    2  502    0  0.38208898363E+03  0.23043599757E+03  0.71680836742E+03  0.84433818816E+03  0.00000000000E+00 0. -1.
          1    1    1    2  503    0  0.25021539116E+02  0.20646871262E+02 -0.82778584237E+03  0.82842125247E+03  0.00000000000E+00 0. -1.
<mgrwt>
<rscale>  0 0.99645531E+02</rscale>
<asrwt>0</asrwt>
<pdfrwt beam="1">  1        2 0.15065849E+00 0.30607741E+03</pdfrwt>
<pdfrwt beam="2">  1        2 0.46842071E+00 0.32440264E+02</pdfrwt>
<totfact> 0.11769513E+01</totfact>
</mgrwt>
</event>
<event>
13    1  0.3019759E-008  0.1178375E+03  0.7546771E-02  0.1483366E+00
          2   -1    0    0  503    0  0.00000000000E+00  0.00000000000E+00  0.17226580608E+04  0.17226580608E+04  0.00000000000E+00 0. -1.
          2   -1    0    0  502    0 -0.00000000000E+00 -0.00000000000E+00 -0.24559998262E+04  0.24559998262E+04  0.00000000000E+00 0. -1.
         25    2    1    2    0    0  0.45009496276E+03 -0.66962336892E+01 -0.45216462941E+03  0.65015915886E+03  0.12499505878E+03 0.  0.
         24    2    1    2    0    0  0.37149126938E+02  0.32121527520E+03  0.54836278621E+02  0.33487761914E+03  0.67651250499E+02 0.  0.
         24    2    1    2    0    0 -0.52678730051E+03 -0.21122153566E+03  0.56656251111E+03  0.80565743472E+03  0.77275002537E+02 0.  0.
        -11    1    5    5    0    0 -0.26502083459E+03 -0.14262566112E+03  0.32455809980E+03  0.44262408669E+03  0.00000000000E+00 0.  1.
         12    1    5    5    0    0 -0.26176646592E+03 -0.68595874545E+02  0.24200441131E+03  0.36303334803E+03  0.00000000000E+00 0. -1.
        -13    1    4    4    0    0 -0.81667251749E+01  0.96450986246E+02 -0.80294244647E+01  0.97128573577E+02  0.00000000000E+00 0.  1.
         14    1    4    4    0    0  0.45315852113E+02  0.22476428895E+03  0.62865703086E+02  0.23774904556E+03  0.00000000000E+00 0. -1.
          5    1    3    3  501    0  0.40627195988E+03 -0.99424187843E+01 -0.34098239718E+03  0.53051563809E+03  0.47000000000E+01 0. -1.
         -5    1    3    3    0  501  0.43823002884E+02  0.32461850952E+01 -0.11118223223E+03  0.11964352077E+03  0.47000000000E+01 0. -1.
          1    1    1    2  502    0 -0.16109787120E+02  0.62283232757E+00 -0.16405521442E+04  0.16406313574E+04  0.00000000000E+00 0. -1.
          1    1    1    2  503    0  0.55652997932E+02 -0.10392033817E+03  0.73797621849E+03  0.74733231693E+03  0.00000000000E+00 0. -1.
<mgrwt>
<rscale>  0 0.43586178E+02</rscale>
<asrwt>0</asrwt>
<pdfrwt beam="1">  1        2 0.25333207E+00 0.11783748E+03</pdfrwt>
<pdfrwt beam="2">  1        2 0.36117645E+00 0.16121823E+02</pdfrwt>
<totfact> 0.13682529E+01</totfact>
</mgrwt>
</event>
<event>
13    1  0.3019759E-008  0.1145307E+03  0.7546771E-02  0.1308610E+00
          2   -1    0    0  503    0  0.00000000000E+00  0.00000000000E+00  0.72320925580E+03  0.72320925580E+03  0.00000000000E+00 0. -1.
          2   -1    0    0  502    0 -0.00000000000E+00 -0.00000000000E+00 -0.89582649835E+03  0.89582649835E+03  0.00000000000E+00 0. -1.
         25    2    1    2    0    0  0.67420455911E+02 -0.24405057146E+03 -0.28485387490E+03  0.40108719572E+03  0.12499203663E+03 0.  0.
         24    2    1    2    0    0 -0.12345551274E+02  0.18755968663E+02  0.16024482751E+02  0.85393955821E+02  0.80815497564E+02 0.  0.
         24    2    1    2    0    0  0.52570591127E+01  0.82675586117E+02  0.24247363654E+03  0.26458736809E+03  0.65955452584E+02 0.  0.
        -11    1    4    4    0    0 -0.33098730631E+02  0.14825646292E+02  0.39628539984E+02  0.53719148714E+02  0.00000000000E+00 0.  1.
         12    1    4    4    0    0  0.20753179357E+02  0.39303223710E+01 -0.23604057233E+02  0.31674807106E+02  0.00000000000E+00 0. -1.
        -11    1    5    5    0    0 -0.83295940014E+01 -0.22040630500E+01  0.15065156513E+01  0.87469777388E+01  0.00000000000E+00 0.  1.
         12    1    5    5    0    0  0.13586653114E+02  0.84879649167E+02  0.24096712089E+03  0.25584039036E+03  0.00000000000E+00 0. -1.
          5    1    3    3  501    0  0.54503781802E+02 -0.13567581210E+03 -0.74752314839E+02  0.16428203430E+03  0.47000000000E+01 0. -1.
         -5    1    3    3    0  501  0.12916674109E+02 -0.10837475937E+03 -0.21010156006E+03  0.23680516143E+03  0.47000000000E+01 0. -1.
          1    1    1    2  502    0 -0.81533423409E+02  0.78957595865E+02 -0.49754827592E+03  0.51032958757E+03  0.00000000000E+00 0. -1.
          1    1    1    2  503    0  0.21201459660E+02  0.63661420819E+02  0.35128678898E+03  0.35763764694E+03  0.00000000000E+00 0. -1.
<mgrwt>
<rscale>  0 0.87663546E+02</rscale>
<asrwt>0</asrwt>
<pdfrwt beam="1">  1        2 0.10635430E+00 0.67099019E+02</pdfrwt>
<pdfrwt beam="2">  1        2 0.13173919E+00 0.11453070E+03</pdfrwt>
<totfact> 0.23270255E+02</totfact>
</mgrwt>
</event>
<event>
13    1  0.3019759E-008  0.3259378E+02  0.7546771E-02  0.1678248E+00
          2   -1    0    0  502    0  0.00000000000E+00  0.00000000000E+00  0.27638912925E+04  0.27638912925E+04  0.00000000000E+00 0. -1.
          2   -1    0    0  503    0 -0.00000000000E+00 -0.00000000000E+00 -0.39690523095E+03  0.39690523095E+03  0.00000000000E+00 0. -1.
         25    2    1    2    0    0  0.25073104627E+01 -0.57819265530E+02 -0.20023943092E+03  0.24304022564E+03  0.12499346987E+03 0.  0.
         24    2    1    2    0    0 -0.15153482338E+03  0.46525017054E+02  0.31570428891E+03  0.36232518549E+03  0.80516843511E+02 0.  0.
         24    2    1    2    0    0  0.11395034773E+03 -0.19168731062E+02  0.69118818107E+03  0.70540683382E+03  0.80657160568E+02 0.  0.
        -13    1    4    4    0    0 -0.95866037534E+02  0.68610114811E+02  0.21157280354E+03  0.24219970315E+03  0.00000000000E+00 0.  1.
         14    1    4    4    0    0 -0.55668785851E+02 -0.22085097757E+02  0.10413148538E+03  0.12012548234E+03  0.00000000000E+00 0. -1.
        -13    1    5    5    0    0  0.10133610790E+03 -0.41377023381E+02  0.62400870916E+03  0.63353605575E+03  0.00000000000E+00 0.  1.
         14    1    5    5    0    0  0.12614239829E+02  0.22208292319E+02  0.67179471905E+02  0.71870778064E+02  0.00000000000E+00 0. -1.
          5    1    3    3  501    0 -0.15997044018E+02 -0.11317567964E+02 -0.19083956021E+03  0.19190054847E+03  0.47000000000E+01 0.  1.
         -5    1    3    3    0  501  0.18504354481E+02 -0.46501697566E+02 -0.93998707099E+01  0.51139677166E+02  0.47000000000E+01 0.  1.
          1    1    1    2  502    0  0.29444123043E+02  0.13960977483E+02  0.17044975772E+04  0.17048090380E+04  0.00000000000E+00 0. -1.
          1    1    1    2  503    0  0.56330421461E+01  0.16502002055E+02 -0.14416455473E+03  0.14521524051E+03  0.00000000000E+00 0. -1.
<mgrwt>
<rscale>  0 0.23839802E+02</rscale>
<asrwt>0</asrwt>
<pdfrwt beam="1">  1        2 0.40645459E+00 0.32593783E+02</pdfrwt>
<pdfrwt beam="2">  1        2 0.58368418E-01 0.17436950E+02</pdfrwt>
<totfact> 0.59918545E+01</totfact>
</mgrwt>
</event>
<event>
13    1  0.3019759E-008  0.2765810E+03  0.7546771E-02  0.1132363E+00
          2   -1    0    0  502    0  0.00000000000E+00  0.00000000000E+00  0.12127050651E+04  0.12127050651E+04  0.00000000000E+00 0. -1.
          2   -1    0    0  503    0 -0.00000000000E+00 -0.00000000000E+00 -0.27575348493E+04  0.27575348493E+04  0.00000000000E+00 0. -1.
         25    2    1    2    0    0 -0.97287785770E+02 -0.13860569182E+03 -0.21259721532E+03  0.29916316334E+03  0.12499828510E+03 0.  0.
         24    2    1    2    0    0 -0.15767241985E+03  0.28251774033E+02  0.85405622611E+02  0.19835351287E+03  0.79945237351E+02 0.  0.
         24    2    1    2    0    0  0.15168790939E+03 -0.29052427651E+03 -0.73140545961E+01  0.33747893711E+03  0.80155851336E+02 0.  0.
        -11    1    4    4    0    0 -0.14667511436E+03 -0.21107222849E+01  0.71637402801E+02  0.16324816018E+03  0.00000000000E+00 0.  1.
         12    1    4    4    0    0 -0.10997305492E+02  0.30362496318E+02  0.13768219810E+02  0.35105352690E+02  0.00000000000E+00 0. -1.
        -13    1    5    5    0    0  0.12089978772E+03 -0.19189416005E+03 -0.37392995847E+02  0.22986596849E+03  0.00000000000E+00 0.  1.
         14    1    5    5    0    0  0.30788121672E+02 -0.98630116455E+02  0.30078941251E+02  0.10761296862E+03  0.00000000000E+00 0. -1.
          5    1    3    3  501    0 -0.87973323757E+02 -0.16223968431E+03 -0.18806809395E+03  0.26353883741E+03  0.47000000000E+01 0.  1.
         -5    1    3    3    0  501 -0.93144620129E+01  0.23633992492E+02 -0.24529121363E+02  0.35624325938E+02  0.47000000000E+01 0.  1.
          1    1    1    2  502    0 -0.20244617293E+02  0.27233019431E+03  0.83722519276E+03  0.88063590811E+03  0.00000000000E+00 0. -1.
          1    1    1    2  503    0  0.12351691352E+03  0.12854799998E+03 -0.22475493297E+04  0.22546083930E+04  0.00000000000E+00 0. -1.
<mgrwt>
<rscale>  0 0.22205119E+03</rscale>
<asrwt>0</asrwt>
<pdfrwt beam="1">  1        2 0.17833898E+00 0.27658098E+03</pdfrwt>
<pdfrwt beam="2">  1        2 0.40551983E+00 0.17827231E+03</pdfrwt>
<totfact> 0.11783740E+01</totfact>
</mgrwt>
</event>
<event>
13    1  0.3019759E-008  0.1089707E+03  0.7546771E-02  0.1262956E+00
          2   -1    0    0  503    0  0.00000000000E+00  0.00000000000E+00  0.47142814701E+03  0.47142814701E+03  0.00000000000E+00 0. -1.
          2   -1    0    0  502    0 -0.00000000000E+00 -0.00000000000E+00 -0.21575097942E+04  0.21575097942E+04  0.00000000000E+00 0. -1.
         25    2    1    2    0    0 -0.25643724267E+03  0.50025917955E+02 -0.96380042246E+03  0.10063789587E+04  0.12499880885E+03 0.  0.
         24    2    1    2    0    0  0.45820774822E+02  0.85309157777E+01  0.17846421096E+02  0.94637056019E+02  0.80407448017E+02 0.  0.
         24    2    1    2    0    0  0.37342758891E+02  0.21726802877E+02  0.13874851476E+03  0.16639931170E+03  0.81061982329E+02 0.  0.
        -11    1    4    4    0    0 -0.89873120275E+01  0.31537257257E+02  0.80960698087E+00  0.32802832747E+02  0.00000000000E+00 0.  1.
         12    1    4    4    0    0  0.54808086850E+02 -0.23006341479E+02  0.17036814116E+02  0.61834223271E+02  0.00000000000E+00 0. -1.
        -13    1    5    5    0    0  0.81630043919E+00  0.47253331284E+02  0.73666053935E+02  0.87522746565E+02  0.00000000000E+00 0.  1.
         14    1    5    5    0    0  0.36526458452E+02 -0.25526528406E+02  0.65082460828E+02  0.78876565132E+02  0.00000000000E+00 0. -1.
          5    1    3    3  501    0  0.11613400275E+02  0.69540459438E+01 -0.96768641038E+02  0.97823768631E+02  0.47000000000E+01 0.  1.
         -5    1    3    3    0  501 -0.26805064295E+03  0.43071872012E+02 -0.86703178142E+03  0.90855519003E+03  0.47000000000E+01 0.  1.
          1    1    1    2  502    0  0.75707756532E+02 -0.70358492293E+02 -0.11077300875E+04  0.11125412031E+04  0.00000000000E+00 0. -1.
          1    1    1    2  503    0  0.97565952427E+02 -0.99251443174E+01  0.22885392687E+03  0.24898141177E+03  0.00000000000E+00 0. -1.
<mgrwt>
<rscale>  0 0.10872166E+03</rscale>
<asrwt>0</asrwt>
<pdfrwt beam="1">  1        2 0.69327669E-01 0.10897073E+03</pdfrwt>
<pdfrwt beam="2">  1        2 0.31728085E+00 0.10847316E+03</pdfrwt>
<totfact> 0.83668920E+01</totfact>
</mgrwt>
</event>
<event>
13    1  0.3019759E-008  0.2759099E+03  0.7546771E-02  0.1250142E+00
          2   -1    0    0  503    0  0.00000000000E+00  0.00000000000E+00  0.45708534521E+03  0.45708534521E+03  0.00000000000E+00 0. -1.
          2   -1    0    0  502    0 -0.00000000000E+00 -0.00000000000E+00 -0.33392191503E+04  0.33392191503E+04  0.00000000000E+00 0. -1.
         25    2    1    2    0    0  0.53685292508E+02  0.30114987095E+03 -0.57648391940E+03  0.66447877481E+03  0.12499990981E+03 0.  0.
         24    2    1    2    0    0 -0.87652054912E+02 -0.12177406893E+03 -0.22359056588E+03  0.28111822118E+03  0.80764512826E+02 0.  0.
         24    2    1    2    0    0 -0.26210783625E+02  0.39329857464E+02 -0.31320281770E+02  0.98035756281E+02  0.79976287692E+02 0.  0.
        -13    1    4    4    0    0 -0.81325203315E+02 -0.45647455087E+02 -0.10973858433E+03  0.14401401231E+03  0.00000000000E+00 0.  1.
         14    1    4    4    0    0 -0.63268515969E+01 -0.76126613845E+02 -0.11385198155E+03  0.13710420887E+03  0.00000000000E+00 0. -1.
        -13    1    5    5    0    0 -0.16179936426E+02  0.60821870762E+02 -0.37842082954E+02  0.73437820965E+02  0.00000000000E+00 0.  1.
         14    1    5    5    0    0 -0.10030847199E+02 -0.21492013298E+02  0.65218011842E+01  0.24597935316E+02  0.00000000000E+00 0. -1.
          5    1    3    3  501    0  0.18626789065E+02  0.29094641770E+03 -0.53265681910E+03  0.60724142825E+03  0.47000000000E+01 0. -1.
         -5    1    3    3    0  501  0.35058503443E+02  0.10203453248E+02 -0.43827100294E+02  0.57237346567E+02  0.47000000000E+01 0. -1.
          1    1    1    2  502    0  0.60973432073E+02 -0.26732439810E+03 -0.23921514181E+04  0.24078140503E+04  0.00000000000E+00 0. -1.
          1    1    1    2  503    0 -0.79588604431E+00  0.48618738619E+02  0.34141238007E+03  0.34485769303E+03  0.00000000000E+00 0. -1.
<mgrwt>
<rscale>  0 0.11582826E+03</rscale>
<asrwt>0</asrwt>
<pdfrwt beam="1">  1        2 0.67218435E-01 0.48625252E+02</pdfrwt>
<pdfrwt beam="2">  1        2 0.49106163E+00 0.27590986E+03</pdfrwt>
<totfact> 0.18247567E+01</totfact>
</mgrwt>
</event>
<event>
13    1  0.3019759E-008  0.2525903E+03  0.7546771E-02  0.1205228E+00
          2   -1    0    0  502    0  0.00000000000E+00  0.00000000000E+00  0.10455050412E+04  0.10455050412E+04  0.00000000000E+00 0. -1.
          2   -1    0    0  503    0 -0.00000000000E+00 -0.00000000000E+00 -0.13267889194E+04  0.13267889194E+04  0.00000000000E+00 0. -1.
         25    2    1    2    0    0 -0.61545539613E+02 -0.29372935838E+02 -0.14095064262E+03  0.20035523771E+03  0.12499805925E+03 0.  0.
         24    2    1    2    0    0 -0.45944429054E+02 -0.18163619631E+03  0.85411959892E+02  0.22090252508E+03  0.80000777011E+02 0.  0.
         24    2    1    2    0    0 -0.50848204019E+02 -0.11904690918E+03  0.17003129076E+03  0.22785931567E+03  0.79066563491E+02 0.  0.
        -13    1    4    4    0    0 -0.27553142465E+02 -0.74368112126E+01  0.11024712725E+02  0.30594543817E+02  0.00000000000E+00 0.  1.
         14    1    4    4    0    0 -0.18391286589E+02 -0.17419938510E+03  0.74387247167E+02  0.19030798126E+03  0.00000000000E+00 0. -1.
        -13    1    5    5    0    0  0.12510413971E+02  0.23652141023E+01  0.57174220159E+01  0.13956848139E+02  0.00000000000E+00 0.  1.
         14    1    5    5    0    0 -0.63358617990E+02 -0.12141212328E+03  0.16431386874E+03  0.21390246753E+03  0.00000000000E+00 0. -1.
          5    1    3    3  501    0 -0.83732770912E+02 -0.74348547629E+01 -0.14586645980E+03  0.16842080657E+03  0.47000000000E+01 0. -1.
         -5    1    3    3    0  501  0.22187231299E+02 -0.21938081075E+02  0.49158171803E+01  0.31934431144E+02  0.47000000000E+01 0. -1.
          1    1    1    2  502    0  0.13994950983E+03  0.24746335889E+03  0.63143617278E+03  0.69248510424E+03  0.00000000000E+00 0. -1.
          1    1    1    2  503    0  0.18388662857E+02  0.82592682443E+02 -0.10272126590E+04  0.10306917779E+04  0.00000000000E+00 0. -1.
<mgrwt>
<rscale>  0 0.14619480E+03</rscale>
<asrwt>0</asrwt>
<pdfrwt beam="1">  1        2 0.15375074E+00 0.25259028E+03</pdfrwt>
<pdfrwt beam="2">  1        2 0.19511602E+00 0.84614976E+02</pdfrwt>
<totfact> 0.81488185E+01</totfact>
</mgrwt>
</event>
<event>
13    1  0.3019759E-008  0.4603697E+02  0.7546771E-02  0.1646194E+00
          2   -1    0    0  502    0  0.00000000000E+00  0.00000000000E+00  0.17342753848E+04  0.17342753848E+04  0.00000000000E+00 0. -1.
          2   -1    0    0  503    0 -0.00000000000E+00 -0.00000000000E+00 -0.19119566830E+04  0.19119566830E+04  0.00000000000E+00 0. -1.
         25    2    1    2    0    0  0.87696459045E+03  0.67180929614E+02 -0.95732169114E+03  0.13060137063E+04  0.12500724202E+03 0.  0.
         24    2    1    2    0    0 -0.63227480750E+03 -0.29166947342E+03 -0.10672245374E+03  0.70962916152E+03  0.85681683135E+02 0.  0.
         24    2    1    2    0    0 -0.18994270956E+03  0.23078127416E+03  0.41689065661E+03  0.51908908159E+03  0.79482234737E+02 0.  0.
        -11    1    5    5    0    0 -0.17265623207E+03  0.15953153563E+03  0.30037878125E+03  0.38142875817E+03  0.00000000000E+00 0.  1.
         12    1    5    5    0    0 -0.17286477492E+02  0.71249738530E+02  0.11651187536E+03  0.13766032342E+03  0.00000000000E+00 0. -1.
        -13    1    4    4    0    0 -0.32173240203E+03 -0.16173831105E+03 -0.13589305872E+02  0.36035494864E+03  0.00000000000E+00 0.  1.
         14    1    4    4    0    0 -0.31054240547E+03 -0.12993116237E+03 -0.93133147872E+02  0.34927421288E+03  0.00000000000E+00 0. -1.
          5    1    3    3  501    0  0.12496755220E+03  0.47735947054E+02 -0.11293646291E+03  0.17513521747E+03  0.47000000000E+01 0. -1.
         -5    1    3    3    0  501  0.75199703824E+03  0.19444982560E+02 -0.84438522824E+03  0.11308784888E+04  0.47000000000E+01 0. -1.
          1    1    1    2  502    0 -0.43306390497E+02 -0.15609758200E+02  0.78964592608E+03  0.79098659697E+03  0.00000000000E+00 0. -1.
          1    1    1    2  503    0 -0.11440682891E+02  0.93170278460E+01 -0.32017373598E+03  0.32051352147E+03  0.00000000000E+00 0. -1.
<mgrwt>
<rscale>  0 0.26062502E+02</rscale>
<asrwt>0</asrwt>
<pdfrwt beam="1">  1        2 0.25504050E+00 0.46036973E+02</pdfrwt>
<pdfrwt beam="2">  1        2 0.28117010E+00 0.14754533E+02</pdfrwt>
<totfact> 0.25791536E+01</totfact>
</mgrwt>
</event>
<event>
13    1  0.3019759E-008  0.6671880E+02  0.7546771E-02  0.1437819E+00
          2   -1    0    0  503    0  0.00000000000E+00  0.00000000000E+00  0.44004285024E+04  0.44004285024E+04  0.00000000000E+00 0. -1.
         -3   -1    0    0    0  501 -0.00000000000E+00 -0.00000000000E+00 -0.18200958774E+04  0.18200958774E+04  0.00000000000E+00 0.  1.
         25    2    1    2    0    0  0.42668215432E+02  0.13198427860E+03 -0.66972704424E+03  0.69527147117E+03  0.12501071325E+03 0.  0.
         24    2    1    2    0    0  0.19779453291E+02  0.18459409682E+03  0.33297828386E+03  0.38942462445E+03  0.79440501365E+02 0.  0.
         24    2    1    2    0    0 -0.79539402422E+02 -0.22157197144E+03  0.32129023579E+04  0.32221805454E+04  0.65461828094E+02 0.  0.
        -11    1    4    4    0    0  0.39116806238E+02  0.13978454762E+03  0.19517703263E+03  0.24323634257E+03  0.00000000000E+00 0.  1.
         12    1    4    4    0    0 -0.19337352947E+02  0.44809549202E+02  0.13780125123E+03  0.14618828188E+03  0.00000000000E+00 0. -1.
        -13    1    5    5    0    0 -0.25477273870E+02 -0.97102439223E+02  0.97123994996E+03  0.97641436675E+03  0.00000000000E+00 0.  1.
         14    1    5    5    0    0 -0.54062128552E+02 -0.12446953221E+03  0.22416624079E+04  0.22457661787E+04  0.00000000000E+00 0. -1.
          5    1    3    3  502    0  0.81632470672E+01  0.89405881202E+02 -0.59881940900E+03  0.60553020139E+03  0.47000000000E+01 0.  1.
         -5    1    3    3    0  502  0.34504968365E+02  0.42578397395E+02 -0.70907635244E+02  0.89741269784E+02  0.47000000000E+01 0.  1.
          1    1    1    2  503    0  0.26979614278E+02 -0.29031384259E+02  0.80741975627E+03  0.80839185032E+03  0.00000000000E+00 0. -1.
         -4    1    1    2    0  501 -0.98878805786E+01 -0.65975019725E+02 -0.11032407287E+04  0.11052558884E+04  0.00000000000E+00 0.  1.
<mgrwt>
<rscale>  0 0.51421988E+02</rscale>
<asrwt>0</asrwt>
<pdfrwt beam="1">  1        2 0.64712184E+00 0.39632321E+02</pdfrwt>
<pdfrwt beam="2">  1       -3 0.26766116E+00 0.66718800E+02</pdfrwt>
<totfact> 0.21165960E-02</totfact>
</mgrwt>
</event>
<event>
13    1  0.3019759E-008  0.2421707E+03  0.7546771E-02  0.1268022E+00
          2   -1    0    0  503    0  0.00000000000E+00  0.00000000000E+00  0.62223209135E+03  0.62223209135E+03  0.00000000000E+00 0. -1.
          2   -1    0    0  502    0 -0.00000000000E+00 -0.00000000000E+00 -0.19628777330E+04  0.19628777330E+04  0.00000000000E+00 0. -1.
         25    2    1    2    0    0  0.51432427290E+02  0.27991675824E+03 -0.28149989964E+03  0.41935993400E+03  0.12498749788E+03 0.  0.
         24    2    1    2    0    0 -0.15311242783E+03 -0.87174233257E+02 -0.91313603715E+01  0.19303111980E+03  0.78325404361E+02 0.  0.
         24    2    1    2    0    0 -0.11408656332E+03 -0.11735557349E+03  0.93469005064E+02  0.20521422651E+03  0.81168647244E+02 0.  0.
        -11    1    5    5    0    0 -0.51739655141E+02 -0.39566391559E+02  0.82215843244E+02  0.10489011457E+03  0.00000000000E+00 0.  1.
         12    1    5    5    0    0 -0.62346908175E+02 -0.77789181930E+02  0.11253161820E+02  0.10032411193E+03  0.00000000000E+00 0. -1.
        -13    1    4    4    0    0 -0.70448670458E+01  0.85305492230E+01  0.12926971304E+02  0.17014905490E+02  0.00000000000E+00 0.  1.
         14    1    4    4    0    0 -0.14606756078E+03 -0.95704782480E+02 -0.22058331676E+02  0.17601621431E+03  0.00000000000E+00 0. -1.
          5    1    3    3  501    0 -0.97678585265E+01  0.15780865881E+02 -0.78014967114E+02  0.80329769587E+02  0.47000000000E+01 0. -1.
         -5    1    3    3    0  501  0.61200285816E+02  0.26413589236E+03 -0.20348493252E+03  0.33903016441E+03  0.47000000000E+01 0. -1.
          1    1    1    2  502    0  0.21353808197E+03 -0.12179334963E+03 -0.14433120679E+04  0.14640976258E+04  0.00000000000E+00 0. -1.
          1    1    1    2  503    0  0.22284818812E+01  0.46406398141E+02  0.29982868125E+03  0.30340691821E+03  0.00000000000E+00 0. -1.
<mgrwt>
<rscale>  0 0.10607176E+03</rscale>
<asrwt>0</asrwt>
<pdfrwt beam="1">  1        2 0.91504718E-01 0.46459874E+02</pdfrwt>
<pdfrwt beam="2">  1        2 0.28865850E+00 0.24217067E+03</pdfrwt>
<totfact> 0.72252817E+01</totfact>
</mgrwt>
</event>
<event>
13    1  0.3019759E-008  0.1038549E+03  0.7546771E-02  0.1389196E+00
          2   -1    0    0  502    0  0.00000000000E+00  0.00000000000E+00  0.18491517270E+04  0.18491517270E+04  0.00000000000E+00 0. -1.
          2   -1    0    0  503    0 -0.00000000000E+00 -0.00000000000E+00 -0.17217244379E+04  0.17217244379E+04  0.00000000000E+00 0. -1.
         25    2    1    2    0    0  0.88291392231E+02  0.36271008094E+01 -0.37305431369E+03  0.40324332392E+03  0.12500852580E+03 0.  0.
         24    2    1    2    0    0  0.40902946049E+02 -0.38060469616E+02  0.85581105613E+02  0.12958463873E+03  0.79664312047E+02 0.  0.
         24    2    1    2    0    0 -0.74716221973E+02  0.77691051628E+02  0.12147978498E+04  0.12220782751E+04  0.78250121323E+02 0.  0.
        -11    1    5    5    0    0  0.11316997314E+02  0.14484949485E+02  0.38540781942E+03  0.38584592192E+03  0.00000000000E+00 0.  1.
         12    1    5    5    0    0 -0.86033219287E+02  0.63206102143E+02  0.82939003033E+03  0.83623235323E+03  0.00000000000E+00 0. -1.
        -13    1    4    4    0    0 -0.14923502534E+02 -0.28854971730E+02  0.58370073569E+02  0.66801091382E+02  0.00000000000E+00 0.  1.
         14    1    4    4    0    0  0.55826448582E+02 -0.92054978856E+01  0.27211032044E+02  0.62783547347E+02  0.00000000000E+00 0. -1.
          5    1    3    3  501    0  0.80495846223E+01 -0.42872129150E+01 -0.27933242472E+03  0.27952078547E+03  0.47000000000E+01 0. -1.
         -5    1    3    3    0  501  0.80241807609E+02  0.79143137244E+01 -0.93721888968E+02  0.12372253846E+03  0.47000000000E+01 0. -1.
          1    1    1    2  502    0  0.15074999076E+02  0.33944358140E+02  0.50528971099E+03  0.50665290592E+03  0.00000000000E+00 0. -1.
          1    1    1    2  503    0 -0.69553115383E+02 -0.77202040962E+02 -0.13051870636E+04  0.13093170212E+04  0.00000000000E+00 0. -1.
<mgrwt>
<rscale>  0 0.62107213E+02</rscale>
<asrwt>0</asrwt>
<pdfrwt beam="1">  1        2 0.27193408E+00 0.37141285E+02</pdfrwt>
<pdfrwt beam="2">  1        2 0.25319477E+00 0.10385494E+03</pdfrwt>
<totfact> 0.23197163E+01</totfact>
</mgrwt>
</event>
<event>
13    1  0.3019759E-008  0.7653922E+02  0.7546771E-02  0.1434244E+00
          2   -1    0    0  502    0  0.00000000000E+00  0.00000000000E+00  0.15106657640E+04  0.15106657640E+04  0.00000000000E+00 0. -1.
          2   -1    0    0  503    0 -0.00000000000E+00 -0.00000000000E+00 -0.19451751482E+04  0.19451751482E+04  0.00000000000E+00 0. -1.
         25    2    1    2    0    0 -0.42013058383E+01  0.20919120009E+03 -0.96946976568E+03  0.99963585608E+03  0.12498643536E+03 0.  0.
         24    2    1    2    0    0 -0.20722722388E+02 -0.14598415750E+03  0.52790162213E+03  0.55407798621E+03  0.81126362453E+02 0.  0.
         24    2    1    2    0    0  0.18676172547E+01  0.31488444079E+02  0.33119676918E+03  0.34178024747E+03  0.78277886670E+02 0.  0.
        -11    1    5    5    0    0  0.22205174739E+02 -0.12170457049E+02  0.20747183592E+03  0.20901136933E+03  0.00000000000E+00 0.  1.
         12    1    5    5    0    0 -0.20337557484E+02  0.43658901128E+02  0.12372493325E+03  0.13276887813E+03  0.00000000000E+00 0. -1.
        -13    1    4    4    0    0 -0.34794802881E+02 -0.13748714321E+03  0.38603172356E+03  0.41125890197E+03  0.00000000000E+00 0.  1.
         14    1    4    4    0    0  0.14072080493E+02 -0.84970142926E+01  0.14186989857E+03  0.14281908424E+03  0.00000000000E+00 0. -1.
          5    1    3    3  501    0  0.84465023319E+01  0.19473207407E+03 -0.95606799771E+03  0.97574588409E+03  0.47000000000E+01 0.  1.
         -5    1    3    3    0  501 -0.12647808170E+02  0.14459126025E+02 -0.13401767970E+02  0.23889971989E+02  0.47000000000E+01 0.  1.
          1    1    1    2  502    0 -0.11144528899E+02 -0.85224785039E+02  0.61477962040E+03  0.62075876649E+03  0.00000000000E+00 0. -1.
          1    1    1    2  503    0  0.34200939871E+02 -0.94707016308E+01 -0.93891763024E+03  0.93958805593E+03  0.00000000000E+00 0. -1.
<mgrwt>
<rscale>  0 0.52117407E+02</rscale>
<asrwt>0</asrwt>
<pdfrwt beam="1">  1        2 0.22215673E+00 0.76539218E+02</pdfrwt>
<pdfrwt beam="2">  1        2 0.28605517E+00 0.35488005E+02</pdfrwt>
<totfact> 0.27385077E+01</totfact>
</mgrwt>
</event>
<event>
13    1  0.3019759E-008  0.1388896E+03  0.7546771E-02  0.1277547E+00
          2   -1    0    0  502    0  0.00000000000E+00  0.00000000000E+00  0.10992513701E+04  0.10992513701E+04  0.00000000000E+00 0. -1.
          2   -1    0    0  503    0 -0.00000000000E+00 -0.00000000000E+00 -0.17791760207E+04  0.17791760207E+04  0.00000000000E+00 0. -1.
         25    2    1    2    0    0  0.12860019479E+03 -0.11347618211E+02 -0.18681447533E+03  0.25921134300E+03  0.12499637438E+03 0.  0.
         24    2    1    2    0    0 -0.96053531992E+02  0.10282940422E+03 -0.15101641808E+03  0.22134459624E+03  0.79920612959E+02 0.  0.
         24    2    1    2    0    0 -0.11384158419E+03  0.38025694139E+02  0.15810791034E+03  0.21433857301E+03  0.80852043025E+02 0.  0.
        -11    1    4    4    0    0  0.48225203297E+01  0.32100826857E+02 -0.59830301009E+02  0.68068970214E+02  0.00000000000E+00 0.  1.
         12    1    4    4    0    0 -0.10087605232E+03  0.70728577363E+02 -0.91186117068E+02  0.15327562603E+03  0.00000000000E+00 0. -1.
        -13    1    5    5    0    0 -0.16548305657E+02  0.12092631366E+02  0.91130439736E+02  0.93406826303E+02  0.00000000000E+00 0.  1.
         14    1    5    5    0    0 -0.97293278532E+02  0.25933062773E+02  0.66977470601E+02  0.12093174670E+03  0.00000000000E+00 0. -1.
          5    1    3    3  501    0  0.66652371431E+02 -0.36558722140E+02 -0.17536926922E+03  0.19119505581E+03  0.47000000000E+01 0. -1.
         -5    1    3    3    0  501  0.61947823357E+02  0.25211103929E+02 -0.11445206118E+02  0.68016287190E+02  0.47000000000E+01 0. -1.
          1    1    1    2  502    0  0.14779729361E+03 -0.16176183716E+03  0.82635873578E+03  0.85491502044E+03  0.00000000000E+00 0. -1.
          1    1    1    2  503    0 -0.66502372218E+02  0.32254357014E+02 -0.13265604034E+04  0.13286178581E+04  0.00000000000E+00 0. -1.
<mgrwt>
<rscale>  0 0.10131898E+03</rscale>
<asrwt>0</asrwt>
<pdfrwt beam="1">  1        2 0.16165462E+00 0.13888957E+03</pdfrwt>
<pdfrwt beam="2">  1        2 0.26164353E+00 0.73911495E+02</pdfrwt>
<totfact> 0.47585975E+01</totfact>
</mgrwt>
</event>
<event>
13    1  0.3019759E-008  0.1180453E+03  0.7546771E-02  0.1280060E+00
          2   -1    0    0  503    0  0.00000000000E+00  0.00000000000E+00  0.12146190010E+04  0.12146190010E+04  0.00000000000E+00 0. -1.
          2   -1    0    0  502    0 -0.00000000000E+00 -0.00000000000E+00 -0.34952164659E+04  0.34952164659E+04  0.00000000000E+00 0. -1.
         25    2    1    2    0    0  0.16480083975E+03  0.30175031016E+03 -0.99588221315E+01  0.36597377389E+03  0.12500023428E+03 0.  0.
         24    2    1    2    0    0 -0.52249777531E+02 -0.18318161825E+03  0.31631747166E+03  0.37791263476E+03  0.80471560911E+02 0.  0.
         24    2    1    2    0    0 -0.96054416698E+02  0.76259103513E+02  0.28393095390E+03  0.31906437611E+03  0.78379765794E+02 0.  0.
        -11    1    5    5    0    0 -0.15682196643E+02 -0.69034944198E+01  0.62110245587E+01  0.18225431485E+02  0.00000000000E+00 0.  1.
         12    1    5    5    0    0 -0.80372220056E+02  0.83162597932E+02  0.27771992934E+03  0.30083894463E+03  0.00000000000E+00 0. -1.
        -13    1    4    4    0    0 -0.30102498404E+02 -0.10433820194E+02  0.37929540440E+02  0.49534584403E+02  0.00000000000E+00 0.  1.
         14    1    4    4    0    0 -0.22147279127E+02 -0.17274779806E+03  0.27838793122E+03  0.32837805035E+03  0.00000000000E+00 0. -1.
          5    1    3    3  501    0  0.94191821128E+02  0.92586351443E+02 -0.50485302616E+02  0.14147504169E+03  0.47000000000E+01 0.  1.
         -5    1    3    3    0  501  0.70609018619E+02  0.20916395872E+03  0.40526480485E+02  0.22449873220E+03  0.47000000000E+01 0.  1.
          1    1    1    2  502    0  0.16840629684E+02 -0.11674326228E+03 -0.32531595257E+04  0.32552971440E+04  0.00000000000E+00 0. -1.
          1    1    1    2  503    0 -0.33337275201E+02 -0.78084533142E+02  0.38227245742E+03  0.39158753803E+03  0.00000000000E+00 0. -1.
<mgrwt>
<rscale>  0 0.10011212E+03</rscale>
<asrwt>0</asrwt>
<pdfrwt beam="1">  1        2 0.17862044E+00 0.84903288E+02</pdfrwt>
<pdfrwt beam="2">  1        2 0.51400242E+00 0.11804533E+03</pdfrwt>
<totfact> 0.52313236E+00</totfact>
</mgrwt>
</event>
<event>
13    1  0.3019759E-008  0.4646936E+02  0.7546771E-02  0.1615244E+00
          2   -1    0    0  502    0  0.00000000000E+00  0.00000000000E+00  0.45960058105E+03  0.45960058105E+03  0.00000000000E+00 0. -1.
          2   -1    0    0  503    0 -0.00000000000E+00 -0.00000000000E+00 -0.50012767218E+03  0.50012767218E+03  0.00000000000E+00 0. -1.
         25    2    1    2    0    0 -0.84444373505E+01 -0.74413274891E+01 -0.29752255148E+03  0.32290954903E+03  0.12499690532E+03 0.  0.
         24    2    1    2    0    0  0.62657916126E+02 -0.91717225017E+02 -0.80595011986E+02  0.17124297567E+03  0.10242332225E+03 0.  0.
         24    2    1    2    0    0 -0.54920075977E+02  0.37668911353E+02  0.11467539899E+03  0.15537506755E+03  0.80967912511E+02 0.  0.
        -11    1    5    5    0    0 -0.60222803333E+02 -0.55570346639E+01  0.76031974043E+02  0.97152085683E+02  0.00000000000E+00 0.  1.
         12    1    5    5    0    0  0.53027273566E+01  0.43225946017E+02  0.38643424946E+02  0.58222981872E+02  0.00000000000E+00 0. -1.
        -13    1    4    4    0    0  0.90784774116E+02 -0.66745872001E+02 -0.67842587990E+02  0.13152757652E+03  0.00000000000E+00 0.  1.
         14    1    4    4    0    0 -0.28126857990E+02 -0.24971353016E+02 -0.12752423996E+02  0.39715399149E+02  0.00000000000E+00 0. -1.
          5    1    3    3  501    0  0.51661114936E+02 -0.43290272569E+01 -0.68327817659E+02  0.85897566552E+02  0.47000000000E+01 0. -1.
         -5    1    3    3    0  501 -0.60105552287E+02 -0.31123002321E+01 -0.22919473382E+03  0.23701198248E+03  0.47000000000E+01 0. -1.
          1    1    1    2  502    0  0.81734941912E+01  0.45680674294E+02  0.26268748706E+03  0.26675502970E+03  0.00000000000E+00 0. -1.
          1    1    1    2  503    0 -0.74668969900E+01  0.15808966859E+02 -0.39772413713E+02  0.43445631269E+02  0.00000000000E+00 0. -1.
<mgrwt>
<rscale>  0 0.28503577E+02</rscale>
<asrwt>0</asrwt>
<pdfrwt beam="1">  1        2 0.67588321E-01 0.46469355E+02</pdfrwt>
<pdfrwt beam="2">  1        2 0.73548187E-01 0.17483649E+02</pdfrwt>
<totfact> 0.76218920E+02</totfact>
</mgrwt>
</event>
<event>
13    1  0.3019759E-008  0.3667367E+02  0.7546771E-02  0.1590548E+00
          2   -1    0    0  502    0  0.00000000000E+00  0.00000000000E+00  0.20194326553E+04  0.20194326553E+04  0.00000000000E+00 0. -1.
          2   -1    0    0  503    0 -0.00000000000E+00 -0.00000000000E+00 -0.58380016727E+03  0.58380016727E+03  0.00000000000E+00 0. -1.
         25    2    1    2    0    0 -0.16079224472E+03 -0.59267899202E+02  0.39932365750E+02  0.21584142576E+03  0.12500438952E+03 0.  0.
         24    2    1    2    0    0 -0.28357131852E+02 -0.17740847482E+01  0.86309558516E+02  0.12108241597E+03  0.80027103291E+02 0.  0.
         24    2    1    2    0    0  0.13789311989E+03  0.59478268432E+02  0.46946060878E+03  0.49900434774E+03  0.77845352712E+02 0.  0.
        -11    1    4    4    0    0 -0.24132904915E+02  0.20117235611E+02  0.92708197266E+02  0.97887231591E+02  0.00000000000E+00 0.  1.
         12    1    4    4    0    0 -0.42242269373E+01 -0.21891320359E+02 -0.63986387500E+01  0.23195184374E+02  0.00000000000E+00 0. -1.
        -13    1    5    5    0    0 -0.64253711486E+00  0.26137169178E+02  0.59650436029E+02  0.65128634141E+02  0.00000000000E+00 0.  1.
         14    1    5    5    0    0  0.13853565701E+03  0.33341099255E+02  0.40981017275E+03  0.43387571360E+03  0.00000000000E+00 0. -1.
          5    1    3    3  501    0 -0.12175785648E+03 -0.78485389113E+01  0.73919275703E+02  0.14273305328E+03  0.47000000000E+01 0. -1.
         -5    1    3    3    0  501 -0.39034388243E+02 -0.51419360291E+02 -0.33986909953E+02  0.73108372478E+02  0.47000000000E+01 0. -1.
          1    1    1    2  502    0  0.18429454874E+02  0.17895443425E+02  0.13027656745E+04  0.13030189156E+04  0.00000000000E+00 0. -1.
          1    1    1    2  503    0  0.32826801809E+02 -0.16331727907E+02 -0.46283571951E+03  0.46428571754E+03  0.00000000000E+00 0. -1.
<mgrwt>
<rscale>  0 0.30693423E+02</rscale>
<asrwt>0</asrwt>
<pdfrwt beam="1">  1        2 0.29697539E+00 0.25688357E+02</pdfrwt>
<pdfrwt beam="2">  1        2 0.85852966E-01 0.36673666E+02</pdfrwt>
<totfact> 0.92847691E+01</totfact>
</mgrwt>
</event>
<event>
13    1  0.3019759E-008  0.2167765E+03  0.7546771E-02  0.1414563E+00
          2   -1    0    0  503    0  0.00000000000E+00  0.00000000000E+00  0.24783504376E+04  0.24783504376E+04  0.00000000000E+00 0. -1.
          2   -1    0    0  502    0 -0.00000000000E+00 -0.00000000000E+00 -0.74180649272E+03  0.74180649272E+03  0.00000000000E+00 0. -1.
         25    2    1    2    0    0  0.12601836540E+03  0.22547926843E+02 -0.18424424822E+03  0.25682423303E+03  0.12499482488E+03 0.  0.
         24    2    1    2    0    0 -0.20663095299E+03  0.19407570688E+03 -0.14456059410E+02  0.29564447880E+03  0.82673753106E+02 0.  0.
         24    2    1    2    0    0 -0.16791843937E+03  0.51613016416E+02  0.35321960008E+03  0.40281098239E+03  0.81437681144E+02 0.  0.
        -13    1    5    5    0    0  0.27320240545E+01  0.34414219059E+01 -0.27067670958E+01  0.51608069408E+01  0.00000000000E+00 0.  1.
         14    1    5    5    0    0 -0.17065046342E+03  0.48171594510E+02  0.35592636718E+03  0.39765017545E+03  0.00000000000E+00 0. -1.
        -13    1    4    4    0    0 -0.15123403584E+03  0.98577757404E+02  0.15674843075E+02  0.18120432820E+03  0.00000000000E+00 0.  1.
         14    1    4    4    0    0 -0.55396917147E+02  0.95497949480E+02 -0.30130902485E+02  0.11444015060E+03  0.00000000000E+00 0. -1.
          5    1    3    3  501    0  0.44160540364E+01 -0.35175459974E+02 -0.11066757239E+02  0.37434978742E+02  0.47000000000E+01 0. -1.
         -5    1    3    3    0  501  0.12160231136E+03  0.57723386817E+02 -0.17317749098E+03  0.21938925428E+03  0.47000000000E+01 0. -1.
          1    1    1    2  502    0 -0.61798675232E+01  0.13187557363E+02 -0.32253397541E+03  0.32286261432E+03  0.00000000000E+00 0. -1.
          1    1    1    2  503    0  0.25471089449E+03 -0.28142420751E+03  0.19045586279E+04  0.19420146218E+04  0.00000000000E+00 0. -1.
<mgrwt>
<rscale>  0 0.56187858E+02</rscale>
<asrwt>0</asrwt>
<pdfrwt beam="1">  1        2 0.36446330E+00 0.21677646E+03</pdfrwt>
<pdfrwt beam="2">  1        2 0.10908919E+00 0.14563737E+02</pdfrwt>
<totfact> 0.34247067E+01</totfact>
</mgrwt>
</event>
<event>
13    1  0.3019759E-008  0.1334673E+03  0.7546771E-02  0.1244678E+00
         -1   -1    0    0    0  501 -0.00000000000E+00  0.00000000000E+00  0.15695332494E+04  0.15695332494E+04  0.00000000000E+00 0.  1.
          2   -1    0    0  503    0  0.00000000000E+00 -0.00000000000E+00 -0.35516033385E+04  0.35516033385E+04  0.00000000000E+00 0. -1.
         25    2    1    2    0    0  0.77262640064E+02  0.54249962130E+01 -0.11597151758E+03  0.18728076987E+03  0.12500299092E+03 0.  0.
         24    2    1    2    0    0  0.95761306430E+02 -0.25370494251E+02 -0.16542808203E+03  0.20860343362E+03  0.79593042458E+02 0.  0.
         24    2    1    2    0    0 -0.44646763793E+02 -0.35352337970E+02 -0.50804485464E+03  0.51716574018E+03  0.78151821297E+02 0.  0.
        -13    1    5    5    0    0  0.13759001753E+02 -0.16710088415E+02 -0.28583123012E+03  0.28664966299E+03  0.00000000000E+00 0.  1.
         14    1    5    5    0    0 -0.58405765547E+02 -0.18642249555E+02 -0.22221362452E+03  0.23051607718E+03  0.00000000000E+00 0. -1.
        -13    1    4    4    0    0 -0.68409097858E-01 -0.30322110480E+02 -0.30263233894E+02  0.42840382695E+02  0.00000000000E+00 0.  1.
         14    1    4    4    0    0  0.95829715528E+02  0.49516162293E+01 -0.13516484813E+03  0.16576305092E+03  0.00000000000E+00 0. -1.
          5    1    3    3  502    0  0.45892597571E+02 -0.70087439284E-01 -0.13980889936E+03  0.14722348238E+03  0.47000000000E+01 0.  1.
         -5    1    3    3    0  502  0.31370042493E+02  0.54950836523E+01  0.23837381785E+02  0.40057287486E+02  0.47000000000E+01 0.  1.
          1    1    1    2  503    0 -0.15388182413E+03 -0.47806530085E+02 -0.26960770984E+04  0.27008881503E+04  0.00000000000E+00 0. -1.
         -2    1    1    2    0  501  0.25504641434E+02  0.10310436609E+03  0.15034514635E+04  0.15071984939E+04  0.00000000000E+00 0.  1.
<mgrwt>
<rscale>  0 0.11904676E+03</rscale>
<asrwt>0</asrwt>
<pdfrwt beam="2">  1        2 0.52229461E+00 0.13346732E+03</pdfrwt>
<pdfrwt beam="1">  1       -1 0.23081371E+00 0.10618427E+03</pdfrwt>
<totfact> 0.17866356E-01</totfact>
</mgrwt>
</event>
<event>
13    1  0.3019759E-008  0.1458235E+03  0.7546771E-02  0.1313528E+00
          2   -1    0    0  502    0  0.00000000000E+00  0.00000000000E+00  0.15132047916E+04  0.15132047916E+04  0.00000000000E+00 0. -1.
          2   -1    0    0  503    0 -0.00000000000E+00 -0.00000000000E+00 -0.21972241890E+04  0.21972241890E+04  0.00000000000E+00 0. -1.
         25    2    1    2    0    0  0.75911178092E+01 -0.28401738648E+03 -0.12580163690E+04  0.12957447556E+04  0.12500314383E+03 0.  0.
         24    2    1    2    0    0 -0.46502145014E+02 -0.21387974099E+02 -0.96059830808E+02  0.13549479184E+03  0.80693572191E+02 0.  0.
         24    2    1    2    0    0  0.12115855675E+03  0.86837820695E+02  0.98251474931E+03  0.99682813265E+03  0.78172184607E+02 0.  0.
        -11    1    5    5    0    0  0.28294232783E+02  0.34919685881E+02  0.12689420280E+03  0.13461830030E+03  0.00000000000E+00 0.  1.
         12    1    5    5    0    0  0.92864323965E+02  0.51918134815E+02  0.85562054651E+03  0.86220983235E+03  0.00000000000E+00 0. -1.
        -13    1    4    4    0    0  0.15016012308E+02  0.10832297300E+02 -0.20669727143E+01  0.18630396309E+02  0.00000000000E+00 0.  1.
         14    1    4    4    0    0 -0.61518157322E+02 -0.32220271399E+02 -0.93992858093E+02  0.11686439553E+03  0.00000000000E+00 0. -1.
          5    1    3    3  501    0 -0.37015781376E+02 -0.40721096474E+02 -0.13619251305E+03  0.14696552787E+03  0.47000000000E+01 0. -1.
         -5    1    3    3    0  501  0.44606899185E+02 -0.24329629001E+03 -0.11218238560E+04  0.11487792277E+04  0.47000000000E+01 0. -1.
          1    1    1    2  502    0 -0.24998454862E+02  0.43767803538E+02  0.47298783830E+03  0.47566588963E+03  0.00000000000E+00 0. -1.
          1    1    1    2  503    0 -0.57249074682E+02  0.17479973635E+03 -0.78544578521E+03  0.80669541085E+03  0.00000000000E+00 0. -1.
<mgrwt>
<rscale>  0 0.85732471E+02</rscale>
<asrwt>0</asrwt>
<pdfrwt beam="1">  1        2 0.22253012E+00 0.50403803E+02</pdfrwt>
<pdfrwt beam="2">  1        2 0.32312120E+00 0.14582345E+03</pdfrwt>
<totfact> 0.18319427E+01</totfact>
</mgrwt>
</event>
<event>
13    1  0.3019759E-008  0.4092489E+02  0.7546771E-02  0.1576323E+00
         -3   -1    0    0    0  501 -0.00000000000E+00  0.00000000000E+00  0.18303223573E+03  0.18303223573E+03  0.00000000000E+00 0.  1.
          2   -1    0    0  503    0  0.00000000000E+00 -0.00000000000E+00 -0.17028938628E+04  0.17028938628E+04  0.00000000000E+00 0. -1.
         25    2    1    2    0    0 -0.78020834952E+01  0.27493587608E+02 -0.72312139253E+01  0.12842720379E+03  0.12499794539E+03 0.  0.
         24    2    1    2    0    0  0.14544386675E+02 -0.24565347798E+02 -0.82783748077E+02  0.11376795941E+03  0.72629223782E+02 0.  0.
         24    2    1    2    0    0 -0.11312857560E+02  0.28415443750E+02 -0.40752880508E+03  0.41686110865E+03  0.82207291323E+02 0.  0.
        -11    1    4    4    0    0  0.10006151096E+02  0.12845055617E+02 -0.73055319346E+02  0.74847833624E+02  0.00000000000E+00 0.  1.
         12    1    4    4    0    0  0.45382355798E+01 -0.37410403415E+02 -0.97284287312E+01  0.38920125789E+02  0.00000000000E+00 0. -1.
        -11    1    5    5    0    0  0.27016319166E+02 -0.73487221651E+01 -0.71829410391E+02  0.77093121715E+02  0.00000000000E+00 0.  1.
         12    1    5    5    0    0 -0.38329176726E+02  0.35764165915E+02 -0.33569939469E+03  0.33976798693E+03  0.00000000000E+00 0. -1.
          5    1    3    3  502    0  0.29567024990E+02 -0.40367826262E+02  0.18051865434E+01  0.50290347606E+02  0.47000000000E+01 0. -1.
         -5    1    3    3    0  502 -0.37369108485E+02  0.67861413870E+02 -0.90364004687E+01  0.78136856187E+02  0.47000000000E+01 0. -1.
          1    1    1    2  503    0 -0.24961317458E+02 -0.28486012244E+01 -0.11203307770E+04  0.11206124360E+04  0.00000000000E+00 0. -1.
         -4    1    1    2    0  501  0.29531871838E+02 -0.28495082335E+02  0.98012916990E+02  0.10625739065E+03  0.00000000000E+00 0.  1.
<mgrwt>
<rscale>  0 0.32065087E+02</rscale>
<asrwt>0</asrwt>
<pdfrwt beam="2">  1        2 0.25042555E+00 0.25123334E+02</pdfrwt>
<pdfrwt beam="1">  1       -3 0.26916507E-01 0.40924895E+02</pdfrwt>
<totfact> 0.10319030E+02</totfact>
</mgrwt>
</event>
<event>
13    1  0.3019759E-008  0.1307073E+03  0.7546771E-02  0.1290377E+00
         -1   -1    0    0    0  501 -0.00000000000E+00  0.00000000000E+00  0.29069123631E+03  0.29069123631E+03  0.00000000000E+00 0.  1.
          2   -1    0    0  503    0  0.00000000000E+00 -0.00000000000E+00 -0.10477189544E+04  0.10477189544E+04  0.00000000000E+00 0. -1.
         25    2    1    2    0    0  0.59886149257E+02 -0.10939791053E+03  0.10778887811E+03  0.20689789522E+03  0.12503616718E+03 0.  0.
         24    2    1    2    0    0 -0.57027848921E+01  0.10495768169E+03 -0.31896961705E+03  0.34331541213E+03  0.71240570636E+02 0.  0.
         24    2    1    2    0    0  0.31435663911E+02  0.37751090837E+02 -0.19716807430E+03  0.21892793176E+03  0.81491373506E+02 0.  0.
        -11    1    4    4    0    0 -0.17362007541E+02 -0.15406796066E+01 -0.25378490469E+02  0.30787672500E+02  0.00000000000E+00 0.  1.
         12    1    4    4    0    0  0.11659222649E+02  0.10649836130E+03 -0.29359112658E+03  0.31252773963E+03  0.00000000000E+00 0. -1.
        -13    1    5    5    0    0  0.46042374634E+02 -0.78452678629E+01 -0.10932497389E+03  0.11888397035E+03  0.00000000000E+00 0.  1.
         14    1    5    5    0    0 -0.14606710724E+02  0.45596358700E+02 -0.87843100404E+02  0.10004396140E+03  0.00000000000E+00 0. -1.
          5    1    3    3  502    0 -0.69563505746E+01 -0.36518051355E+02  0.10092659076E+03  0.10765791011E+03  0.47000000000E+01 0. -1.
         -5    1    3    3    0  502  0.66842499832E+02 -0.72879859172E+02  0.68622873562E+01  0.99239985109E+02  0.47000000000E+01 0. -1.
          1    1    1    2  503    0  0.14593755582E+02  0.68017551772E+02 -0.40873919183E+03  0.41461680138E+03  0.00000000000E+00 0. -1.
         -2    1    1    2    0  501 -0.10021278386E+03 -0.10132841377E+03  0.60060286994E+02  0.15465215019E+03  0.00000000000E+00 0.  1.
<mgrwt>
<rscale>  0 0.95355763E+02</rscale>
<asrwt>0</asrwt>
<pdfrwt beam="2">  1        2 0.15407631E+00 0.69565545E+02</pdfrwt>
<pdfrwt beam="1">  1       -1 0.42748712E-01 0.13070726E+03</pdfrwt>
<totfact> 0.17717427E+02</totfact>
</mgrwt>
</event>
<event>
13    1  0.3019759E-008  0.2406769E+03  0.7546771E-02  0.1289312E+00
          2   -1    0    0  502    0  0.00000000000E+00  0.00000000000E+00  0.19803533849E+04  0.19803533849E+04  0.00000000000E+00 0. -1.
          2   -1    0    0  503    0 -0.00000000000E+00 -0.00000000000E+00 -0.11341113070E+04  0.11341113070E+04  0.00000000000E+00 0. -1.
         25    2    1    2    0    0 -0.28410237239E+03  0.39768227909E+01 -0.62721916851E+02  0.31668430717E+03  0.12499975376E+03 0.  0.
         24    2    1    2    0    0  0.35632670324E+02 -0.21391943497E+03  0.17187242810E+03  0.28691559853E+03  0.75823593203E+02 0.  0.
         24    2    1    2    0    0  0.16617594553E+03 -0.83778092815E+01  0.23872861032E+03  0.30477324760E+03  0.90613191688E+02 0.  0.
        -11    1    4    4    0    0 -0.14183669543E+02 -0.68509851573E+02  0.24931667544E+02  0.74272230954E+02  0.00000000000E+00 0.  1.
         12    1    4    4    0    0  0.49816339867E+02 -0.14540958340E+03  0.14694076055E+03  0.21264336757E+03  0.00000000000E+00 0. -1.
        -11    1    5    5    0    0  0.34184957235E+02 -0.31200002532E+02  0.10847159874E+03  0.11793277404E+03  0.00000000000E+00 0.  1.
         12    1    5    5    0    0  0.13199098829E+03  0.22822193251E+02  0.13025701157E+03  0.18684047356E+03  0.00000000000E+00 0. -1.
          5    1    3    3  501    0 -0.32622263850E+02 -0.97640916182E+01  0.32578682418E+02  0.47360427911E+02  0.47000000000E+01 0. -1.
         -5    1    3    3    0  501 -0.25148010854E+03  0.13740914409E+02 -0.95300599269E+02  0.26932387926E+03  0.47000000000E+01 0. -1.
          1    1    1    2  502    0  0.10255073969E+03  0.25065829467E+03  0.13382294341E+04  0.13653586537E+04  0.00000000000E+00 0. -1.
          1    1    1    2  503    0 -0.20256983154E+02 -0.32337873209E+02 -0.83986647776E+03  0.84073288497E+03  0.00000000000E+00 0. -1.
<mgrwt>
<rscale>  0 0.95832707E+02</rscale>
<asrwt>0</asrwt>
<pdfrwt beam="1">  1        2 0.29122844E+00 0.24067689E+03</pdfrwt>
<pdfrwt beam="2">  1        2 0.16678107E+00 0.38158661E+02</pdfrwt>
<totfact> 0.34977669E+01</totfact>
</mgrwt>
</event>
<event>
13    1  0.3019759E-008  0.2310409E+03  0.7546771E-02  0.1166328E+00
          2   -1    0    0  503    0  0.00000000000E+00  0.00000000000E+00  0.18991824405E+04  0.18991824405E+04  0.00000000000E+00 0. -1.
          2   -1    0    0  502    0 -0.00000000000E+00 -0.00000000000E+00 -0.82702779615E+03  0.82702779615E+03  0.00000000000E+00 0. -1.
         25    2    1    2    0    0 -0.64063053599E+02  0.67246741769E+02 -0.21410399736E+03  0.26477238119E+03  0.12505076187E+03 0.  0.
         24    2    1    2    0    0  0.34876812466E+02 -0.41912197420E+02  0.95251672936E+02  0.13746048159E+03  0.82761576001E+02 0.  0.
         24    2    1    2    0    0 -0.24631333743E+03  0.12424509338E+03  0.97515246611E+03  0.10166290690E+04  0.80654995849E+02 0.  0.
        -11    1    4    4    0    0  0.76245509628E+01  0.22599606612E+02  0.46090045797E+02  0.51895744700E+02  0.00000000000E+00 0.  1.
         12    1    4    4    0    0  0.27252261504E+02 -0.64511804032E+02  0.49161627140E+02  0.85564736893E+02  0.00000000000E+00 0. -1.
        -13    1    5    5    0    0 -0.12466815626E+03  0.30802377502E+02  0.54563949172E+03  0.56054740261E+03  0.00000000000E+00 0.  1.
         14    1    5    5    0    0 -0.12164518118E+03  0.93442715877E+02  0.42951297439E+03  0.45608166640E+03  0.00000000000E+00 0. -1.
          5    1    3    3  501    0 -0.47771963107E+02  0.44916658716E+02 -0.22521467516E+03  0.23461331291E+03  0.47000000000E+01 0.  1.
         -5    1    3    3    0  501 -0.16291090492E+02  0.22330083053E+02  0.11110677800E+02  0.30159068283E+02  0.47000000000E+01 0.  1.
          1    1    1    2  502    0  0.89956746524E+02 -0.21333422634E+03 -0.50752292957E+03  0.55783799836E+03  0.00000000000E+00 0. -1.
          1    1    1    2  503    0  0.18554283204E+03  0.63754588616E+02  0.72337743223E+03  0.74951030650E+03  0.00000000000E+00 0. -1.
<mgrwt>
<rscale>  0 0.18153266E+03</rscale>
<asrwt>0</asrwt>
<pdfrwt beam="1">  1        2 0.27929154E+00 0.14263320E+03</pdfrwt>
<pdfrwt beam="2">  1        2 0.12162173E+00 0.23104094E+03</pdfrwt>
<totfact> 0.55912579E+01</totfact>
</mgrwt>
</event>
<event>
13    1  0.3019759E-008  0.4190781E+02  0.7546771E-02  0.1612133E+00
          2   -1    0    0  503    0  0.00000000000E+00  0.00000000000E+00  0.69936626537E+03  0.69936626537E+03  0.00000000000E+00 0. -1.
          2   -1    0    0  502    0 -0.00000000000E+00 -0.00000000000E+00 -0.17121336765E+04  0.17121336765E+04  0.00000000000E+00 0. -1.
         25    2    1    2    0    0 -0.31344230739E+02  0.83613213003E+01 -0.11528228838E+03  0.17311632802E+03  0.12500753784E+03 0.  0.
         24    2    1    2    0    0  0.90483453944E+02 -0.39241431819E+01  0.17216248169E+03  0.20603574355E+03  0.67883379295E+02 0.  0.
         24    2    1    2    0    0  0.22970073706E+01 -0.58861960442E+01  0.11572464632E+03  0.14112509580E+03  0.80524377389E+02 0.  0.
        -11    1    5    5    0    0 -0.38801986197E+02 -0.79363808760E+01  0.58181436757E+02  0.70382241065E+02  0.00000000000E+00 0.  1.
         12    1    5    5    0    0  0.41098993568E+02  0.20501848318E+01  0.57543209560E+02  0.70742854739E+02  0.00000000000E+00 0. -1.
        -13    1    4    4    0    0  0.68105941954E+01  0.20900451275E+02  0.16176136634E+02  0.27292498112E+02  0.00000000000E+00 0.  1.
         14    1    4    4    0    0  0.83672859749E+02 -0.24824594457E+02  0.15598634505E+03  0.17874324544E+03  0.00000000000E+00 0. -1.
          5    1    3    3  501    0  0.79429610299E+01 -0.25944227443E+02  0.15948820968E+02  0.31822137857E+02  0.47000000000E+01 0.  1.
         -5    1    3    3    0  501 -0.39287191769E+02  0.34305548743E+02 -0.13123110935E+03  0.14129419016E+03  0.47000000000E+01 0.  1.
          1    1    1    2  502    0 -0.19668315371E+02  0.17553328548E+01 -0.15369980189E+04  0.15371248595E+04  0.00000000000E+00 0. -1.
          1    1    1    2  503    0 -0.41767915205E+02 -0.30631492905E+00  0.35162576812E+03  0.35409791496E+03  0.00000000000E+00 0. -1.
<mgrwt>
<rscale>  0 0.28766858E+02</rscale>
<asrwt>0</asrwt>
<pdfrwt beam="1">  1        2 0.10284798E+00 0.41907811E+02</pdfrwt>
<pdfrwt beam="2">  1        2 0.25178436E+00 0.19746489E+02</pdfrwt>
<totfact> 0.10745211E+02</totfact>
</mgrwt>
</event>
<event>
13    1  0.3019759E-008  0.5564092E+02  0.7546771E-02  0.1582041E+00
          2   -1    0    0  503    0  0.00000000000E+00  0.00000000000E+00  0.20600105103E+03  0.20600105103E+03  0.00000000000E+00 0. -1.
          2   -1    0    0  502    0 -0.00000000000E+00 -0.00000000000E+00 -0.14315060681E+04  0.14315060681E+04  0.00000000000E+00 0. -1.
         25    2    1    2    0    0  0.65371213755E+02 -0.10909171681E+02 -0.32095762369E+03  0.35075663833E+03  0.12499606999E+03 0.  0.
         24    2    1    2    0    0  0.39625200854E+02  0.19630882316E+02 -0.87227329391E+02  0.12674304057E+03  0.80620489069E+02 0.  0.
         24    2    1    2    0    0 -0.33557569550E+02 -0.29156230430E+01  0.62400032246E+02  0.10755989992E+03  0.80874944915E+02 0.  0.
        -11    1    5    5    0    0 -0.27591834106E+02  0.29765407917E+02  0.62281141069E+02  0.74338612784E+02  0.00000000000E+00 0.  1.
         12    1    5    5    0    0 -0.59657354439E+01 -0.32681030960E+02  0.11889117693E+00  0.33221287138E+02  0.00000000000E+00 0. -1.
        -11    1    4    4    0    0 -0.35986088689E+01  0.36906836909E+02 -0.65733992938E+02  0.75471997615E+02  0.00000000000E+00 0.  1.
         12    1    4    4    0    0  0.43223809723E+02 -0.17275954594E+02 -0.21493336452E+02  0.51271042957E+02  0.00000000000E+00 0. -1.
          5    1    3    3  501    0  0.67619701711E+02  0.25236926350E+02 -0.83341264901E+02  0.11035027388E+03  0.47000000000E+01 0.  1.
         -5    1    3    3    0  501 -0.22484879558E+01 -0.36146098031E+02 -0.23761635879E+03  0.24040636445E+03  0.47000000000E+01 0.  1.
          1    1    1    2  502    0 -0.17144635695E+02  0.49214127375E+01 -0.95712578600E+03  0.95729197691E+03  0.00000000000E+00 0. -1.
          1    1    1    2  503    0 -0.54294209364E+02 -0.10727500329E+02  0.77405689777E+02  0.95155563388E+02  0.00000000000E+00 0. -1.
<mgrwt>
<rscale>  0 0.31503452E+02</rscale>
<asrwt>0</asrwt>
<pdfrwt beam="1">  1        2 0.30294271E-01 0.55640920E+02</pdfrwt>
<pdfrwt beam="2">  1        2 0.21051560E+00 0.17837007E+02</pdfrwt>
<totfact> 0.51622219E+02</totfact>
</mgrwt>
</event>
<event>
13    1  0.3019759E-008  0.1968972E+03  0.7546771E-02  0.1278599E+00
          2   -1    0    0  503    0  0.00000000000E+00  0.00000000000E+00  0.16322157179E+04  0.16322157179E+04  0.00000000000E+00 0. -1.
          2   -1    0    0  502    0 -0.00000000000E+00 -0.00000000000E+00 -0.31696738638E+04  0.31696738638E+04  0.00000000000E+00 0. -1.
         25    2    1    2    0    0  0.52423237035E+03  0.13424241202E+03 -0.69928368292E+03  0.89300916330E+03  0.12500837263E+03 0.  0.
         24    2    1    2    0    0 -0.31242207386E+03 -0.94144380500E+02  0.18256432387E+03  0.38247250884E+03  0.80528076182E+02 0.  0.
         24    2    1    2    0    0  0.32567568291E+02 -0.12553639923E+02  0.85113862583E+01  0.88869275504E+02  0.81283848659E+02 0.  0.
        -13    1    5    5    0    0  0.33161801007E+02  0.18010390285E+02 -0.23619692933E+02  0.44519311523E+02  0.00000000000E+00 0.  1.
         14    1    5    5    0    0 -0.59423271578E+00 -0.30564030209E+02  0.32131079191E+02  0.44349963981E+02  0.00000000000E+00 0. -1.
        -13    1    4    4    0    0 -0.15149680830E+03 -0.83850857248E+02  0.75409690344E+02  0.18886204114E+03  0.00000000000E+00 0.  1.
         14    1    4    4    0    0 -0.16092526556E+03 -0.10293523252E+02  0.10715463352E+03  0.19361046770E+03  0.00000000000E+00 0. -1.
          5    1    3    3  501    0  0.31409747650E+03  0.12343611630E+03 -0.49936576046E+03  0.60272875513E+03  0.47000000000E+01 0. -1.
         -5    1    3    3    0  501  0.21013489385E+03  0.10806295724E+02 -0.19991792246E+03  0.29028040816E+03  0.47000000000E+01 0. -1.
          1    1    1    2  502    0 -0.47792480549E+02 -0.19494818555E+02 -0.22250561540E+04  0.22256547481E+04  0.00000000000E+00 0. -1.
          1    1    1    2  503    0 -0.19658538423E+03 -0.80495730414E+01  0.11958059809E+04  0.12118838859E+04  0.00000000000E+00 0. -1.
<mgrwt>
<rscale>  0 0.10081154E+03</rscale>
<asrwt>0</asrwt>
<pdfrwt beam="1">  1        2 0.24003173E+00 0.19689723E+03</pdfrwt>
<pdfrwt beam="2">  1        2 0.46612850E+00 0.51615590E+02</pdfrwt>
<totfact> 0.53273058E+00</totfact>
</mgrwt>
</event>
<event>
13    1  0.3019759E-008  0.1770725E+03  0.7546771E-02  0.1443273E+00
          2   -1    0    0  502    0  0.00000000000E+00  0.00000000000E+00  0.99384363252E+03  0.99384363252E+03  0.00000000000E+00 0. -1.
          2   -1    0    0  503    0 -0.00000000000E+00 -0.00000000000E+00 -0.45309864036E+04  0.45309864036E+04  0.00000000000E+00 0. -1.
         25    2    1    2    0    0 -0.11463113036E+02 -0.20622083880E+03 -0.31161840764E+04  0.31255220625E+04  0.12500611210E+03 0.  0.
         24    2    1    2    0    0 -0.23841417686E+02  0.20992312206E+02  0.25289391417E+02  0.90043690815E+02  0.80369288713E+02 0.  0.
         24    2    1    2    0    0  0.13506563070E+03 -0.15738505529E+03  0.12554241204E+03  0.25520269057E+03  0.79716596932E+02 0.  0.
        -11    1    4    4    0    0 -0.60401445502E+01 -0.26552797360E+02 -0.91148292338E+01  0.28716101856E+02  0.00000000000E+00 0.  1.
         12    1    4    4    0    0 -0.17801273136E+02  0.47545109566E+02  0.34404220651E+02  0.61327588959E+02  0.00000000000E+00 0. -1.
        -11    1    5    5    0    0  0.48591285170E+02 -0.75315739717E+01  0.27291003084E+02  0.56237322574E+02  0.00000000000E+00 0.  1.
         12    1    5    5    0    0  0.86474345527E+02 -0.14985348132E+03  0.98251408958E+02  0.19896536799E+03  0.00000000000E+00 0. -1.
          5    1    3    3  501    0 -0.43151733699E+02 -0.13712561648E+02 -0.49904213120E+03  0.50111400417E+03  0.47000000000E+01 0. -1.
         -5    1    3    3    0  501  0.31688620663E+02 -0.19250827716E+03 -0.26171419452E+04  0.26244080584E+04  0.47000000000E+01 0. -1.
          1    1    1    2  502    0 -0.88512234160E+02  0.33372454656E+03  0.70088222150E+03  0.78130811911E+03  0.00000000000E+00 0. -1.
          1    1    1    2  503    0 -0.11248865816E+02  0.88890353295E+01 -0.12726727196E+04  0.12727534731E+04  0.00000000000E+00 0. -1.
<mgrwt>
<rscale>  0 0.50385549E+02</rscale>
<asrwt>0</asrwt>
<pdfrwt beam="1">  1        2 0.14615348E+00 0.17707254E+03</pdfrwt>
<pdfrwt beam="2">  1        2 0.66632153E+00 0.14337082E+02</pdfrwt>
<totfact> 0.23281855E+00</totfact>
</mgrwt>
</event>
<event>
13    1  0.3019759E-008  0.1675626E+03  0.7546771E-02  0.1242718E+00
         -1   -1    0    0    0  501 -0.00000000000E+00  0.00000000000E+00  0.29493594209E+03  0.29493594209E+03  0.00000000000E+00 0.  1.
          2   -1    0    0  503    0  0.00000000000E+00 -0.00000000000E+00 -0.38677723939E+04  0.38677723939E+04  0.00000000000E+00 0. -1.
         25    2    1    2    0    0 -0.10258011176E+03 -0.31744074196E+02 -0.14264457476E+03  0.21795336183E+03  0.12500331055E+03 0.  0.
         24    2    1    2    0    0  0.68676523568E+01 -0.70309983454E+02 -0.45796430346E+03  0.47063417230E+03  0.82307730326E+02 0.  0.
         24    2    1    2    0    0 -0.48448845978E+02 -0.54574863435E+02 -0.12117119106E+04  0.12165425453E+04  0.80026894767E+02 0.  0.
        -13    1    4    4    0    0  0.17034081672E+02  0.11469640877E+02 -0.16590100707E+03  0.16716715212E+03  0.00000000000E+00 0.  1.
         14    1    4    4    0    0 -0.10166429315E+02 -0.81779624331E+02 -0.29206329639E+03  0.30346702018E+03  0.00000000000E+00 0. -1.
        -13    1    5    5    0    0 -0.64223976375E+01 -0.56265586883E+02 -0.92839019547E+03  0.93011580919E+03  0.00000000000E+00 0.  1.
         14    1    5    5    0    0 -0.42026448341E+02  0.16907234483E+01 -0.28332171515E+03  0.28642673615E+03  0.00000000000E+00 0. -1.
          5    1    3    3  502    0  0.87940446162E+01 -0.41934073842E+02 -0.97403262826E+01  0.44190108914E+02  0.47000000000E+01 0. -1.
         -5    1    3    3    0  502 -0.11137415637E+03  0.10189999646E+02 -0.13290424847E+03  0.17376325291E+03  0.47000000000E+01 0. -1.
          1    1    1    2  503    0  0.83740860350E+02 -0.20728568859E+02 -0.19726560074E+04  0.19745414478E+04  0.00000000000E+00 0. -1.
         -2    1    1    2    0  501  0.60420445028E+02  0.17735748994E+03  0.21214034441E+03  0.28303680881E+03  0.00000000000E+00 0.  1.
<mgrwt>
<rscale>  0 0.12023031E+03</rscale>
<asrwt>0</asrwt>
<pdfrwt beam="2">  1        2 0.56879009E+00 0.86268217E+02</pdfrwt>
<pdfrwt beam="1">  1       -1 0.43372930E-01 0.16756261E+03</pdfrwt>
<totfact> 0.57086081E+00</totfact>
</mgrwt>
</event>
<event>
13    1  0.3019759E-008  0.1149900E+03  0.7546771E-02  0.1361105E+00
          2   -1    0    0  503    0  0.00000000000E+00  0.00000000000E+00  0.63311743854E+03  0.63311743854E+03  0.00000000000E+00 0. -1.
          2   -1    0    0  502    0 -0.00000000000E+00 -0.00000000000E+00 -0.27469136235E+04  0.27469136235E+04  0.00000000000E+00 0. -1.
         25    2    1    2    0    0 -0.85769569248E+02 -0.34053728610E+02 -0.75130097911E+03  0.76719813242E+03  0.12499495083E+03 0.  0.
         24    2    1    2    0    0 -0.37918389867E+02 -0.12504153203E+03 -0.46534146567E+03  0.49037228402E+03  0.82759339299E+02 0.  0.
         24    2    1    2    0    0  0.98781413049E+01 -0.16750983347E+02 -0.34192654045E+01  0.82806678274E+02  0.80418166307E+02 0.  0.
        -13    1    5    5    0    0 -0.95889554516E+01 -0.27791304473E+02 -0.33976835015E+02  0.44930279195E+02  0.00000000000E+00 0.  1.
         14    1    5    5    0    0  0.19467096756E+02  0.11040321126E+02  0.30557569610E+02  0.37876399079E+02  0.00000000000E+00 0. -1.
        -13    1    4    4    0    0 -0.27984648689E+02 -0.16626998978E+02 -0.21405586864E+03  0.21651677200E+03  0.00000000000E+00 0.  1.
         14    1    4    4    0    0 -0.99337411784E+01 -0.10841453305E+03 -0.25128559703E+03  0.27385551203E+03  0.00000000000E+00 0. -1.
          5    1    3    3  501    0 -0.91653187512E+02 -0.54496188448E+02 -0.36506143807E+03  0.38034469223E+03  0.47000000000E+01 0.  1.
         -5    1    3    3    0  501  0.58836182640E+01  0.20442459839E+02 -0.38623954104E+03  0.38685344019E+03  0.47000000000E+01 0.  1.
          1    1    1    2  502    0  0.72677926906E+01  0.41622157129E+02 -0.14535665127E+04  0.14541804673E+04  0.00000000000E+00 0. -1.
          1    1    1    2  503    0  0.10654202512E+03  0.13422408686E+03  0.55983203787E+03  0.58547350003E+03  0.00000000000E+00 0. -1.
<mgrwt>
<rscale>  0 0.69703293E+02</rscale>
<asrwt>0</asrwt>
<pdfrwt beam="1">  1        2 0.93105506E-01 0.11499002E+03</pdfrwt>
<pdfrwt beam="2">  1        2 0.40395789E+00 0.42251920E+02</pdfrwt>
<totfact> 0.35409843E+01</totfact>
</mgrwt>
</event>
<event>
13    1  0.3019759E-008  0.1303650E+03  0.7546771E-02  0.1266559E+00
          2   -1    0    0  502    0  0.00000000000E+00  0.00000000000E+00  0.31385348946E+03  0.31385348946E+03  0.00000000000E+00 0. -1.
          2   -1    0    0  503    0 -0.00000000000E+00 -0.00000000000E+00 -0.28284023623E+04  0.28284023623E+04  0.00000000000E+00 0. -1.
         25    2    1    2    0    0  0.11915940349E+03  0.14305911286E+03 -0.97009115208E+03  0.99567265428E+03  0.12498927124E+03 0.  0.
         24    2    1    2    0    0 -0.32036260069E+02  0.42316009916E+02 -0.10261501759E+03  0.14210716761E+03  0.82750459789E+02 0.  0.
         24    2    1    2    0    0  0.95663671109E+02 -0.91920139772E+01 -0.28650216005E+02  0.13041212620E+03  0.83369399019E+02 0.  0.
        -11    1    5    5    0    0 -0.49068276467E+01 -0.10055795943E+02  0.16687351175E+02  0.20091383199E+02  0.00000000000E+00 0.  1.
         12    1    5    5    0    0  0.10057049876E+03  0.86378196604E+00 -0.45337567181E+02  0.11032074300E+03  0.00000000000E+00 0. -1.
        -11    1    4    4    0    0 -0.53051209530E+02  0.26179215416E+01 -0.50275822323E+02  0.73136465980E+02  0.00000000000E+00 0.  1.
         12    1    4    4    0    0  0.21014949461E+02  0.39698088375E+02 -0.52339195267E+02  0.68970701625E+02  0.00000000000E+00 0. -1.
          5    1    3    3  501    0  0.66502371116E+02  0.12329211256E+03 -0.42166944950E+03  0.44435427873E+03  0.47000000000E+01 0. -1.
         -5    1    3    3    0  501  0.52657032373E+02  0.19767000303E+02 -0.54842170258E+03  0.55131837555E+03  0.47000000000E+01 0. -1.
          1    1    1    2  502    0 -0.11095793769E+03 -0.12614244793E+03  0.19846937324E+03  0.26002629333E+03  0.00000000000E+00 0. -1.
          1    1    1    2  503    0 -0.71828876841E+02 -0.50040660875E+02 -0.16116618604E+04  0.16140376104E+04  0.00000000000E+00 0. -1.
<mgrwt>
<rscale>  0 0.10682839E+03</rscale>
<asrwt>0</asrwt>
<pdfrwt beam="1">  1        2 0.46154922E-01 0.13036502E+03</pdfrwt>
<pdfrwt beam="2">  1        2 0.41594155E+00 0.87541163E+02</pdfrwt>
<totfact> 0.61371977E+01</totfact>
</mgrwt>
</event>
<event>
13    1  0.3019759E-008  0.1546046E+03  0.7546771E-02  0.1401500E+00
         -3   -1    0    0    0  501 -0.00000000000E+00  0.00000000000E+00  0.11149886896E+04  0.11149886896E+04  0.00000000000E+00 0.  1.
          2   -1    0    0  503    0  0.00000000000E+00 -0.00000000000E+00 -0.17535457369E+04  0.17535457369E+04  0.00000000000E+00 0. -1.
         25    2    1    2    0    0  0.40291073894E+02  0.12052641264E+03  0.18314133309E+03  0.25557154228E+03  0.12500431415E+03 0.  0.
         24    2    1    2    0    0  0.11066477193E+03 -0.11828209195E+03 -0.13289470205E+03  0.22018826959E+03  0.67709136796E+02 0.  0.
         24    2    1    2    0    0 -0.18222971068E+02  0.92938624485E+02 -0.80341607993E+02  0.14686961573E+03  0.78397993945E+02 0.  0.
        -11    1    5    5    0    0 -0.30127202072E+02  0.15631403956E+02  0.10882635292E+01  0.33958407086E+02  0.00000000000E+00 0.  1.
         12    1    5    5    0    0  0.11904231004E+02  0.77307220529E+02 -0.81429871522E+02  0.11291120865E+03  0.00000000000E+00 0. -1.
        -11    1    4    4    0    0 -0.53864623162E+01 -0.27635838511E+02 -0.18079381879E+02  0.33460687315E+02  0.00000000000E+00 0.  1.
         12    1    4    4    0    0  0.11605123425E+03 -0.90646253443E+02 -0.11481532017E+03  0.18672758227E+03  0.00000000000E+00 0. -1.
          5    1    3    3  502    0  0.53421798038E+02  0.12763568419E+03  0.99532075666E+02  0.17050947326E+03  0.47000000000E+01 0. -1.
         -5    1    3    3    0  502 -0.13130724144E+02 -0.71092715485E+01  0.83609257425E+02  0.85062069018E+02  0.47000000000E+01 0. -1.
          1    1    1    2  503    0 -0.13669534491E+03 -0.72914436814E+02 -0.14228215922E+04  0.14312314333E+04  0.00000000000E+00 0. -1.
         -4    1    1    2    0  501  0.39624701512E+01 -0.22268508361E+02  0.81435952182E+03  0.81467356556E+03  0.00000000000E+00 0.  1.
<mgrwt>
<rscale>  0 0.59134547E+02</rscale>
<asrwt>0</asrwt>
<pdfrwt beam="2">  1        2 0.25787437E+00 0.15460464E+03</pdfrwt>
<pdfrwt beam="1">  1       -3 0.16396893E+00 0.22618303E+02</pdfrwt>
<totfact> 0.19766542E+00</totfact>
</mgrwt>
</event>
<event>
13    1  0.3019759E-008  0.1521968E+03  0.7546771E-02  0.1251351E+00
         -1   -1    0    0    0  501 -0.00000000000E+00  0.00000000000E+00  0.13121674979E+04  0.13121674979E+04  0.00000000000E+00 0.  1.
          2   -1    0    0  503    0  0.00000000000E+00 -0.00000000000E+00 -0.19560743413E+04  0.19560743413E+04  0.00000000000E+00 0. -1.
         25    2    1    2    0    0 -0.41781241746E+03 -0.10150924994E+03  0.50232538213E+03  0.67292378119E+03  0.12499712700E+03 0.  0.
         24    2    1    2    0    0 -0.75031121399E+02 -0.38486266653E+03 -0.24554411546E+03  0.46827550258E+03  0.72395389396E+02 0.  0.
         24    2    1    2    0    0  0.57690133997E+03  0.64462010617E+03 -0.85649422201E+03  0.12197327910E+04  0.76259371428E+02 0.  0.
        -11    1    5    5    0    0  0.20101270764E+03  0.27522110460E+03 -0.35857637361E+03  0.49470170887E+03  0.00000000000E+00 0.  1.
         12    1    5    5    0    0  0.37588863233E+03  0.36939900157E+03 -0.49791784841E+03  0.72503108212E+03  0.00000000000E+00 0. -1.
        -13    1    4    4    0    0 -0.89310736204E+01 -0.21460595885E+03 -0.11376659210E+03  0.24306031994E+03  0.00000000000E+00 0.  1.
         14    1    4    4    0    0 -0.66100047779E+02 -0.17025670768E+03 -0.13177752337E+03  0.22521518264E+03  0.00000000000E+00 0. -1.
          5    1    3    3  502    0 -0.29413217023E+03 -0.12751140308E+03  0.34320158188E+03  0.46966190742E+03  0.47000000000E+01 0. -1.
         -5    1    3    3    0  502 -0.12368024723E+03  0.26002153140E+02  0.15912380025E+03  0.20326187377E+03  0.47000000000E+01 0. -1.
          1    1    1    2  503    0  0.28185375273E+01 -0.15210362866E+03 -0.45895079482E+03  0.48350728027E+03  0.00000000000E+00 0. -1.
         -2    1    1    2    0  501 -0.86876338634E+02 -0.61445610362E+01  0.41475690677E+03  0.42380248413E+03  0.00000000000E+00 0.  1.
<mgrwt>
<rscale>  0 0.11513179E+03</rscale>
<asrwt>0</asrwt>
<pdfrwt beam="2">  1        2 0.28765799E+00 0.15219679E+03</pdfrwt>
<pdfrwt beam="1">  1       -1 0.19296581E+00 0.87093363E+02</pdfrwt>
<totfact> 0.21798605E+00</totfact>
</mgrwt>
</event>
<event>
13    1  0.3019759E-008  0.2462412E+03  0.7546771E-02  0.1223011E+00
          2   -1    0    0  503    0  0.00000000000E+00  0.00000000000E+00  0.20085721854E+04  0.20085721854E+04  0.00000000000E+00 0. -1.
          2   -1    0    0  502    0 -0.00000000000E+00 -0.00000000000E+00 -0.16779590623E+04  0.16779590623E+04  0.00000000000E+00 0. -1.
         25    2    1    2    0    0  0.33025234262E+03 -0.20915601634E+03 -0.51369024312E+03  0.65750625365E+03  0.12499583488E+03 0.  0.
         24    2    1    2    0    0 -0.72466588869E+02 -0.60514332140E+01  0.51012123781E+02  0.12141691008E+03  0.82775617995E+02 0.  0.
         24    2    1    2    0    0 -0.54270578605E+02  0.39804925789E+01  0.28926209279E+03  0.30489190729E+03  0.79532237401E+02 0.  0.
        -11    1    5    5    0    0  0.12480671538E+02  0.21532884136E+02  0.11049684466E+03  0.11326510911E+03  0.00000000000E+00 0.  1.
         12    1    5    5    0    0 -0.66751250142E+02 -0.17552391557E+02  0.17876524812E+03  0.19162679818E+03  0.00000000000E+00 0. -1.
        -13    1    4    4    0    0 -0.28178045211E+01  0.26549757302E+02 -0.38179634161E+01  0.26970474222E+02  0.00000000000E+00 0.  1.
         14    1    4    4    0    0 -0.69648784348E+02 -0.32601190516E+02  0.54830087197E+02  0.94446435858E+02  0.00000000000E+00 0. -1.
          5    1    3    3  501    0  0.84061597769E+02 -0.11375692594E+03 -0.13312581464E+03  0.19429761435E+03  0.47000000000E+01 0.  1.
         -5    1    3    3    0  501  0.24619074485E+03 -0.95399090403E+02 -0.38056442848E+03  0.46320863930E+03  0.47000000000E+01 0.  1.
          1    1    1    2  502    0 -0.16433555570E+03  0.15096255326E+03 -0.10366324990E+04  0.10603786142E+04  0.00000000000E+00 0. -1.
          1    1    1    2  503    0 -0.39179619445E+02  0.60264403715E+02  0.15406616487E+04  0.15423375625E+04  0.00000000000E+00 0. -1.
<mgrwt>
<rscale>  0 0.13304134E+03</rscale>
<asrwt>0</asrwt>
<pdfrwt beam="1">  1        2 0.29537826E+00 0.71880741E+02</pdfrwt>
<pdfrwt beam="2">  1        2 0.24675868E+00 0.24624116E+03</pdfrwt>
<totfact> 0.17798960E+01</totfact>
</mgrwt>
</event>
<event>
13    1  0.3019759E-008  0.1118097E+03  0.7546771E-02  0.1272893E+00
          2   -1    0    0  503    0  0.00000000000E+00  0.00000000000E+00  0.38494339981E+04  0.38494339981E+04  0.00000000000E+00 0. -1.
          2   -1    0    0  502    0 -0.00000000000E+00 -0.00000000000E+00 -0.32345262683E+04  0.32345262683E+04  0.00000000000E+00 0. -1.
         25    2    1    2    0    0  0.11289516445E+03  0.98963183508E+02  0.13488553159E+03  0.23739981924E+03  0.12500215076E+03 0.  0.
         24    2    1    2    0    0 -0.68466129278E+02  0.20070967619E+02  0.31070832033E+03  0.32937197960E+03  0.82799674059E+02 0.  0.
         24    2    1    2    0    0 -0.21850227673E+02  0.70436241927E+02  0.32267321969E+03  0.34150343948E+03  0.84070778800E+02 0.  0.
        -13    1    5    5    0    0 -0.18478636462E+02 -0.11601529966E+02  0.27394343357E+02  0.35021501267E+02  0.00000000000E+00 0.  1.
         14    1    5    5    0    0 -0.33715912104E+01  0.82037771893E+02  0.29527887633E+03  0.30648193821E+03  0.00000000000E+00 0. -1.
        -13    1    4    4    0    0 -0.22224401395E+01 -0.25642618261E+02  0.11329601367E+03  0.11618291537E+03  0.00000000000E+00 0.  1.
         14    1    4    4    0    0 -0.66243689139E+02  0.45713585880E+02  0.19741230666E+03  0.21318906423E+03  0.00000000000E+00 0. -1.
          5    1    3    3  501    0  0.13535441195E+03  0.10262652708E+03  0.10579845220E+03  0.20017098537E+03  0.47000000000E+01 0.  1.
         -5    1    3    3    0  501 -0.22459247495E+02 -0.36633435698E+01  0.29087079384E+02  0.37228833869E+02  0.47000000000E+01 0.  1.
          1    1    1    2  502    0  0.29702888838E+02 -0.91291821374E+02 -0.31627663800E+04  0.31642230693E+04  0.00000000000E+00 0. -1.
          1    1    1    2  503    0 -0.52281696342E+02 -0.98178571680E+02  0.30094070381E+04  0.30114619587E+04  0.00000000000E+00 0. -1.
<mgrwt>
<rscale>  0 0.10360500E+03</rscale>
<asrwt>0</asrwt>
<pdfrwt beam="1">  1        2 0.56609324E+00 0.11180967E+03</pdfrwt>
<pdfrwt beam="2">  1        2 0.47566563E+00 0.96002387E+02</pdfrwt>
<totfact> 0.30671063E-01</totfact>
</mgrwt>
</event>
<event>
13    1  0.3019759E-008  0.1216167E+03  0.7546771E-02  0.1429182E+00
          2   -1    0    0  502    0  0.00000000000E+00  0.00000000000E+00  0.55875908630E+03  0.55875908630E+03  0.00000000000E+00 0. -1.
          2   -1    0    0  503    0 -0.00000000000E+00 -0.00000000000E+00 -0.27508547269E+04  0.27508547269E+04  0.00000000000E+00 0. -1.
         25    2    1    2    0    0  0.42148411149E+02 -0.22159865152E+03 -0.53854339027E+03  0.59710649807E+03  0.12499894368E+03 0.  0.
         24    2    1    2    0    0 -0.81596455548E+02  0.40985239501E+01 -0.30253426732E+03  0.32308783268E+03  0.78638319311E+02 0.  0.
         24    2    1    2    0    0 -0.35738204706E+02  0.33543616346E+03 -0.53283323261E+03  0.63555281846E+03  0.78876436533E+02 0.  0.
        -11    1    4    4    0    0 -0.67555437978E+02  0.35942746844E+02 -0.17731780978E+03  0.19312489201E+03  0.00000000000E+00 0.  1.
         12    1    4    4    0    0 -0.14041017570E+02 -0.31844222894E+02 -0.12521645754E+03  0.12996294066E+03  0.00000000000E+00 0. -1.
        -13    1    5    5    0    0  0.19019819422E+02  0.26691974894E+02 -0.54919587774E+02  0.63956048783E+02  0.00000000000E+00 0.  1.
         14    1    5    5    0    0 -0.54758024128E+02  0.30874418857E+03 -0.47791364484E+03  0.57159676968E+03  0.00000000000E+00 0. -1.
          5    1    3    3  501    0  0.49019823867E+02 -0.23492238810E+03 -0.48255172214E+03  0.53895243399E+03  0.47000000000E+01 0.  1.
         -5    1    3    3    0  501 -0.68714127183E+01  0.13323736585E+02 -0.55991668131E+02  0.58154064084E+02  0.47000000000E+01 0.  1.
          1    1    1    2  502    0  0.53639988794E+02 -0.10931815656E+03  0.45981036181E+03  0.47566088401E+03  0.00000000000E+00 0. -1.
          1    1    1    2  503    0  0.21546260311E+02 -0.86178793322E+01 -0.12779951122E+04  0.12782057800E+04  0.00000000000E+00 0. -1.
<mgrwt>
<rscale>  0 0.53124495E+02</rscale>
<asrwt>0</asrwt>
<pdfrwt beam="1">  1        2 0.82170454E-01 0.12161666E+03</pdfrwt>
<pdfrwt beam="2">  1        2 0.40453746E+00 0.23205801E+02</pdfrwt>
<totfact> 0.44756142E+01</totfact>
</mgrwt>
</event>
<event>
13    1  0.3019759E-008  0.4232468E+02  0.7546771E-02  0.1532414E+00
          2   -1    0    0  502    0  0.00000000000E+00  0.00000000000E+00  0.12715368740E+04  0.12715368740E+04  0.00000000000E+00 0. -1.
          2   -1    0    0  503    0 -0.00000000000E+00 -0.00000000000E+00 -0.29249619994E+04  0.29249619994E+04  0.00000000000E+00 0. -1.
         25    2    1    2    0    0  0.35118505903E+03 -0.24182006390E+03 -0.53059797739E+03  0.69207419570E+03  0.12499835899E+03 0.  0.
         24    2    1    2    0    0 -0.58122704780E+03  0.21908952480E+02 -0.41404242405E+03  0.72009735758E+03  0.93830656955E+02 0.  0.
         24    2    1    2    0    0  0.20780431085E+03  0.26909535813E+03  0.56175882823E+02  0.35404970327E+03  0.81243579450E+02 0.  0.
        -11    1    4    4    0    0 -0.10125023413E+03 -0.49727441363E+01 -0.32804215644E+02  0.10654789843E+03  0.00000000000E+00 0.  1.
         12    1    4    4    0    0 -0.47997681367E+03  0.26881696616E+02 -0.38123820840E+03  0.61354945915E+03  0.00000000000E+00 0. -1.
        -13    1    5    5    0    0  0.15259496584E+03  0.18504592694E+03  0.20691562114E+01  0.23985724938E+03  0.00000000000E+00 0.  1.
         14    1    5    5    0    0  0.55209345016E+02  0.84049431193E+02  0.54106726611E+02  0.11419245389E+03  0.00000000000E+00 0. -1.
          5    1    3    3  501    0  0.44022021196E+02 -0.92909082091E+02 -0.12618966808E+03  0.16283721385E+03  0.47000000000E+01 0.  1.
         -5    1    3    3    0  501  0.30716303783E+03 -0.14891098181E+03 -0.40440830931E+03  0.52923698184E+03  0.47000000000E+01 0.  1.
          1    1    1    2  502    0 -0.89540025193E+01 -0.41366272527E+02  0.83195869784E+03  0.83303458366E+03  0.00000000000E+00 0. -1.
          1    1    1    2  503    0  0.31191680442E+02 -0.78179741804E+01 -0.15969193046E+04  0.15972430332E+04  0.00000000000E+00 0. -1.
<mgrwt>
<rscale>  0 0.36891928E+02</rscale>
<asrwt>0</asrwt>
<pdfrwt beam="1">  1        2 0.18699072E+00 0.42324680E+02</pdfrwt>
<pdfrwt beam="2">  1        2 0.43014147E+00 0.32156518E+02</pdfrwt>
<totfact> 0.13149161E+01</totfact>
</mgrwt>
</event>
<event>
13    1  0.3019759E-008  0.1555034E+03  0.7546771E-02  0.1313435E+00
          2   -1    0    0  503    0  0.00000000000E+00  0.00000000000E+00  0.31610347844E+04  0.31610347844E+04  0.00000000000E+00 0. -1.
          2   -1    0    0  502    0 -0.00000000000E+00 -0.00000000000E+00 -0.19191204156E+04  0.19191204156E+04  0.00000000000E+00 0. -1.
         25    2    1    2    0    0 -0.13650429674E+03 -0.89833277767E+02 -0.43550190349E+03  0.48165346424E+03  0.12499884337E+03 0.  0.
         24    2    1    2    0    0  0.90986831887E+02  0.12554595905E+02 -0.20815610506E+03  0.24249543864E+03  0.83897867879E+02 0.  0.
         24    2    1    2    0    0 -0.51836599082E+02 -0.98727332184E+02  0.89222168526E+03  0.90263921523E+03  0.79144792009E+02 0.  0.
        -11    1    5    5    0    0 -0.15613581785E+02 -0.41738706148E+02  0.12987542377E+03  0.13730815426E+03  0.00000000000E+00 0.  1.
         12    1    5    5    0    0 -0.36223017297E+02 -0.56988626036E+02  0.76234626149E+03  0.76533106097E+03  0.00000000000E+00 0. -1.
        -11    1    4    4    0    0  0.84089682912E+02  0.12484053395E+02 -0.21595434186E+03  0.23208447627E+03  0.00000000000E+00 0.  1.
         12    1    4    4    0    0  0.68971489749E+01  0.70542509211E-01  0.77982367993E+01  0.10410962367E+02  0.00000000000E+00 0. -1.
          5    1    3    3  501    0 -0.43746413540E+02 -0.10209581869E+03 -0.25838219539E+03  0.28128411577E+03  0.47000000000E+01 0. -1.
         -5    1    3    3    0  501 -0.92757883205E+02  0.12262540925E+02 -0.17711970810E+03  0.20036934847E+03  0.47000000000E+01 0. -1.
          1    1    1    2  502    0  0.12529308802E+03  0.13783215456E+03 -0.12227023212E+04  0.12368092121E+04  0.00000000000E+00 0. -1.
          1    1    1    2  503    0 -0.27939024085E+02  0.38173859483E+02  0.22160530133E+04  0.22165578698E+04  0.00000000000E+00 0. -1.
<mgrwt>
<rscale>  0 0.85768320E+02</rscale>
<asrwt>0</asrwt>
<pdfrwt beam="1">  1        2 0.46485806E+00 0.47305736E+02</pdfrwt>
<pdfrwt beam="2">  1        2 0.28222359E+00 0.15550344E+03</pdfrwt>
<totfact> 0.40242170E+00</totfact>
</mgrwt>
</event>
<event>
13    1  0.3019759E-008  0.5463745E+02  0.7546771E-02  0.1635270E+00
          4   -1    0    0  503    0 -0.00000000000E+00  0.00000000000E+00  0.45683258443E+03  0.45683258443E+03  0.00000000000E+00 0. -1.
          2   -1    0    0  502    0  0.00000000000E+00 -0.00000000000E+00 -0.16706031422E+04  0.16706031422E+04  0.00000000000E+00 0. -1.
         25    2    1    2    0    0  0.41519447227E+02  0.59913697662E+02  0.12627845254E+02  0.14525229020E+03  0.12500099867E+03 0.  0.
         24    2    1    2    0    0 -0.31621342612E+02  0.26106384205E+02 -0.31057552588E+03  0.32319023399E+03  0.79456387209E+02 0.  0.
         24    2    1    2    0    0 -0.36220798966E+02 -0.52703139064E+02 -0.37932192205E+03  0.39194133144E+03  0.75122031376E+02 0.  0.
        -13    1    5    5    0    0 -0.41778625650E+02  0.26228618526E+01 -0.19360931989E+03  0.19808306771E+03  0.00000000000E+00 0.  1.
         14    1    5    5    0    0  0.55578266839E+01 -0.55326000917E+02 -0.18571260216E+03  0.19385826373E+03  0.00000000000E+00 0. -1.
        -13    1    4    4    0    0 -0.55485534548E+02  0.14434957776E+02 -0.15296095900E+03  0.16335258653E+03  0.00000000000E+00 0.  1.
         14    1    4    4    0    0  0.23864191936E+02  0.11671426429E+02 -0.15761456688E+03  0.15983764746E+03  0.00000000000E+00 0. -1.
          5    1    3    3  501    0 -0.32791665307E+02 -0.13760455712E+02  0.18459717561E+02  0.40342218921E+02  0.47000000000E+01 0. -1.
         -5    1    3    3    0  501  0.74311112534E+02  0.73674153374E+02 -0.58318723070E+01  0.10491007128E+03  0.47000000000E+01 0. -1.
          1    1    1    2  502    0 -0.28441682550E+01  0.12923252002E+02 -0.89968186557E+03  0.89977917233E+03  0.00000000000E+00 0. -1.
          3    1    1    2  503    0  0.29166862606E+02 -0.46240194805E+02  0.36318091045E+03  0.36727269869E+03  0.00000000000E+00 0. -1.
<mgrwt>
<rscale>  0 0.26888499E+02</rscale>
<asrwt>0</asrwt>
<pdfrwt beam="2">  1        2 0.24567693E+00 0.13232526E+02</pdfrwt>
<pdfrwt beam="1">  1        4 0.67181263E-01 0.54637446E+02</pdfrwt>
<totfact> 0.16237701E+01</totfact>
</mgrwt>
</event>
<event>
13    1  0.3019759E-008  0.1786988E+03  0.7546771E-02  0.1286464E+00
          2   -1    0    0  502    0  0.00000000000E+00  0.00000000000E+00  0.10384577874E+04  0.10384577874E+04  0.00000000000E+00 0. -1.
          2   -1    0    0  503    0 -0.00000000000E+00 -0.00000000000E+00 -0.26245572907E+04  0.26245572907E+04  0.00000000000E+00 0. -1.
         25    2    1    2    0    0  0.27623570819E+02 -0.36367242463E+02 -0.50870930072E+03  0.52582553825E+03  0.12498682346E+03 0.  0.
         24    2    1    2    0    0  0.52063592711E+01 -0.10705307026E+03  0.22729209751E+03  0.26518648737E+03  0.84703656708E+02 0.  0.
         24    2    1    2    0    0 -0.73064114171E+02  0.35063564935E+01  0.18393646524E+03  0.21330943295E+03  0.79483530524E+02 0.  0.
        -13    1    4    4    0    0  0.29182356393E+02 -0.72691520007E+02  0.20099341512E+03  0.21571745393E+03  0.00000000000E+00 0.  1.
         14    1    4    4    0    0 -0.23975997122E+02 -0.34361550257E+02  0.26298682391E+02  0.49469033441E+02  0.00000000000E+00 0. -1.
        -13    1    5    5    0    0 -0.64460618880E+02 -0.21460694554E+02  0.17079698368E+03  0.18381333583E+03  0.00000000000E+00 0.  1.
         14    1    5    5    0    0 -0.86034952905E+01  0.24967051048E+02  0.13139481561E+02  0.29496097113E+02  0.00000000000E+00 0. -1.
          5    1    3    3  501    0 -0.10302639873E+01 -0.80042024378E+02 -0.32800521997E+03  0.33766448057E+03  0.47000000000E+01 0.  1.
         -5    1    3    3    0  501  0.28653834807E+02  0.43674781915E+02 -0.18070408075E+03  0.18816105767E+03  0.47000000000E+01 0.  1.
          1    1    1    2  502    0  0.34634176827E+02 -0.39836104460E+02  0.57993738288E+03  0.58233479158E+03  0.00000000000E+00 0. -1.
          1    1    1    2  503    0  0.56000072531E+01  0.17975006069E+03 -0.20685561482E+04  0.20763588280E+04  0.00000000000E+00 0. -1.
<mgrwt>
<rscale>  0 0.97123270E+02</rscale>
<asrwt>0</asrwt>
<pdfrwt beam="1">  1        2 0.15271438E+00 0.52786754E+02</pdfrwt>
<pdfrwt beam="2">  1        2 0.38596430E+00 0.17869880E+03</pdfrwt>
<totfact> 0.18856656E+01</totfact>
</mgrwt>
</event>
<event>
13    1  0.3019759E-008  0.5151137E+02  0.7546771E-02  0.1533327E+00
          2   -1    0    0  503    0  0.00000000000E+00  0.00000000000E+00  0.39434675751E+04  0.39434675751E+04  0.00000000000E+00 0. -1.
          2   -1    0    0  502    0 -0.00000000000E+00 -0.00000000000E+00 -0.18034747192E+04  0.18034747192E+04  0.00000000000E+00 0. -1.
         25    2    1    2    0    0 -0.86605824741E+02  0.57995131825E+01  0.32332492950E+02  0.15557531830E+03  0.12499634528E+03 0.  0.
         24    2    1    2    0    0  0.94633531524E+03  0.51291105123E+02 -0.76535379799E+02  0.95435394574E+03  0.82173493615E+02 0.  0.
         24    2    1    2    0    0 -0.89643980016E+03 -0.25457472171E+02  0.91727603876E+03  0.12859957127E+04  0.90206671563E+02 0.  0.
        -11    1    5    5    0    0 -0.78797735994E+03 -0.45050816361E+02  0.83049833437E+03  0.11457160989E+04  0.00000000000E+00 0.  1.
         12    1    5    5    0    0 -0.10846244021E+03  0.19593344190E+02  0.86777704392E+02  0.14027961382E+03  0.00000000000E+00 0. -1.
        -13    1    4    4    0    0  0.56082498563E+03  0.66917064745E+02 -0.62785575466E+02  0.56828213639E+03  0.00000000000E+00 0.  1.
         14    1    4    4    0    0  0.38551032961E+03 -0.15625959623E+02 -0.13749804333E+02  0.38607180935E+03  0.00000000000E+00 0. -1.
          5    1    3    3  501    0 -0.26698879589E+02  0.63144056656E+02  0.20249162336E+02  0.71638820744E+02  0.47000000000E+01 0. -1.
         -5    1    3    3    0  501 -0.59906945151E+02 -0.57344543474E+02  0.12083330614E+02  0.83936497558E+02  0.47000000000E+01 0. -1.
          1    1    1    2  502    0 -0.13944108105E+02 -0.22256248724E+02 -0.10415959187E+04  0.10419269824E+04  0.00000000000E+00 0. -1.
          1    1    1    2  503    0  0.50654417765E+02 -0.93768974099E+01  0.23085156226E+04  0.23090903352E+04  0.00000000000E+00 0. -1.
<mgrwt>
<rscale>  0 0.36781462E+02</rscale>
<asrwt>0</asrwt>
<pdfrwt beam="1">  1        2 0.57992170E+00 0.51511366E+02</pdfrwt>
<pdfrwt beam="2">  1        2 0.26521687E+00 0.26263639E+02</pdfrwt>
<totfact> 0.18841589E+00</totfact>
</mgrwt>
</event>
<event>
13    1  0.3019759E-008  0.1144350E+03  0.7546771E-02  0.1258663E+00
          2   -1    0    0  503    0  0.00000000000E+00  0.00000000000E+00  0.11678292792E+04  0.11678292792E+04  0.00000000000E+00 0. -1.
          2   -1    0    0  502    0 -0.00000000000E+00 -0.00000000000E+00 -0.65579619617E+03  0.65579619617E+03  0.00000000000E+00 0. -1.
         25    2    1    2    0    0  0.26347994334E+03 -0.13868491693E+01 -0.20029452370E+03  0.35378728044E+03  0.12499575867E+03 0.  0.
         24    2    1    2    0    0 -0.53156899008E+01  0.43532659432E+02  0.76678235831E+02  0.11848677517E+03  0.78969709656E+02 0.  0.
         24    2    1    2    0    0  0.23221592440E+02  0.29876340116E+02  0.11559224706E+03  0.14623618185E+03  0.81188763068E+02 0.  0.
        -11    1    5    5    0    0  0.32280763672E+02 -0.18899873337E+02  0.32963287755E+02  0.49858111226E+02  0.00000000000E+00 0.  1.
         12    1    5    5    0    0 -0.90591712318E+01  0.48776213452E+02  0.82628959301E+02  0.96378070624E+02  0.00000000000E+00 0. -1.
        -13    1    4    4    0    0 -0.27117112753E+02  0.49545170637E+02  0.77451543441E+02  0.95858245962E+02  0.00000000000E+00 0.  1.
         14    1    4    4    0    0  0.21801422852E+02 -0.60125112047E+01 -0.77330761041E+00  0.22628529206E+02  0.00000000000E+00 0. -1.
          5    1    3    3  501    0  0.26483080685E+02  0.42194493820E+02 -0.43080387505E+02  0.66028317099E+02  0.47000000000E+01 0. -1.
         -5    1    3    3    0  501  0.23699686265E+03 -0.43581342990E+02 -0.15721413619E+03  0.28775896334E+03  0.47000000000E+01 0. -1.
          1    1    1    2  502    0 -0.12523958389E+03 -0.29382411754E+02 -0.32246941474E+03  0.34718122491E+03  0.00000000000E+00 0. -1.
          1    1    1    2  503    0 -0.15614626199E+03 -0.42639738625E+02  0.84252653853E+03  0.85793401295E+03  0.00000000000E+00 0. -1.
<mgrwt>
<rscale>  0 0.11103624E+03</rscale>
<asrwt>0</asrwt>
<pdfrwt beam="1">  1        2 0.17173960E+00 0.11443503E+03</pdfrwt>
<pdfrwt beam="2">  1        2 0.96440617E-01 0.10773839E+03</pdfrwt>
<totfact> 0.17950088E+02</totfact>
</mgrwt>
</event>
<event>
13    1  0.3019759E-008  0.8091296E+02  0.7546771E-02  0.1549141E+00
          2   -1    0    0  502    0  0.00000000000E+00  0.00000000000E+00  0.33549943580E+04  0.33549943580E+04  0.00000000000E+00 0. -1.
          2   -1    0    0  503    0 -0.00000000000E+00 -0.00000000000E+00 -0.61665643407E+03  0.61665643407E+03  0.00000000000E+00 0. -1.
         25    2    1    2    0    0 -0.23154165871E+03 -0.28755593443E+02 -0.12980840948E+03  0.29477070484E+03  0.12490444904E+03 0.  0.
         24    2    1    2    0    0  0.66406253175E+02  0.10827874735E+02  0.48805756627E+02  0.11650745199E+03  0.81639152117E+02 0.  0.
         24    2    1    2    0    0  0.90460844807E+02  0.15163270424E+02  0.34375192304E+03  0.36486583511E+03  0.80923444227E+02 0.  0.
        -11    1    5    5    0    0  0.82135309502E+02  0.34164934296E+02  0.32481748401E+03  0.33677863608E+03  0.00000000000E+00 0.  1.
         12    1    5    5    0    0  0.83255353045E+01 -0.19001663872E+02  0.18934439030E+02  0.28087199031E+02  0.00000000000E+00 0. -1.
        -11    1    4    4    0    0  0.80467013750E+02  0.26058083122E+02  0.43496398705E+02  0.95109940060E+02  0.00000000000E+00 0.  1.
         12    1    4    4    0    0 -0.14060760575E+02 -0.15230208387E+02  0.53093579214E+01  0.21397511935E+02  0.00000000000E+00 0. -1.
          5    1    3    3  501    0 -0.21421910965E+03 -0.64146544285E+02 -0.12029617211E+03  0.25396429889E+03  0.47000000000E+01 0. -1.
         -5    1    3    3    0  501 -0.17322549054E+02  0.35390950842E+02 -0.95122373659E+01  0.40806405955E+02  0.47000000000E+01 0. -1.
          1    1    1    2  502    0  0.79082028139E+02  0.17193532149E+02  0.28348118971E+04  0.28359668681E+04  0.00000000000E+00 0. -1.
          1    1    1    2  503    0 -0.44074674132E+01 -0.14429083865E+02 -0.35922324332E+03  0.35953993210E+03  0.00000000000E+00 0. -1.
<mgrwt>
<rscale>  0 0.34939258E+02</rscale>
<asrwt>0</asrwt>
<pdfrwt beam="1">  1        2 0.49338152E+00 0.80912962E+02</pdfrwt>
<pdfrwt beam="2">  1        2 0.90684771E-01 0.15087221E+02</pdfrwt>
<totfact> 0.16263733E+01</totfact>
</mgrwt>
</event>
<event>
13    1  0.3019759E-008  0.5847620E+02  0.7546771E-02  0.1601739E+00
          2   -1    0    0  503    0  0.00000000000E+00  0.00000000000E+00  0.19097298587E+04  0.19097298587E+04  0.00000000000E+00 0. -1.
          2   -1    0    0  502    0 -0.00000000000E+00 -0.00000000000E+00 -0.17487289201E+04  0.17487289201E+04  0.00000000000E+00 0. -1.
         25    2    1    2    0    0  0.12888835953E+03  0.13208797087E+03 -0.50584468784E+03  0.55277712252E+03  0.12499703074E+03 0.  0.
         24    2    1    2    0    0 -0.62875325551E+02 -0.21256176889E+03  0.52147032847E+03  0.57231169671E+03  0.80458452350E+02 0.  0.
         24    2    1    2    0    0  0.16541280118E+01  0.10413983387E+03  0.55442059354E+03  0.56989744637E+03  0.80950995667E+02 0.  0.
        -11    1    5    5    0    0 -0.16379940676E+02  0.90422214248E+02  0.52383019209E+03  0.53182943641E+03  0.00000000000E+00 0.  1.
         12    1    5    5    0    0  0.18034068688E+02  0.13717619621E+02  0.30590401451E+02  0.38068009962E+02  0.00000000000E+00 0. -1.
        -13    1    4    4    0    0 -0.36796958996E+02 -0.70714916666E+02  0.10675512414E+03  0.13323390019E+03  0.00000000000E+00 0.  1.
         14    1    4    4    0    0 -0.26078366554E+02 -0.14184685222E+03  0.41471520433E+03  0.43907779651E+03  0.00000000000E+00 0. -1.
          5    1    3    3  501    0  0.13840787711E+03  0.90535203620E+02 -0.30086368256E+03  0.34335755274E+03  0.47000000000E+01 0.  1.
         -5    1    3    3    0  501 -0.95195175787E+01  0.41552767252E+02 -0.20498100529E+03  0.20941956979E+03  0.47000000000E+01 0.  1.
          1    1    1    2  502    0 -0.10695640401E+02 -0.10597205966E+02 -0.11851120433E+04  0.11852076833E+04  0.00000000000E+00 0. -1.
          1    1    1    2  503    0 -0.56971521587E+02 -0.13068829886E+02  0.77606674773E+03  0.77826482994E+03  0.00000000000E+00 0. -1.
<mgrwt>
<rscale>  0 0.29672303E+02</rscale>
<asrwt>0</asrwt>
<pdfrwt beam="1">  1        2 0.28084263E+00 0.58476202E+02</pdfrwt>
<pdfrwt beam="2">  1        2 0.25716602E+00 0.15056477E+02</pdfrwt>
<totfact> 0.24445553E+01</totfact>
</mgrwt>
</event>
<event>
13    1  0.3019759E-008  0.8267599E+02  0.7546771E-02  0.1321747E+00
          2   -1    0    0  502    0  0.00000000000E+00  0.00000000000E+00  0.12537741209E+04  0.12537741209E+04  0.00000000000E+00 0. -1.
          2   -1    0    0  503    0 -0.00000000000E+00 -0.00000000000E+00 -0.26768885826E+04  0.26768885826E+04  0.00000000000E+00 0. -1.
         25    2    1    2    0    0  0.12578835994E+03 -0.37968350389E+02 -0.37894604204E+03  0.42010791434E+03  0.12500499903E+03 0.  0.
         24    2    1    2    0    0 -0.10820228749E+03  0.67496283479E+02  0.24753076687E+03  0.29013385421E+03  0.81502696325E+02 0.  0.
         24    2    1    2    0    0  0.12044589421E+02  0.17759038366E+01  0.31447165721E+03  0.32457343451E+03  0.79418292817E+02 0.  0.
        -11    1    4    4    0    0 -0.20123680643E+02 -0.16343876327E+02  0.72599252758E+02  0.77089145261E+02  0.00000000000E+00 0.  1.
         12    1    4    4    0    0 -0.88078606850E+02  0.83840159806E+02  0.17493151411E+03  0.21304470895E+03  0.00000000000E+00 0. -1.
        -11    1    5    5    0    0  0.26419062863E+02  0.34742966659E+02  0.19392840025E+03  0.19877943817E+03  0.00000000000E+00 0.  1.
         12    1    5    5    0    0 -0.14374473442E+02 -0.32967062822E+02  0.12054325696E+03  0.12579399635E+03  0.00000000000E+00 0. -1.
          5    1    3    3  501    0  0.70241489194E+02 -0.37502305921E+02 -0.34659216265E+03  0.35565222755E+03  0.47000000000E+01 0. -1.
         -5    1    3    3    0  501  0.55546870747E+02 -0.46604446802E+00 -0.32353879393E+02  0.64455686786E+02  0.47000000000E+01 0. -1.
          1    1    1    2  502    0 -0.90218642492E+02  0.24940193441E+02  0.64067739597E+03  0.64747891272E+03  0.00000000000E+00 0. -1.
          1    1    1    2  503    0  0.60587980622E+02 -0.56244030368E+02 -0.22468482397E+04  0.22483685878E+04  0.00000000000E+00 0. -1.
<mgrwt>
<rscale>  0 0.82630823E+02</rscale>
<asrwt>0</asrwt>
<pdfrwt beam="1">  1        2 0.18437855E+00 0.82585679E+02</pdfrwt>
<pdfrwt beam="2">  1        2 0.39366008E+00 0.82675991E+02</pdfrwt>
<totfact> 0.14723919E+01</totfact>
</mgrwt>
</event>
<event>
13    1  0.3019759E-008  0.5308099E+02  0.7546771E-02  0.1541394E+00
          2   -1    0    0  502    0  0.00000000000E+00  0.00000000000E+00  0.15324112409E+04  0.15324112409E+04  0.00000000000E+00 0. -1.
          2   -1    0    0  503    0 -0.00000000000E+00 -0.00000000000E+00 -0.19306634014E+04  0.19306634014E+04  0.00000000000E+00 0. -1.
         25    2    1    2    0    0 -0.29934349378E+02 -0.64528508319E+02 -0.43199120765E+03  0.45530314729E+03  0.12499823513E+03 0.  0.
         24    2    1    2    0    0  0.21397311855E+03 -0.77455656587E+02 -0.73783471658E+03  0.77680026644E+03  0.85057102886E+02 0.  0.
         24    2    1    2    0    0 -0.23442003054E+03  0.13206590684E+03  0.83151758104E+02  0.28737707467E+03  0.57246953643E+02 0.  0.
        -13    1    5    5    0    0 -0.97149098925E+02  0.32715785518E+02  0.52514690127E+02  0.11517839521E+03  0.00000000000E+00 0.  1.
         14    1    5    5    0    0 -0.13727093161E+03  0.99350121319E+02  0.30637067977E+02  0.17219867946E+03  0.00000000000E+00 0. -1.
        -13    1    4    4    0    0  0.58725150062E+02  0.14796178982E+02 -0.14709232556E+03  0.15907143804E+03  0.00000000000E+00 0.  1.
         14    1    4    4    0    0  0.15524796849E+03 -0.92251835568E+02 -0.59074239102E+03  0.61772882840E+03  0.00000000000E+00 0. -1.
          5    1    3    3  501    0 -0.38385658426E+02  0.29770401193E+02 -0.15906431132E+03  0.16638293390E+03  0.47000000000E+01 0.  1.
         -5    1    3    3    0  501  0.84513090484E+01 -0.94298909512E+02 -0.27292689634E+03  0.28892021339E+03  0.47000000000E+01 0.  1.
          1    1    1    2  502    0  0.41919409896E+02  0.32567905956E+02  0.13152395928E+04  0.13163104086E+04  0.00000000000E+00 0. -1.
          1    1    1    2  503    0  0.84618514687E+01 -0.22649647886E+02 -0.62681758720E+03  0.62728374529E+03  0.00000000000E+00 0. -1.
<mgrwt>
<rscale>  0 0.35824979E+02</rscale>
<asrwt>0</asrwt>
<pdfrwt beam="1">  1        2 0.22535460E+00 0.53080985E+02</pdfrwt>
<pdfrwt beam="2">  1        2 0.28392109E+00 0.24178699E+02</pdfrwt>
<totfact> 0.29248332E+01</totfact>
</mgrwt>
</event>
<event>
13    1  0.3019759E-008  0.5160075E+02  0.7546771E-02  0.1477275E+00
          2   -1    0    0  502    0  0.00000000000E+00  0.00000000000E+00  0.21787556601E+04  0.21787556601E+04  0.00000000000E+00 0. -1.
          2   -1    0    0  503    0 -0.00000000000E+00 -0.00000000000E+00 -0.31525271288E+04  0.31525271288E+04  0.00000000000E+00 0. -1.
         25    2    1    2    0    0 -0.94397109761E+02  0.48692755927E+02 -0.54358988857E+03  0.56779934770E+03  0.12499733389E+03 0.  0.
         24    2    1    2    0    0  0.35269452704E+03  0.13448514411E+03 -0.15790634023E+03  0.41882931659E+03  0.89464522368E+02 0.  0.
         24    2    1    2    0    0 -0.29155719175E+03 -0.26681125247E+03  0.66767422772E+03  0.77989340454E+03  0.79063313736E+02 0.  0.
        -11    1    5    5    0    0 -0.14541363986E+03 -0.80677708924E+02  0.28407011301E+03  0.32916538166E+03  0.00000000000E+00 0.  1.
         12    1    5    5    0    0 -0.14614355189E+03 -0.18613354354E+03  0.38360411471E+03  0.45072802288E+03  0.00000000000E+00 0. -1.
        -13    1    4    4    0    0  0.69572886504E+01  0.21903760808E+02 -0.15594586295E+01  0.23034984569E+02  0.00000000000E+00 0.  1.
         14    1    4    4    0    0  0.34573723839E+03  0.11258138330E+03 -0.15634688160E+03  0.39579433202E+03  0.00000000000E+00 0. -1.
          5    1    3    3  501    0 -0.11244356339E+03  0.53551962845E+01 -0.43594511877E+03  0.45026933013E+03  0.47000000000E+01 0. -1.
         -5    1    3    3    0  501  0.18046453628E+02  0.43337559642E+02 -0.10764476980E+03  0.11753001757E+03  0.47000000000E+01 0. -1.
          1    1    1    2  502    0  0.15020621762E+02  0.35377573461E+02  0.13118287465E+04  0.13123916534E+04  0.00000000000E+00 0. -1.
          1    1    1    2  503    0  0.18239152710E+02  0.48255778975E+02 -0.22517782141E+04  0.22523690667E+04  0.00000000000E+00 0. -1.
<mgrwt>
<rscale>  0 0.44533542E+02</rscale>
<asrwt>0</asrwt>
<pdfrwt beam="1">  1        2 0.32040525E+00 0.38434253E+02</pdfrwt>
<pdfrwt beam="2">  1        2 0.46360693E+00 0.51600753E+02</pdfrwt>
<totfact> 0.35126172E+00</totfact>
</mgrwt>
</event>
<event>
13    1  0.3019759E-008  0.5147280E+02  0.7546771E-02  0.1537540E+00
          2   -1    0    0  503    0  0.00000000000E+00  0.00000000000E+00  0.18427376713E+04  0.18427376713E+04  0.00000000000E+00 0. -1.
          2   -1    0    0  502    0 -0.00000000000E+00 -0.00000000000E+00 -0.12901514000E+04  0.12901514000E+04  0.00000000000E+00 0. -1.
         25    2    1    2    0    0 -0.37285506140E+03 -0.57305773721E+03 -0.40759203367E+03  0.80571401703E+03  0.12501097687E+03 0.  0.
         24    2    1    2    0    0 -0.27057078816E+03  0.70842210563E+03 -0.90820863091E+02  0.76926812691E+03  0.91948848590E+02 0.  0.
         24    2    1    2    0    0  0.71721815256E+03 -0.13173505740E+03  0.41264704527E+03  0.84191028348E+03  0.82336733924E+02 0.  0.
        -11    1    5    5    0    0  0.68170936717E+02 -0.97393781038E+01  0.68813935709E+02  0.97352400312E+02  0.00000000000E+00 0.  1.
         12    1    5    5    0    0  0.64904721584E+03 -0.12199567930E+03  0.34383310956E+03  0.74455788317E+03  0.00000000000E+00 0. -1.
        -13    1    4    4    0    0 -0.83536482235E+02  0.22364725935E+03  0.14183465534E+02  0.23916022072E+03  0.00000000000E+00 0.  1.
         14    1    4    4    0    0 -0.18703430592E+03  0.48477484628E+03 -0.10500432862E+03  0.53010790619E+03  0.00000000000E+00 0. -1.
          5    1    3    3  501    0 -0.16469143940E+03 -0.36370836248E+03 -0.24881227081E+03  0.47046432305E+03  0.47000000000E+01 0.  1.
         -5    1    3    3    0  501 -0.20816362200E+03 -0.20934937473E+03 -0.15877976286E+03  0.33524969398E+03  0.47000000000E+01 0.  1.
          1    1    1    2  502    0 -0.22916643342E+02 -0.11337875250E+02 -0.33519337488E+02  0.42157632083E+02  0.00000000000E+00 0. -1.
          1    1    1    2  503    0 -0.50875659658E+02  0.77085642321E+01  0.67187146024E+03  0.67383901178E+03  0.00000000000E+00 0. -1.
<mgrwt>
<rscale>  0 0.36277458E+02</rscale>
<asrwt>0</asrwt>
<pdfrwt beam="1">  1        2 0.27099084E+00 0.51472804E+02</pdfrwt>
<pdfrwt beam="2">  1        2 0.18972815E+00 0.25567948E+02</pdfrwt>
<totfact> 0.40770181E+01</totfact>
</mgrwt>
</event>
<event>
13    1  0.3019759E-008  0.4284227E+02  0.7546771E-02  0.1493412E+00
          2   -1    0    0  503    0  0.00000000000E+00  0.00000000000E+00  0.91192280354E+03  0.91192280354E+03  0.00000000000E+00 0. -1.
          2   -1    0    0  502    0 -0.00000000000E+00 -0.00000000000E+00 -0.20449744410E+03  0.20449744410E+03  0.00000000000E+00 0. -1.
         25    2    1    2    0    0  0.42541807996E+02 -0.71579241765E+02  0.11857842837E+03  0.19136216781E+03  0.12500096925E+03 0.  0.
         24    2    1    2    0    0 -0.26942420322E+02  0.69452316303E+02  0.32227193573E+03  0.33959277308E+03  0.76905999212E+02 0.  0.
         24    2    1    2    0    0 -0.25266274852E+02  0.28353439545E+02  0.21539708714E+03  0.23327203250E+03  0.81102612893E+02 0.  0.
        -13    1    5    5    0    0  0.28009704701E+02  0.12732533953E+01  0.91762058102E+02  0.95950195616E+02  0.00000000000E+00 0.  1.
         14    1    5    5    0    0 -0.53275979552E+02  0.27080186150E+02  0.12363502904E+03  0.13732183688E+03  0.00000000000E+00 0. -1.
        -13    1    4    4    0    0 -0.52076163437E+02  0.50069431899E+02  0.18284919465E+03  0.19660290637E+03  0.00000000000E+00 0.  1.
         14    1    4    4    0    0  0.25133743115E+02  0.19382884404E+02  0.13942274108E+03  0.14298986671E+03  0.00000000000E+00 0. -1.
          5    1    3    3  501    0  0.81467256766E+02 -0.63309495700E+02  0.10900451812E+03  0.15016351468E+03  0.47000000000E+01 0.  1.
         -5    1    3    3    0  501 -0.38925448770E+02 -0.82697460654E+01  0.95739102582E+01  0.41198653128E+02  0.47000000000E+01 0.  1.
          1    1    1    2  502    0 -0.34453870074E+02 -0.22844193676E+02 -0.14515948781E+03  0.15093112088E+03  0.00000000000E+00 0. -1.
          1    1    1    2  503    0  0.44120757252E+02 -0.33823204068E+01  0.19633739600E+03  0.20126215338E+03  0.00000000000E+00 0. -1.
<mgrwt>
<rscale>  0 0.42084008E+02</rscale>
<asrwt>0</asrwt>
<pdfrwt beam="1">  1        2 0.13410629E+00 0.42842274E+02</pdfrwt>
<pdfrwt beam="2">  1        2 0.30073154E-01 0.41339162E+02</pdfrwt>
<totfact> 0.89000155E+02</totfact>
</mgrwt>
</event>
<event>
13    1  0.3019759E-008  0.1739501E+03  0.7546771E-02  0.1341207E+00
          2   -1    0    0  503    0  0.00000000000E+00  0.00000000000E+00  0.16488297203E+04  0.16488297203E+04  0.00000000000E+00 0. -1.
          2   -1    0    0  502    0 -0.00000000000E+00 -0.00000000000E+00 -0.20020454791E+04  0.20020454791E+04  0.00000000000E+00 0. -1.
         25    2    1    2    0    0  0.34437475825E+03  0.43654516316E+01 -0.84007648001E+03  0.91649663192E+03  0.12499821102E+03 0.  0.
         24    2    1    2    0    0 -0.30149313379E+03 -0.86753303066E+02  0.52199625638E+03  0.61405037201E+03  0.78444390333E+02 0.  0.
         24    2    1    2    0    0  0.14441281003E+03 -0.13468625026E+03  0.89692308964E+02  0.23177020168E+03  0.81714566542E+02 0.  0.
        -11    1    4    4    0    0 -0.11118133161E+03  0.34898060939E+01  0.20950213442E+03  0.23720162641E+03  0.00000000000E+00 0.  1.
         12    1    4    4    0    0 -0.19031180218E+03 -0.90243109160E+02  0.31249412196E+03  0.37684874560E+03  0.00000000000E+00 0. -1.
        -11    1    5    5    0    0  0.79996951287E+02 -0.21040803656E+02  0.41380225393E+02  0.92490814070E+02  0.00000000000E+00 0.  1.
         12    1    5    5    0    0  0.64415858747E+02 -0.11364544661E+03  0.48312083571E+02  0.13927938761E+03  0.00000000000E+00 0. -1.
          5    1    3    3  501    0  0.17098079413E+03  0.24650590755E+02 -0.27265376233E+03  0.32280682722E+03  0.47000000000E+01 0. -1.
         -5    1    3    3    0  501  0.17339396412E+03 -0.20285139124E+02 -0.56742271768E+03  0.59368980470E+03  0.47000000000E+01 0. -1.
          1    1    1    2  502    0 -0.29036484844E+02  0.15866910993E+02 -0.98783298886E+03  0.98838701439E+03  0.00000000000E+00 0. -1.
          1    1    1    2  503    0 -0.15825794965E+03  0.20120719071E+03  0.86300514477E+03  0.90017097938E+03  0.00000000000E+00 0. -1.
<mgrwt>
<rscale>  0 0.75867117E+02</rscale>
<asrwt>0</asrwt>
<pdfrwt beam="1">  1        2 0.24247496E+00 0.17395008E+03</pdfrwt>
<pdfrwt beam="2">  1        2 0.29441845E+00 0.33088915E+02</pdfrwt>
<totfact> 0.20818453E+01</totfact>
</mgrwt>
</event>
<event>
13    1  0.3019759E-008  0.1196819E+03  0.7546771E-02  0.1398684E+00
          2   -1    0    0  502    0  0.00000000000E+00  0.00000000000E+00  0.11447598041E+04  0.11447598041E+04  0.00000000000E+00 0. -1.
          2   -1    0    0  503    0 -0.00000000000E+00 -0.00000000000E+00 -0.55241583957E+03  0.55241583957E+03  0.00000000000E+00 0. -1.
         25    2    1    2    0    0 -0.74496476188E+02  0.55342780689E+02 -0.19528752123E+03  0.24975080565E+03  0.12500280251E+03 0.  0.
         24    2    1    2    0    0  0.15051606871E+01 -0.27328555068E+01  0.16215456098E+02  0.79900450632E+02  0.78175488401E+02 0.  0.
         24    2    1    2    0    0  0.43588738506E+01  0.11783359569E+03  0.20728954882E+03  0.25178894498E+03  0.80777222714E+02 0.  0.
        -11    1    5    5    0    0  0.41551884868E+02  0.74898433397E+02  0.13450909936E+03  0.15946483083E+03  0.00000000000E+00 0.  1.
         12    1    5    5    0    0 -0.37193011017E+02  0.42935162289E+02  0.72780449463E+02  0.92324114148E+02  0.00000000000E+00 0. -1.
        -13    1    4    4    0    0 -0.45394519922E+01 -0.38765507638E+02  0.18702111576E+02  0.43279789558E+02  0.00000000000E+00 0.  1.
         14    1    4    4    0    0  0.60446126792E+01  0.36032652131E+02 -0.24866554780E+01  0.36620661074E+02  0.00000000000E+00 0. -1.
          5    1    3    3  501    0  0.84163125032E+01  0.52107899857E+02 -0.21641168301E+02  0.57240699761E+02  0.47000000000E+01 0.  1.
         -5    1    3    3    0  501 -0.82912788691E+02  0.32348808317E+01 -0.17364635293E+03  0.19251010589E+03  0.47000000000E+01 0.  1.
          1    1    1    2  502    0  0.49135616496E+02 -0.19308205218E+03  0.82725873819E+03  0.85091245589E+03  0.00000000000E+00 0. -1.
          1    1    1    2  503    0  0.19496825155E+02  0.22638531311E+02 -0.26313225738E+03  0.26482298647E+03  0.00000000000E+00 0. -1.
<mgrwt>
<rscale>  0 0.59797359E+02</rscale>
<asrwt>0</asrwt>
<pdfrwt beam="1">  1        2 0.16834703E+00 0.11968189E+03</pdfrwt>
<pdfrwt beam="2">  1        2 0.81237623E-01 0.29876902E+02</pdfrwt>
<totfact> 0.22746600E+02</totfact>
</mgrwt>
</event>
<event>
13    1  0.3019759E-008  0.7568419E+02  0.7546771E-02  0.1361050E+00
          2   -1    0    0  502    0  0.00000000000E+00  0.00000000000E+00  0.19439967124E+04  0.19439967124E+04  0.00000000000E+00 0. -1.
          2   -1    0    0  503    0 -0.00000000000E+00 -0.00000000000E+00 -0.11607286431E+04  0.11607286431E+04  0.00000000000E+00 0. -1.
         25    2    1    2    0    0  0.20568057679E+03  0.88611570888E+02 -0.12219285168E+02  0.25677122051E+03  0.12500255432E+03 0.  0.
         24    2    1    2    0    0 -0.42182335028E+03 -0.64266085090E+03  0.52418226258E+03  0.93398558734E+03  0.81327269901E+02 0.  0.
         24    2    1    2    0    0  0.17426405320E+03  0.46408275529E+03  0.39047820291E+03  0.63833653690E+03  0.96226521283E+02 0.  0.
        -11    1    5    5    0    0  0.13013453618E+03  0.21963606193E+03  0.22063833690E+03  0.33742595176E+03  0.00000000000E+00 0.  1.
         12    1    5    5    0    0  0.44129517023E+02  0.24444669336E+03  0.16983986601E+03  0.30091058515E+03  0.00000000000E+00 0. -1.
        -13    1    4    4    0    0 -0.32513898206E+03 -0.44120645857E+03  0.34555357410E+03  0.64790876619E+03  0.00000000000E+00 0.  1.
         14    1    4    4    0    0 -0.96684368223E+02 -0.20145439233E+03  0.17862868848E+03  0.28607682115E+03  0.00000000000E+00 0. -1.
          5    1    3    3  501    0  0.19781906903E+03  0.46534095689E+02  0.18142731291E+02  0.20408100067E+03  0.47000000000E+01 0.  1.
         -5    1    3    3    0  501  0.78615077579E+01  0.42077475199E+02 -0.30362016460E+02  0.52690219841E+02  0.47000000000E+01 0.  1.
          1    1    1    2  502    0  0.68754462199E+02  0.31635895383E+02  0.57426264896E+03  0.57922844883E+03  0.00000000000E+00 0. -1.
          1    1    1    2  503    0 -0.26875741913E+02  0.58330629337E+02 -0.69343575999E+03  0.69640356192E+03  0.00000000000E+00 0. -1.
<mgrwt>
<rscale>  0 0.69719211E+02</rscale>
<asrwt>0</asrwt>
<pdfrwt beam="1">  1        2 0.28588187E+00 0.75684190E+02</pdfrwt>
<pdfrwt beam="2">  1        2 0.17069539E+00 0.64224355E+02</pdfrwt>
<totfact> 0.38338663E+01</totfact>
</mgrwt>
</event>
<event>
13    1  0.3019759E-008  0.9135785E+02  0.7546771E-02  0.1475609E+00
          2   -1    0    0  503    0  0.00000000000E+00  0.00000000000E+00  0.58193640114E+03  0.58193640114E+03  0.00000000000E+00 0. -1.
          2   -1    0    0  502    0 -0.00000000000E+00 -0.00000000000E+00 -0.44488120294E+04  0.44488120294E+04  0.00000000000E+00 0. -1.
         25    2    1    2    0    0  0.33739867393E+02 -0.51761809409E+03 -0.24975966332E+04  0.25539539655E+04  0.12500018308E+03 0.  0.
         24    2    1    2    0    0 -0.15463503940E+03  0.29970076146E+03 -0.86029647111E+02  0.35928335683E+03  0.89167754719E+02 0.  0.
         24    2    1    2    0    0  0.23381667017E+03  0.22595121929E+03 -0.58011953139E+02  0.34034233363E+03  0.82117772802E+02 0.  0.
        -11    1    5    5    0    0  0.74394985348E+02  0.26705734663E+02 -0.18721908812E+01  0.79065259170E+02  0.00000000000E+00 0.  1.
         12    1    5    5    0    0  0.15942168482E+03  0.19924548462E+03 -0.56139762258E+02  0.26127707446E+03  0.00000000000E+00 0. -1.
        -13    1    4    4    0    0 -0.39945396785E+02  0.17375315431E+03 -0.37860521779E+02  0.18226138502E+03  0.00000000000E+00 0.  1.
         14    1    4    4    0    0 -0.11468964262E+03  0.12594760715E+03 -0.48169125332E+02  0.17702197182E+03  0.00000000000E+00 0. -1.
          5    1    3    3  501    0  0.30156695712E+02 -0.44882872065E+03 -0.19074184438E+04  0.19597509680E+04  0.47000000000E+01 0.  1.
         -5    1    3    3    0  501  0.35831716806E+01 -0.68789373442E+02 -0.59017818941E+03  0.59420299753E+03  0.47000000000E+01 0.  1.
          1    1    1    2  502    0 -0.21756877454E+02 -0.30291789154E+01 -0.14935684138E+04  0.14937299436E+04  0.00000000000E+00 0. -1.
          1    1    1    2  503    0 -0.91164620702E+02 -0.50047077472E+01  0.26833101898E+03  0.28343883100E+03  0.00000000000E+00 0. -1.
<mgrwt>
<rscale>  0 0.44797701E+02</rscale>
<asrwt>0</asrwt>
<pdfrwt beam="1">  1        2 0.85578886E-01 0.91357846E+02</pdfrwt>
<pdfrwt beam="2">  1        2 0.65423703E+00 0.21966739E+02</pdfrwt>
<totfact> 0.45683858E+00</totfact>
</mgrwt>
</event>
<event>
13    1  0.3019759E-008  0.1180010E+03  0.7546771E-02  0.1272734E+00
          4   -1    0    0  503    0 -0.00000000000E+00  0.00000000000E+00  0.47556530155E+03  0.47556530155E+03  0.00000000000E+00 0. -1.
          2   -1    0    0  502    0  0.00000000000E+00 -0.00000000000E+00 -0.33202371497E+04  0.33202371497E+04  0.00000000000E+00 0. -1.
         25    2    1    2    0    0  0.53785610182E+02  0.15961674692E+03 -0.45162739444E+02  0.21455888704E+03  0.12500178083E+03 0.  0.
         24    2    1    2    0    0  0.33638673266E+02 -0.52847306962E+02 -0.37234115251E+03  0.38623125592E+03  0.81315748811E+02 0.  0.
         24    2    1    2    0    0  0.78966975167E+02  0.14417626890E+02 -0.84872227340E+03  0.85626823110E+03  0.80138224895E+02 0.  0.
        -11    1    5    5    0    0  0.18776394273E+02 -0.23591982097E+02 -0.10790425125E+03  0.11203777059E+03  0.00000000000E+00 0.  1.
         12    1    5    5    0    0  0.60190580894E+02  0.38009608987E+02 -0.74081802215E+03  0.74423046050E+03  0.00000000000E+00 0. -1.
        -11    1    4    4    0    0  0.13325270340E+02  0.21534937786E+02 -0.81596841712E+02  0.85436297628E+02  0.00000000000E+00 0.  1.
         12    1    4    4    0    0  0.20313402926E+02 -0.74382244748E+02 -0.29074431080E+03  0.30079495829E+03  0.00000000000E+00 0. -1.
          5    1    3    3  501    0 -0.61028212891E+01  0.11225509309E+03  0.19741053478E+02  0.11423768881E+03  0.47000000000E+01 0. -1.
         -5    1    3    3    0  501  0.59888431471E+02  0.47361653832E+02 -0.64903792922E+02  0.10032119823E+03  0.47000000000E+01 0. -1.
          1    1    1    2  502    0 -0.83300024742E+02 -0.83825133899E+02 -0.19513230606E+04  0.19548982669E+04  0.00000000000E+00 0. -1.
          3    1    1    2  503    0 -0.83091233873E+02 -0.37361932954E+02  0.37287737780E+03  0.38384581027E+03  0.00000000000E+00 0. -1.
<mgrwt>
<rscale>  0 0.10368436E+03</rscale>
<asrwt>0</asrwt>
<pdfrwt beam="2">  1        2 0.48827016E+00 0.11800100E+03</pdfrwt>
<pdfrwt beam="1">  1        4 0.69936075E-01 0.91104704E+02</pdfrwt>
<totfact> 0.18100053E+00</totfact>
</mgrwt>
</event>
<event>
13    1  0.3019759E-008  0.1477416E+03  0.7546771E-02  0.1226624E+00
         -1   -1    0    0    0  501 -0.00000000000E+00  0.00000000000E+00  0.19560306757E+04  0.19560306757E+04  0.00000000000E+00 0.  1.
          2   -1    0    0  503    0  0.00000000000E+00 -0.00000000000E+00 -0.30234371429E+04  0.30234371429E+04  0.00000000000E+00 0. -1.
         25    2    1    2    0    0  0.62291354304E+02  0.13993730995E+03  0.17806680666E+03  0.26607566217E+03  0.12500322728E+03 0.  0.
         24    2    1    2    0    0  0.59253638704E+02  0.81942732315E+02 -0.46663597946E+03  0.48417466162E+03  0.80314136692E+02 0.  0.
         24    2    1    2    0    0 -0.14150458863E+03 -0.58213534654E+02 -0.76523962503E+03  0.78462392563E+03  0.81428844603E+02 0.  0.
        -11    1    5    5    0    0 -0.22801500032E+01 -0.15013132313E+02 -0.19216360232E+02  0.24492074768E+02  0.00000000000E+00 0.  1.
         12    1    5    5    0    0 -0.13922443863E+03 -0.43200402341E+02 -0.74602326480E+03  0.76013185087E+03  0.00000000000E+00 0. -1.
        -11    1    4    4    0    0  0.71134658617E+02  0.90046272850E+02 -0.41453394891E+03  0.43012424450E+03  0.00000000000E+00 0.  1.
         12    1    4    4    0    0 -0.11881019913E+02 -0.81035405352E+01 -0.52102030551E+02  0.54050417120E+02  0.00000000000E+00 0. -1.
          5    1    3    3  502    0 -0.30863530318E+02  0.21624370551E+01  0.30047527981E+02  0.43384070527E+02  0.47000000000E+01 0.  1.
         -5    1    3    3    0  502  0.93154884622E+02  0.13777487289E+03  0.14801927868E+03  0.22269159165E+03  0.47000000000E+01 0.  1.
          1    1    1    2  503    0 -0.12114535684E+03 -0.11926005745E+03 -0.17217127674E+04  0.17300849725E+04  0.00000000000E+00 0. -1.
         -2    1    1    2    0  501  0.14110495247E+03 -0.44406450165E+02  0.17081150980E+04  0.17145085968E+04  0.00000000000E+00 0.  1.
<mgrwt>
<rscale>  0 0.13056203E+03</rscale>
<asrwt>0</asrwt>
<pdfrwt beam="2">  1        2 0.44462310E+00 0.11538009E+03</pdfrwt>
<pdfrwt beam="1">  1       -1 0.28765158E+00 0.14774163E+03</pdfrwt>
<totfact> 0.15723633E-01</totfact>
</mgrwt>
</event>
<event>
13    1  0.3019759E-008  0.1439328E+03  0.7546771E-02  0.1288311E+00
          2   -1    0    0  503    0  0.00000000000E+00  0.00000000000E+00  0.15648597894E+04  0.15648597894E+04  0.00000000000E+00 0. -1.
          2   -1    0    0  502    0 -0.00000000000E+00 -0.00000000000E+00 -0.16176555981E+04  0.16176555981E+04  0.00000000000E+00 0. -1.
         25    2    1    2    0    0  0.37407305631E+02  0.14953132145E+02 -0.52274561518E+03  0.53899078350E+03  0.12500073535E+03 0.  0.
         24    2    1    2    0    0 -0.77031534497E+02  0.52468005771E+02  0.29034553961E+02  0.12771757831E+03  0.82353054276E+02 0.  0.
         24    2    1    2    0    0  0.15225439038E+03 -0.11694852105E+03  0.14053077362E+03  0.25095529432E+03  0.79820457593E+02 0.  0.
        -11    1    5    5    0    0  0.12641674608E+03 -0.50393144851E+02  0.84399765124E+02  0.16013738817E+03  0.00000000000E+00 0.  1.
         12    1    5    5    0    0  0.25837644303E+02 -0.66555376197E+02  0.56131008496E+02  0.90817906156E+02  0.00000000000E+00 0. -1.
        -13    1    4    4    0    0 -0.29106965786E+02  0.67970638357E+02  0.19266777757E+02  0.76409631992E+02  0.00000000000E+00 0.  1.
         14    1    4    4    0    0 -0.47924568711E+02 -0.15502632587E+02  0.97677762042E+01  0.51307946316E+02  0.00000000000E+00 0. -1.
          5    1    3    3  501    0  0.38942470849E+02 -0.49888018555E+02 -0.20257715441E+03  0.21228500635E+03  0.47000000000E+01 0. -1.
         -5    1    3    3    0  501 -0.15351652184E+01  0.64841150700E+02 -0.32016846077E+03  0.32670577716E+03  0.47000000000E+01 0. -1.
          1    1    1    2  502    0 -0.23808602507E+02 -0.59846677635E+02 -0.97730094804E+03  0.97942106237E+03  0.00000000000E+00 0. -1.
          1    1    1    2  503    0 -0.88821559006E+02  0.10937406077E+03  0.12776854270E+04  0.12854306690E+04  0.00000000000E+00 0. -1.
<mgrwt>
<rscale>  0 0.96283531E+02</rscale>
<asrwt>0</asrwt>
<pdfrwt beam="1">  1        2 0.23012644E+00 0.14393281E+03</pdfrwt>
<pdfrwt beam="2">  1        2 0.23789053E+00 0.64408651E+02</pdfrwt>
<totfact> 0.32771925E+01</totfact>
</mgrwt>
</event>
<event>
13    1  0.3019759E-008  0.1458915E+03  0.7546771E-02  0.1243195E+00
          2   -1    0    0  503    0  0.00000000000E+00  0.00000000000E+00  0.30939340718E+03  0.30939340718E+03  0.00000000000E+00 0. -1.
          2   -1    0    0  502    0 -0.00000000000E+00 -0.00000000000E+00 -0.24192009950E+04  0.24192009950E+04  0.00000000000E+00 0. -1.
         25    2    1    2    0    0  0.25133317620E+02 -0.70668670086E+02 -0.69698373893E+03  0.71206597316E+03  0.12500349279E+03 0.  0.
         24    2    1    2    0    0  0.30793290868E+02 -0.73351661937E+01 -0.17785485595E+03  0.19549510621E+03  0.74725867935E+02 0.  0.
         24    2    1    2    0    0 -0.84963251418E+02 -0.78918640931E+02 -0.58622711599E+02  0.16240252244E+03  0.97422025232E+02 0.  0.
        -13    1    4    4    0    0  0.16067400377E+02  0.28918103171E+02 -0.38549665623E+02  0.50798570506E+02  0.00000000000E+00 0.  1.
         14    1    4    4    0    0  0.14725890491E+02 -0.36253269364E+02 -0.13930519033E+03  0.14469653570E+03  0.00000000000E+00 0. -1.
        -13    1    5    5    0    0 -0.28754041197E+02  0.39710189693E+01  0.19854046865E+02  0.35167414658E+02  0.00000000000E+00 0.  1.
         14    1    5    5    0    0 -0.56209210221E+02 -0.82889659900E+02 -0.78476758464E+02  0.12723510778E+03  0.00000000000E+00 0. -1.
          5    1    3    3  501    0 -0.15322226756E+02 -0.41725939130E+02 -0.61089893824E+03  0.61253198069E+03  0.47000000000E+01 0. -1.
         -5    1    3    3    0  501  0.40455544376E+02 -0.28942730956E+02 -0.86084800690E+02  0.99533992463E+02  0.47000000000E+01 0. -1.
          1    1    1    2  502    0 -0.10701766589E+03  0.86088033530E+02 -0.13893625027E+04  0.13961346977E+04  0.00000000000E+00 0. -1.
          1    1    1    2  503    0  0.13605430883E+03  0.70834443680E+02  0.21301622134E+03  0.26249610267E+03  0.00000000000E+00 0. -1.
<mgrwt>
<rscale>  0 0.11994044E+03</rscale>
<asrwt>0</asrwt>
<pdfrwt beam="1">  1        2 0.45499029E-01 0.14589154E+03</pdfrwt>
<pdfrwt beam="2">  1        2 0.35576486E+00 0.98605506E+02</pdfrwt>
<totfact> 0.98558346E+01</totfact>
</mgrwt>
</event>
<event>
13    1  0.3019759E-008  0.8547639E+02  0.7546771E-02  0.1460759E+00
          2   -1    0    0  502    0  0.00000000000E+00  0.00000000000E+00  0.25365692836E+04  0.25365692836E+04  0.00000000000E+00 0. -1.
          2   -1    0    0  503    0 -0.00000000000E+00 -0.00000000000E+00 -0.34965775658E+04  0.34965775658E+04  0.00000000000E+00 0. -1.
         25    2    1    2    0    0  0.42519718301E+03 -0.44095743435E+03 -0.39025995680E+03  0.73699665925E+03  0.12500055411E+03 0.  0.
         24    2    1    2    0    0  0.21359882079E+03  0.81434179126E+03  0.28715320984E+03  0.89316151917E+03  0.80644430527E+02 0.  0.
         24    2    1    2    0    0 -0.70555795055E+03 -0.36834254453E+03 -0.12090190748E+02  0.80117779076E+03  0.90837371157E+02 0.  0.
        -13    1    4    4    0    0  0.41519154270E+02  0.30736952357E+03  0.11473693415E+03  0.33070293051E+03  0.00000000000E+00 0.  1.
         14    1    4    4    0    0  0.17207966652E+03  0.50697226769E+03  0.17241627569E+03  0.56245858866E+03  0.00000000000E+00 0. -1.
        -13    1    5    5    0    0 -0.63260757239E+03 -0.30103609499E+03 -0.25342633306E+02  0.70104017017E+03  0.00000000000E+00 0.  1.
         14    1    5    5    0    0 -0.72950378167E+02 -0.67306449540E+02  0.13252442558E+02  0.10013762059E+03  0.00000000000E+00 0. -1.
          5    1    3    3  501    0  0.31373599361E+03 -0.39518120078E+03 -0.31410204070E+03  0.59437415582E+03  0.47000000000E+01 0.  1.
         -5    1    3    3    0  501  0.11146118939E+03 -0.45776233571E+02 -0.76157916102E+02  0.14262250344E+03  0.47000000000E+01 0.  1.
          1    1    1    2  502    0 -0.17519117822E+02 -0.19373704634E+02  0.13775540898E+04  0.13778017020E+04  0.00000000000E+00 0. -1.
          1    1    1    2  503    0  0.84281064579E+02  0.14331892255E+02 -0.22223654343E+04  0.22240091782E+04  0.00000000000E+00 0. -1.
<mgrwt>
<rscale>  0 0.47250951E+02</rscale>
<asrwt>0</asrwt>
<pdfrwt beam="1">  1        2 0.37302490E+00 0.26120106E+02</pdfrwt>
<pdfrwt beam="2">  1        2 0.51420258E+00 0.85476390E+02</pdfrwt>
<totfact> 0.14875076E+00</totfact>
</mgrwt>
</event>
<event>
13    1  0.3019759E-008  0.1806981E+03  0.7546771E-02  0.1223647E+00
          2   -1    0    0  503    0  0.00000000000E+00  0.00000000000E+00  0.23108036321E+04  0.23108036321E+04  0.00000000000E+00 0. -1.
          2   -1    0    0  502    0 -0.00000000000E+00 -0.00000000000E+00 -0.35872716398E+04  0.35872716398E+04  0.00000000000E+00 0. -1.
         25    2    1    2    0    0 -0.10613121785E+03  0.85291886463E+02 -0.67227843398E+03  0.69722418712E+03  0.12499893205E+03 0.  0.
         24    2    1    2    0    0 -0.52910904103E+02 -0.58535780909E+02 -0.16388968054E+03  0.19987207268E+03  0.82843325802E+02 0.  0.
         24    2    1    2    0    0 -0.54836530846E+02  0.13223449195E+03  0.39152963781E+02  0.17610714670E+03  0.94803832034E+02 0.  0.
        -11    1    5    5    0    0 -0.78812194079E+02  0.11892563459E+03  0.23681544931E+02  0.14462186580E+03  0.00000000000E+00 0.  1.
         12    1    5    5    0    0  0.23975663233E+02  0.13308857360E+02  0.15471418850E+02  0.31485280893E+02  0.00000000000E+00 0. -1.
        -11    1    4    4    0    0 -0.45746736350E+02 -0.71521290586E+02 -0.86984079880E+02  0.12154953330E+03  0.00000000000E+00 0.  1.
         12    1    4    4    0    0 -0.71641677533E+01  0.12985509678E+02 -0.76905600664E+02  0.78322539379E+02  0.00000000000E+00 0. -1.
          5    1    3    3  501    0 -0.43707637725E+02  0.14314043556E+02 -0.48685559855E+03  0.48904571696E+03  0.47000000000E+01 0. -1.
         -5    1    3    3    0  501 -0.62423580129E+02  0.70977842907E+02 -0.18542283543E+03  0.20817847016E+03  0.47000000000E+01 0. -1.
          1    1    1    2  502    0  0.95372610205E+02 -0.19300124721E+02 -0.26474057451E+04  0.26491933883E+04  0.00000000000E+00 0. -1.
          1    1    1    2  503    0  0.11850604260E+03 -0.13969047278E+03  0.21679528882E+04  0.21756784771E+04  0.00000000000E+00 0. -1.
<mgrwt>
<rscale>  0 0.13260084E+03</rscale>
<asrwt>0</asrwt>
<pdfrwt beam="1">  1        2 0.33982406E+00 0.18069809E+03</pdfrwt>
<pdfrwt beam="2">  1        2 0.52753995E+00 0.97305856E+02</pdfrwt>
<totfact> 0.12775139E+00</totfact>
</mgrwt>
</event>
<event>
13    1  0.3019759E-008  0.3990955E+02  0.7546771E-02  0.1690077E+00
         -1   -1    0    0    0  501 -0.00000000000E+00  0.00000000000E+00  0.44868093655E+03  0.44868093655E+03  0.00000000000E+00 0.  1.
          2   -1    0    0  503    0  0.00000000000E+00 -0.00000000000E+00 -0.33020839330E+04  0.33020839330E+04  0.00000000000E+00 0. -1.
         25    2    1    2    0    0 -0.72067969247E+02  0.11461769604E+03  0.18244131306E+03  0.25930710433E+03  0.12499733280E+03 0.  0.
         24    2    1    2    0    0  0.40834790712E+02  0.21964563079E+02 -0.19713326996E+03  0.21818104681E+03  0.81188182000E+02 0.  0.
         24    2    1    2    0    0  0.35456507207E+02 -0.10290171318E+03 -0.49358550091E+03  0.51179079841E+03  0.80357004368E+02 0.  0.
        -11    1    4    4    0    0  0.59624772292E+02  0.25005802064E+02 -0.99167734060E+02  0.11838345782E+03  0.00000000000E+00 0.  1.
         12    1    4    4    0    0 -0.18789981581E+02 -0.30412389844E+01 -0.97965535905E+02  0.99797588986E+02  0.00000000000E+00 0. -1.
        -11    1    5    5    0    0 -0.11149792592E+02 -0.52913524669E+02 -0.33156033658E+03  0.33594108972E+03  0.00000000000E+00 0.  1.
         12    1    5    5    0    0  0.46606299798E+02 -0.49988188506E+02 -0.16202516433E+03  0.17584970869E+03  0.00000000000E+00 0. -1.
          5    1    3    3  502    0 -0.44180449892E+02  0.52538979247E+02  0.47490673156E+01  0.68970284423E+02  0.47000000000E+01 0.  1.
         -5    1    3    3    0  502 -0.27887519355E+02  0.62078716792E+02  0.17769224575E+03  0.19033681991E+03  0.47000000000E+01 0.  1.
          1    1    1    2  503    0 -0.17390463468E+02 -0.35926945727E+02 -0.25529353031E+04  0.25532473118E+04  0.00000000000E+00 0. -1.
         -2    1    1    2    0  501  0.13167134797E+02  0.22463997842E+01  0.20780976442E+03  0.20823860819E+03  0.00000000000E+00 0.  1.
<mgrwt>
<rscale>  0 0.23088682E+02</rscale>
<asrwt>0</asrwt>
<pdfrwt beam="2">  1        2 0.48560060E+00 0.39909550E+02</pdfrwt>
<pdfrwt beam="1">  1       -1 0.65982487E-01 0.13357386E+02</pdfrwt>
<totfact> 0.68117341E+00</totfact>
</mgrwt>
</event>
<event>
13    1  0.3019759E-008  0.1251740E+03  0.7546771E-02  0.1327157E+00
          2   -1    0    0  502    0  0.00000000000E+00  0.00000000000E+00  0.20686950110E+04  0.20686950110E+04  0.00000000000E+00 0. -1.
          2   -1    0    0  503    0 -0.00000000000E+00 -0.00000000000E+00 -0.71225684827E+03  0.71225684827E+03  0.00000000000E+00 0. -1.
         25    2    1    2    0    0  0.10981646092E+03  0.37909210975E+02 -0.23749518452E+01  0.17066614045E+03  0.12499811093E+03 0.  0.
         24    2    1    2    0    0  0.64881840019E+01  0.47079896991E+02  0.16866733864E+03  0.19235886645E+03  0.79338824955E+02 0.  0.
         24    2    1    2    0    0  0.54455404125E+02 -0.48821412181E+02  0.38824173044E+03  0.40324059246E+03  0.80761456291E+02 0.  0.
        -11    1    5    5    0    0  0.77110921145E+01 -0.48312035052E+02  0.29398848435E+03  0.29803144567E+03  0.00000000000E+00 0.  1.
         12    1    5    5    0    0  0.46744312011E+02 -0.50937712905E+00  0.94253246088E+02  0.10520914679E+03  0.00000000000E+00 0. -1.
        -11    1    4    4    0    0  0.39574683228E+02  0.39512308680E+02  0.81731271039E+02  0.99032210697E+02  0.00000000000E+00 0.  1.
         12    1    4    4    0    0 -0.33086499226E+02  0.75675883111E+01  0.86936067603E+02  0.93326655753E+02  0.00000000000E+00 0. -1.
          5    1    3    3  501    0  0.46416066670E+02 -0.10297885309E+02 -0.56698048629E+02  0.74143485252E+02  0.47000000000E+01 0. -1.
         -5    1    3    3    0  501  0.63400394248E+02  0.48207096284E+02  0.54323096784E+02  0.96522655202E+02  0.47000000000E+01 0. -1.
          1    1    1    2  502    0 -0.45028733330E+02 -0.25988612936E+02  0.14012477380E+04  0.14022119019E+04  0.00000000000E+00 0. -1.
          1    1    1    2  503    0 -0.12573131572E+03 -0.10179082849E+02 -0.59934369246E+03  0.61247435797E+03  0.00000000000E+00 0. -1.
<mgrwt>
<rscale>  0 0.80671187E+02</rscale>
<asrwt>0</asrwt>
<pdfrwt beam="1">  1        2 0.30421985E+00 0.51990334E+02</pdfrwt>
<pdfrwt beam="2">  1        2 0.10474365E+00 0.12517404E+03</pdfrwt>
<totfact> 0.63105385E+01</totfact>
</mgrwt>
</event>
<event>
13    1  0.3019759E-008  0.5043893E+02  0.7546771E-02  0.1678620E+00
          2   -1    0    0  502    0  0.00000000000E+00  0.00000000000E+00  0.19024977659E+04  0.19024977659E+04  0.00000000000E+00 0. -1.
          2   -1    0    0  503    0 -0.00000000000E+00 -0.00000000000E+00 -0.15055473179E+04  0.15055473179E+04  0.00000000000E+00 0. -1.
         25    2    1    2    0    0 -0.18535546291E+03  0.32445199321E+02 -0.69521084653E+03  0.73099472550E+03  0.12500331587E+03 0.  0.
         24    2    1    2    0    0  0.16130033662E+03 -0.65113787368E+02  0.78202742131E+02  0.20683213050E+03  0.80039099410E+02 0.  0.
         24    2    1    2    0    0 -0.31361346029E+02  0.10536686815E+02  0.15681477972E+03  0.17858494115E+03  0.78785469943E+02 0.  0.
        -11    1    5    5    0    0  0.20680243706E+02  0.21137863741E+01  0.95435612367E+02  0.97673418495E+02  0.00000000000E+00 0.  1.
         12    1    5    5    0    0 -0.52041589734E+02  0.84229004413E+01  0.61379167352E+02  0.80911522657E+02  0.00000000000E+00 0. -1.
        -13    1    4    4    0    0 -0.67612571362E+00  0.10719032658E+02  0.12047576151E+02  0.16139978259E+02  0.00000000000E+00 0.  1.
         14    1    4    4    0    0  0.16197646233E+03 -0.75832820026E+02  0.66155165980E+02  0.19069215224E+03  0.00000000000E+00 0. -1.
          5    1    3    3  501    0 -0.35630403931E+02 -0.39879582617E+02 -0.25058217920E+03  0.25626826828E+03  0.47000000000E+01 0.  1.
         -5    1    3    3    0  501 -0.14972505898E+03  0.72324781939E+02 -0.44462866734E+03  0.47472645722E+03  0.47000000000E+01 0.  1.
          1    1    1    2  502    0  0.48699809803E+02  0.13113282953E+02  0.15739405114E+04  0.15747483491E+04  0.00000000000E+00 0. -1.
          1    1    1    2  503    0  0.67166625154E+01  0.90186182780E+01 -0.71679673869E+03  0.71688493751E+03  0.00000000000E+00 0. -1.
<mgrwt>
<rscale>  0 0.23815616E+02</rscale>
<asrwt>0</asrwt>
<pdfrwt beam="1">  1        2 0.27977909E+00 0.50438932E+02</pdfrwt>
<pdfrwt beam="2">  1        2 0.22140402E+00 0.11244956E+02</pdfrwt>
<totfact> 0.32839613E+01</totfact>
</mgrwt>
</event>
<event>
13    1  0.3019759E-008  0.1095226E+03  0.7546771E-02  0.1420095E+00
         -1   -1    0    0    0  501 -0.00000000000E+00  0.00000000000E+00  0.22080497622E+04  0.22080497622E+04  0.00000000000E+00 0.  1.
          2   -1    0    0  503    0  0.00000000000E+00 -0.00000000000E+00 -0.41329681317E+04  0.41329681317E+04  0.00000000000E+00 0. -1.
         25    2    1    2    0    0 -0.15978662790E+03 -0.94118715634E+02  0.50009448755E+03  0.54782216791E+03  0.12499812834E+03 0.  0.
         24    2    1    2    0    0 -0.11181219270E+02 -0.68918717757E+03  0.64039995511E+03  0.94425893845E+03  0.80055324249E+02 0.  0.
         24    2    1    2    0    0  0.53747932160E+02  0.85443333072E+03 -0.86168498666E+03  0.12183487291E+04  0.94485198087E+02 0.  0.
        -11    1    5    5    0    0  0.40286213508E+02  0.16912107455E+03 -0.14197316591E+03  0.22445778377E+03  0.00000000000E+00 0.  1.
         12    1    5    5    0    0  0.13461718651E+02  0.68531225617E+03 -0.71971182075E+03  0.99389094535E+03  0.00000000000E+00 0. -1.
        -11    1    4    4    0    0 -0.17559137574E+02 -0.33071323410E+03  0.25581915398E+03  0.41847700781E+03  0.00000000000E+00 0.  1.
         12    1    4    4    0    0  0.63779183040E+01 -0.35847394348E+03  0.38458080113E+03  0.52578193064E+03  0.00000000000E+00 0. -1.
          5    1    3    3  502    0 -0.15985242140E+03 -0.10349454911E+03  0.50221002866E+03  0.53712281762E+03  0.47000000000E+01 0.  1.
         -5    1    3    3    0  502  0.65793503777E-01  0.93758334812E+01 -0.21155411159E+01  0.10699350282E+02  0.47000000000E+01 0.  1.
          1    1    1    2  503    0  0.93226896032E+02 -0.57443903749E+02 -0.29158624936E+04  0.29179179457E+04  0.00000000000E+00 0. -1.
         -2    1    1    2    0  501  0.23993018975E+02 -0.13683533758E+02  0.71213466814E+03  0.71267011276E+03  0.00000000000E+00 0.  1.
<mgrwt>
<rscale>  0 0.55000856E+02</rscale>
<asrwt>0</asrwt>
<pdfrwt beam="2">  1        2 0.60778943E+00 0.10952265E+03</pdfrwt>
<pdfrwt beam="1">  1       -1 0.32471320E+00 0.27620718E+02</pdfrwt>
<totfact> 0.25195379E-02</totfact>
</mgrwt>
</event>
<event>
13    1  0.3019759E-008  0.6249767E+02  0.7546771E-02  0.1541257E+00
          4   -1    0    0  503    0 -0.00000000000E+00  0.00000000000E+00  0.77800277358E+03  0.77800277358E+03  0.00000000000E+00 0. -1.
          2   -1    0    0  502    0  0.00000000000E+00 -0.00000000000E+00 -0.19332100309E+04  0.19332100309E+04  0.00000000000E+00 0. -1.
         25    2    1    2    0    0  0.77757848509E+02 -0.34453406322E+02  0.23930523200E+03  0.28306957000E+03  0.12501226814E+03 0.  0.
         24    2    1    2    0    0  0.32176599774E+02  0.89120424378E+02  0.13137191635E+02  0.12543817036E+03  0.81144101236E+02 0.  0.
         24    2    1    2    0    0 -0.77223981573E+02 -0.24133675051E+02 -0.15806658942E+03  0.19501485300E+03  0.80621142377E+02 0.  0.
        -11    1    5    5    0    0 -0.47892783049E+02  0.18649208607E+02 -0.12039639776E+03  0.13090761721E+03  0.00000000000E+00 0.  1.
         12    1    5    5    0    0 -0.29331198524E+02 -0.42782883658E+02 -0.37670191661E+02  0.64107235791E+02  0.00000000000E+00 0. -1.
        -11    1    4    4    0    0  0.54015024332E+02  0.30265188008E+02  0.46443207528E+01  0.62090048913E+02  0.00000000000E+00 0.  1.
         12    1    4    4    0    0 -0.21838424558E+02  0.58855236370E+02  0.84928708826E+01  0.63348121449E+02  0.00000000000E+00 0. -1.
          5    1    3    3  501    0  0.54615350783E+02 -0.78973229538E+02  0.12145772876E+03  0.15489892640E+03  0.47000000000E+01 0. -1.
         -5    1    3    3    0  501  0.23142497726E+02  0.44519823217E+02  0.11784750324E+03  0.12817064360E+03  0.47000000000E+01 0. -1.
          1    1    1    2  502    0 -0.36566088274E+02 -0.50722395455E+02 -0.16778077770E+04  0.16789725360E+04  0.00000000000E+00 0. -1.
          3    1    1    2  503    0  0.38556215634E+01  0.20189052450E+02  0.42822468548E+03  0.42871767506E+03  0.00000000000E+00 0. -1.
<mgrwt>
<rscale>  0 0.35840929E+02</rscale>
<asrwt>0</asrwt>
<pdfrwt beam="2">  1        2 0.28429559E+00 0.62497673E+02</pdfrwt>
<pdfrwt beam="1">  1        4 0.11441217E+00 0.20553921E+02</pdfrwt>
<totfact> 0.29792906E+00</totfact>
</mgrwt>
</event>
<event>
13    1  0.3019759E-008  0.7841029E+02  0.7546771E-02  0.1484629E+00
          2   -1    0    0  502    0  0.00000000000E+00  0.00000000000E+00  0.14351003127E+04  0.14351003127E+04  0.00000000000E+00 0. -1.
          2   -1    0    0  503    0 -0.00000000000E+00 -0.00000000000E+00 -0.14874516264E+04  0.14874516264E+04  0.00000000000E+00 0. -1.
         25    2    1    2    0    0 -0.37904759849E+02  0.45577568267E+01 -0.72134572114E+02  0.14928414005E+03  0.12499925603E+03 0.  0.
         24    2    1    2    0    0 -0.43724392938E+02  0.33544177487E+00  0.39730320643E+02  0.99659887222E+02  0.80259950684E+02 0.  0.
         24    2    1    2    0    0  0.16026838925E+02  0.24920443333E+02  0.72371927595E+02  0.11409686153E+03  0.83081344755E+02 0.  0.
        -11    1    5    5    0    0 -0.30948070518E+02 -0.63661535974E+00  0.11378572057E+02  0.32979694510E+02  0.00000000000E+00 0.  1.
         12    1    5    5    0    0  0.46974909443E+02  0.25557058693E+02  0.60993355539E+02  0.81117167025E+02  0.00000000000E+00 0. -1.
        -11    1    4    4    0    0 -0.25297237642E+02  0.35701309392E+02  0.40716201237E+02  0.59769078693E+02  0.00000000000E+00 0.  1.
         12    1    4    4    0    0 -0.18427155296E+02 -0.35365867617E+02 -0.98588059340E+00  0.39890808529E+02  0.00000000000E+00 0. -1.
          5    1    3    3  501    0 -0.52927673075E+01 -0.58039869515E+02 -0.21531122998E+02  0.62308258655E+02  0.47000000000E+01 0. -1.
         -5    1    3    3    0  501 -0.32611992542E+02  0.62597626342E+02 -0.50603449116E+02  0.86975881390E+02  0.47000000000E+01 0. -1.
          1    1    1    2  502    0  0.77942977970E+02 -0.92127737134E+01  0.12322387044E+04  0.12347356833E+04  0.00000000000E+00 0. -1.
          1    1    1    2  503    0 -0.12340664108E+02 -0.20600868221E+02 -0.13245576942E+04  0.13247753670E+04  0.00000000000E+00 0. -1.
<mgrwt>
<rscale>  0 0.43393204E+02</rscale>
<asrwt>0</asrwt>
<pdfrwt beam="1">  1        2 0.21104416E+00 0.78410292E+02</pdfrwt>
<pdfrwt beam="2">  1        2 0.21874289E+00 0.24014324E+02</pdfrwt>
<totfact> 0.49987041E+01</totfact>
</mgrwt>
</event>
<event>
13    1  0.3019759E-008  0.4770863E+02  0.7546771E-02  0.1493483E+00
          2   -1    0    0  502    0  0.00000000000E+00  0.00000000000E+00  0.10470187689E+04  0.10470187689E+04  0.00000000000E+00 0. -1.
          4   -1    0    0  503    0 -0.00000000000E+00 -0.00000000000E+00 -0.90607935450E+03  0.90607935450E+03  0.00000000000E+00 0. -1.
         25    2    1    2    0    0 -0.12605373713E+02 -0.28351184310E+02 -0.19599217298E+03  0.23452445966E+03  0.12500442077E+03 0.  0.
         24    2    1    2    0    0  0.62244805155E+02  0.25345189715E+02 -0.15012763602E+03  0.18289293452E+03  0.79967018130E+02 0.  0.
         24    2    1    2    0    0 -0.13872238397E+02  0.99927797505E+01  0.15246435808E+03  0.17489992099E+03  0.83978016359E+02 0.  0.
        -11    1    5    5    0    0 -0.85667448186E+01 -0.33064732060E+02  0.10583440985E+03  0.11120965755E+03  0.00000000000E+00 0.  1.
         12    1    5    5    0    0 -0.53054935787E+01  0.43057511811E+02  0.46629948229E+02  0.63690263442E+02  0.00000000000E+00 0. -1.
        -11    1    4    4    0    0 -0.16353817526E+02  0.19704826556E+02 -0.34415359280E+02  0.42896905385E+02  0.00000000000E+00 0.  1.
         12    1    4    4    0    0  0.78598622682E+02  0.56403631587E+01 -0.11571227674E+03  0.13999602913E+03  0.00000000000E+00 0. -1.
          5    1    3    3  501    0  0.37726241961E+02 -0.41044391348E+02 -0.36668292977E+02  0.66892190153E+02  0.47000000000E+01 0.  1.
         -5    1    3    3    0  501 -0.50331615674E+02  0.12693207038E+02 -0.15932388000E+03  0.16763226951E+03  0.47000000000E+01 0.  1.
          1    1    1    2  502    0 -0.23022461722E+02 -0.41833680467E+02  0.84634317697E+03  0.84768913156E+03  0.00000000000E+00 0. -1.
          3    1    1    2  503    0 -0.12744731323E+02  0.34846895311E+02 -0.51174831160E+03  0.51309167672E+03  0.00000000000E+00 0. -1.
<mgrwt>
<rscale>  0 0.42073730E+02</rscale>
<asrwt>0</asrwt>
<pdfrwt beam="1">  1        2 0.15397335E+00 0.47708632E+02</pdfrwt>
<pdfrwt beam="2">  1        4 0.13324696E+00 0.37104370E+02</pdfrwt>
<totfact> 0.61404594E+00</totfact>
</mgrwt>
</event>
<event>
13    1  0.3019759E-008  0.1472220E+03  0.7546771E-02  0.1258827E+00
          2   -1    0    0  502    0  0.00000000000E+00  0.00000000000E+00  0.12899209672E+04  0.12899209672E+04  0.00000000000E+00 0. -1.
          2   -1    0    0  503    0 -0.00000000000E+00 -0.00000000000E+00 -0.31782020423E+04  0.31782020423E+04  0.00000000000E+00 0. -1.
         25    2    1    2    0    0  0.56032224642E+02  0.13522068305E+03 -0.47326255037E+03  0.51090721766E+03  0.12499800058E+03 0.  0.
         24    2    1    2    0    0 -0.56427662629E+00 -0.80751765875E+01 -0.35690308239E+02  0.84180276747E+02  0.75808930912E+02 0.  0.
         24    2    1    2    0    0  0.18105028175E+02 -0.71954843337E+02  0.11771943152E+03  0.16161728425E+03  0.82200915374E+02 0.  0.
        -13    1    5    5    0    0  0.37073149176E+01 -0.85161872732E+02  0.70862576509E+02  0.11085032025E+03  0.00000000000E+00 0.  1.
         14    1    5    5    0    0  0.14397713258E+02  0.13207029395E+02  0.46856855007E+02  0.50766963999E+02  0.00000000000E+00 0. -1.
        -13    1    4    4    0    0  0.21932874138E+02  0.23875720823E+02 -0.30941730121E+02  0.44816198808E+02  0.00000000000E+00 0.  1.
         14    1    4    4    0    0 -0.22497150764E+02 -0.31950897410E+02 -0.47485781178E+01  0.39364077939E+02  0.00000000000E+00 0. -1.
          5    1    3    3  501    0  0.13240806759E+02  0.12960444145E+03 -0.23514164908E+03  0.26886114509E+03  0.47000000000E+01 0.  1.
         -5    1    3    3    0  501  0.42791417883E+02  0.56162416033E+01 -0.23812090129E+03  0.24204607257E+03  0.47000000000E+01 0.  1.
          1    1    1    2  502    0 -0.18506913803E+02 -0.13488228872E+03  0.11020943507E+04  0.11104718346E+04  0.00000000000E+00 0. -1.
          1    1    1    2  503    0 -0.55066062388E+02  0.79691625592E+02 -0.25991419987E+04  0.26009463962E+04  0.00000000000E+00 0. -1.
<mgrwt>
<rscale>  0 0.11094651E+03</rscale>
<asrwt>0</asrwt>
<pdfrwt beam="1">  1        2 0.18969426E+00 0.14722199E+03</pdfrwt>
<pdfrwt beam="2">  1        2 0.46738265E+00 0.83609297E+02</pdfrwt>
<totfact> 0.74135684E+00</totfact>
</mgrwt>
</event>
<event>
13    1  0.3019759E-008  0.2416228E+03  0.7546771E-02  0.1229032E+00
          2   -1    0    0  502    0  0.00000000000E+00  0.00000000000E+00  0.73849804836E+03  0.73849804836E+03  0.00000000000E+00 0. -1.
          2   -1    0    0  503    0 -0.00000000000E+00 -0.00000000000E+00 -0.30303624595E+04  0.30303624595E+04  0.00000000000E+00 0. -1.
         25    2    1    2    0    0 -0.21860784495E+03 -0.78291136431E+02 -0.99384246171E+03  0.10282339016E+04  0.12499290300E+03 0.  0.
         24    2    1    2    0    0  0.23682375026E+03 -0.25476749132E+03 -0.55608369371E+03  0.66113642715E+03  0.82947800278E+02 0.  0.
         24    2    1    2    0    0 -0.32130536965E+03  0.36761790695E+03 -0.21377823059E+03  0.53999951926E+03  0.86708032164E+02 0.  0.
        -13    1    4    4    0    0  0.17718765258E+03 -0.14593488626E+03 -0.40590657405E+03  0.46631813401E+03  0.00000000000E+00 0.  1.
         14    1    4    4    0    0  0.59636097684E+02 -0.10883260505E+03 -0.15017711967E+03  0.19481829314E+03  0.00000000000E+00 0. -1.
        -13    1    5    5    0    0 -0.13044278134E+03  0.21154951536E+03 -0.12265393179E+03  0.27715068760E+03  0.00000000000E+00 0.  1.
         14    1    5    5    0    0 -0.19086258831E+03  0.15606839159E+03 -0.91124298800E+02  0.26284883165E+03  0.00000000000E+00 0. -1.
          5    1    3    3  501    0 -0.60342443920E+02  0.85051060188E+01 -0.10726702022E+03  0.12345789158E+03  0.47000000000E+01 0. -1.
         -5    1    3    3    0  501 -0.15826540103E+03 -0.86796242450E+02 -0.88657544149E+03  0.90477601003E+03  0.47000000000E+01 0. -1.
          1    1    1    2  502    0  0.68585814499E+02  0.55635233756E+01  0.48953967472E+03  0.49435216179E+03  0.00000000000E+00 0. -1.
          1    1    1    2  503    0  0.23450364984E+03 -0.40122802578E+02 -0.10176996999E+04  0.10451384981E+04  0.00000000000E+00 0. -1.
<mgrwt>
<rscale>  0 0.12894312E+03</rscale>
<asrwt>0</asrwt>
<pdfrwt beam="1">  1        2 0.10860265E+00 0.68811095E+02</pdfrwt>
<pdfrwt beam="2">  1        2 0.44564154E+00 0.24162278E+03</pdfrwt>
<totfact> 0.16501526E+01</totfact>
</mgrwt>
</event>
<event>
13    1  0.3019759E-008  0.1979100E+03  0.7546771E-02  0.1154957E+00
          2   -1    0    0  503    0  0.00000000000E+00  0.00000000000E+00  0.21522437915E+04  0.21522437915E+04  0.00000000000E+00 0. -1.
          2   -1    0    0  502    0 -0.00000000000E+00 -0.00000000000E+00 -0.92855241825E+03  0.92855241825E+03  0.00000000000E+00 0. -1.
         25    2    1    2    0    0 -0.30762501129E+02  0.15845994997E+02 -0.19059992927E+03  0.23054387613E+03  0.12499887501E+03 0.  0.
         24    2    1    2    0    0 -0.23761582859E+03  0.82368512578E+02  0.26577774864E+03  0.37454678329E+03  0.80010170194E+02 0.  0.
         24    2    1    2    0    0 -0.10547308566E+03 -0.10258275902E+03  0.56580632806E+03  0.59013869428E+03  0.80492753475E+02 0.  0.
        -13    1    5    5    0    0 -0.32137127740E+02 -0.10650240192E+02  0.45535065556E+02  0.56742090116E+02  0.00000000000E+00 0.  1.
         14    1    5    5    0    0 -0.73335957923E+02 -0.91932518823E+02  0.52027126250E+03  0.53339660416E+03  0.00000000000E+00 0. -1.
        -13    1    4    4    0    0 -0.45317775339E+02 -0.66376135326E+01  0.82602673417E+02  0.94450835522E+02  0.00000000000E+00 0.  1.
         14    1    4    4    0    0 -0.19229805325E+03  0.89006126111E+02  0.18317507523E+03  0.28009594776E+03  0.00000000000E+00 0. -1.
          5    1    3    3  501    0  0.36736901203E+02  0.39826181576E+02 -0.56401116811E+02  0.78351136727E+02  0.47000000000E+01 0.  1.
         -5    1    3    3    0  501 -0.67499402333E+02 -0.23980186579E+02 -0.13419881246E+03  0.15219273941E+03  0.47000000000E+01 0.  1.
          1    1    1    2  502    0  0.77028703078E+02 -0.17322333276E+03 -0.61257686797E+03  0.64124111165E+03  0.00000000000E+00 0. -1.
          1    1    1    2  503    0  0.29682271230E+03  0.17759158420E+03  0.11952840938E+04  0.12443257444E+04  0.00000000000E+00 0. -1.
<mgrwt>
<rscale>  0 0.19393772E+03</rscale>
<asrwt>0</asrwt>
<pdfrwt beam="1">  1        2 0.31650644E+00 0.19791001E+03</pdfrwt>
<pdfrwt beam="2">  1        2 0.13655183E+00 0.19004515E+03</pdfrwt>
<totfact> 0.35235356E+01</totfact>
</mgrwt>
</event>
<event>
13    1  0.3019759E-008  0.2350954E+03  0.7546771E-02  0.1302563E+00
         -1   -1    0    0    0  501 -0.00000000000E+00  0.00000000000E+00  0.49110131063E+03  0.49110131063E+03  0.00000000000E+00 0.  1.
          2   -1    0    0  503    0  0.00000000000E+00 -0.00000000000E+00 -0.14763772143E+04  0.14763772143E+04  0.00000000000E+00 0. -1.
         25    2    1    2    0    0  0.10602619578E+02 -0.13973910783E+03 -0.36432878085E+02  0.19128937616E+03  0.12499934810E+03 0.  0.
         24    2    1    2    0    0 -0.73356426148E+02 -0.73070101572E+02 -0.74870585030E+02  0.14862445589E+03  0.75915870447E+02 0.  0.
         24    2    1    2    0    0 -0.13177178033E+03  0.50691657101E+02 -0.19320208653E+03  0.25125509030E+03  0.76606970789E+02 0.  0.
        -11    1    4    4    0    0  0.48720951155E+01  0.11664460030E+02 -0.11213704435E+02  0.16898050354E+02  0.00000000000E+00 0.  1.
         12    1    4    4    0    0 -0.78228521264E+02 -0.84734561603E+02 -0.63656880595E+02  0.13172640554E+03  0.00000000000E+00 0. -1.
        -11    1    5    5    0    0 -0.13152437132E+03  0.55913344895E+02 -0.19797920303E+03  0.24417355963E+03  0.00000000000E+00 0.  1.
         12    1    5    5    0    0 -0.24740900255E+00 -0.52216877934E+01  0.47771165003E+01  0.70815306738E+01  0.00000000000E+00 0. -1.
          5    1    3    3  502    0 -0.37415185076E+02 -0.58019014513E+02  0.30028376371E+02  0.75431396029E+02  0.47000000000E+01 0. -1.
         -5    1    3    3    0  502  0.48017804654E+02 -0.81720093315E+02 -0.66461254456E+02  0.11585798013E+03  0.47000000000E+01 0. -1.
          1    1    1    2  503    0  0.22713894379E+03  0.15072587159E+03 -0.10095570301E+04  0.10457130511E+04  0.00000000000E+00 0. -1.
         -2    1    1    2    0  501 -0.32613356897E+02  0.11391680710E+02  0.32878667613E+03  0.33059655146E+03  0.00000000000E+00 0.  1.
<mgrwt>
<rscale>  0 0.90119494E+02</rscale>
<asrwt>0</asrwt>
<pdfrwt beam="2">  1        2 0.21711430E+00 0.23509544E+03</pdfrwt>
<pdfrwt beam="1">  1       -1 0.72220779E-01 0.34545643E+02</pdfrwt>
<totfact> 0.37688133E+01</totfact>
</mgrwt>
</event>
<event>
13    1  0.3019759E-008  0.1979515E+03  0.7546771E-02  0.1287792E+00
          2   -1    0    0  502    0  0.00000000000E+00  0.00000000000E+00  0.46347470163E+04  0.46347470163E+04  0.00000000000E+00 0. -1.
          2   -1    0    0  503    0 -0.00000000000E+00 -0.00000000000E+00 -0.87485404286E+03  0.87485404286E+03  0.00000000000E+00 0. -1.
         25    2    1    2    0    0  0.41752765378E+03 -0.67885542750E+03  0.31482438430E+03  0.86597530837E+03  0.12499923459E+03 0.  0.
         24    2    1    2    0    0  0.11178805626E+02  0.83461242451E+03  0.85655832148E+03  0.11991605287E+04  0.87126061292E+02 0.  0.
         24    2    1    2    0    0 -0.18632895855E+03 -0.14252621220E+03  0.85358834970E+03  0.88677832568E+03  0.52254436993E+02 0.  0.
        -11    1    5    5    0    0 -0.69986391794E+02 -0.86242944503E+02  0.38755412143E+03  0.40315522761E+03  0.00000000000E+00 0.  1.
         12    1    5    5    0    0 -0.11634256676E+03 -0.56283267701E+02  0.46603422827E+03  0.48362309807E+03  0.00000000000E+00 0. -1.
        -13    1    4    4    0    0 -0.80221210367E+01  0.60715885422E+03  0.57030237158E+03  0.83303722829E+03  0.00000000000E+00 0.  1.
         14    1    4    4    0    0  0.19200926663E+02  0.22745357029E+03  0.28625594989E+03  0.36612330037E+03  0.00000000000E+00 0. -1.
          5    1    3    3  501    0  0.28491744903E+03 -0.35997590653E+03  0.21134945814E+03  0.50542189258E+03  0.47000000000E+01 0.  1.
         -5    1    3    3    0  501  0.13261020475E+03 -0.31887952096E+03  0.10347492616E+03  0.36055341579E+03  0.47000000000E+01 0.  1.
          1    1    1    2  502    0 -0.44851579136E+02 -0.14250920742E+02  0.21223172814E+04  0.21228389943E+04  0.00000000000E+00 0. -1.
          1    1    1    2  503    0 -0.19752592172E+03  0.10201359292E+01 -0.38739536340E+03  0.43484790216E+03  0.00000000000E+00 0. -1.
<mgrwt>
<rscale>  0 0.96518535E+02</rscale>
<asrwt>0</asrwt>
<pdfrwt beam="1">  1        2 0.68158043E+00 0.47061161E+02</pdfrwt>
<pdfrwt beam="2">  1        2 0.12865501E+00 0.19795150E+03</pdfrwt>
<totfact> 0.15971470E+00</totfact>
</mgrwt>
</event>
<event>
13    1  0.3019759E-008  0.2251051E+03  0.7546771E-02  0.1262628E+00
         -1   -1    0    0    0  501 -0.00000000000E+00  0.00000000000E+00  0.25059259764E+03  0.25059259764E+03  0.00000000000E+00 0.  1.
          2   -1    0    0  503    0  0.00000000000E+00 -0.00000000000E+00 -0.25117424758E+04  0.25117424758E+04  0.00000000000E+00 0. -1.
         25    2    1    2    0    0 -0.23137846647E+03  0.32885932957E+02 -0.47605064004E+03  0.54485420638E+03  0.12499765996E+03 0.  0.
         24    2    1    2    0    0  0.11196995256E+02  0.15678467661E+02 -0.19768796399E+03  0.21512479660E+03  0.82625419524E+02 0.  0.
         24    2    1    2    0    0 -0.11712181649E+00 -0.30954417754E+02 -0.54184348223E+03  0.54865370919E+03  0.80426013671E+02 0.  0.
        -11    1    5    5    0    0 -0.30286793140E+02 -0.30663475879E+02 -0.44825360438E+03  0.45032081057E+03  0.00000000000E+00 0.  1.
         12    1    5    5    0    0  0.30169671324E+02 -0.29094187534E+00 -0.93589877852E+02  0.98332898622E+02  0.00000000000E+00 0. -1.
        -13    1    4    4    0    0 -0.31323665852E+02 -0.24545883525E+01 -0.12574550367E+03  0.12961145297E+03  0.00000000000E+00 0.  1.
         14    1    4    4    0    0  0.42520661109E+02  0.18133056013E+02 -0.71942460321E+02  0.85513343628E+02  0.00000000000E+00 0. -1.
          5    1    3    3  502    0 -0.68902579243E+02  0.17726391849E+02 -0.45977698109E+02  0.84840020732E+02  0.47000000000E+01 0.  1.
         -5    1    3    3    0  502 -0.16247588722E+03  0.15159541109E+02 -0.43007294193E+03  0.46001418565E+03  0.47000000000E+01 0.  1.
          1    1    1    2  503    0 -0.21297036160E+01 -0.52636145826E+02 -0.11867590961E+04  0.11879277131E+04  0.00000000000E+00 0. -1.
         -2    1    1    2    0  501  0.22242829664E+03  0.35026162962E+02  0.14119130417E+03  0.26577464817E+03  0.00000000000E+00 0.  1.
<mgrwt>
<rscale>  0 0.10889609E+03</rscale>
<asrwt>0</asrwt>
<pdfrwt beam="2">  1        2 0.36937386E+00 0.52679213E+02</pdfrwt>
<pdfrwt beam="1">  1       -1 0.36851856E-01 0.22510508E+03</pdfrwt>
<totfact> 0.46068890E+01</totfact>
</mgrwt>
</event>
<event>
13    1  0.3019759E-008  0.1032008E+03  0.7546771E-02  0.1323285E+00
          2   -1    0    0  503    0  0.00000000000E+00  0.00000000000E+00  0.15802400907E+04  0.15802400907E+04  0.00000000000E+00 0. -1.
          2   -1    0    0  502    0 -0.00000000000E+00 -0.00000000000E+00 -0.18530694327E+04  0.18530694327E+04  0.00000000000E+00 0. -1.
         25    2    1    2    0    0 -0.96876239797E+02  0.57859434851E+02 -0.33297015036E+03  0.37313244094E+03  0.12500390957E+03 0.  0.
         24    2    1    2    0    0  0.28179358470E+01  0.19934505205E+02  0.10914902747E+03  0.13656849193E+03  0.79574603559E+02 0.  0.
         24    2    1    2    0    0 -0.30722868378E+01 -0.50841087832E+02  0.62859021573E+03  0.63573597843E+03  0.80251603035E+02 0.  0.
        -11    1    4    4    0    0  0.97752786987E+01 -0.11058940835E+02  0.10320163598E+03  0.10425178136E+03  0.00000000000E+00 0.  1.
         12    1    4    4    0    0 -0.69573428517E+01  0.30993446040E+02  0.59473914811E+01  0.32316710576E+02  0.00000000000E+00 0. -1.
        -13    1    5    5    0    0 -0.17692897287E+02 -0.68304626868E+02  0.52141599864E+03  0.52616841819E+03  0.00000000000E+00 0.  1.
         14    1    5    5    0    0  0.14620610449E+02  0.17463539036E+02  0.10717421710E+03  0.10956756024E+03  0.00000000000E+00 0. -1.
          5    1    3    3  501    0 -0.15839703918E+02  0.36535800255E+02 -0.25642645346E+03  0.25954263033E+03  0.47000000000E+01 0. -1.
         -5    1    3    3    0  501 -0.81036535880E+02  0.21323634596E+02 -0.76543696901E+02  0.11358981061E+03  0.47000000000E+01 0. -1.
          1    1    1    2  502    0  0.62223023021E+02 -0.82093934124E+02 -0.14796193935E+04  0.14832008186E+04  0.00000000000E+00 0. -1.
          1    1    1    2  503    0  0.34907567768E+02  0.55141081900E+02  0.80202095864E+03  0.80467179353E+03  0.00000000000E+00 0. -1.
<mgrwt>
<rscale>  0 0.82067350E+02</rscale>
<asrwt>0</asrwt>
<pdfrwt beam="1">  1        2 0.23238825E+00 0.65261606E+02</pdfrwt>
<pdfrwt beam="2">  1        2 0.27251021E+00 0.10320080E+03</pdfrwt>
<totfact> 0.25369163E+01</totfact>
</mgrwt>
</event>
<event>
13    1  0.3019759E-008  0.6428943E+02  0.7546771E-02  0.1408416E+00
          2   -1    0    0  503    0  0.00000000000E+00  0.00000000000E+00  0.43163372729E+03  0.43163372729E+03  0.00000000000E+00 0. -1.
          2   -1    0    0  502    0 -0.00000000000E+00 -0.00000000000E+00 -0.96518112641E+03  0.96518112641E+03  0.00000000000E+00 0. -1.
         25    2    1    2    0    0  0.88193335922E+02  0.17558970362E+02 -0.36059858399E+02  0.15814968078E+03  0.12499850480E+03 0.  0.
         24    2    1    2    0    0 -0.12643811734E+03 -0.53768120707E+02 -0.16653206358E+03  0.23055263657E+03  0.80894880604E+02 0.  0.
         24    2    1    2    0    0  0.91221053231E+02  0.13752030292E+03 -0.10335445236E+03  0.21052650202E+03  0.80038434273E+02 0.  0.
        -11    1    4    4    0    0 -0.42439346329E+02 -0.13555814593E+02 -0.59871001009E+01  0.44952236804E+02  0.00000000000E+00 0.  1.
         12    1    4    4    0    0 -0.83998771011E+02 -0.40212306114E+02 -0.16054496348E+03  0.18560039976E+03  0.00000000000E+00 0. -1.
        -11    1    5    5    0    0 -0.42401959927E+01  0.49753471798E+02 -0.48871558465E+02  0.69869996743E+02  0.00000000000E+00 0.  1.
         12    1    5    5    0    0  0.95461249224E+02  0.87766831124E+02 -0.54482893891E+02  0.14065650527E+03  0.00000000000E+00 0. -1.
          5    1    3    3  501    0  0.72268881884E+02  0.66902172414E+02 -0.38947266298E+02  0.10600788421E+03  0.47000000000E+01 0.  1.
         -5    1    3    3    0  501  0.15924454039E+02 -0.49343202052E+02  0.28874078990E+01  0.52141796570E+02  0.47000000000E+01 0.  1.
          1    1    1    2  502    0 -0.16629411836E+02 -0.48757220327E+02 -0.50769193923E+03  0.51029884287E+03  0.00000000000E+00 0. -1.
          1    1    1    2  503    0 -0.36346859979E+02 -0.52553932251E+02  0.28009091445E+03  0.28728719147E+03  0.00000000000E+00 0. -1.
<mgrwt>
<rscale>  0 0.57548897E+02</rscale>
<asrwt>0</asrwt>
<pdfrwt beam="1">  1        2 0.63475549E-01 0.64289433E+02</pdfrwt>
<pdfrwt beam="2">  1        2 0.14193840E+00 0.51515084E+02</pdfrwt>
<totfact> 0.38375405E+02</totfact>
</mgrwt>
</event>
<event>
13    1  0.3019759E-008  0.3047329E+02  0.7546771E-02  0.1632858E+00
          2   -1    0    0  502    0  0.00000000000E+00  0.00000000000E+00  0.19673840513E+04  0.19673840513E+04  0.00000000000E+00 0. -1.
          2   -1    0    0  503    0 -0.00000000000E+00 -0.00000000000E+00 -0.15011958044E+04  0.15011958044E+04  0.00000000000E+00 0. -1.
         25    2    1    2    0    0  0.14284638182E+03  0.21479227268E+03 -0.56307958687E+03  0.63184104971E+03  0.12499472687E+03 0.  0.
         24    2    1    2    0    0  0.16287840050E+03 -0.35907152331E+03 -0.44851995944E+02  0.40081606413E+03  0.56392229286E+02 0.  0.
         24    2    1    2    0    0 -0.32080888834E+03  0.14037425194E+03  0.84832237461E+03  0.92126734844E+03  0.80370408699E+02 0.  0.
        -13    1    4    4    0    0  0.13458641946E+03 -0.33096266969E+03 -0.49383328876E+02  0.36067784268E+03  0.00000000000E+00 0.  1.
         14    1    4    4    0    0  0.28291981037E+02 -0.28108853621E+02  0.45313329317E+01  0.40138221448E+02  0.00000000000E+00 0. -1.
        -13    1    5    5    0    0 -0.77640876609E+02  0.26094285889E+01  0.14603651719E+03  0.16541335856E+03  0.00000000000E+00 0.  1.
         14    1    5    5    0    0 -0.24316801173E+03  0.13776482336E+03  0.70228585742E+03  0.75585398988E+03  0.00000000000E+00 0. -1.
          5    1    3    3  501    0  0.30445984638E+02  0.69731355383E+02 -0.30974381597E+03  0.31898705528E+03  0.47000000000E+01 0. -1.
         -5    1    3    3    0  501  0.11240039718E+03  0.14506091729E+03 -0.25333577090E+03  0.31285399443E+03  0.47000000000E+01 0. -1.
          1    1    1    2  502    0  0.24389881429E+02 -0.18279746162E+02  0.86973484881E+03  0.87026876462E+03  0.00000000000E+00 0. -1.
          1    1    1    2  503    0 -0.93057754007E+01  0.22184744854E+02 -0.64393739369E+03  0.64438662878E+03  0.00000000000E+00 0. -1.
<mgrwt>
<rscale>  0 0.27075992E+02</rscale>
<asrwt>0</asrwt>
<pdfrwt beam="1">  1        2 0.28932119E+00 0.30473291E+02</pdfrwt>
<pdfrwt beam="2">  1        2 0.22076409E+00 0.24057439E+02</pdfrwt>
<totfact> 0.30350738E+01</totfact>
</mgrwt>
</event>
<event>
13    1  0.3019759E-008  0.8233148E+02  0.7546771E-02  0.1379548E+00
          2   -1    0    0  503    0  0.00000000000E+00  0.00000000000E+00  0.45773936423E+03  0.45773936423E+03  0.00000000000E+00 0. -1.
          2   -1    0    0  502    0 -0.00000000000E+00 -0.00000000000E+00 -0.34179504666E+04  0.34179504666E+04  0.00000000000E+00 0. -1.
         25    2    1    2    0    0  0.13621981177E+02 -0.29921515891E+02 -0.38006508043E+03  0.40144176248E+03  0.12500067129E+03 0.  0.
         24    2    1    2    0    0 -0.12596934397E+02 -0.29693616008E+02 -0.29558221385E+01  0.88635804669E+02  0.82505608276E+02 0.  0.
         24    2    1    2    0    0 -0.40690225927E+01  0.24163648695E+02  0.72584083293E+02  0.11218407053E+03  0.81953509204E+02 0.  0.
        -13    1    5    5    0    0  0.23218278658E+02 -0.19507842852E+02  0.43547372409E+02  0.53066166625E+02  0.00000000000E+00 0.  1.
         14    1    5    5    0    0 -0.27287301251E+02  0.43671491547E+02  0.29036710884E+02  0.59117903908E+02  0.00000000000E+00 0. -1.
        -13    1    4    4    0    0 -0.29823616019E+01 -0.58047162925E+02  0.26153424075E+01  0.58182537074E+02  0.00000000000E+00 0.  1.
         14    1    4    4    0    0 -0.96145727953E+01  0.28353546917E+02 -0.55711645460E+01  0.30453267595E+02  0.00000000000E+00 0. -1.
          5    1    3    3  501    0 -0.11543895281E+02 -0.16301762733E+01  0.56944763411E+01  0.13799857018E+02  0.47000000000E+01 0. -1.
         -5    1    3    3    0  501  0.25165876458E+02 -0.28291339617E+02 -0.38575955677E+03  0.38764190546E+03  0.47000000000E+01 0. -1.
          1    1    1    2  502    0 -0.30720405922E+02 -0.40283094606E+02 -0.29558678683E+04  0.29563019680E+04  0.00000000000E+00 0. -1.
          1    1    1    2  503    0  0.33764381734E+02  0.75734577810E+02  0.30609358523E+03  0.31712622513E+03  0.00000000000E+00 0. -1.
<mgrwt>
<rscale>  0 0.64582829E+02</rscale>
<asrwt>0</asrwt>
<pdfrwt beam="1">  1        2 0.67314613E-01 0.82331485E+02</pdfrwt>
<pdfrwt beam="2">  1        2 0.50263977E+00 0.50660350E+02</pdfrwt>
<totfact> 0.21840741E+01</totfact>
</mgrwt>
</event>
<event>
13    1  0.3019759E-008  0.5026969E+02  0.7546771E-02  0.1475642E+00
          2   -1    0    0  503    0  0.00000000000E+00  0.00000000000E+00  0.13005025890E+04  0.13005025890E+04  0.00000000000E+00 0. -1.
         -1   -1    0    0    0  501 -0.00000000000E+00 -0.00000000000E+00 -0.46440464075E+03  0.46440464075E+03  0.00000000000E+00 0.  1.
         25    2    1    2    0    0 -0.88097324628E+02 -0.38992136336E+02 -0.30401460196E+03  0.34253538360E+03  0.12499634199E+03 0.  0.
         24    2    1    2    0    0  0.84316576789E+01 -0.43212462526E+01  0.23770277992E+03  0.25074318795E+03  0.79244991648E+02 0.  0.
         24    2    1    2    0    0  0.41850988689E+02 -0.27278683299E+02  0.52682482169E+03  0.53459024106E+03  0.75807000150E+02 0.  0.
        -11    1    4    4    0    0 -0.25284193291E+02  0.53562812770E+01  0.27912379543E+02  0.38040519334E+02  0.00000000000E+00 0.  1.
         12    1    4    4    0    0  0.33715850970E+02 -0.96775275296E+01  0.20979040037E+03  0.21270266861E+03  0.00000000000E+00 0. -1.
        -13    1    5    5    0    0  0.74584628826E+01 -0.49342970063E+02  0.28376998720E+03  0.28812456160E+03  0.00000000000E+00 0.  1.
         14    1    5    5    0    0  0.34392525806E+02  0.22064286764E+02  0.24305483449E+03  0.24646567946E+03  0.00000000000E+00 0. -1.
          5    1    3    3  502    0 -0.97048014037E+02  0.14887454633E+02 -0.15275668803E+03  0.18164979789E+03  0.47000000000E+01 0. -1.
         -5    1    3    3    0  502  0.89506894094E+01 -0.53879590969E+02 -0.15125791393E+03  0.16088558571E+03  0.47000000000E+01 0. -1.
          1    1    1    2  503    0  0.35920508300E+01  0.50055157646E+02  0.50198479149E+03  0.50448701919E+03  0.00000000000E+00 0. -1.
         -2    1    1    2    0  501  0.34222627430E+02  0.20536908242E+02 -0.12639984287E+03  0.13255139798E+03  0.00000000000E+00 0.  1.
<mgrwt>
<rscale>  0 0.44792350E+02</rscale>
<asrwt>0</asrwt>
<pdfrwt beam="1">  1        2 0.19125038E+00 0.50269695E+02</pdfrwt>
<pdfrwt beam="2">  1       -1 0.68294800E-01 0.39911813E+02</pdfrwt>
<totfact> 0.57212630E+01</totfact>
</mgrwt>
</event>
<event>
13    1  0.3019759E-008  0.1437222E+03  0.7546771E-02  0.1273866E+00
          2   -1    0    0  503    0  0.00000000000E+00  0.00000000000E+00  0.13786064736E+04  0.13786064736E+04  0.00000000000E+00 0. -1.
          2   -1    0    0  502    0 -0.00000000000E+00 -0.00000000000E+00 -0.72862315566E+03  0.72862315566E+03  0.00000000000E+00 0. -1.
         25    2    1    2    0    0 -0.99047798852E+02  0.19632370485E+03 -0.28330602029E+03  0.37978906819E+03  0.12499588650E+03 0.  0.
         24    2    1    2    0    0  0.72030859930E+02  0.26561365315E+02 -0.30744373966E+02  0.11573277733E+03  0.80962388229E+02 0.  0.
         24    2    1    2    0    0 -0.77381403838E+02 -0.13229217204E+03  0.13378517154E+03  0.21796629984E+03  0.78241519037E+02 0.  0.
        -11    1    4    4    0    0 -0.38369304089E+01  0.32035161587E+02  0.32297292391E+01  0.32425372224E+02  0.00000000000E+00 0.  1.
         12    1    4    4    0    0  0.75867790339E+02 -0.54737962726E+01 -0.33974103205E+02  0.83307405104E+02  0.00000000000E+00 0. -1.
        -13    1    5    5    0    0 -0.47124471778E+01  0.92253305695E+01  0.40837814155E+00  0.10367287747E+02  0.00000000000E+00 0.  1.
         14    1    5    5    0    0 -0.72668956661E+02 -0.14151750261E+03  0.13337679340E+03  0.20759901210E+03  0.00000000000E+00 0. -1.
          5    1    3    3  501    0 -0.68230339590E+01  0.76619427886E+02 -0.18243075826E+03  0.19804080913E+03  0.47000000000E+01 0. -1.
         -5    1    3    3    0  501 -0.92224764893E+02  0.11970427696E+03 -0.10087526203E+03  0.18174825906E+03  0.47000000000E+01 0. -1.
          1    1    1    2  502    0 -0.36397343660E+02 -0.64418113780E+02 -0.27217635215E+03  0.28205394285E+03  0.00000000000E+00 0. -1.
          1    1    1    2  503    0  0.14079568642E+03 -0.26174784340E+02  0.11024248928E+04  0.11116875410E+04  0.00000000000E+00 0. -1.
<mgrwt>
<rscale>  0 0.10312103E+03</rscale>
<asrwt>0</asrwt>
<pdfrwt beam="1">  1        2 0.20273625E+00 0.14372218E+03</pdfrwt>
<pdfrwt beam="2">  1        2 0.10715046E+00 0.73989594E+02</pdfrwt>
<totfact> 0.12275675E+02</totfact>
</mgrwt>
</event>
<event>
13    1  0.3019759E-008  0.1184067E+03  0.7546771E-02  0.1432322E+00
         -1   -1    0    0    0  501 -0.00000000000E+00  0.00000000000E+00  0.92003810907E+03  0.92003810907E+03  0.00000000000E+00 0.  1.
          2   -1    0    0  503    0  0.00000000000E+00 -0.00000000000E+00 -0.46119144478E+04  0.46119144478E+04  0.00000000000E+00 0. -1.
         25    2    1    2    0    0  0.25313098317E+03  0.31994449842E+02 -0.14935050232E+03  0.32097532501E+03  0.12498258782E+03 0.  0.
         24    2    1    2    0    0 -0.14734373060E+03  0.68091855869E+02 -0.82260540924E+03  0.84143048160E+03  0.70561464490E+02 0.  0.
         24    2    1    2    0    0 -0.38992071961E+02 -0.14345503071E+02 -0.41668117847E+03  0.42653507481E+03  0.81134397242E+02 0.  0.
        -11    1    5    5    0    0 -0.51966319609E+02 -0.10737416922E+02 -0.40570891909E+03  0.40916441381E+03  0.00000000000E+00 0.  1.
         12    1    5    5    0    0  0.12974247648E+02 -0.36080861487E+01 -0.10972259376E+02  0.17370660998E+02  0.00000000000E+00 0. -1.
        -13    1    4    4    0    0 -0.14521413059E+03  0.79380519613E+02 -0.76718689978E+03  0.78483383580E+03  0.00000000000E+00 0.  1.
         14    1    4    4    0    0 -0.21296000073E+01 -0.11288663744E+02 -0.55418509457E+02  0.56596645800E+02  0.00000000000E+00 0. -1.
          5    1    3    3  502    0  0.96492002143E+02  0.11031006742E+02 -0.12903668716E+03  0.16157025166E+03  0.47000000000E+01 0.  1.
         -5    1    3    3    0  502  0.15663898103E+03  0.20963443100E+02 -0.20313815166E+02  0.15940507335E+03  0.47000000000E+01 0.  1.
          1    1    1    2  503    0 -0.89634603291E+02 -0.90221919033E+02 -0.31216652257E+04  0.31242548132E+04  0.00000000000E+00 0. -1.
         -2    1    1    2    0  501  0.22839422681E+02  0.44811163932E+01  0.81842597698E+03  0.81875686222E+03  0.00000000000E+00 0.  1.
<mgrwt>
<rscale>  0 0.52496679E+02</rscale>
<asrwt>0</asrwt>
<pdfrwt beam="2">  1        2 0.67822272E+00 0.11840673E+03</pdfrwt>
<pdfrwt beam="1">  1       -1 0.13529972E+00 0.23274871E+02</pdfrwt>
<totfact> 0.16449804E-01</totfact>
</mgrwt>
</event>
<event>
13    1  0.3019759E-008  0.1109727E+03  0.7546771E-02  0.1291090E+00
          2   -1    0    0  502    0  0.00000000000E+00  0.00000000000E+00  0.28170112950E+04  0.28170112950E+04  0.00000000000E+00 0. -1.
          2   -1    0    0  503    0 -0.00000000000E+00 -0.00000000000E+00 -0.22543962718E+04  0.22543962718E+04  0.00000000000E+00 0. -1.
         25    2    1    2    0    0 -0.19334266937E+02 -0.14914108500E+03 -0.10310053729E+03  0.22106891306E+03  0.12499946568E+03 0.  0.
         24    2    1    2    0    0 -0.38830914565E+02  0.36651065301E+02 -0.31342854141E+02  0.92458056656E+02  0.68665691733E+02 0.  0.
         24    2    1    2    0    0  0.46501918225E+02  0.57791532834E+02  0.64165721170E+03  0.65073113180E+03  0.78897014475E+02 0.  0.
        -11    1    5    5    0    0  0.63610026829E+02  0.23689200771E+02  0.47064539190E+03  0.47551498258E+03  0.00000000000E+00 0.  1.
         12    1    5    5    0    0 -0.17108108604E+02  0.34102332063E+02  0.17101181981E+03  0.17521614921E+03  0.00000000000E+00 0. -1.
        -13    1    4    4    0    0 -0.70075057636E+01  0.46641757487E+02 -0.35240098726E+02  0.58876338513E+02  0.00000000000E+00 0.  1.
         14    1    4    4    0    0 -0.31823408801E+02 -0.99906921854E+01  0.38972445845E+01  0.33581718143E+02  0.00000000000E+00 0. -1.
          5    1    3    3  501    0  0.12904066561E+01  0.21642151362E+02 -0.20409248784E+02  0.30144241586E+02  0.47000000000E+01 0. -1.
         -5    1    3    3    0  501 -0.20624673593E+02 -0.17078323636E+03 -0.82691288504E+02  0.19092467147E+03  0.47000000000E+01 0. -1.
          1    1    1    2  502    0  0.71565714304E+02 -0.38767668008E+02  0.20789575650E+04  0.20805502014E+04  0.00000000000E+00 0. -1.
          1    1    1    2  503    0 -0.59902451028E+02  0.93466154870E+02 -0.20235563621E+04  0.20265992639E+04  0.00000000000E+00 0. -1.
<mgrwt>
<rscale>  0 0.95038086E+02</rscale>
<asrwt>0</asrwt>
<pdfrwt beam="1">  1        2 0.41426637E+00 0.81391545E+02</pdfrwt>
<pdfrwt beam="2">  1        2 0.33152886E+00 0.11097268E+03</pdfrwt>
<totfact> 0.39521521E+00</totfact>
</mgrwt>
</event>
<event>
13    1  0.3019759E-008  0.5123854E+02  0.7546771E-02  0.1509816E+00
         -1   -1    0    0    0  501 -0.00000000000E+00  0.00000000000E+00  0.10972005534E+04  0.10972005534E+04  0.00000000000E+00 0.  1.
          2   -1    0    0  503    0  0.00000000000E+00 -0.00000000000E+00 -0.13328751780E+04  0.13328751780E+04  0.00000000000E+00 0. -1.
         25    2    1    2    0    0  0.16200723485E+02  0.22496355006E+02 -0.15571832734E+03  0.20159843931E+03  0.12500073533E+03 0.  0.
         24    2    1    2    0    0 -0.11374356277E+02  0.24511257344E+02 -0.18314246752E+03  0.20436841863E+03  0.86574299918E+02 0.  0.
         24    2    1    2    0    0  0.32871370713E+02  0.12891113090E+02 -0.41549033393E+03  0.42472792921E+03  0.80714858923E+02 0.  0.
        -11    1    4    4    0    0 -0.11281059372E+02 -0.29429758204E+02 -0.10338818903E+03  0.10808557073E+03  0.00000000000E+00 0.  1.
         12    1    4    4    0    0 -0.93296904969E-01  0.53941015548E+02 -0.79754278492E+02  0.96282847904E+02  0.00000000000E+00 0. -1.
        -13    1    5    5    0    0  0.59329018244E+02  0.14205360135E+02 -0.26574292418E+03  0.27265550868E+03  0.00000000000E+00 0.  1.
         14    1    5    5    0    0 -0.26457647531E+02 -0.13142470451E+01 -0.14974740975E+03  0.15207242052E+03  0.00000000000E+00 0. -1.
          5    1    3    3  502    0  0.17881684705E+02 -0.37389168907E+02 -0.12946948576E+03  0.13602258027E+03  0.47000000000E+01 0. -1.
         -5    1    3    3    0  502 -0.16809612203E+01  0.59885523913E+02 -0.26248841578E+02  0.65575859043E+02  0.47000000000E+01 0. -1.
          1    1    1    2  503    0 -0.84081025246E+01 -0.50090613406E+02 -0.53893268441E+03  0.54132079589E+03  0.00000000000E+00 0. -1.
         -2    1    1    2    0  501 -0.29289635396E+02 -0.98081120336E+01  0.10576091886E+04  0.10580601484E+04  0.00000000000E+00 0.  1.
<mgrwt>
<rscale>  0 0.39782746E+02</rscale>
<asrwt>0</asrwt>
<pdfrwt beam="2">  1        2 0.19601106E+00 0.51238536E+02</pdfrwt>
<pdfrwt beam="1">  1       -1 0.16135302E+00 0.30888215E+02</pdfrwt>
<totfact> 0.85418381E+00</totfact>
</mgrwt>
</event>
<event>
13    1  0.3019759E-008  0.5689541E+02  0.7546771E-02  0.1422697E+00
          2   -1    0    0  503    0  0.00000000000E+00  0.00000000000E+00  0.54663038895E+03  0.54663038895E+03  0.00000000000E+00 0. -1.
          2   -1    0    0  502    0 -0.00000000000E+00 -0.00000000000E+00 -0.14875135206E+04  0.14875135206E+04  0.00000000000E+00 0. -1.
         25    2    1    2    0    0 -0.80744851673E+02 -0.34608801894E+02 -0.66600811152E+03  0.68331300170E+03  0.12502941027E+03 0.  0.
         24    2    1    2    0    0 -0.83095926181E+01 -0.21552514593E+01 -0.14340483983E+03  0.16506268775E+03  0.81283752126E+02 0.  0.
         24    2    1    2    0    0  0.15397715096E+02 -0.16744217586E+02  0.19583779596E+03  0.21599644285E+03  0.88230168010E+02 0.  0.
        -11    1    5    5    0    0 -0.12924145873E+02  0.31970524108E+02  0.66251216314E+02  0.74688497249E+02  0.00000000000E+00 0.  1.
         12    1    5    5    0    0  0.28321860969E+02 -0.48714741694E+02  0.12958657964E+03  0.14130794560E+03  0.00000000000E+00 0. -1.
        -13    1    4    4    0    0  0.28829935464E+02  0.14759629275E+02 -0.28558449097E+02  0.43180977872E+02  0.00000000000E+00 0.  1.
         14    1    4    4    0    0 -0.37139528082E+02 -0.16914880735E+02 -0.11484639074E+03  0.12188170987E+03  0.00000000000E+00 0. -1.
          5    1    3    3  501    0 -0.52307710386E+01  0.33948138783E+02 -0.33820569841E+03  0.33997797213E+03  0.47000000000E+01 0.  1.
         -5    1    3    3    0  501 -0.75514080634E+02 -0.68556940677E+02 -0.32780241311E+03  0.34333502957E+03  0.47000000000E+01 0.  1.
          1    1    1    2  502    0  0.21547595154E+02  0.52533688635E+02 -0.64517075309E+03  0.64766456438E+03  0.00000000000E+00 0. -1.
          1    1    1    2  503    0  0.52109134041E+02  0.97458230401E+00  0.31786277686E+03  0.32210721286E+03  0.00000000000E+00 0. -1.
<mgrwt>
<rscale>  0 0.54454467E+02</rscale>
<asrwt>0</asrwt>
<pdfrwt beam="1">  1        2 0.80386822E-01 0.52118247E+02</pdfrwt>
<pdfrwt beam="2">  1        2 0.21875199E+00 0.56895408E+02</pdfrwt>
<totfact> 0.16058698E+02</totfact>
</mgrwt>
</event>
<event>
13    1  0.3019759E-008  0.6102351E+02  0.7546771E-02  0.1427881E+00
          2   -1    0    0  503    0  0.00000000000E+00  0.00000000000E+00  0.65937485224E+03  0.65937485224E+03  0.00000000000E+00 0. -1.
          2   -1    0    0  502    0 -0.00000000000E+00 -0.00000000000E+00 -0.87817737067E+03  0.87817737067E+03  0.00000000000E+00 0. -1.
         25    2    1    2    0    0  0.22910966298E+02  0.56964819235E+02 -0.32260266844E+03  0.35137742174E+03  0.12499483116E+03 0.  0.
         24    2    1    2    0    0  0.71421092066E+01  0.81896374856E+02 -0.26951077379E+02  0.11697046830E+03  0.78725497416E+02 0.  0.
         24    2    1    2    0    0 -0.22681650136E+02 -0.15712610309E+03  0.42145558097E+03  0.45776740528E+03  0.81994640543E+02 0.  0.
        -11    1    4    4    0    0  0.34486231798E+02  0.78958921780E+02 -0.17751912579E+02  0.87971256172E+02  0.00000000000E+00 0.  1.
         12    1    4    4    0    0 -0.27344122592E+02  0.29374530764E+01 -0.91991648001E+01  0.28999212125E+02  0.00000000000E+00 0. -1.
        -13    1    5    5    0    0 -0.74247910592E+01 -0.12047227430E+03  0.20660035460E+03  0.23927474359E+03  0.00000000000E+00 0.  1.
         14    1    5    5    0    0 -0.15256859076E+02 -0.36653828789E+02  0.21485522637E+03  0.21849266169E+03  0.00000000000E+00 0. -1.
          5    1    3    3  501    0 -0.48627376817E+02  0.10400702630E+02 -0.16080907609E+03  0.16838778265E+03  0.47000000000E+01 0. -1.
         -5    1    3    3    0  501  0.71538343116E+02  0.46564116604E+02 -0.16179359235E+03  0.18298963909E+03  0.47000000000E+01 0. -1.
          1    1    1    2  502    0 -0.20494405334E+02 -0.41970999739E+02 -0.44387484895E+03  0.44632551686E+03  0.00000000000E+00 0. -1.
          1    1    1    2  503    0  0.13122979965E+02  0.60235908740E+02  0.15317049537E+03  0.16511141074E+03  0.00000000000E+00 0. -1.
<mgrwt>
<rscale>  0 0.53387756E+02</rscale>
<asrwt>0</asrwt>
<pdfrwt beam="1">  1        2 0.96966890E-01 0.61023515E+02</pdfrwt>
<pdfrwt beam="2">  1        2 0.12914373E+00 0.46707446E+02</pdfrwt>
<totfact> 0.27536299E+02</totfact>
</mgrwt>
</event>
<event>
13    1  0.3019759E-008  0.3000722E+02  0.7546771E-02  0.1781057E+00
          2   -1    0    0  502    0  0.00000000000E+00  0.00000000000E+00  0.78398567148E+03  0.78398567148E+03  0.00000000000E+00 0. -1.
          2   -1    0    0  503    0 -0.00000000000E+00 -0.00000000000E+00 -0.61370288746E+03  0.61370288746E+03  0.00000000000E+00 0. -1.
         25    2    1    2    0    0 -0.41760527679E+02  0.44375381260E+02 -0.13430326192E+03  0.19332683230E+03  0.12499912716E+03 0.  0.
         24    2    1    2    0    0  0.10603043152E+01 -0.57789932478E+02 -0.84881887481E+02  0.13091966190E+03  0.81204818260E+02 0.  0.
         24    2    1    2    0    0  0.25791734438E+02  0.24964278282E+02  0.25441802830E+03  0.26945078448E+03  0.81158877402E+02 0.  0.
        -13    1    5    5    0    0  0.25612856862E+02 -0.22911734943E+02  0.59235229660E+02  0.68481957241E+02  0.00000000000E+00 0.  1.
         14    1    5    5    0    0  0.17887757593E+00  0.47876013225E+02  0.19518279864E+03  0.20096882724E+03  0.00000000000E+00 0. -1.
        -13    1    4    4    0    0  0.39715011620E+02 -0.23472588376E+02 -0.52657790486E+02  0.70007767083E+02  0.00000000000E+00 0.  1.
         14    1    4    4    0    0 -0.38654707305E+02 -0.34317344102E+02 -0.32224096995E+02  0.60911894817E+02  0.00000000000E+00 0. -1.
          5    1    3    3  501    0 -0.58531651211E+02  0.70848362704E+02 -0.13284774384E+03  0.16160463402E+03  0.47000000000E+01 0.  1.
         -5    1    3    3    0  501  0.16771123533E+02 -0.26472981444E+02 -0.14555180731E+01  0.31722198283E+02  0.47000000000E+01 0.  1.
          1    1    1    2  502    0 -0.91409022802E+01  0.64362477024E+01  0.46877971401E+03  0.46891300008E+03  0.00000000000E+00 0. -1.
          1    1    1    2  503    0  0.24049391205E+02 -0.17985974766E+02 -0.33372980889E+03  0.33507828018E+03  0.00000000000E+00 0. -1.
<mgrwt>
<rscale>  0 0.18315728E+02</rscale>
<asrwt>0</asrwt>
<pdfrwt beam="1">  1        2 0.11529201E+00 0.11179507E+02</pdfrwt>
<pdfrwt beam="2">  1        2 0.90250425E-01 0.30007217E+02</pdfrwt>
<totfact> 0.36211499E+02</totfact>
</mgrwt>
</event>
<event>
13    1  0.3019759E-008  0.6351138E+02  0.7546771E-02  0.1617209E+00
          2   -1    0    0  502    0  0.00000000000E+00  0.00000000000E+00  0.16931323849E+04  0.16931323849E+04  0.00000000000E+00 0. -1.
          2   -1    0    0  503    0 -0.00000000000E+00 -0.00000000000E+00 -0.43206164580E+04  0.43206164580E+04  0.00000000000E+00 0. -1.
         25    2    1    2    0    0  0.81602677520E+03  0.35326190290E+03 -0.15248681032E+04  0.17696164117E+04  0.12500336910E+03 0.  0.
         24    2    1    2    0    0 -0.82864596654E+03 -0.68075062115E+03 -0.19026110080E+04  0.21855215566E+04  0.80624317065E+02 0.  0.
         24    2    1    2    0    0  0.83723919955E+02  0.33648651490E+03  0.63394161670E+03  0.72632577842E+03  0.73717660893E+02 0.  0.
        -13    1    5    5    0    0  0.41515188080E+02  0.97466046547E+02  0.13613175584E+03  0.17249636523E+03  0.00000000000E+00 0.  1.
         14    1    5    5    0    0  0.42208731875E+02  0.23902046835E+03  0.49780986086E+03  0.55382941319E+03  0.00000000000E+00 0. -1.
        -13    1    4    4    0    0 -0.23798808350E+03 -0.23897576340E+03 -0.56392646474E+03  0.65708507898E+03  0.00000000000E+00 0.  1.
         14    1    4    4    0    0 -0.59065788304E+03 -0.44177485776E+03 -0.13386845433E+04  0.15284364776E+04  0.00000000000E+00 0. -1.
          5    1    3    3  501    0  0.30622696595E+03  0.14149705562E+03 -0.46374095674E+03  0.57347548892E+03  0.47000000000E+01 0.  1.
         -5    1    3    3    0  501  0.50979980925E+03  0.21176484728E+03 -0.10611271465E+04  0.11961409228E+04  0.47000000000E+01 0.  1.
          1    1    1    2  502    0 -0.61222459868E+02 -0.16886860370E+02  0.74775448135E+03  0.75044661370E+03  0.00000000000E+00 0. -1.
          1    1    1    2  503    0 -0.98822687496E+01  0.78890637230E+01 -0.58170105989E+03  0.58183848243E+03  0.00000000000E+00 0. -1.
<mgrwt>
<rscale>  0 0.28339068E+02</rscale>
<asrwt>0</asrwt>
<pdfrwt beam="1">  1        2 0.24899006E+00 0.63511380E+02</pdfrwt>
<pdfrwt beam="2">  1        2 0.63538477E+00 0.12645021E+02</pdfrwt>
<totfact> 0.15900190E+00</totfact>
</mgrwt>
</event>
<event>
13    1  0.3019759E-008  0.1091890E+03  0.7546771E-02  0.1278121E+00
         -3   -1    0    0    0  501 -0.00000000000E+00  0.00000000000E+00  0.11500165847E+04  0.11500165847E+04  0.00000000000E+00 0.  1.
          2   -1    0    0  503    0  0.00000000000E+00 -0.00000000000E+00 -0.51163346845E+03  0.51163346845E+03  0.00000000000E+00 0. -1.
         25    2    1    2    0    0  0.93620546110E+01  0.69122603054E+02  0.35060125301E+03  0.37869784679E+03  0.12500095292E+03 0.  0.
         24    2    1    2    0    0 -0.28765099116E+02  0.53408708335E+02  0.41939118609E+01  0.10139060171E+03  0.81132879683E+02 0.  0.
         24    2    1    2    0    0  0.20058669940E+02 -0.42693638258E+02 -0.13319748881E+03  0.16179291917E+03  0.78805334080E+02 0.  0.
        -11    1    5    5    0    0  0.60228553586E+01  0.20539396236E+02 -0.61755439208E+02  0.65359588862E+02  0.00000000000E+00 0.  1.
         12    1    5    5    0    0  0.14035814581E+02 -0.63233034494E+02 -0.71442049602E+02  0.96433330304E+02  0.00000000000E+00 0. -1.
        -11    1    4    4    0    0  0.16391812605E+02  0.33886472147E+02  0.27827709283E+02  0.46812027504E+02  0.00000000000E+00 0.  1.
         12    1    4    4    0    0 -0.45156911722E+02  0.19522236188E+02 -0.23633797422E+02  0.54578574208E+02  0.00000000000E+00 0. -1.
          5    1    3    3  502    0 -0.11303394462E+02  0.17398355574E+02 -0.22996848674E+01  0.21397384268E+02  0.47000000000E+01 0. -1.
         -5    1    3    3    0  502  0.20665449073E+02  0.51724247480E+02  0.35290093787E+03  0.35730046252E+03  0.47000000000E+01 0. -1.
          1    1    1    2  503    0 -0.10497845262E+03 -0.67395549590E+02 -0.28450414903E+03  0.31065293566E+03  0.00000000000E+00 0. -1.
         -4    1    1    2    0  501  0.10432282718E+03 -0.12442123541E+02  0.70128958921E+03  0.70911574983E+03  0.00000000000E+00 0.  1.
<mgrwt>
<rscale>  0 0.10104126E+03</rscale>
<asrwt>0</asrwt>
<pdfrwt beam="2">  1        2 0.75240216E-01 0.10918900E+03</pdfrwt>
<pdfrwt beam="1">  1       -3 0.16912009E+00 0.93501511E+02</pdfrwt>
<totfact> 0.10201586E+01</totfact>
</mgrwt>
</event>
<event>
13    1  0.3019759E-008  0.4247078E+02  0.7546771E-02  0.1553319E+00
         -3   -1    0    0    0  501 -0.00000000000E+00  0.00000000000E+00  0.88384356776E+03  0.88384356776E+03  0.00000000000E+00 0.  1.
          2   -1    0    0  503    0  0.00000000000E+00 -0.00000000000E+00 -0.71595903441E+03  0.71595903441E+03  0.00000000000E+00 0. -1.
         25    2    1    2    0    0  0.60665766116E+02  0.26692521614E+03  0.87863534924E+02  0.31348557319E+03  0.12499519046E+03 0.  0.
         24    2    1    2    0    0 -0.24826838167E+03 -0.81668889091E+02 -0.44748468495E+02  0.27701300972E+03  0.80167233574E+02 0.  0.
         24    2    1    2    0    0  0.12254666141E+03 -0.16394514840E+03 -0.13849558734E+03  0.25949846475E+03  0.79137409524E+02 0.  0.
        -13    1    4    4    0    0 -0.15254490831E+02  0.13490644120E+02  0.36977221375E+01  0.20697104104E+02  0.00000000000E+00 0.  1.
         14    1    4    4    0    0 -0.23301389084E+03 -0.95159533211E+02 -0.48446190633E+02  0.25631590562E+03  0.00000000000E+00 0. -1.
        -13    1    5    5    0    0  0.11566002036E+02 -0.84499594124E+01 -0.44186033820E+02  0.46449755671E+02  0.00000000000E+00 0.  1.
         14    1    5    5    0    0  0.11098065938E+03 -0.15549518899E+03 -0.94309553521E+02  0.21304870908E+03  0.00000000000E+00 0. -1.
          5    1    3    3  502    0 -0.17954251420E+02 -0.26217384172E+01  0.13156766391E+02  0.22900199961E+02  0.47000000000E+01 0. -1.
         -5    1    3    3    0  502  0.78620017536E+02  0.26954695456E+03  0.74706768533E+02  0.29058537323E+03  0.47000000000E+01 0. -1.
          1    1    1    2  503    0  0.37085926969E+02 -0.20447745165E+02 -0.24103632013E+03  0.24472838798E+03  0.00000000000E+00 0. -1.
         -4    1    1    2    0  501  0.27970027171E+02 -0.86343348895E+00  0.50430137440E+03  0.50507716653E+03  0.00000000000E+00 0.  1.
<mgrwt>
<rscale>  0 0.34474264E+02</rscale>
<asrwt>0</asrwt>
<pdfrwt beam="2">  1        2 0.10528809E+00 0.42470785E+02</pdfrwt>
<pdfrwt beam="1">  1       -3 0.12997700E+00 0.27983351E+02</pdfrwt>
<totfact> 0.13463431E+01</totfact>
</mgrwt>
</event>
<event>
13    1  0.3019759E-008  0.8140295E+02  0.7546771E-02  0.1461411E+00
          2   -1    0    0  503    0  0.00000000000E+00  0.00000000000E+00  0.89761651713E+03  0.89761651713E+03  0.00000000000E+00 0. -1.
         -1   -1    0    0    0  501 -0.00000000000E+00 -0.00000000000E+00 -0.84693769231E+03  0.84693769231E+03  0.00000000000E+00 0.  1.
         25    2    1    2    0    0 -0.13014225808E+03 -0.38407775614E+02 -0.42824106638E+03  0.46629177011E+03  0.12500175748E+03 0.  0.
         24    2    1    2    0    0  0.26378708285E+02  0.14514735726E+03  0.55658286206E+02  0.17735032111E+03  0.81189285018E+02 0.  0.
         24    2    1    2    0    0  0.11154100072E+03 -0.38823068395E+02  0.38011249267E+03  0.40622895934E+03  0.81165478121E+02 0.  0.
        -11    1    5    5    0    0 -0.52836529185E+01 -0.64847694729E+01  0.12633434930E+01  0.84596252908E+01  0.00000000000E+00 0.  1.
         12    1    5    5    0    0  0.11682465364E+03 -0.32338298922E+02  0.37884914918E+03  0.39776933405E+03  0.00000000000E+00 0. -1.
        -11    1    4    4    0    0  0.45678013167E+02  0.57190585429E+02  0.46777802469E+02  0.86864300794E+02  0.00000000000E+00 0.  1.
         12    1    4    4    0    0 -0.19299304882E+02  0.87956771835E+02  0.88804837365E+01  0.90486020313E+02  0.00000000000E+00 0. -1.
          5    1    3    3  502    0 -0.41904919523E+02 -0.74573040130E+02 -0.15880233082E+03  0.18043677803E+03  0.47000000000E+01 0. -1.
         -5    1    3    3    0  502 -0.88237338557E+02  0.36165264517E+02 -0.26943873556E+03  0.28585499207E+03  0.47000000000E+01 0. -1.
          1    1    1    2  503    0 -0.34404092172E+02 -0.73933164701E+02  0.36382286466E+03  0.37284960943E+03  0.00000000000E+00 0. -1.
         -2    1    1    2    0  501  0.26626641244E+02  0.60166514447E+01 -0.32067375234E+03  0.32183354946E+03  0.00000000000E+00 0.  1.
<mgrwt>
<rscale>  0 0.47139514E+02</rscale>
<asrwt>0</asrwt>
<pdfrwt beam="1">  1        2 0.13200243E+00 0.81402953E+02</pdfrwt>
<pdfrwt beam="2">  1       -1 0.12454966E+00 0.27297951E+02</pdfrwt>
<totfact> 0.26958984E+01</totfact>
</mgrwt>
</event>
<event>
13    1  0.3019759E-008  0.1095137E+03  0.7546771E-02  0.1427436E+00
          2   -1    0    0  503    0  0.00000000000E+00  0.00000000000E+00  0.32765024656E+04  0.32765024656E+04  0.00000000000E+00 0. -1.
          2   -1    0    0  502    0 -0.00000000000E+00 -0.00000000000E+00 -0.39820643142E+04  0.39820643142E+04  0.00000000000E+00 0. -1.
         25    2    1    2    0    0  0.24175261400E+03 -0.69014061649E+02 -0.12293933619E+01  0.28075753516E+03  0.12496405508E+03 0.  0.
         24    2    1    2    0    0 -0.92263452482E+02 -0.95669360660E+02  0.41302777893E+03  0.44118048052E+03  0.79894298831E+02 0.  0.
         24    2    1    2    0    0 -0.61207803875E+02  0.11951006716E+03  0.43800774887E+03  0.46529238815E+03  0.81345970988E+02 0.  0.
        -11    1    5    5    0    0 -0.36582468907E+02  0.12624255206E+03  0.36984182014E+03  0.39250277822E+03  0.00000000000E+00 0.  1.
         12    1    5    5    0    0 -0.24625334969E+02 -0.67324849039E+01  0.68165928730E+02  0.72789609938E+02  0.00000000000E+00 0. -1.
        -13    1    4    4    0    0 -0.72729608494E+02 -0.17922349711E+02  0.20150577582E+03  0.21497763665E+03  0.00000000000E+00 0.  1.
         14    1    4    4    0    0 -0.19533843988E+02 -0.77747010948E+02  0.21152200311E+03  0.22620284386E+03  0.00000000000E+00 0. -1.
          5    1    3    3  501    0  0.20712579729E+02  0.28783217090E+02  0.14257474537E+02  0.38507793045E+02  0.47000000000E+01 0. -1.
         -5    1    3    3    0  501  0.22104003427E+03 -0.97797278739E+02 -0.15486867899E+02  0.24224974212E+03  0.47000000000E+01 0. -1.
          1    1    1    2  502    0 -0.83520428521E+02  0.70850405360E+02 -0.38124902198E+04  0.38140630721E+04  0.00000000000E+00 0. -1.
          1    1    1    2  503    0 -0.47609291216E+01 -0.25677050209E+02  0.22571222367E+04  0.22572733040E+04  0.00000000000E+00 0. -1.
<mgrwt>
<rscale>  0 0.53478190E+02</rscale>
<asrwt>0</asrwt>
<pdfrwt beam="1">  1        2 0.48183860E+00 0.26114696E+02</pdfrwt>
<pdfrwt beam="2">  1        2 0.58559769E+00 0.10951369E+03</pdfrwt>
<totfact> 0.30417516E-01</totfact>
</mgrwt>
</event>
<event>
13    1  0.3019759E-008  0.8421809E+02  0.7546771E-02  0.1342254E+00
          2   -1    0    0  502    0  0.00000000000E+00  0.00000000000E+00  0.38673084312E+04  0.38673084312E+04  0.00000000000E+00 0. -1.
          2   -1    0    0  503    0 -0.00000000000E+00 -0.00000000000E+00 -0.16964727658E+04  0.16964727658E+04  0.00000000000E+00 0. -1.
         25    2    1    2    0    0 -0.74468706985E+02  0.67550703372E+02 -0.63416046476E+03  0.65413365506E+03  0.12499063072E+03 0.  0.
         24    2    1    2    0    0  0.48157660226E+02 -0.20831431509E+03  0.73352816762E+03  0.76896517814E+03  0.86774756658E+02 0.  0.
         24    2    1    2    0    0  0.61799874056E+02  0.10176586536E+03  0.13754052076E+04  0.13832818867E+04  0.86912468226E+02 0.  0.
        -13    1    5    5    0    0  0.60294827126E+02  0.11555874300E+03  0.13070316593E+04  0.13135147687E+04  0.00000000000E+00 0.  1.
         14    1    5    5    0    0  0.15050469297E+01 -0.13792877634E+02  0.68373548350E+02  0.69767117998E+02  0.00000000000E+00 0. -1.
        -13    1    4    4    0    0 -0.23721942703E+02 -0.82320631584E+02  0.27733215879E+03  0.29026288644E+03  0.00000000000E+00 0.  1.
         14    1    4    4    0    0  0.71879602929E+02 -0.12599368351E+03  0.45619600884E+03  0.47870229170E+03  0.00000000000E+00 0. -1.
          5    1    3    3  501    0  0.16068858406E+02  0.52457973544E+02 -0.37789393721E+03  0.38188475353E+03  0.47000000000E+01 0. -1.
         -5    1    3    3    0  501 -0.90537565390E+02  0.15092729828E+02 -0.25626652755E+03  0.27224890153E+03  0.47000000000E+01 0. -1.
          1    1    1    2  502    0 -0.51764704755E+02 -0.43675971855E+02  0.17243435540E+04  0.17256731635E+04  0.00000000000E+00 0. -1.
          1    1    1    2  503    0  0.16275877458E+02  0.82673718208E+02 -0.10282807990E+04  0.10317273135E+04  0.00000000000E+00 0. -1.
<mgrwt>
<rscale>  0 0.75524702E+02</rscale>
<asrwt>0</asrwt>
<pdfrwt beam="1">  1        2 0.56872183E+00 0.67728688E+02</pdfrwt>
<pdfrwt beam="2">  1        2 0.24948129E+00 0.84218088E+02</pdfrwt>
<totfact> 0.19849452E+00</totfact>
</mgrwt>
</event>
<event>
13    1  0.3019759E-008  0.2377748E+03  0.7546771E-02  0.1302580E+00
          2   -1    0    0  502    0  0.00000000000E+00  0.00000000000E+00  0.22899452237E+04  0.22899452237E+04  0.00000000000E+00 0. -1.
          2   -1    0    0  503    0 -0.00000000000E+00 -0.00000000000E+00 -0.39238225637E+04  0.39238225637E+04  0.00000000000E+00 0. -1.
         25    2    1    2    0    0  0.14331469164E+03  0.11101148897E+03 -0.16008857986E+04  0.16159603778E+04  0.12501980102E+03 0.  0.
         24    2    1    2    0    0 -0.13180939904E-01  0.10679413840E+03  0.51558026709E+02  0.14343877743E+03  0.80693646475E+02 0.  0.
         24    2    1    2    0    0 -0.37637934568E+03 -0.41614104672E+03  0.75278401975E+03  0.94220848648E+03  0.78982713199E+02 0.  0.
        -11    1    4    4    0    0  0.11519364252E+01  0.13289081226E+02  0.48043056128E+02  0.49860423980E+02  0.00000000000E+00 0.  1.
         12    1    4    4    0    0 -0.11651173651E+01  0.93505057178E+02  0.35149705816E+01  0.93578353451E+02  0.00000000000E+00 0. -1.
        -11    1    5    5    0    0 -0.16136874950E+03 -0.15295824123E+03  0.35656857569E+03  0.42021095422E+03  0.00000000000E+00 0.  1.
         12    1    5    5    0    0 -0.21501059618E+03 -0.26318280550E+03  0.39621544406E+03  0.52199753226E+03  0.00000000000E+00 0. -1.
          5    1    3    3  501    0  0.13581980074E+03  0.33595172675E+02 -0.11354208924E+04  0.11440185081E+04  0.47000000000E+01 0.  1.
         -5    1    3    3    0  501  0.74948908906E+01  0.77416316295E+02 -0.46546490624E+03  0.47194186968E+03  0.47000000000E+01 0.  1.
          1    1    1    2  502    0  0.21491104681E+03  0.22725329365E+03  0.13189889028E+04  0.13555672404E+04  0.00000000000E+00 0. -1.
          1    1    1    2  503    0  0.18166788174E+02 -0.28917874304E+02 -0.21563224906E+04  0.21565929053E+04  0.00000000000E+00 0. -1.
<mgrwt>
<rscale>  0 0.90112121E+02</rscale>
<asrwt>0</asrwt>
<pdfrwt beam="1">  1        2 0.33675666E+00 0.23777480E+03</pdfrwt>
<pdfrwt beam="2">  1        2 0.57703272E+00 0.34150778E+02</pdfrwt>
<totfact> 0.98310103E-01</totfact>
</mgrwt>
</event>
<event>
13    1  0.3019759E-008  0.1117209E+03  0.7546771E-02  0.1474856E+00
          2   -1    0    0  503    0  0.00000000000E+00  0.00000000000E+00  0.99251818464E+03  0.99251818464E+03  0.00000000000E+00 0. -1.
         -3   -1    0    0    0  501 -0.00000000000E+00 -0.00000000000E+00 -0.53302239840E+03  0.53302239840E+03  0.00000000000E+00 0.  1.
         25    2    1    2    0    0 -0.55773073146E+02  0.80080370420E+02 -0.24507832656E+03  0.29190998216E+03  0.12499820047E+03 0.  0.
         24    2    1    2    0    0 -0.20878890282E+02  0.78165513990E+02  0.10641090290E+03  0.15743732908E+03  0.83171249198E+02 0.  0.
         24    2    1    2    0    0 -0.14107244574E+02 -0.82197503912E+02  0.21250143729E+03  0.24224473141E+03  0.81056801369E+02 0.  0.
        -11    1    5    5    0    0 -0.11415020828E+02  0.12723025743E+02  0.13618094823E+02  0.21854761293E+02  0.00000000000E+00 0.  1.
         12    1    5    5    0    0 -0.26922237453E+01 -0.94920529654E+02  0.19888334247E+03  0.22038997012E+03  0.00000000000E+00 0. -1.
        -11    1    4    4    0    0 -0.15512713579E+02 -0.14564672821E+02  0.31966759521E+02  0.38401141796E+02  0.00000000000E+00 0.  1.
         12    1    4    4    0    0 -0.53661767031E+01  0.92730186810E+02  0.74444143384E+02  0.11903618728E+03  0.00000000000E+00 0. -1.
          5    1    3    3  502    0  0.64952932316E+01  0.93916835048E+02 -0.13621100115E+03  0.16564446134E+03  0.47000000000E+01 0.  1.
         -5    1    3    3    0  502 -0.62268366378E+02 -0.13836464629E+02 -0.10886732541E+03  0.12626552082E+03  0.47000000000E+01 0.  1.
          1    1    1    2  503    0  0.95067933100E+02 -0.58510553057E+02  0.60432102138E+03  0.61454478568E+03  0.00000000000E+00 0. -1.
         -4    1    1    2    0  501 -0.43087250981E+01 -0.17537827441E+02 -0.21865924878E+03  0.21940375471E+03  0.00000000000E+00 0.  1.
<mgrwt>
<rscale>  0 0.44917790E+02</rscale>
<asrwt>0</asrwt>
<pdfrwt beam="1">  1        2 0.14595856E+00 0.11172089E+03</pdfrwt>
<pdfrwt beam="2">  1       -3 0.78385647E-01 0.18059361E+02</pdfrwt>
<totfact> 0.25336404E+01</totfact>
</mgrwt>
</event>
<event>
13    1  0.3019759E-008  0.8197827E+02  0.7546771E-02  0.1340848E+00
          2   -1    0    0  502    0  0.00000000000E+00  0.00000000000E+00  0.37558204571E+04  0.37558204571E+04  0.00000000000E+00 0. -1.
          2   -1    0    0  503    0 -0.00000000000E+00 -0.00000000000E+00 -0.72031250034E+03  0.72031250034E+03  0.00000000000E+00 0. -1.
         25    2    1    2    0    0 -0.31721314881E+02 -0.25747138608E+02 -0.15659314259E+03  0.20448518158E+03  0.12499448075E+03 0.  0.
         24    2    1    2    0    0 -0.10947904357E+03 -0.10524501533E+02  0.47849282689E+02  0.14105670952E+03  0.74236213077E+02 0.  0.
         24    2    1    2    0    0  0.39335703163E+02  0.68026369174E+02  0.56754914678E+03  0.57866250483E+03  0.81014665576E+02 0.  0.
        -13    1    5    5    0    0 -0.30227173821E-01 -0.13125674416E+02  0.21319097987E+02  0.25035738087E+02  0.00000000000E+00 0.  1.
         14    1    5    5    0    0  0.39365930337E+02  0.81152043590E+02  0.54623004879E+03  0.55362676674E+03  0.00000000000E+00 0. -1.
        -13    1    4    4    0    0  0.10922653710E+01  0.16124330202E+02  0.16459481962E+02  0.23067327860E+02  0.00000000000E+00 0.  1.
         14    1    4    4    0    0 -0.11057130895E+03 -0.26648831736E+02  0.31389800726E+02  0.11798938166E+03  0.00000000000E+00 0. -1.
          5    1    3    3  501    0  0.12471695299E+02 -0.51477562513E+02 -0.14119015206E+03  0.15087157342E+03  0.47000000000E+01 0.  1.
         -5    1    3    3    0  501 -0.44193010180E+02  0.25730423905E+02 -0.15402990521E+02  0.53613608161E+02  0.47000000000E+01 0.  1.
          1    1    1    2  502    0  0.74909269760E+02  0.33312288317E+02  0.30612207983E+04  0.30623183837E+04  0.00000000000E+00 0. -1.
          1    1    1    2  503    0  0.26955385531E+02 -0.65067017349E+02 -0.48451812836E+03  0.48961017786E+03  0.00000000000E+00 0. -1.
<mgrwt>
<rscale>  0 0.75984773E+02</rscale>
<asrwt>0</asrwt>
<pdfrwt beam="1">  1        2 0.55232653E+00 0.81978270E+02</pdfrwt>
<pdfrwt beam="2">  1        2 0.10592831E+00 0.70429465E+02</pdfrwt>
<totfact> 0.76654948E+00</totfact>
</mgrwt>
</event>
<event>
13    1  0.3019759E-008  0.1116805E+03  0.7546771E-02  0.1352419E+00
          2   -1    0    0  502    0  0.00000000000E+00  0.00000000000E+00  0.24345553796E+04  0.24345553796E+04  0.00000000000E+00 0. -1.
          2   -1    0    0  503    0 -0.00000000000E+00 -0.00000000000E+00 -0.16761508787E+03  0.16761508787E+03  0.00000000000E+00 0. -1.
         25    2    1    2    0    0  0.60830578701E+02 -0.25392859062E+02  0.90210148673E+02  0.16767094717E+03  0.12502207407E+03 0.  0.
         24    2    1    2    0    0  0.56298420709E+02  0.10130147842E+03  0.13374578139E+04  0.13449564838E+04  0.81749848734E+02 0.  0.
         24    2    1    2    0    0 -0.40568601462E+02 -0.53600655475E+02  0.42916706821E+03  0.44186764160E+03  0.80893748588E+02 0.  0.
        -13    1    5    5    0    0  0.13984145198E+02 -0.43656757271E+02  0.13645364015E+03  0.14394813191E+03  0.00000000000E+00 0.  1.
         14    1    5    5    0    0 -0.54552746660E+02 -0.99438982042E+01  0.29271342806E+03  0.29791950968E+03  0.00000000000E+00 0. -1.
        -13    1    4    4    0    0  0.64127092683E+02  0.31656831220E+02  0.71351416374E+03  0.71708918611E+03  0.00000000000E+00 0.  1.
         14    1    4    4    0    0 -0.78286719749E+01  0.69644647200E+02  0.62394365013E+03  0.62786729771E+03  0.00000000000E+00 0. -1.
          5    1    3    3  501    0  0.46419608046E+02  0.30476689142E+02 -0.53068355828E+01  0.55980899387E+02  0.47000000000E+01 0.  1.
         -5    1    3    3    0  501  0.14410970655E+02 -0.55869548205E+02  0.95516984256E+02  0.11169004778E+03  0.47000000000E+01 0.  1.
          1    1    1    2  502    0  0.11689169703E+02  0.45332171841E+02  0.50153919040E+03  0.50371936830E+03  0.00000000000E+00 0. -1.
          1    1    1    2  503    0 -0.88249567651E+02 -0.67640135724E+02 -0.91433929402E+02  0.14395602661E+03  0.00000000000E+00 0. -1.
<mgrwt>
<rscale>  0 0.72307127E+02</rscale>
<asrwt>0</asrwt>
<pdfrwt beam="1">  1        2 0.35802283E+00 0.46814981E+02</pdfrwt>
<pdfrwt beam="2">  1        2 0.24649279E-01 0.11168050E+03</pdfrwt>
<totfact> 0.20565183E+02</totfact>
</mgrwt>
</event>
<event>
13    1  0.3019759E-008  0.2345696E+03  0.7546771E-02  0.1242967E+00
          2   -1    0    0  503    0  0.00000000000E+00  0.00000000000E+00  0.17921240600E+04  0.17921240600E+04  0.00000000000E+00 0. -1.
          2   -1    0    0  502    0 -0.00000000000E+00 -0.00000000000E+00 -0.30469344107E+04  0.30469344107E+04  0.00000000000E+00 0. -1.
         25    2    1    2    0    0  0.11450906407E+03 -0.28355953017E+03 -0.51561192856E+03  0.61237066976E+03  0.12499537351E+03 0.  0.
         24    2    1    2    0    0 -0.13100446894E+03  0.37520201954E+02 -0.83728279126E+02  0.17916049118E+03  0.80734877455E+02 0.  0.
         24    2    1    2    0    0 -0.32031482820E+02 -0.73449695341E+01 -0.13522504984E+02  0.89256153305E+02  0.81876970466E+02 0.  0.
        -13    1    4    4    0    0 -0.14063118198E+03  0.29327717117E+02 -0.84194385718E+02  0.16651107748E+03  0.00000000000E+00 0.  1.
         14    1    4    4    0    0  0.96267130378E+01  0.81924848369E+01  0.46610659219E+00  0.12649413705E+02  0.00000000000E+00 0. -1.
        -13    1    5    5    0    0 -0.58035047824E+02 -0.16837541652E+02 -0.71466076538E+01  0.60849351564E+02  0.00000000000E+00 0.  1.
         14    1    5    5    0    0  0.26003565005E+02  0.94925721175E+01 -0.63758973307E+01  0.28406801740E+02  0.00000000000E+00 0. -1.
          5    1    3    3  501    0  0.90239313681E+02 -0.22876799612E+03 -0.29691136579E+03  0.38555982534E+03  0.47000000000E+01 0. -1.
         -5    1    3    3    0  501  0.24269750385E+02 -0.54791534056E+02 -0.21870056278E+03  0.22681084442E+03  0.47000000000E+01 0. -1.
          1    1    1    2  502    0  0.96734113962E+02  0.21524465978E+03 -0.22934833835E+04  0.23055918509E+04  0.00000000000E+00 0. -1.
          1    1    1    2  503    0 -0.48207226270E+02  0.38139637972E+02  0.16515357455E+04  0.16526793057E+04  0.00000000000E+00 0. -1.
<mgrwt>
<rscale>  0 0.12007917E+03</rscale>
<asrwt>0</asrwt>
<pdfrwt beam="1">  1        2 0.26354766E+00 0.61470063E+02</pdfrwt>
<pdfrwt beam="2">  1        2 0.44807859E+00 0.23456958E+03</pdfrwt>
<totfact> 0.45282969E+00</totfact>
</mgrwt>
</event>
<event>
13    1  0.3019759E-008  0.7115458E+02  0.7546771E-02  0.1496324E+00
          2   -1    0    0  503    0  0.00000000000E+00  0.00000000000E+00  0.48419352886E+03  0.48419352886E+03  0.00000000000E+00 0. -1.
          2   -1    0    0  502    0 -0.00000000000E+00 -0.00000000000E+00 -0.12389885760E+04  0.12389885760E+04  0.00000000000E+00 0. -1.
         25    2    1    2    0    0  0.45877273907E+02  0.80332505201E+02 -0.49771265238E+03  0.52144121411E+03  0.12500007913E+03 0.  0.
         24    2    1    2    0    0 -0.93313137018E+02  0.33549434337E+02  0.17850497533E+02  0.12902627920E+03  0.80599220702E+02 0.  0.
         24    2    1    2    0    0  0.90552508429E+02 -0.71965564709E+02 -0.24003647451E+01  0.14109338281E+03  0.80763739604E+02 0.  0.
        -11    1    5    5    0    0  0.83629289397E+02 -0.77201373174E+02  0.21355463633E+02  0.11580140712E+03  0.00000000000E+00 0.  1.
         12    1    5    5    0    0  0.69232190313E+01  0.52358084650E+01 -0.23755828378E+02  0.25291975684E+02  0.00000000000E+00 0. -1.
        -13    1    4    4    0    0 -0.41054722912E+02 -0.25105125140E+02 -0.14063824907E+01  0.48142865446E+02  0.00000000000E+00 0.  1.
         14    1    4    4    0    0 -0.52258414106E+02  0.58654559477E+02  0.19256880024E+02  0.80883413755E+02  0.00000000000E+00 0. -1.
          5    1    3    3  501    0  0.40045303443E+01  0.56655756778E+02 -0.44976191365E+03  0.45335833510E+03  0.47000000000E+01 0. -1.
         -5    1    3    3    0  501  0.41872743562E+02  0.23676748423E+02 -0.47950738733E+02  0.68082879010E+02  0.47000000000E+01 0. -1.
          1    1    1    2  502    0  0.21401806413E+02 -0.11705862418E+02 -0.59797504595E+03  0.59847240547E+03  0.00000000000E+00 0. -1.
          1    1    1    2  503    0 -0.64518451730E+02 -0.30210512410E+02  0.32544251839E+03  0.33314882327E+03  0.00000000000E+00 0. -1.
<mgrwt>
<rscale>  0 0.41662222E+02</rscale>
<asrwt>0</asrwt>
<pdfrwt beam="1">  1        2 0.71204931E-01 0.71154576E+02</pdfrwt>
<pdfrwt beam="2">  1        2 0.18220420E+00 0.24393945E+02</pdfrwt>
<totfact> 0.25562118E+02</totfact>
</mgrwt>
</event>
<event>
13    1  0.3019759E-008  0.2578256E+03  0.7546771E-02  0.1259172E+00
          2   -1    0    0  503    0  0.00000000000E+00  0.00000000000E+00  0.11069053849E+04  0.11069053849E+04  0.00000000000E+00 0. -1.
          2   -1    0    0  502    0 -0.00000000000E+00 -0.00000000000E+00 -0.18258457278E+04  0.18258457278E+04  0.00000000000E+00 0. -1.
         25    2    1    2    0    0  0.25990023824E+03  0.13221567470E+03 -0.56227462882E+03  0.64560488994E+03  0.12499518882E+03 0.  0.
         24    2    1    2    0    0 -0.23494221924E+03  0.35996442211E+03  0.32036307494E+03  0.54292377845E+03  0.85799171623E+02 0.  0.
         24    2    1    2    0    0 -0.12681068353E+02 -0.22871010601E+03  0.16360153436E+03  0.29248495316E+03  0.79453531648E+02 0.  0.
        -13    1    4    4    0    0 -0.13316300741E+03  0.26527918674E+03  0.24449739893E+03  0.38455742295E+03  0.00000000000E+00 0.  1.
         14    1    4    4    0    0 -0.10177921183E+03  0.94685235366E+02  0.75865676010E+02  0.15836635550E+03  0.00000000000E+00 0. -1.
        -13    1    5    5    0    0 -0.41551922658E+01 -0.10147992857E+03  0.12114499047E+03  0.15808716026E+03  0.00000000000E+00 0.  1.
         14    1    5    5    0    0 -0.85258760868E+01 -0.12723017744E+03  0.42456543899E+02  0.13439779290E+03  0.00000000000E+00 0. -1.
          5    1    3    3  501    0  0.13284534536E+03  0.49406607499E+01 -0.18754665017E+03  0.22993071109E+03  0.47000000000E+01 0. -1.
         -5    1    3    3    0  501  0.12705489287E+03  0.12727501395E+03 -0.37472797864E+03  0.41567417884E+03  0.47000000000E+01 0. -1.
          1    1    1    2  502    0  0.32867966772E+02 -0.24844333762E+03 -0.10297058717E+04  0.10597634535E+04  0.00000000000E+00 0. -1.
          1    1    1    2  503    0 -0.45144917411E+02 -0.15026653173E+02  0.38907554828E+03  0.39197403758E+03  0.00000000000E+00 0. -1.
<mgrwt>
<rscale>  0 0.11075813E+03</rscale>
<asrwt>0</asrwt>
<pdfrwt beam="1">  1        2 0.16278021E+00 0.47580079E+02</pdfrwt>
<pdfrwt beam="2">  1        2 0.26850672E+00 0.25782560E+03</pdfrwt>
<totfact> 0.42367578E+01</totfact>
</mgrwt>
</event>
<event>
13    1  0.3019759E-008  0.3741715E+02  0.7546771E-02  0.1537174E+00
          2   -1    0    0  502    0  0.00000000000E+00  0.00000000000E+00  0.40080671952E+04  0.40080671952E+04  0.00000000000E+00 0. -1.
          2   -1    0    0  503    0 -0.00000000000E+00 -0.00000000000E+00 -0.20911859789E+04  0.20911859789E+04  0.00000000000E+00 0. -1.
         25    2    1    2    0    0  0.51796439741E+03 -0.24791599644E+03 -0.21355723481E+03  0.62528428801E+03  0.12499716005E+03 0.  0.
         24    2    1    2    0    0 -0.61208523302E+03  0.22464507158E+03  0.79300672756E+03  0.10305970691E+04  0.90315603263E+02 0.  0.
         24    2    1    2    0    0  0.14098533701E+03  0.20602637815E+02  0.71860366809E+03  0.73791181399E+03  0.88437998026E+02 0.  0.
        -11    1    4    4    0    0 -0.80899570998E+02  0.60169217733E+02  0.99063540860E+02  0.14134588950E+03  0.00000000000E+00 0.  1.
         12    1    4    4    0    0 -0.53118566202E+03  0.16447585384E+03  0.69394318670E+03  0.88925117958E+03  0.00000000000E+00 0. -1.
        -13    1    5    5    0    0  0.14551891105E+03  0.31132734603E+02  0.57827279537E+03  0.59711341176E+03  0.00000000000E+00 0.  1.
         14    1    5    5    0    0 -0.45335740423E+01 -0.10530096788E+02  0.14033087272E+03  0.14079840223E+03  0.00000000000E+00 0. -1.
          5    1    3    3  501    0  0.40716423672E+03 -0.14052033174E+03 -0.13109696992E+03  0.45026346156E+03  0.47000000000E+01 0.  1.
         -5    1    3    3    0  501  0.11080016069E+03 -0.10739566470E+03 -0.82460264890E+02  0.17502082645E+03  0.47000000000E+01 0.  1.
          1    1    1    2  502    0 -0.23337165271E+02 -0.26427440465E+02  0.21617734660E+04  0.21620609500E+04  0.00000000000E+00 0. -1.
          1    1    1    2  503    0 -0.23527336132E+02  0.29095727517E+02 -0.15429454105E+04  0.15433990530E+04  0.00000000000E+00 0. -1.
<mgrwt>
<rscale>  0 0.36320849E+02</rscale>
<asrwt>0</asrwt>
<pdfrwt beam="1">  1        2 0.58942165E+00 0.35256672E+02</pdfrwt>
<pdfrwt beam="2">  1        2 0.30752735E+00 0.37417147E+02</pdfrwt>
<totfact> 0.13296962E+00</totfact>
</mgrwt>
</event>
<event>
13    1  0.3019759E-008  0.7819147E+02  0.7546771E-02  0.1343821E+00
          2   -1    0    0  502    0  0.00000000000E+00  0.00000000000E+00  0.20031892949E+03  0.20031892949E+03  0.00000000000E+00 0. -1.
          2   -1    0    0  503    0 -0.00000000000E+00 -0.00000000000E+00 -0.48557250582E+04  0.48557250582E+04  0.00000000000E+00 0. -1.
         25    2    1    2    0    0 -0.21032173931E+02 -0.37725249820E+02 -0.11205909078E+04  0.11283678783E+04  0.12499815727E+03 0.  0.
         24    2    1    2    0    0 -0.18075835077E+03  0.75030593292E+02 -0.33767932410E+03  0.39829903455E+03  0.79445727994E+02 0.  0.
         24    2    1    2    0    0  0.95272199741E+02  0.31895955172E+02 -0.17602415353E+03  0.21631833894E+03  0.75597467808E+02 0.  0.
        -11    1    4    4    0    0 -0.20676941145E+02 -0.12855233466E+02 -0.71211317201E+02  0.75258518588E+02  0.00000000000E+00 0.  1.
         12    1    4    4    0    0 -0.16008140963E+03  0.87885826759E+02 -0.26646800690E+03  0.32304051596E+03  0.00000000000E+00 0. -1.
        -13    1    5    5    0    0  0.71670144200E+02 -0.15003839334E+02 -0.10361960409E+03  0.12688083826E+03  0.00000000000E+00 0.  1.
         14    1    5    5    0    0  0.23602055541E+02  0.46899794506E+02 -0.72404549436E+02  0.89437500689E+02  0.00000000000E+00 0. -1.
          5    1    3    3  501    0  0.43720709372E+01 -0.36310156002E+02 -0.10773226752E+04  0.10779535143E+04  0.47000000000E+01 0. -1.
         -5    1    3    3    0  501 -0.25404244868E+02 -0.14150938178E+01 -0.43268232590E+02  0.50414364018E+02  0.47000000000E+01 0. -1.
          1    1    1    2  502    0  0.77934722605E+02 -0.31513554095E+01  0.13511464191E+03  0.15601191777E+03  0.00000000000E+00 0. -1.
          1    1    1    2  503    0  0.28583602357E+02 -0.66049943235E+02 -0.31562263852E+04  0.31570468182E+04  0.00000000000E+00 0. -1.
<mgrwt>
<rscale>  0 0.75016036E+02</rscale>
<asrwt>0</asrwt>
<pdfrwt beam="1">  1        2 0.29458667E-01 0.78191471E+02</pdfrwt>
<pdfrwt beam="2">  1        2 0.71407719E+00 0.71969558E+02</pdfrwt>
<totfact> 0.46896735E+00</totfact>
</mgrwt>
</event>
<event>
13    1  0.3019759E-008  0.1634773E+03  0.7546771E-02  0.1265993E+00
          2   -1    0    0  503    0  0.00000000000E+00  0.00000000000E+00  0.21988396088E+04  0.21988396088E+04  0.00000000000E+00 0. -1.
          2   -1    0    0  502    0 -0.00000000000E+00 -0.00000000000E+00 -0.22500575419E+04  0.22500575419E+04  0.00000000000E+00 0. -1.
         25    2    1    2    0    0  0.19756298663E+03 -0.22990362576E+02 -0.57512278096E+03  0.62124993865E+03  0.12500233049E+03 0.  0.
         24    2    1    2    0    0 -0.27472692170E+02  0.22488213375E+02  0.37720985343E+02  0.94184366128E+02  0.78659732594E+02 0.  0.
         24    2    1    2    0    0  0.32891559166E+02 -0.29338115552E+02  0.54470316616E+02  0.10806721062E+03  0.82273488628E+02 0.  0.
        -11    1    5    5    0    0 -0.96996537551E+01 -0.45795780391E+02  0.34900018111E+02  0.58389622783E+02  0.00000000000E+00 0.  1.
         12    1    5    5    0    0  0.42591212922E+02  0.16457664839E+02  0.19570298506E+02  0.49677587841E+02  0.00000000000E+00 0. -1.
        -13    1    4    4    0    0  0.26691711959E+02  0.68918368893E+01  0.23068621691E+02  0.35945878898E+02  0.00000000000E+00 0.  1.
         14    1    4    4    0    0 -0.54164404130E+02  0.15596376486E+02  0.14652363653E+02  0.58238487230E+02  0.00000000000E+00 0. -1.
          5    1    3    3  501    0 -0.17100971340E+02 -0.49255301231E+01 -0.63247113031E+02  0.65871020750E+02  0.47000000000E+01 0. -1.
         -5    1    3    3    0  501  0.21466395797E+03 -0.18064832453E+02 -0.51187566793E+03  0.55537891790E+03  0.47000000000E+01 0. -1.
          1    1    1    2  502    0 -0.14378485928E+03  0.67563418577E+02 -0.15922797280E+04  0.16001854997E+04  0.00000000000E+00 0. -1.
          1    1    1    2  503    0 -0.59196994345E+02 -0.37723153824E+02  0.20239932739E+04  0.20252101356E+04  0.00000000000E+00 0. -1.
<mgrwt>
<rscale>  0 0.10712269E+03</rscale>
<asrwt>0</asrwt>
<pdfrwt beam="1">  1        2 0.32335877E+00 0.70194875E+02</pdfrwt>
<pdfrwt beam="2">  1        2 0.33089082E+00 0.16347732E+03</pdfrwt>
<totfact> 0.78197383E+00</totfact>
</mgrwt>
</event>
<event>
13    1  0.3019759E-008  0.5607147E+02  0.7546771E-02  0.1423748E+00
          2   -1    0    0  502    0  0.00000000000E+00  0.00000000000E+00  0.14329707022E+04  0.14329707022E+04  0.00000000000E+00 0. -1.
          2   -1    0    0  503    0 -0.00000000000E+00 -0.00000000000E+00 -0.47580892959E+03  0.47580892959E+03  0.00000000000E+00 0. -1.
         25    2    1    2    0    0 -0.33848881999E+02  0.12676943595E+03 -0.31761303170E+03  0.36568973451E+03  0.12503882324E+03 0.  0.
         24    2    1    2    0    0  0.51889638250E+02 -0.92525311594E+01  0.76355459378E+02  0.12271566523E+03  0.80317086753E+02 0.  0.
         24    2    1    2    0    0 -0.66225212557E+02 -0.24802181466E+02  0.51232026027E+03  0.52344410835E+03  0.80751213597E+02 0.  0.
        -13    1    5    5    0    0 -0.18716225209E+02  0.11583197972E+02  0.34576490474E+03  0.34646477008E+03  0.00000000000E+00 0.  1.
         14    1    5    5    0    0 -0.47508987348E+02 -0.36385379438E+02  0.16655535553E+03  0.17697933826E+03  0.00000000000E+00 0. -1.
        -13    1    4    4    0    0 -0.81796282330E+01  0.88616550111E+01 -0.10212164912E+02  0.15802644075E+02  0.00000000000E+00 0.  1.
         14    1    4    4    0    0  0.60069266483E+02 -0.18114186170E+02  0.86567624290E+02  0.10691302115E+03  0.00000000000E+00 0. -1.
          5    1    3    3  501    0 -0.64370088719E+02  0.33798184459E+02 -0.19860463477E+03  0.21154601520E+03  0.47000000000E+01 0. -1.
         -5    1    3    3    0  501  0.30521206720E+02  0.92971251492E+02 -0.11900839693E+03  0.15414371931E+03  0.47000000000E+01 0. -1.
          1    1    1    2  502    0  0.11222331691E+02 -0.51245719559E+02  0.78325739335E+03  0.78501223477E+03  0.00000000000E+00 0. -1.
          1    1    1    2  503    0  0.36962124615E+02 -0.41469003766E+02 -0.97158308657E+02  0.11191788897E+03  0.00000000000E+00 0. -1.
<mgrwt>
<rscale>  0 0.54235749E+02</rscale>
<asrwt>0</asrwt>
<pdfrwt beam="1">  1        2 0.21073099E+00 0.52460123E+02</pdfrwt>
<pdfrwt beam="2">  1        2 0.69971901E-01 0.56071475E+02</pdfrwt>
<totfact> 0.19857861E+02</totfact>
</mgrwt>
</event>
<event>
13    1  0.3019759E-008  0.9763759E+02  0.7546771E-02  0.1285797E+00
          2   -1    0    0  503    0  0.00000000000E+00  0.00000000000E+00  0.17490303734E+04  0.17490303734E+04  0.00000000000E+00 0. -1.
          2   -1    0    0  502    0 -0.00000000000E+00 -0.00000000000E+00 -0.11324997829E+04  0.11324997829E+04  0.00000000000E+00 0. -1.
         25    2    1    2    0    0 -0.72763047516E+02  0.28715340073E+02 -0.35960983274E+03  0.38866817579E+03  0.12499874893E+03 0.  0.
         24    2    1    2    0    0  0.42273086808E+02 -0.57809583405E+02  0.25136098210E+02  0.10899499175E+03  0.78224823378E+02 0.  0.
         24    2    1    2    0    0  0.44402501346E+01  0.32717187990E+02  0.28737802173E+03  0.29771257069E+03  0.70402536636E+02 0.  0.
        -11    1    4    4    0    0 -0.87739790837E+01 -0.44611027154E+02 -0.87761223445E+01  0.46304932525E+02  0.00000000000E+00 0.  1.
         12    1    4    4    0    0  0.51047065892E+02 -0.13198556251E+02  0.33912220554E+02  0.62690059230E+02  0.00000000000E+00 0. -1.
        -13    1    5    5    0    0 -0.32151528787E+02  0.21246066885E+02  0.12176345905E+03  0.12771631110E+03  0.00000000000E+00 0.  1.
         14    1    5    5    0    0  0.36591778922E+02  0.11471121104E+02  0.16561456268E+03  0.16999625959E+03  0.00000000000E+00 0. -1.
          5    1    3    3  501    0 -0.82339092893E+02  0.83635526859E+01 -0.10866846420E+03  0.13667699274E+03  0.47000000000E+01 0. -1.
         -5    1    3    3    0  501  0.95760453775E+01  0.20351787387E+02 -0.25094136853E+03  0.25199118305E+03  0.47000000000E+01 0. -1.
          1    1    1    2  502    0 -0.93403365295E+02  0.26938251557E+02 -0.70515843732E+03  0.71182742274E+03  0.00000000000E+00 0. -1.
          1    1    1    2  503    0  0.11945307587E+03 -0.30561196215E+02  0.13687847406E+04  0.13743269953E+04  0.00000000000E+00 0. -1.
<mgrwt>
<rscale>  0 0.97429269E+02</rscale>
<asrwt>0</asrwt>
<pdfrwt beam="1">  1        2 0.25721035E+00 0.97637585E+02</pdfrwt>
<pdfrwt beam="2">  1        2 0.16654409E+00 0.97221398E+02</pdfrwt>
<totfact> 0.46862208E+01</totfact>
</mgrwt>
</event>
<event>
13    1  0.3019759E-008  0.8631510E+02  0.7546771E-02  0.1321704E+00
          2   -1    0    0  502    0  0.00000000000E+00  0.00000000000E+00  0.98056326697E+03  0.98056326697E+03  0.00000000000E+00 0. -1.
          2   -1    0    0  503    0 -0.00000000000E+00 -0.00000000000E+00 -0.25607770205E+04  0.25607770205E+04  0.00000000000E+00 0. -1.
         25    2    1    2    0    0  0.11187856903E+03 -0.77555962159E+02 -0.58790852408E+03  0.61627437481E+03  0.12500372350E+03 0.  0.
         24    2    1    2    0    0  0.24954996826E+02 -0.13107574285E+02 -0.20573918830E+02  0.87668988342E+02  0.80423908202E+02 0.  0.
         24    2    1    2    0    0 -0.74350123494E+01 -0.18296506785E+02  0.25787568567E+03  0.27201941959E+03  0.84289108469E+02 0.  0.
        -11    1    4    4    0    0  0.53384834338E+02 -0.14675049665E+02 -0.20942380086E+02  0.59193588366E+02  0.00000000000E+00 0.  1.
         12    1    4    4    0    0 -0.28429837512E+02  0.15674753797E+01  0.36846125570E+00  0.28475399975E+02  0.00000000000E+00 0. -1.
        -13    1    5    5    0    0  0.22218427821E+02  0.20561183037E+02  0.15740219270E+03  0.16028683991E+03  0.00000000000E+00 0.  1.
         14    1    5    5    0    0 -0.29653440170E+02 -0.38857689821E+02  0.10047349297E+03  0.11173257968E+03  0.00000000000E+00 0. -1.
          5    1    3    3  501    0  0.63662911731E+02  0.25041001490E+02 -0.27535050206E+03  0.28376047482E+03  0.47000000000E+01 0. -1.
         -5    1    3    3    0  501  0.48215657301E+02 -0.10259696365E+03 -0.31255802202E+03  0.33251389999E+03  0.47000000000E+01 0. -1.
          1    1    1    2  502    0 -0.64654904249E+02  0.63456987409E+02  0.66398301015E+03  0.67013467577E+03  0.00000000000E+00 0. -1.
          1    1    1    2  503    0 -0.64743649260E+02  0.45503055820E+02 -0.18935900065E+04  0.18952428290E+04  0.00000000000E+00 0. -1.
<mgrwt>
<rscale>  0 0.82646848E+02</rscale>
<asrwt>0</asrwt>
<pdfrwt beam="1">  1        2 0.14420048E+00 0.86315096E+02</pdfrwt>
<pdfrwt beam="2">  1        2 0.37658486E+00 0.79134494E+02</pdfrwt>
<totfact> 0.23771806E+01</totfact>
</mgrwt>
</event>
<event>
13    1  0.3019759E-008  0.8706681E+02  0.7546771E-02  0.1317029E+00
          2   -1    0    0  503    0  0.00000000000E+00  0.00000000000E+00  0.12222086582E+04  0.12222086582E+04  0.00000000000E+00 0. -1.
          2   -1    0    0  502    0 -0.00000000000E+00 -0.00000000000E+00 -0.10984760862E+04  0.10984760862E+04  0.00000000000E+00 0. -1.
         25    2    1    2    0    0  0.13760377277E+03  0.22227369021E+02 -0.16756241847E+03  0.25126000070E+03  0.12500227861E+03 0.  0.
         24    2    1    2    0    0  0.43916251524E+01  0.61190322215E+01 -0.65104647596E+01  0.80726405996E+02  0.80110158824E+02 0.  0.
         24    2    1    2    0    0 -0.18521669763E+02 -0.47282681401E+02  0.28199246256E+03  0.29805096054E+03  0.82072662458E+02 0.  0.
        -11    1    4    4    0    0  0.31731034581E+02  0.30044966835E+02  0.62021034453E+00  0.43702897485E+02  0.00000000000E+00 0.  1.
         12    1    4    4    0    0 -0.27339409429E+02 -0.23925934613E+02 -0.71306751041E+01  0.37023508511E+02  0.00000000000E+00 0. -1.
        -11    1    5    5    0    0  0.49236533730E+01 -0.66050895511E+02  0.20360697931E+03  0.21410923657E+03  0.00000000000E+00 0.  1.
         12    1    5    5    0    0 -0.23445323136E+02  0.18768214110E+02  0.78385483255E+02  0.83941723969E+02  0.00000000000E+00 0. -1.
          5    1    3    3  501    0  0.95405840370E+02  0.53197809655E+02 -0.45614053455E+02  0.11846946105E+03  0.47000000000E+01 0.  1.
         -5    1    3    3    0  501  0.42197932396E+02 -0.30970440633E+02 -0.12194836502E+03  0.13279053966E+03  0.47000000000E+01 0.  1.
          1    1    1    2  502    0 -0.72328887898E+02 -0.51480094904E+02 -0.83283250969E+03  0.83755098793E+03  0.00000000000E+00 0. -1.
          1    1    1    2  503    0 -0.51144840257E+02  0.70416375062E+02  0.84864550242E+03  0.85309638924E+03  0.00000000000E+00 0. -1.
<mgrwt>
<rscale>  0 0.84392389E+02</rscale>
<asrwt>0</asrwt>
<pdfrwt beam="1">  1        2 0.17973657E+00 0.87066805E+02</pdfrwt>
<pdfrwt beam="2">  1        2 0.16154060E+00 0.81800123E+02</pdfrwt>
<totfact> 0.91036527E+01</totfact>
</mgrwt>
</event>
<event>
13    1  0.3019759E-008  0.1412570E+03  0.7546771E-02  0.1424975E+00
          2   -1    0    0  503    0  0.00000000000E+00  0.00000000000E+00  0.31561062485E+03  0.31561062485E+03  0.00000000000E+00 0. -1.
          2   -1    0    0  502    0 -0.00000000000E+00 -0.00000000000E+00 -0.16457563330E+04  0.16457563330E+04  0.00000000000E+00 0. -1.
         25    2    1    2    0    0  0.96257236650E+02  0.35132643048E+02 -0.10357651767E+04  0.10483010110E+04  0.12500300126E+03 0.  0.
         24    2    1    2    0    0 -0.93424079607E+02 -0.95159515646E+02 -0.43552483524E+02  0.16151139580E+03  0.80035742538E+02 0.  0.
         24    2    1    2    0    0  0.13207243046E+03  0.12384475185E+03 -0.70186837055E+02  0.20880424385E+03  0.76761778939E+02 0.  0.
        -11    1    4    4    0    0 -0.54249297425E+02 -0.87364091236E+02 -0.57515048486E+00  0.10283871599E+03  0.00000000000E+00 0.  1.
         12    1    4    4    0    0 -0.39174782182E+02 -0.77954244101E+01 -0.42977333039E+02  0.58672679808E+02  0.00000000000E+00 0. -1.
        -13    1    5    5    0    0  0.14167955345E+02  0.61205931452E+02 -0.16947595133E+02  0.65070100540E+02  0.00000000000E+00 0.  1.
         14    1    5    5    0    0  0.11790447511E+03  0.62638820401E+02 -0.53239241922E+02  0.14373414331E+03  0.00000000000E+00 0. -1.
          5    1    3    3  501    0  0.91344929681E+02 -0.19828748446E+02 -0.43310698026E+03  0.44310362421E+03  0.47000000000E+01 0. -1.
         -5    1    3    3    0  501  0.49123069694E+01  0.54961391494E+02 -0.60265819640E+03  0.60519738681E+03  0.47000000000E+01 0. -1.
          1    1    1    2  502    0 -0.56709900757E+00 -0.20621652888E+02 -0.33383341910E+03  0.33447021672E+03  0.00000000000E+00 0. -1.
          1    1    1    2  503    0 -0.13433848849E+03 -0.43196226366E+02  0.15319220814E+03  0.20828009050E+03  0.00000000000E+00 0. -1.
<mgrwt>
<rscale>  0 0.53981982E+02</rscale>
<asrwt>0</asrwt>
<pdfrwt beam="1">  1        2 0.46413328E-01 0.14125701E+03</pdfrwt>
<pdfrwt beam="2">  1        2 0.24202299E+00 0.20629449E+02</pdfrwt>
<totfact> 0.26435437E+02</totfact>
</mgrwt>
</event>
<event>
13    1  0.3019759E-008  0.1300207E+03  0.7546771E-02  0.1331410E+00
         -3   -1    0    0    0  501 -0.00000000000E+00  0.00000000000E+00  0.37834922293E+03  0.37834922293E+03  0.00000000000E+00 0.  1.
          2   -1    0    0  503    0  0.00000000000E+00 -0.00000000000E+00 -0.12842999101E+04  0.12842999101E+04  0.00000000000E+00 0. -1.
         25    2    1    2    0    0 -0.17720416257E+03  0.19292025335E+02 -0.62282531040E+02  0.22642647696E+03  0.12496534847E+03 0.  0.
         24    2    1    2    0    0  0.96552107123E+02  0.37768935863E+00 -0.14057891224E+02  0.12656221373E+03  0.80609661941E+02 0.  0.
         24    2    1    2    0    0 -0.13517628880E+02 -0.13259771221E+02 -0.44017380008E+03  0.44736071828E+03  0.77589239997E+02 0.  0.
        -13    1    4    4    0    0  0.88196275656E+02 -0.30851556512E+02 -0.11287595271E+02  0.94115946501E+02  0.00000000000E+00 0.  1.
         14    1    4    4    0    0  0.83558314667E+01  0.31229245870E+02 -0.27702959533E+01  0.32446267224E+02  0.00000000000E+00 0. -1.
        -13    1    5    5    0    0 -0.13094149813E+02 -0.45325757868E+02 -0.28868271311E+03  0.29251254662E+03  0.00000000000E+00 0.  1.
         14    1    5    5    0    0 -0.42347906718E+00  0.32065986647E+02 -0.15149108697E+03  0.15484817166E+03  0.00000000000E+00 0. -1.
          5    1    3    3  502    0 -0.17597081061E+02 -0.39582123378E+02  0.40772614227E+01  0.43762036215E+02  0.47000000000E+01 0. -1.
         -5    1    3    3    0  502 -0.15960708151E+03  0.58874148713E+02 -0.66359792462E+02  0.18266444074E+03  0.47000000000E+01 0. -1.
          1    1    1    2  503    0 -0.26947941957E+02 -0.39978129967E+02 -0.60814354729E+03  0.61005165073E+03  0.00000000000E+00 0. -1.
         -4    1    1    2    0  501  0.12111762629E+03  0.33568186494E+02  0.21870708250E+03  0.25224807329E+03  0.00000000000E+00 0.  1.
<mgrwt>
<rscale>  0 0.79174600E+02</rscale>
<asrwt>0</asrwt>
<pdfrwt beam="2">  1        2 0.18886763E+00 0.48212472E+02</pdfrwt>
<pdfrwt beam="1">  1       -3 0.55639592E-01 0.13002066E+03</pdfrwt>
<totfact> 0.42245330E+01</totfact>
</mgrwt>
</event>
<event>
13    1  0.3019759E-008  0.4550654E+02  0.7546771E-02  0.1555262E+00
         -1   -1    0    0    0  501 -0.00000000000E+00  0.00000000000E+00  0.62634925085E+03  0.62634925085E+03  0.00000000000E+00 0.  1.
          2   -1    0    0  503    0  0.00000000000E+00 -0.00000000000E+00 -0.24837078844E+04  0.24837078844E+04  0.00000000000E+00 0. -1.
         25    2    1    2    0    0 -0.41547155540E+03 -0.58202854397E+02 -0.75835415509E+02  0.44427483030E+03  0.12499971594E+03 0.  0.
         24    2    1    2    0    0 -0.31006425985E+03  0.16841939302E+03 -0.62783185132E+03  0.72591446001E+03  0.90961709231E+02 0.  0.
         24    2    1    2    0    0  0.75177650146E+03 -0.11384330457E+03 -0.12360511352E+04  0.14534669855E+04  0.81336727133E+02 0.  0.
        -11    1    4    4    0    0 -0.11215472596E+03  0.62089131633E+02 -0.14608988281E+03  0.19436048127E+03  0.00000000000E+00 0.  1.
         12    1    4    4    0    0 -0.19790953389E+03  0.10633026139E+03 -0.48174196851E+03  0.53155397874E+03  0.00000000000E+00 0. -1.
        -11    1    5    5    0    0  0.39119289214E+03 -0.73551129672E+02 -0.57396637402E+03  0.69848338995E+03  0.00000000000E+00 0.  1.
         12    1    5    5    0    0  0.36058360932E+03 -0.40292174902E+02 -0.66208476115E+03  0.75498359560E+03  0.00000000000E+00 0. -1.
          5    1    3    3  502    0 -0.28367294518E+03  0.47663463238E+01 -0.98449794641E+01  0.28392265056E+03  0.47000000000E+01 0.  1.
         -5    1    3    3    0  502 -0.13179861022E+03 -0.62969200721E+02 -0.65990436045E+02  0.16035217974E+03  0.47000000000E+01 0.  1.
          1    1    1    2  503    0  0.10164133481E+02 -0.23707512548E+02 -0.19936239412E+03  0.20102417753E+03  0.00000000000E+00 0. -1.
         -2    1    1    2    0  501 -0.36404819683E+02  0.27334278501E+02  0.28172216256E+03  0.28537668187E+03  0.00000000000E+00 0.  1.
<mgrwt>
<rscale>  0 0.34261026E+02</rscale>
<asrwt>0</asrwt>
<pdfrwt beam="2">  1        2 0.36525116E+00 0.25794491E+02</pdfrwt>
<pdfrwt beam="1">  1       -1 0.92110185E-01 0.45506536E+02</pdfrwt>
<totfact> 0.96042765E+00</totfact>
</mgrwt>
</event>
<event>
13    1  0.3019759E-008  0.3028492E+02  0.7546771E-02  0.1609045E+00
         -1   -1    0    0    0  501  0.00000000000E+00  0.00000000000E+00  0.63445523846E+03  0.63445523846E+03  0.00000000000E+00 0.  1.
         -1   -1    0    0    0  502 -0.00000000000E+00 -0.00000000000E+00 -0.11057871988E+04  0.11057871988E+04  0.00000000000E+00 0.  1.
         25    2    1    2    0    0  0.53658113076E+02  0.37450802999E+00 -0.48927677243E+03  0.50783481980E+03  0.12500044319E+03 0.  0.
         24    2    1    2    0    0 -0.14200615598E+02  0.64758211311E+02 -0.33427709765E+02  0.98681330175E+02  0.65002382491E+02 0.  0.
         24    2    1    2    0    0 -0.34196177020E+02 -0.35531989460E+02  0.26482084701E+03  0.28141020943E+03  0.81423118109E+02 0.  0.
        -11    1    5    5    0    0  0.24383831270E+02 -0.12739592680E+02  0.12679511730E+03  0.12974540539E+03  0.00000000000E+00 0.  1.
         12    1    5    5    0    0 -0.58580008289E+02 -0.22792396780E+02  0.13802572971E+03  0.15166480404E+03  0.00000000000E+00 0. -1.
        -11    1    4    4    0    0 -0.39056227014E+02  0.50145266143E+02 -0.18416621717E+02  0.66174833136E+02  0.00000000000E+00 0.  1.
         12    1    4    4    0    0  0.24855611417E+02  0.14612945168E+02 -0.15011088048E+02  0.32506497039E+02  0.00000000000E+00 0. -1.
          5    1    3    3  503    0  0.21647762685E+02  0.51892311353E+02 -0.36644917094E+03  0.37076747766E+03  0.47000000000E+01 0. -1.
         -5    1    3    3    0  503  0.32010350390E+02 -0.51517803323E+02 -0.12282760149E+03  0.13706734213E+03  0.47000000000E+01 0. -1.
         -2    1    1    2    0  501 -0.26623048257E+02 -0.81081751132E+01  0.31839559656E+03  0.31960958232E+03  0.00000000000E+00 0.  1.
         -2    1    1    2    0  502  0.21361727799E+02 -0.21492554768E+02 -0.53184392172E+03  0.53270649554E+03  0.00000000000E+00 0.  1.
<mgrwt>
<rscale>  0 0.29031712E+02</rscale>
<asrwt>0</asrwt>
<pdfrwt beam="1">  1       -1 0.93302243E-01 0.27830365E+02</pdfrwt>
<pdfrwt beam="2">  1       -1 0.16261576E+00 0.30284917E+02</pdfrwt>
<totfact> 0.39050849E+00</totfact>
</mgrwt>
</event>
<event>
13    1  0.3019759E-008  0.1001002E+03  0.7546771E-02  0.1332934E+00
          2   -1    0    0  503    0  0.00000000000E+00  0.00000000000E+00  0.60402014879E+03  0.60402014879E+03  0.00000000000E+00 0. -1.
          2   -1    0    0  502    0 -0.00000000000E+00 -0.00000000000E+00 -0.54398962597E+04  0.54398962597E+04  0.00000000000E+00 0. -1.
         25    2    1    2    0    0 -0.59932000859E+01  0.17626961082E+03 -0.72606988503E+03  0.75756815726E+03  0.12500056322E+03 0.  0.
         24    2    1    2    0    0  0.99122595619E+02 -0.62821576276E+02  0.52020152102E+00  0.14244463695E+03  0.80736389431E+02 0.  0.
         24    2    1    2    0    0 -0.20632071761E+03  0.14891911112E+01  0.11805430162E+03  0.25061588574E+03  0.79379139894E+02 0.  0.
        -13    1    4    4    0    0  0.92524168377E+02 -0.79469948915E+02 -0.87457639219E+01  0.12228116331E+03  0.00000000000E+00 0.  1.
         14    1    4    4    0    0  0.65984272412E+01  0.16648372638E+02  0.92659654429E+01  0.20163473638E+02  0.00000000000E+00 0. -1.
        -13    1    5    5    0    0 -0.19423721828E+03  0.20160581994E+02  0.90573135632E+02  0.21526272071E+03  0.00000000000E+00 0.  1.
         14    1    5    5    0    0 -0.12083499333E+02 -0.18671390883E+02  0.27481165987E+02  0.35353165030E+02  0.00000000000E+00 0. -1.
          5    1    3    3  501    0 -0.31680843856E+02  0.73258634368E+02 -0.13402822934E+03  0.15606460085E+03  0.47000000000E+01 0.  1.
         -5    1    3    3    0  501  0.25687643770E+02  0.10301097645E+03 -0.59204165569E+03  0.60150355641E+03  0.47000000000E+01 0.  1.
          1    1    1    2  502    0  0.41842349809E+02 -0.45470162998E+02 -0.45531629371E+04  0.45535822217E+04  0.00000000000E+00 0. -1.
          1    1    1    2  503    0  0.71348972268E+02 -0.69467062657E+02  0.32478220812E+03  0.33970550680E+03  0.00000000000E+00 0. -1.
<mgrwt>
<rscale>  0 0.78647595E+02</rscale>
<asrwt>0</asrwt>
<pdfrwt beam="1">  1        2 0.88826492E-01 0.10010018E+03</pdfrwt>
<pdfrwt beam="2">  1        2 0.79998475E+00 0.61792540E+02</pdfrwt>
<totfact> 0.36746186E-01</totfact>
</mgrwt>
</event>
<event>
13    1  0.3019759E-008  0.7564038E+02  0.7546771E-02  0.1403632E+00
          2   -1    0    0  502    0  0.00000000000E+00  0.00000000000E+00  0.69786056173E+03  0.69786056173E+03  0.00000000000E+00 0. -1.
          4   -1    0    0  503    0 -0.00000000000E+00 -0.00000000000E+00 -0.21127542350E+04  0.21127542350E+04  0.00000000000E+00 0. -1.
         25    2    1    2    0    0 -0.75922671690E+02  0.11949032975E+03 -0.28654615868E+03  0.34318484355E+03  0.12499977923E+03 0.  0.
         24    2    1    2    0    0  0.16119751251E+03 -0.57148943043E+01 -0.10776361695E+02  0.18001314490E+03  0.79191567159E+02 0.  0.
         24    2    1    2    0    0 -0.13498247953E+03 -0.57444937417E+02  0.11267421244E+03  0.20157172085E+03  0.80096753262E+02 0.  0.
        -11    1    4    4    0    0  0.18285673465E+02  0.10189060303E+02  0.24229380152E+02  0.32019457623E+02  0.00000000000E+00 0.  1.
         12    1    4    4    0    0  0.14291183905E+03 -0.15903954607E+02 -0.35005741848E+02  0.14799368728E+03  0.00000000000E+00 0. -1.
        -13    1    5    5    0    0 -0.17297185432E+02  0.17083754307E+02  0.33347368425E+02  0.41268562684E+02  0.00000000000E+00 0.  1.
         14    1    5    5    0    0 -0.11768529410E+03 -0.74528691724E+02  0.79326844011E+02  0.16030315817E+03  0.00000000000E+00 0. -1.
          5    1    3    3  501    0 -0.10441886702E+03  0.82505537148E+02 -0.15968296373E+03  0.20792114456E+03  0.47000000000E+01 0. -1.
         -5    1    3    3    0  501  0.28496195325E+02  0.36984792602E+02 -0.12686319495E+03  0.13526369899E+03  0.47000000000E+01 0. -1.
          1    1    1    2  502    0  0.83854202398E+01 -0.75278550375E+02  0.42413246384E+03  0.43084280463E+03  0.00000000000E+00 0. -1.
          3    1    1    2  503    0  0.41322218467E+02  0.18948052346E+02 -0.16543778292E+04  0.16550022828E+04  0.00000000000E+00 0. -1.
<mgrwt>
<rscale>  0 0.58639270E+02</rscale>
<asrwt>0</asrwt>
<pdfrwt beam="1">  1        2 0.10262656E+00 0.75640378E+02</pdfrwt>
<pdfrwt beam="2">  1        4 0.31069914E+00 0.45459371E+02</pdfrwt>
<totfact> 0.87028767E-01</totfact>
</mgrwt>
</event>
<event>
13    1  0.3019759E-008  0.1108359E+03  0.7546771E-02  0.1288407E+00
          2   -1    0    0  503    0  0.00000000000E+00  0.00000000000E+00  0.72087495710E+03  0.72087495710E+03  0.00000000000E+00 0. -1.
         -3   -1    0    0    0  501 -0.00000000000E+00 -0.00000000000E+00 -0.16661214599E+04  0.16661214599E+04  0.00000000000E+00 0.  1.
         25    2    1    2    0    0 -0.45446755019E+02 -0.13836385315E+02 -0.61210555012E+03  0.62654340915E+03  0.12500634369E+03 0.  0.
         24    2    1    2    0    0 -0.26549421583E+02  0.10384894824E+03 -0.46631507410E+02  0.14284548491E+03  0.82102735879E+02 0.  0.
         24    2    1    2    0    0  0.41795016626E+02 -0.12975216769E+03 -0.77232257304E+02  0.17665776268E+03  0.81613081756E+02 0.  0.
        -11    1    4    4    0    0  0.13024571127E+02 -0.38354758046E+01 -0.21453837433E+02  0.25389317996E+02  0.00000000000E+00 0.  1.
         12    1    4    4    0    0 -0.39573992710E+02  0.10768442404E+03 -0.25177669977E+02  0.11745616691E+03  0.00000000000E+00 0. -1.
        -11    1    5    5    0    0 -0.14423240288E+02 -0.72691367609E+02 -0.58444716094E+02  0.94381405078E+02  0.00000000000E+00 0.  1.
         12    1    5    5    0    0  0.56218256913E+02 -0.57060800077E+02 -0.18787541210E+02  0.82276357604E+02  0.00000000000E+00 0. -1.
          5    1    3    3  502    0 -0.54145374987E+01 -0.53170277024E+02 -0.47924842955E+03  0.48224220347E+03  0.47000000000E+01 0.  1.
         -5    1    3    3    0  502 -0.40032217521E+02  0.39333891709E+02 -0.13285712056E+03  0.14430120568E+03  0.47000000000E+01 0.  1.
          1    1    1    2  503    0 -0.14511449831E+02  0.11033772192E+03  0.60866225045E+03  0.61875255974E+03  0.00000000000E+00 0. -1.
         -4    1    1    2    0  501  0.44712609807E+02 -0.70598117150E+02 -0.81793943841E+03  0.82219720051E+03  0.00000000000E+00 0.  1.
<mgrwt>
<rscale>  0 0.96240006E+02</rscale>
<asrwt>0</asrwt>
<pdfrwt beam="1">  1        2 0.10601102E+00 0.11083593E+03</pdfrwt>
<pdfrwt beam="2">  1       -3 0.24501786E+00 0.83566211E+02</pdfrwt>
<totfact> 0.25109971E+00</totfact>
</mgrwt>
</event>
<event>
13    1  0.3019759E-008  0.7570231E+02  0.7546771E-02  0.1487264E+00
          2   -1    0    0  502    0  0.00000000000E+00  0.00000000000E+00  0.28741225213E+04  0.28741225213E+04  0.00000000000E+00 0. -1.
          4   -1    0    0  503    0 -0.00000000000E+00 -0.00000000000E+00 -0.53230946281E+03  0.53230946281E+03  0.00000000000E+00 0. -1.
         25    2    1    2    0    0 -0.94267315639E+02 -0.82108467209E+02  0.36761076788E+03  0.40793473343E+03  0.12507974612E+03 0.  0.
         24    2    1    2    0    0  0.11944461257E+03  0.20210097554E+01  0.38800612919E+03  0.41389653179E+03  0.80563532597E+02 0.  0.
         24    2    1    2    0    0 -0.13338022666E+02 -0.17476354546E+02  0.54673949241E+03  0.55324382871E+03  0.81678244510E+02 0.  0.
        -11    1    4    4    0    0  0.86769054508E+02  0.53852969390E+01  0.14793508297E+03  0.17158863312E+03  0.00000000000E+00 0.  1.
         12    1    4    4    0    0  0.32675558064E+02 -0.33642871836E+01  0.24007104622E+03  0.24230789866E+03  0.00000000000E+00 0. -1.
        -13    1    5    5    0    0 -0.28005716915E+02 -0.11824018219E+02  0.70869520327E+02  0.77114307999E+02  0.00000000000E+00 0.  1.
         14    1    5    5    0    0  0.14667694249E+02 -0.56523363271E+01  0.47586997209E+03  0.47612952071E+03  0.00000000000E+00 0. -1.
          5    1    3    3  501    0  0.22867973523E+02  0.99539790552E+00  0.16641019600E+02  0.28687080077E+02  0.47000000000E+01 0.  1.
         -5    1    3    3    0  501 -0.11713528916E+03 -0.83103865114E+02  0.35096974828E+03  0.37924765335E+03  0.47000000000E+01 0.  1.
          1    1    1    2  502    0 -0.15780322349E+02  0.73465570952E+02  0.15341861436E+04  0.15360251729E+04  0.00000000000E+00 0. -1.
          3    1    1    2  503    0  0.39410480832E+01  0.24098241047E+02 -0.49472947459E+03  0.49533171725E+03  0.00000000000E+00 0. -1.
<mgrwt>
<rscale>  0 0.42994505E+02</rscale>
<asrwt>0</asrwt>
<pdfrwt beam="1">  1        2 0.42266507E+00 0.75702311E+02</pdfrwt>
<pdfrwt beam="2">  1        4 0.78280804E-01 0.24418376E+02</pdfrwt>
<totfact> 0.23569048E+00</totfact>
</mgrwt>
</event>
<event>
13    1  0.3019759E-008  0.1381188E+03  0.7546771E-02  0.1249069E+00
          2   -1    0    0  503    0  0.00000000000E+00  0.00000000000E+00  0.33036688644E+04  0.33036688644E+04  0.00000000000E+00 0. -1.
          2   -1    0    0  502    0 -0.00000000000E+00 -0.00000000000E+00 -0.28746116596E+04  0.28746116596E+04  0.00000000000E+00 0. -1.
         25    2    1    2    0    0  0.27449455037E+02 -0.86916855050E+01 -0.30993387804E+03  0.33542945163E+03  0.12499956116E+03 0.  0.
         24    2    1    2    0    0  0.33603614931E+03 -0.13322772389E+02  0.24191086567E+03  0.42182947902E+03  0.79507562754E+02 0.  0.
         24    2    1    2    0    0 -0.25733944446E+03 -0.15660965283E+03  0.52658610550E+03  0.61186536646E+03  0.79599793549E+02 0.  0.
        -11    1    5    5    0    0 -0.25683203979E+03 -0.13555611835E+03  0.48660079701E+03  0.56667318053E+03  0.00000000000E+00 0.  1.
         12    1    5    5    0    0 -0.50740466534E+00 -0.21053534482E+02  0.39985308489E+02  0.45192185925E+02  0.00000000000E+00 0. -1.
        -11    1    4    4    0    0  0.86737998951E+02  0.13921794156E+02  0.27981257366E+02  0.92196787246E+02  0.00000000000E+00 0.  1.
         12    1    4    4    0    0  0.24929815036E+03 -0.27244566545E+02  0.21392960830E+03  0.32963269178E+03  0.00000000000E+00 0. -1.
          5    1    3    3  501    0 -0.23084762840E+02 -0.17839946995E+02 -0.10154968432E+02  0.31247133757E+02  0.47000000000E+01 0.  1.
         -5    1    3    3    0  501  0.50534217877E+02  0.91482614903E+01 -0.29977890960E+03  0.30418231788E+03  0.47000000000E+01 0.  1.
          1    1    1    2  502    0 -0.17247522785E+02  0.13694876657E+03 -0.24163522113E+04  0.24202913979E+04  0.00000000000E+00 0. -1.
          1    1    1    2  503    0 -0.88898637109E+02  0.41675344154E+02  0.23868463229E+04  0.23888648290E+04  0.00000000000E+00 0. -1.
<mgrwt>
<rscale>  0 0.11645104E+03</rscale>
<asrwt>0</asrwt>
<pdfrwt beam="1">  1        2 0.48583366E+00 0.98182493E+02</pdfrwt>
<pdfrwt beam="2">  1        2 0.42273701E+00 0.13811876E+03</pdfrwt>
<totfact> 0.99095824E-01</totfact>
</mgrwt>
</event>
<event>
13    1  0.3019759E-008  0.1032866E+03  0.7546771E-02  0.1342879E+00
          2   -1    0    0  503    0  0.00000000000E+00  0.00000000000E+00  0.20663375856E+04  0.20663375856E+04  0.00000000000E+00 0. -1.
          2   -1    0    0  502    0 -0.00000000000E+00 -0.00000000000E+00 -0.15880873967E+04  0.15880873967E+04  0.00000000000E+00 0. -1.
         25    2    1    2    0    0  0.31658043208E+02 -0.40982211249E+03 -0.28479116497E+03  0.51544909426E+03  0.12500146219E+03 0.  0.
         24    2    1    2    0    0 -0.43169339800E+02  0.50144752977E+03 -0.11069719939E+03  0.51817491209E+03  0.54204728094E+02 0.  0.
         24    2    1    2    0    0 -0.36308970955E+02 -0.60047141784E+02  0.62632230320E+03  0.63537182363E+03  0.80583659484E+02 0.  0.
        -13    1    4    4    0    0 -0.27918348570E+02  0.14101361135E+03 -0.50900264199E+02  0.15249626117E+03  0.00000000000E+00 0.  1.
         14    1    4    4    0    0 -0.15250991230E+02  0.36043391842E+03 -0.59796935195E+02  0.36567865092E+03  0.00000000000E+00 0. -1.
        -13    1    5    5    0    0 -0.22888340547E+02 -0.73173837740E+02  0.58478052586E+03  0.58978517282E+03  0.00000000000E+00 0.  1.
         14    1    5    5    0    0 -0.13420630408E+02  0.13126695956E+02  0.41541777339E+02  0.45586650807E+02  0.00000000000E+00 0. -1.
          5    1    3    3  501    0  0.17636386632E+02 -0.38882062934E+02  0.66722862376E+01  0.43467992306E+02  0.47000000000E+01 0. -1.
         -5    1    3    3    0  501  0.14021656576E+02 -0.37094004955E+03 -0.29146345121E+03  0.47198110196E+03  0.47000000000E+01 0. -1.
          1    1    1    2  502    0  0.58318568233E+02 -0.85493160104E+02 -0.86524543027E+03  0.87141252597E+03  0.00000000000E+00 0. -1.
          1    1    1    2  503    0 -0.10498300686E+02  0.53914884601E+02  0.11126616803E+04  0.11140166264E+04  0.00000000000E+00 0. -1.
<mgrwt>
<rscale>  0 0.75321133E+02</rscale>
<asrwt>0</asrwt>
<pdfrwt beam="1">  1        2 0.30387318E+00 0.54927489E+02</pdfrwt>
<pdfrwt beam="2">  1        2 0.23354226E+00 0.10328659E+03</pdfrwt>
<totfact> 0.20484341E+01</totfact>
</mgrwt>
</event>
<event>
13    1  0.3019759E-008  0.1374825E+03  0.7546771E-02  0.1493010E+00
         -3   -1    0    0    0  501 -0.00000000000E+00  0.00000000000E+00  0.37245667529E+03  0.37245667529E+03  0.00000000000E+00 0.  1.
          2   -1    0    0  503    0  0.00000000000E+00 -0.00000000000E+00 -0.25758969649E+04  0.25758969649E+04  0.00000000000E+00 0. -1.
         25    2    1    2    0    0  0.15587212347E+03 -0.17933935500E+03 -0.72639045108E+03  0.77442141668E+03  0.12500688007E+03 0.  0.
         24    2    1    2    0    0 -0.78651436911E+01  0.35584887987E+02 -0.53045867358E+02  0.99266563431E+02  0.75576728121E+02 0.  0.
         24    2    1    2    0    0 -0.13802405218E+02 -0.97528283481E+00 -0.87850019818E+03  0.88250294116E+03  0.82809331585E+02 0.  0.
        -13    1    5    5    0    0 -0.43205966974E+01  0.29290208625E+02 -0.73247594397E+03  0.73307407018E+03  0.00000000000E+00 0.  1.
         14    1    5    5    0    0 -0.94818085210E+01 -0.30265491460E+02 -0.14602425420E+03  0.14942887098E+03  0.00000000000E+00 0. -1.
        -13    1    4    4    0    0  0.34645665878E+01  0.42841163497E+02 -0.67179910052E+02  0.79752798234E+02  0.00000000000E+00 0.  1.
         14    1    4    4    0    0 -0.11329710279E+02 -0.72562755106E+01  0.14134042695E+02  0.19513765198E+02  0.00000000000E+00 0. -1.
          5    1    3    3  502    0  0.45055051616E+02 -0.10215032058E+03 -0.48572730100E+03  0.49841523513E+03  0.47000000000E+01 0.  1.
         -5    1    3    3    0  502  0.11081707185E+03 -0.77189034420E+02 -0.24066315008E+03  0.27600618155E+03  0.47000000000E+01 0.  1.
          1    1    1    2  503    0 -0.11863775494E+02 -0.51114940541E+01 -0.83984604898E+03  0.83994539259E+03  0.00000000000E+00 0. -1.
         -4    1    1    2    0  501 -0.12234079906E+03  0.14984124390E+03  0.29434227602E+03  0.35221732629E+03  0.00000000000E+00 0.  1.
<mgrwt>
<rscale>  0 0.42142712E+02</rscale>
<asrwt>0</asrwt>
<pdfrwt beam="2">  1        2 0.37880838E+00 0.12918070E+02</pdfrwt>
<pdfrwt beam="1">  1       -3 0.54773040E-01 0.13748246E+03</pdfrwt>
<totfact> 0.13277671E+01</totfact>
</mgrwt>
</event>
<event>
13    1  0.3019759E-008  0.4088196E+03  0.7546771E-02  0.1159860E+00
         -1   -1    0    0    0  501 -0.00000000000E+00  0.00000000000E+00  0.59032750859E+03  0.59032750859E+03  0.00000000000E+00 0.  1.
          2   -1    0    0  503    0  0.00000000000E+00 -0.00000000000E+00 -0.13699877320E+04  0.13699877320E+04  0.00000000000E+00 0. -1.
         25    2    1    2    0    0 -0.32298717064E+03 -0.34198040534E+03  0.12621251523E+03  0.50282087275E+03  0.12501168358E+03 0.  0.
         24    2    1    2    0    0  0.29878265596E+02  0.12492509030E+03 -0.29004531027E+02  0.15451431546E+03  0.80835771303E+02 0.  0.
         24    2    1    2    0    0 -0.39378320138E+02 -0.95910410349E+01 -0.53022144710E+02  0.10518583300E+03  0.81302346020E+02 0.  0.
        -11    1    4    4    0    0  0.49621425298E+02  0.10590426498E+03 -0.41881311325E+02  0.12422577602E+03  0.00000000000E+00 0.  1.
         12    1    4    4    0    0 -0.19743159702E+02  0.19020825321E+02  0.12876780298E+02  0.30288539446E+02  0.00000000000E+00 0. -1.
        -11    1    5    5    0    0 -0.17173735842E+02  0.27410322448E+02 -0.52932513178E+02  0.62033167990E+02  0.00000000000E+00 0.  1.
         12    1    5    5    0    0 -0.22204584296E+02 -0.37001363482E+02 -0.89631531917E-01  0.43152665006E+02  0.00000000000E+00 0. -1.
          5    1    3    3  502    0 -0.23621738620E+03 -0.23243009548E+03  0.14495457028E+03  0.36174068098E+03  0.47000000000E+01 0.  1.
         -5    1    3    3    0  502 -0.86769784438E+02 -0.10955030986E+03 -0.18742055047E+02  0.14108019177E+03  0.47000000000E+01 0.  1.
          1    1    1    2  503    0 -0.69865616429E+01  0.86593471176E+02 -0.82600274935E+03  0.83055871751E+03  0.00000000000E+00 0. -1.
         -2    1    1    2    0  501  0.33947378683E+03  0.14005288490E+03  0.21566864858E+01  0.36723550184E+03  0.00000000000E+00 0.  1.
<mgrwt>
<rscale>  0 0.18845728E+03</rscale>
<asrwt>0</asrwt>
<pdfrwt beam="2">  1        2 0.20146878E+00 0.86874860E+02</pdfrwt>
<pdfrwt beam="1">  1       -1 0.86812869E-01 0.40881962E+03</pdfrwt>
<totfact> 0.29346007E+01</totfact>
</mgrwt>
</event>
<event>
13    1  0.3019759E-008  0.6300422E+02  0.7546771E-02  0.1409218E+00
          2   -1    0    0  503    0  0.00000000000E+00  0.00000000000E+00  0.46993275148E+04  0.46993275148E+04  0.00000000000E+00 0. -1.
          2   -1    0    0  502    0 -0.00000000000E+00 -0.00000000000E+00 -0.36497963165E+04  0.36497963165E+04  0.00000000000E+00 0. -1.
         25    2    1    2    0    0 -0.14117776245E+03  0.48196959274E+03 -0.53521487578E+02  0.52030407424E+03  0.12500372436E+03 0.  0.
         24    2    1    2    0    0  0.14667431209E+03 -0.14699227227E+04 -0.11881083713E+04  0.18965117691E+04  0.54490584043E+02 0.  0.
         24    2    1    2    0    0 -0.97519205332E+02  0.10393683102E+04  0.15757365620E+04  0.18919533602E+04  0.82129926803E+02 0.  0.
        -13    1    5    5    0    0 -0.67036128695E+02  0.52017338167E+03  0.72460786034E+03  0.89450027435E+03  0.00000000000E+00 0.  1.
         14    1    5    5    0    0 -0.30483076637E+02  0.51919492848E+03  0.85112870168E+03  0.99745308589E+03  0.00000000000E+00 0. -1.
        -13    1    4    4    0    0  0.10757772780E+03 -0.86237139287E+03 -0.67790968835E+03  0.11021882472E+04  0.00000000000E+00 0.  1.
         14    1    4    4    0    0  0.39096584292E+02 -0.60755132984E+03 -0.51019868299E+03  0.79432352189E+03  0.00000000000E+00 0. -1.
          5    1    3    3  501    0 -0.86642700380E+02  0.43996400869E+03 -0.42765166209E+02  0.45047334651E+03  0.47000000000E+01 0. -1.
         -5    1    3    3    0  501 -0.54535062072E+02  0.42005584049E+02 -0.10756321369E+02  0.69830727734E+02  0.47000000000E+01 0. -1.
          1    1    1    2  502    0  0.29583217471E+02 -0.43053275531E+02 -0.16616373038E+04  0.16624582042E+04  0.00000000000E+00 0. -1.
          1    1    1    2  503    0  0.62439438220E+02 -0.83619046527E+01  0.23770617990E+04  0.23778964235E+04  0.00000000000E+00 0. -1.
<mgrwt>
<rscale>  0 0.57368806E+02</rscale>
<asrwt>0</asrwt>
<pdfrwt beam="1">  1        2 0.69107757E+00 0.63004220E+02</pdfrwt>
<pdfrwt beam="2">  1        2 0.53673476E+00 0.52237451E+02</pdfrwt>
<totfact> 0.53969676E-02</totfact>
</mgrwt>
</event>
<event>
13    1  0.3019759E-008  0.4426322E+02  0.7546771E-02  0.1559754E+00
          2   -1    0    0  503    0  0.00000000000E+00  0.00000000000E+00  0.15741829476E+04  0.15741829476E+04  0.00000000000E+00 0. -1.
          2   -1    0    0  502    0 -0.00000000000E+00 -0.00000000000E+00 -0.15065407987E+04  0.15065407987E+04  0.00000000000E+00 0. -1.
         25    2    1    2    0    0  0.10226078847E+03 -0.98571123536E+00 -0.11810628874E+04  0.11920534963E+04  0.12499501482E+03 0.  0.
         24    2    1    2    0    0 -0.45278290700E+02 -0.20199387517E+02 -0.16536858261E+02  0.96721174227E+02  0.81384144635E+02 0.  0.
         24    2    1    2    0    0 -0.34906302948E+01  0.31639308410E+02  0.54481285292E+03  0.55166148153E+03  0.80598481124E+02 0.  0.
        -11    1    4    4    0    0 -0.43770290187E+02 -0.41562363908E+02  0.11495305169E+02  0.61444368641E+02  0.00000000000E+00 0.  1.
         12    1    4    4    0    0 -0.15080005129E+01  0.21362976391E+02 -0.28032163430E+02  0.35276805587E+02  0.00000000000E+00 0. -1.
        -13    1    5    5    0    0  0.18735181044E+02  0.23144787688E+02  0.67743260954E+02  0.73998902766E+02  0.00000000000E+00 0.  1.
         14    1    5    5    0    0 -0.22225811339E+02  0.84945207219E+01  0.47706959196E+03  0.47766257876E+03  0.00000000000E+00 0. -1.
          5    1    3    3  501    0  0.11449165277E+03  0.73183379517E+01 -0.11611406296E+04  0.11668039889E+04  0.47000000000E+01 0. -1.
         -5    1    3    3    0  501 -0.12230864306E+02 -0.83040491871E+01 -0.19922257708E+02  0.25249507455E+02  0.47000000000E+01 0. -1.
          1    1    1    2  502    0 -0.11120104249E+02 -0.23249777442E+02 -0.25878929679E+03  0.26006943112E+03  0.00000000000E+00 0. -1.
          1    1    1    2  503    0 -0.42371763224E+02  0.12795567785E+02  0.97921833840E+03  0.98021816303E+03  0.00000000000E+00 0. -1.
<mgrwt>
<rscale>  0 0.33775178E+02</rscale>
<asrwt>0</asrwt>
<pdfrwt beam="1">  1        2 0.23149749E+00 0.44263215E+02</pdfrwt>
<pdfrwt beam="2">  1        2 0.22155012E+00 0.25772250E+02</pdfrwt>
<totfact> 0.43721279E+01</totfact>
</mgrwt>
</event>
<event>
13    1  0.3019759E-008  0.1968706E+03  0.7546771E-02  0.1422502E+00
          2   -1    0    0  503    0  0.00000000000E+00  0.00000000000E+00  0.14611981237E+04  0.14611981237E+04  0.00000000000E+00 0. -1.
          2   -1    0    0  502    0 -0.00000000000E+00 -0.00000000000E+00 -0.14458346249E+04  0.14458346249E+04  0.00000000000E+00 0. -1.
         25    2    1    2    0    0  0.39814266659E+03  0.16301728816E+03 -0.84064077992E+03  0.95257188530E+03  0.12499622636E+03 0.  0.
         24    2    1    2    0    0 -0.30197006568E+03 -0.23697054206E+03  0.38100205969E+03  0.54558225359E+03  0.71808548076E+02 0.  0.
         24    2    1    2    0    0  0.11100969503E+03  0.20759553597E+03  0.13397805062E+03  0.28058328031E+03  0.73196995808E+02 0.  0.
        -11    1    4    4    0    0 -0.49110313229E+02 -0.15296474197E+02  0.30233997548E+02  0.59664894168E+02  0.00000000000E+00 0.  1.
         12    1    4    4    0    0 -0.25285975245E+03 -0.22167406786E+03  0.35076806214E+03  0.48591735942E+03  0.00000000000E+00 0. -1.
        -13    1    5    5    0    0  0.11657420695E+03  0.16093725837E+03  0.11708720480E+03  0.23065073247E+03  0.00000000000E+00 0.  1.
         14    1    5    5    0    0 -0.55645119260E+01  0.46658277601E+02  0.16890845821E+02  0.49932547844E+02  0.00000000000E+00 0. -1.
          5    1    3    3  501    0  0.21840307556E+03  0.51761451807E+02 -0.54202360323E+03  0.58667778871E+03  0.47000000000E+01 0.  1.
         -5    1    3    3    0  501  0.17973959103E+03  0.11125583635E+03 -0.29861717669E+03  0.36589409659E+03  0.47000000000E+01 0.  1.
          1    1    1    2  502    0  0.14689993781E+02  0.34275584995E+01 -0.37033197487E+03  0.37063906390E+03  0.00000000000E+00 0. -1.
          1    1    1    2  503    0 -0.22187228972E+03 -0.13706984057E+03  0.71135614321E+03  0.75765626548E+03  0.00000000000E+00 0. -1.
<mgrwt>
<rscale>  0 0.54495016E+02</rscale>
<asrwt>0</asrwt>
<pdfrwt beam="1">  1        2 0.21488208E+00 0.19687057E+03</pdfrwt>
<pdfrwt beam="2">  1        2 0.21262274E+00 0.15084564E+02</pdfrwt>
<totfact> 0.49371264E+01</totfact>
</mgrwt>
</event>
<event>
13    1  0.3019759E-008  0.7137771E+02  0.7546771E-02  0.1516687E+00
          4   -1    0    0  503    0 -0.00000000000E+00  0.00000000000E+00  0.65053273609E+03  0.65053273609E+03  0.00000000000E+00 0. -1.
          2   -1    0    0  502    0  0.00000000000E+00 -0.00000000000E+00 -0.25150733242E+04  0.25150733242E+04  0.00000000000E+00 0. -1.
         25    2    1    2    0    0 -0.26547693174E+02  0.21201409475E+02 -0.98900135867E+01  0.12991319495E+03  0.12500138430E+03 0.  0.
         24    2    1    2    0    0  0.11634636060E+02 -0.60649123679E+02 -0.15488896502E+03  0.18567653358E+03  0.81679267120E+02 0.  0.
         24    2    1    2    0    0 -0.42940976461E+02  0.71471279025E+02 -0.41981673464E+03  0.43596240073E+03  0.82855615283E+02 0.  0.
        -11    1    5    5    0    0 -0.60120256742E+02  0.56284691077E+02 -0.38859146431E+03  0.39722252939E+03  0.00000000000E+00 0.  1.
         12    1    5    5    0    0  0.17179280282E+02  0.15186587948E+02 -0.31225270332E+02  0.38739871345E+02  0.00000000000E+00 0. -1.
        -13    1    4    4    0    0  0.42220699595E+02 -0.39911255825E+02 -0.12607220541E+03  0.13881533342E+03  0.00000000000E+00 0.  1.
         14    1    4    4    0    0 -0.30586063535E+02 -0.20737867854E+02 -0.28816759608E+02  0.46861200155E+02  0.00000000000E+00 0. -1.
          5    1    3    3  501    0 -0.15958462802E+02  0.55515458171E+02  0.38421506793E+02  0.69533738683E+02  0.47000000000E+01 0. -1.
         -5    1    3    3    0  501 -0.10589230371E+02 -0.34314048696E+02 -0.48311520379E+02  0.60379456267E+02  0.47000000000E+01 0. -1.
          1    1    1    2  502    0  0.83617300307E+01  0.19447031929E+02 -0.18446905427E+04  0.18448119969E+04  0.00000000000E+00 0. -1.
          3    1    1    2  503    0  0.49492303543E+02 -0.51470596750E+02  0.56474566774E+03  0.56924193422E+03  0.00000000000E+00 0. -1.
<mgrwt>
<rscale>  0 0.38871061E+02</rscale>
<asrwt>0</asrwt>
<pdfrwt beam="2">  1        2 0.36986372E+00 0.21168504E+02</pdfrwt>
<pdfrwt beam="1">  1        4 0.95666580E-01 0.71377709E+02</pdfrwt>
<totfact> 0.30733883E+00</totfact>
</mgrwt>
</event>
<event>
13    1  0.3019759E-008  0.1569545E+03  0.7546771E-02  0.1317429E+00
          2   -1    0    0  503    0  0.00000000000E+00  0.00000000000E+00  0.31360148952E+04  0.31360148952E+04  0.00000000000E+00 0. -1.
          2   -1    0    0  502    0 -0.00000000000E+00 -0.00000000000E+00 -0.10646141686E+04  0.10646141686E+04  0.00000000000E+00 0. -1.
         25    2    1    2    0    0 -0.95679653259E+02 -0.99994683288E+02  0.50033459701E+02  0.19308867039E+03  0.12500541912E+03 0.  0.
         24    2    1    2    0    0  0.69704627827E+01  0.23640769250E+02  0.80817566418E+02  0.11619958466E+03  0.79770866314E+02 0.  0.
         24    2    1    2    0    0 -0.73526996976E+02  0.36639041870E+02  0.93477099016E+02  0.14594925602E+03  0.76253384309E+02 0.  0.
        -11    1    4    4    0    0  0.36033223353E+02 -0.77916381682E+01  0.20342970995E+02  0.42106285510E+02  0.00000000000E+00 0.  1.
         12    1    4    4    0    0 -0.29062760571E+02  0.31432407418E+02  0.60474595423E+02  0.74093299154E+02  0.00000000000E+00 0. -1.
        -13    1    5    5    0    0  0.34565459047E+01  0.28998530007E+02  0.72213380495E+01  0.30083387033E+02  0.00000000000E+00 0.  1.
         14    1    5    5    0    0 -0.76983542880E+02  0.76405118629E+01  0.86255760966E+02  0.11586586899E+03  0.00000000000E+00 0. -1.
          5    1    3    3  501    0 -0.10495094856E+03 -0.43781653236E+02  0.68713550776E+02  0.13294802301E+03  0.47000000000E+01 0. -1.
         -5    1    3    3    0  501  0.92712952985E+01 -0.56213030052E+02 -0.18680091075E+02  0.60140647375E+02  0.47000000000E+01 0. -1.
          1    1    1    2  502    0  0.16037380490E+03 -0.54610731823E+01 -0.94219273977E+03  0.95575977081E+03  0.00000000000E+00 0. -1.
          1    1    1    2  503    0  0.18623825525E+01  0.45175945351E+02  0.27892653413E+04  0.27896317819E+04  0.00000000000E+00 0. -1.
<mgrwt>
<rscale>  0 0.84241266E+02</rscale>
<asrwt>0</asrwt>
<pdfrwt beam="1">  1        2 0.46117866E+00 0.45214318E+02</pdfrwt>
<pdfrwt beam="2">  1        2 0.15656091E+00 0.15695451E+03</pdfrwt>
<totfact> 0.11491143E+01</totfact>
</mgrwt>
</event>
<event>
13    1  0.3019759E-008  0.1395179E+03  0.7546771E-02  0.1297826E+00
          2   -1    0    0  503    0  0.00000000000E+00  0.00000000000E+00  0.35266261411E+03  0.35266261411E+03  0.00000000000E+00 0. -1.
          2   -1    0    0  502    0 -0.00000000000E+00 -0.00000000000E+00 -0.93745723667E+03  0.93745723667E+03  0.00000000000E+00 0. -1.
         25    2    1    2    0    0  0.66710714633E+02  0.94785976867E+02 -0.13870725061E+03  0.21976690045E+03  0.12499235298E+03 0.  0.
         24    2    1    2    0    0 -0.13784424330E+01 -0.12472624594E+03 -0.20154716558E+03  0.25041350825E+03  0.80790646916E+02 0.  0.
         24    2    1    2    0    0  0.64208267639E+02 -0.18859715992E+02 -0.10019909161E+02  0.10366005142E+03  0.78527811382E+02 0.  0.
        -13    1    4    4    0    0 -0.12012952875E+02 -0.41586741648E+02 -0.14847685008E+02  0.45762668932E+02  0.00000000000E+00 0.  1.
         14    1    4    4    0    0  0.10634510442E+02 -0.83139504294E+02 -0.18669948057E+03  0.20465083932E+03  0.00000000000E+00 0. -1.
        -13    1    5    5    0    0  0.32621030676E+02 -0.43309280717E+02  0.15336516105E+02  0.56347441511E+02  0.00000000000E+00 0.  1.
         14    1    5    5    0    0  0.31587236963E+02  0.24449564726E+02 -0.25356425265E+02  0.47312609910E+02  0.00000000000E+00 0. -1.
          5    1    3    3  501    0  0.10221090265E+03  0.82087354637E+02 -0.95674033830E+02  0.16236075006E+03  0.47000000000E+01 0. -1.
         -5    1    3    3    0  501 -0.35500188016E+02  0.12698622230E+02 -0.43033216777E+02  0.57406150383E+02  0.47000000000E+01 0. -1.
          1    1    1    2  502    0 -0.11018049075E+03  0.10644438532E+03 -0.45890473009E+03  0.48380130116E+03  0.00000000000E+00 0. -1.
          1    1    1    2  503    0 -0.19360049088E+02 -0.57644400258E+02  0.22438443288E+03  0.23247808950E+03  0.00000000000E+00 0. -1.
<mgrwt>
<rscale>  0 0.92108035E+02</rscale>
<asrwt>0</asrwt>
<pdfrwt beam="1">  1        2 0.51862150E-01 0.60808621E+02</pdfrwt>
<pdfrwt beam="2">  1        2 0.13786136E+00 0.13951788E+03</pdfrwt>
<totfact> 0.46933498E+02</totfact>
</mgrwt>
</event>
<event>
13    1  0.3019759E-008  0.3372775E+03  0.7546771E-02  0.1267275E+00
          2   -1    0    0  502    0  0.00000000000E+00  0.00000000000E+00  0.77579715147E+03  0.77579715147E+03  0.00000000000E+00 0. -1.
          2   -1    0    0  503    0 -0.00000000000E+00 -0.00000000000E+00 -0.19111696285E+04  0.19111696285E+04  0.00000000000E+00 0. -1.
         25    2    1    2    0    0 -0.36205533356E+02 -0.15849668979E+02 -0.82194087342E+03  0.83233067367E+03  0.12500199310E+03 0.  0.
         24    2    1    2    0    0 -0.23778896211E+03 -0.14697254626E+03 -0.62133881057E+02  0.29440403551E+03  0.68327132902E+02 0.  0.
         24    2    1    2    0    0 -0.10619504296E+03  0.11783320519E+03  0.35594248044E+03  0.39755922050E+03  0.78716154814E+02 0.  0.
        -13    1    5    5    0    0 -0.90410957409E+02  0.93763217308E+02  0.34120667211E+03  0.36522277480E+03  0.00000000000E+00 0.  1.
         14    1    5    5    0    0 -0.15784085554E+02  0.24069987886E+02  0.14735808330E+02  0.32336445703E+02  0.00000000000E+00 0. -1.
        -13    1    4    4    0    0 -0.19509740220E+03 -0.14010127411E+03 -0.70580685510E+02  0.25034575395E+03  0.00000000000E+00 0.  1.
         14    1    4    4    0    0 -0.42691559912E+02 -0.68712721564E+01  0.84468044523E+01  0.44058281562E+02  0.00000000000E+00 0. -1.
          5    1    3    3  501    0 -0.16901132963E+02 -0.14297516737E+02 -0.20177845542E+02  0.30320005459E+02  0.47000000000E+01 0.  1.
         -5    1    3    3    0  501 -0.19304400392E+02 -0.15521522420E+01 -0.80176302788E+03  0.80201066821E+03  0.47000000000E+01 0.  1.
          1    1    1    2  502    0  0.14956155502E+02  0.30089602741E+02  0.23874267535E+03  0.24109569845E+03  0.00000000000E+00 0. -1.
          1    1    1    2  503    0  0.36523338293E+03  0.14899407309E+02 -0.84598287833E+03  0.92157715183E+03  0.00000000000E+00 0. -1.
<mgrwt>
<rscale>  0 0.10645693E+03</rscale>
<asrwt>0</asrwt>
<pdfrwt beam="1">  1        2 0.11408782E+00 0.33601648E+02</pdfrwt>
<pdfrwt beam="2">  1        2 0.28105436E+00 0.33727746E+03</pdfrwt>
<totfact> 0.58864337E+01</totfact>
</mgrwt>
</event>
<event>
13    1  0.3019759E-008  0.1478740E+03  0.7546771E-02  0.1333948E+00
          2   -1    0    0  503    0  0.00000000000E+00  0.00000000000E+00  0.19141659274E+04  0.19141659274E+04  0.00000000000E+00 0. -1.
          2   -1    0    0  502    0 -0.00000000000E+00 -0.00000000000E+00 -0.26870778771E+04  0.26870778771E+04  0.00000000000E+00 0. -1.
         25    2    1    2    0    0 -0.95309133114E+02 -0.27934712055E+02 -0.12521994634E+04  0.12623361641E+04  0.12499966461E+03 0.  0.
         24    2    1    2    0    0  0.30068788031E+02 -0.33602494182E+02 -0.19421530135E+03  0.22040183896E+03  0.93936828290E+02 0.  0.
         24    2    1    2    0    0 -0.38195368541E+02  0.35980271521E+02  0.82130035537E+01  0.97765572398E+02  0.82080372820E+02 0.  0.
        -11    1    5    5    0    0 -0.13215731175E+02  0.49081866865E+02  0.32677194587E+02  0.60427512373E+02  0.00000000000E+00 0.  1.
         12    1    5    5    0    0 -0.24979637367E+02 -0.13101595344E+02 -0.24464191034E+02  0.37338060025E+02  0.00000000000E+00 0. -1.
        -13    1    4    4    0    0 -0.60333755677E+01 -0.54992534284E+02 -0.14787754398E+03  0.15788713837E+03  0.00000000000E+00 0.  1.
         14    1    4    4    0    0  0.36102163598E+02  0.21390040102E+02 -0.46337757364E+02  0.62514700588E+02  0.00000000000E+00 0. -1.
          5    1    3    3  501    0 -0.26293166764E+02  0.11543353741E+02 -0.52733365804E+02  0.60228543923E+02  0.47000000000E+01 0. -1.
         -5    1    3    3    0  501 -0.69015966350E+02 -0.39478065796E+02 -0.11994660976E+04  0.12021076202E+04  0.47000000000E+01 0. -1.
          1    1    1    2  502    0 -0.40560742756E+02 -0.85867931402E+01 -0.11743880368E+04  0.11751196398E+04  0.00000000000E+00 0. -1.
          1    1    1    2  503    0  0.14399645638E+03  0.34143727856E+02  0.18396778484E+04  0.18456205892E+04  0.00000000000E+00 0. -1.
<mgrwt>
<rscale>  0 0.78299508E+02</rscale>
<asrwt>0</asrwt>
<pdfrwt beam="1">  1        2 0.28149499E+00 0.14787403E+03</pdfrwt>
<pdfrwt beam="2">  1        2 0.39515851E+00 0.41459702E+02</pdfrwt>
<totfact> 0.72383751E+00</totfact>
</mgrwt>
</event>
<event>
13    1  0.3019759E-008  0.7474855E+02  0.7546771E-02  0.1382101E+00
          2   -1    0    0  502    0  0.00000000000E+00  0.00000000000E+00  0.32191689134E+03  0.32191689134E+03  0.00000000000E+00 0. -1.
          2   -1    0    0  503    0 -0.00000000000E+00 -0.00000000000E+00 -0.32854149002E+04  0.32854149002E+04  0.00000000000E+00 0. -1.
         25    2    1    2    0    0  0.15497059810E+03 -0.41020803936E+01 -0.64489134499E+03  0.67493884205E+03  0.12499952129E+03 0.  0.
         24    2    1    2    0    0 -0.48194885112E+02  0.41445784382E+02 -0.17579066869E+03  0.20082624020E+03  0.73405173932E+02 0.  0.
         24    2    1    2    0    0 -0.37480706669E+02 -0.10675550859E+03  0.35938834419E+02  0.14330054536E+03  0.80261475768E+02 0.  0.
        -11    1    5    5    0    0 -0.15683482854E+02  0.29868849922E+01  0.26602445755E+02  0.31025525564E+02  0.00000000000E+00 0.  1.
         12    1    5    5    0    0 -0.21797223814E+02 -0.10974239359E+03  0.93363886646E+01  0.11227501979E+03  0.00000000000E+00 0. -1.
        -13    1    4    4    0    0  0.78459760112E+01  0.49166717862E+01 -0.97116061857E+02  0.97556457868E+02  0.00000000000E+00 0.  1.
         14    1    4    4    0    0 -0.56040861123E+02  0.36529112595E+02 -0.78674606831E+02  0.10326978233E+03  0.00000000000E+00 0. -1.
          5    1    3    3  501    0  0.12511963962E+03  0.47076060518E+02 -0.51512460653E+03  0.53220910360E+03  0.47000000000E+01 0.  1.
         -5    1    3    3    0  501  0.29850958480E+02 -0.51178140912E+02 -0.12976673846E+03  0.14272973845E+03  0.47000000000E+01 0.  1.
          1    1    1    2  502    0 -0.73193264976E+02  0.14900059566E+02  0.19761892806E+03  0.21126406827E+03  0.00000000000E+00 0. -1.
          1    1    1    2  503    0  0.38982586564E+01  0.54511745040E+02 -0.23763737577E+04  0.23770020957E+04  0.00000000000E+00 0. -1.
<mgrwt>
<rscale>  0 0.63914628E+02</rscale>
<asrwt>0</asrwt>
<pdfrwt beam="1">  1        2 0.47340718E-01 0.74748551E+02</pdfrwt>
<pdfrwt beam="2">  1        2 0.48314927E+00 0.54650954E+02</pdfrwt>
<totfact> 0.36836675E+01</totfact>
</mgrwt>
</event>
<event>
13    1  0.3019759E-008  0.4432429E+02  0.7546771E-02  0.1488203E+00
          2   -1    0    0  503    0  0.00000000000E+00  0.00000000000E+00  0.19669925022E+04  0.19669925022E+04  0.00000000000E+00 0. -1.
          2   -1    0    0  502    0 -0.00000000000E+00 -0.00000000000E+00 -0.85923995546E+03  0.85923995546E+03  0.00000000000E+00 0. -1.
         25    2    1    2    0    0  0.24332638991E+03 -0.43416926026E+02 -0.41284918801E+03  0.49715368312E+03  0.12499828443E+03 0.  0.
         24    2    1    2    0    0 -0.13284856196E+03 -0.17887954713E+03  0.10309929141E+03  0.25821810914E+03  0.80003094959E+02 0.  0.
         24    2    1    2    0    0 -0.10452246661E+03  0.29950773191E+03  0.27554734603E+03  0.42518365321E+03  0.64999781200E+02 0.  0.
        -11    1    5    5    0    0 -0.68113378939E+02  0.11215722712E+03  0.90919687462E+02  0.15964042581E+03  0.00000000000E+00 0.  1.
         12    1    5    5    0    0 -0.36409087673E+02  0.18735050479E+03  0.18462765857E+03  0.26554322740E+03  0.00000000000E+00 0. -1.
        -11    1    4    4    0    0 -0.21270348505E+02 -0.44929614612E+02  0.61337909334E+02  0.78952119136E+02  0.00000000000E+00 0.  1.
         12    1    4    4    0    0 -0.11157821345E+03 -0.13394993252E+03  0.41761382073E+02  0.17926599000E+03  0.00000000000E+00 0. -1.
          5    1    3    3  501    0  0.22094999122E+03 -0.54589170188E+02 -0.27509654601E+03  0.35707012722E+03  0.47000000000E+01 0. -1.
         -5    1    3    3    0  501  0.22376398691E+02  0.11172244163E+02 -0.13775264200E+03  0.14008355591E+03  0.47000000000E+01 0. -1.
          1    1    1    2  502    0 -0.21346369219E+02 -0.38744010730E+02 -0.24960794099E+03  0.25349731764E+03  0.00000000000E+00 0. -1.
          1    1    1    2  503    0  0.15391007872E+02 -0.38467248023E+02  0.13915630383E+04  0.13921796946E+04  0.00000000000E+00 0. -1.
<mgrwt>
<rscale>  0 0.42853761E+02</rscale>
<asrwt>0</asrwt>
<pdfrwt beam="1">  1        2 0.28926360E+00 0.41432020E+02</pdfrwt>
<pdfrwt beam="2">  1        2 0.12635882E+00 0.44324289E+02</pdfrwt>
<totfact> 0.59924085E+01</totfact>
</mgrwt>
</event>
<event>
13    1  0.3019759E-008  0.1041581E+03  0.7546771E-02  0.1285259E+00
          2   -1    0    0  503    0  0.00000000000E+00  0.00000000000E+00  0.12213114153E+04  0.12213114153E+04  0.00000000000E+00 0. -1.
          2   -1    0    0  502    0 -0.00000000000E+00 -0.00000000000E+00 -0.24913334076E+04  0.24913334076E+04  0.00000000000E+00 0. -1.
         25    2    1    2    0    0 -0.11782630784E+03 -0.24757808817E+03 -0.86706938724E+03  0.91793917716E+03  0.12500024846E+03 0.  0.
         24    2    1    2    0    0 -0.73228418288E+01  0.10110764176E+03  0.37094042710E+03  0.39282820822E+03  0.80254728723E+02 0.  0.
         24    2    1    2    0    0  0.71361581809E+02 -0.53508783878E+01  0.18020110563E+03  0.20953566744E+03  0.79445894805E+02 0.  0.
        -13    1    4    4    0    0  0.11607303914E+02 -0.10260683281E+02  0.31892628711E+02  0.35456323718E+02  0.00000000000E+00 0.  1.
         14    1    4    4    0    0 -0.18930145742E+02  0.11136832504E+03  0.33904779839E+03  0.35737188451E+03  0.00000000000E+00 0. -1.
        -13    1    5    5    0    0  0.70450233279E+02 -0.46265769895E+01  0.18843119986E+03  0.20122365086E+03  0.00000000000E+00 0.  1.
         14    1    5    5    0    0  0.91134853063E+00 -0.72430139831E+00 -0.82300942292E+01  0.83120165833E+01  0.00000000000E+00 0. -1.
          5    1    3    3  501    0 -0.47837398987E+02 -0.93896577594E+01 -0.94333506536E+02  0.10628961788E+03  0.47000000000E+01 0.  1.
         -5    1    3    3    0  501 -0.69988908855E+02 -0.23818843041E+03 -0.77273588070E+03  0.81164955927E+03  0.47000000000E+01 0.  1.
          1    1    1    2  502    0  0.76529519805E+02  0.50334605162E+02 -0.15675037070E+04  0.15701777642E+04  0.00000000000E+00 0. -1.
          1    1    1    2  503    0 -0.22741951944E+02  0.10148671963E+03  0.61340956918E+03  0.62216400587E+03  0.00000000000E+00 0. -1.
<mgrwt>
<rscale>  0 0.97676777E+02</rscale>
<asrwt>0</asrwt>
<pdfrwt beam="1">  1        2 0.17960462E+00 0.10415806E+03</pdfrwt>
<pdfrwt beam="2">  1        2 0.36637255E+00 0.91598798E+02</pdfrwt>
<totfact> 0.18414310E+01</totfact>
</mgrwt>
</event>
<event>
13    1  0.3019759E-008  0.2791463E+03  0.7546771E-02  0.1306812E+00
          2   -1    0    0  502    0  0.00000000000E+00  0.00000000000E+00  0.21408744540E+04  0.21408744540E+04  0.00000000000E+00 0. -1.
          2   -1    0    0  503    0 -0.00000000000E+00 -0.00000000000E+00 -0.39031696921E+04  0.39031696921E+04  0.00000000000E+00 0. -1.
         25    2    1    2    0    0 -0.77380420198E+01  0.90735418090E+02 -0.11706746492E+04  0.11808455879E+04  0.12499749917E+03 0.  0.
         24    2    1    2    0    0 -0.76531633111E+02 -0.14402145708E+02 -0.20774101494E+02  0.11390964481E+03  0.80494293097E+02 0.  0.
         24    2    1    2    0    0 -0.18509084851E+03 -0.41226337641E+01 -0.23023278431E+03  0.30534018083E+03  0.77135418251E+02 0.  0.
        -11    1    5    5    0    0 -0.18952172765E+03 -0.13029285336E+02 -0.21271230559E+03  0.28519251827E+03  0.00000000000E+00 0.  1.
         12    1    5    5    0    0  0.44308791404E+01  0.89066515717E+01 -0.17520478717E+02  0.20147662561E+02  0.00000000000E+00 0. -1.
        -13    1    4    4    0    0 -0.26616375527E+02 -0.37913169713E+02 -0.33646012095E+02  0.57252895243E+02  0.00000000000E+00 0.  1.
         14    1    4    4    0    0 -0.49915257584E+02  0.23511024005E+02  0.12871910600E+02  0.56656749571E+02  0.00000000000E+00 0. -1.
          5    1    3    3  501    0 -0.44541004791E+02  0.10324025821E+03 -0.95900412554E+03  0.96558451460E+03  0.47000000000E+01 0.  1.
         -5    1    3    3    0  501  0.36802962771E+02 -0.12504840120E+02 -0.21167052368E+03  0.21526107332E+03  0.47000000000E+01 0.  1.
          1    1    1    2  502    0  0.26486151089E+03 -0.99831103315E+02  0.20418224182E+04  0.20613482618E+04  0.00000000000E+00 0. -1.
          1    1    1    2  503    0  0.44990127505E+01  0.27620464697E+02 -0.23824361213E+04  0.23826004708E+04  0.00000000000E+00 0. -1.
<mgrwt>
<rscale>  0 0.88384181E+02</rscale>
<asrwt>0</asrwt>
<pdfrwt beam="1">  1        2 0.31483448E+00 0.27914627E+03</pdfrwt>
<pdfrwt beam="2">  1        2 0.57399554E+00 0.27984481E+02</pdfrwt>
<totfact> 0.12427390E+00</totfact>
</mgrwt>
</event>
<event>
13    1  0.3019759E-008  0.5176851E+02  0.7546771E-02  0.1467915E+00
          2   -1    0    0  502    0  0.00000000000E+00  0.00000000000E+00  0.28377954695E+04  0.28377954695E+04  0.00000000000E+00 0. -1.
          2   -1    0    0  503    0 -0.00000000000E+00 -0.00000000000E+00 -0.13544891364E+04  0.13544891364E+04  0.00000000000E+00 0. -1.
         25    2    1    2    0    0  0.89120640893E+03 -0.68594557190E+02  0.42718301831E+03  0.99853164391E+03  0.12500414458E+03 0.  0.
         24    2    1    2    0    0 -0.53770564474E+03 -0.24596112261E+03  0.47190386398E+03  0.76217396746E+03  0.92691238032E+02 0.  0.
         24    2    1    2    0    0 -0.34665227744E+03  0.38901943899E+03  0.89232742724E+03  0.10367270318E+04  0.83968897217E+02 0.  0.
        -11    1    4    4    0    0 -0.22784685941E+03 -0.15477353698E+03  0.21139039575E+03  0.34721022236E+03  0.00000000000E+00 0.  1.
         12    1    4    4    0    0 -0.30985878532E+03 -0.91187585628E+02  0.26051346823E+03  0.41496374510E+03  0.00000000000E+00 0. -1.
        -13    1    5    5    0    0 -0.21904825716E+03  0.19153096332E+03  0.53433939139E+03  0.60842816673E+03  0.00000000000E+00 0.  1.
         14    1    5    5    0    0 -0.12760402027E+03  0.19748847567E+03  0.35798803585E+03  0.42829886507E+03  0.00000000000E+00 0. -1.
          5    1    3    3  501    0  0.48979477493E+03 -0.46866189491E+02  0.16683901742E+03  0.51956973450E+03  0.47000000000E+01 0. -1.
         -5    1    3    3    0  501  0.40141163400E+03 -0.21728367700E+02  0.26034400089E+03  0.47896190942E+03  0.47000000000E+01 0. -1.
          1    1    1    2  502    0 -0.31025350134E+02 -0.41404962132E+02  0.54164602857E+03  0.54411153591E+03  0.00000000000E+00 0. -1.
          1    1    1    2  503    0  0.24176863373E+02 -0.33058797056E+02 -0.84975400506E+03  0.85074042686E+03  0.00000000000E+00 0. -1.
<mgrwt>
<rscale>  0 0.46046041E+02</rscale>
<asrwt>0</asrwt>
<pdfrwt beam="1">  1        2 0.41732286E+00 0.51768508E+02</pdfrwt>
<pdfrwt beam="2">  1        2 0.19918958E+00 0.40956132E+02</pdfrwt>
<totfact> 0.12251155E+01</totfact>
</mgrwt>
</event>
<event>
13    1  0.3019759E-008  0.1084696E+03  0.7546771E-02  0.1368821E+00
          2   -1    0    0  503    0  0.00000000000E+00  0.00000000000E+00  0.25860706161E+04  0.25860706161E+04  0.00000000000E+00 0. -1.
          2   -1    0    0  502    0 -0.00000000000E+00 -0.00000000000E+00 -0.30999042082E+04  0.30999042082E+04  0.00000000000E+00 0. -1.
         25    2    1    2    0    0 -0.18265230148E+03  0.17573613055E+02 -0.14280610305E+03  0.26398665081E+03  0.12499869450E+03 0.  0.
         24    2    1    2    0    0 -0.18275776987E+02  0.31192382434E+02  0.13802774333E+03  0.16409359577E+03  0.81043701158E+02 0.  0.
         24    2    1    2    0    0  0.12582449626E+03  0.72655855941E+02  0.85484138674E+03  0.87090560183E+03  0.81314780694E+02 0.  0.
        -11    1    5    5    0    0  0.39368674371E+02 -0.16064524533E+02  0.20534807531E+03  0.20970406173E+03  0.00000000000E+00 0.  1.
         12    1    5    5    0    0  0.86455821890E+02  0.88720380474E+02  0.64949331142E+03  0.66120154010E+03  0.00000000000E+00 0. -1.
        -13    1    4    4    0    0 -0.40921949147E+02 -0.96035383416E+01  0.68105470567E+02  0.80032424628E+02  0.00000000000E+00 0.  1.
         14    1    4    4    0    0  0.22646172159E+02  0.40795920776E+02  0.69922272762E+02  0.84061171141E+02  0.00000000000E+00 0. -1.
          5    1    3    3  501    0 -0.20208517884E+02  0.77567212406E+01  0.22776451348E+02  0.31771176489E+02  0.47000000000E+01 0. -1.
         -5    1    3    3    0  501 -0.16244378360E+03  0.98168918142E+01 -0.16558255439E+03  0.23221547432E+03  0.47000000000E+01 0. -1.
          1    1    1    2  502    0  0.37032769314E+02 -0.19813280558E+02 -0.28733418366E+04  0.28736487785E+04  0.00000000000E+00 0. -1.
          1    1    1    2  503    0  0.38070812896E+02 -0.10160857087E+03  0.15094452175E+04  0.15133401974E+04  0.00000000000E+00 0. -1.
<mgrwt>
<rscale>  0 0.67496028E+02</rscale>
<asrwt>0</asrwt>
<pdfrwt beam="1">  1        2 0.38030450E+00 0.10846962E+03</pdfrwt>
<pdfrwt beam="2">  1        2 0.45586827E+00 0.41999906E+02</pdfrwt>
<totfact> 0.21594746E+00</totfact>
</mgrwt>
</event>
<event>
13    1  0.3019759E-008  0.5024297E+02  0.7546771E-02  0.1456180E+00
          2   -1    0    0  503    0  0.00000000000E+00  0.00000000000E+00  0.68690127646E+03  0.68690127646E+03  0.00000000000E+00 0. -1.
         -1   -1    0    0    0  501 -0.00000000000E+00 -0.00000000000E+00 -0.32689876357E+03  0.32689876357E+03  0.00000000000E+00 0.  1.
         25    2    1    2    0    0 -0.84363202317E+02 -0.13111085634E+02  0.50832281272E+02  0.15967988684E+03  0.12499877988E+03 0.  0.
         24    2    1    2    0    0 -0.30865032249E+02 -0.71401278608E+02  0.30293342129E+02  0.11490570677E+03  0.78961016126E+02 0.  0.
         24    2    1    2    0    0  0.15463633051E+03  0.58868086542E+02  0.77622519581E+02  0.19986296993E+03  0.80883279340E+02 0.  0.
        -11    1    4    4    0    0  0.26766098929E+02 -0.22757979995E+02  0.57762799063E+01  0.35604987219E+02  0.00000000000E+00 0.  1.
         12    1    4    4    0    0 -0.57631131178E+02 -0.48643298613E+02  0.24517062223E+02  0.79300719548E+02  0.00000000000E+00 0. -1.
        -11    1    5    5    0    0  0.10940298215E+03  0.78170587934E+02  0.49994429373E+02  0.14345416094E+03  0.00000000000E+00 0.  1.
         12    1    5    5    0    0  0.45233348357E+02 -0.19302501391E+02  0.27628090209E+02  0.56408808994E+02  0.00000000000E+00 0. -1.
          5    1    3    3  502    0 -0.10914494451E+03 -0.34220841176E+02  0.23393689450E+02  0.11684622197E+03  0.47000000000E+01 0.  1.
         -5    1    3    3    0  502  0.24781742193E+02  0.21109755542E+02  0.27438591822E+02  0.42833664871E+02  0.47000000000E+01 0.  1.
          1    1    1    2  503    0 -0.38624111194E+02 -0.24879016501E+02  0.36505477291E+03  0.36793447059E+03  0.00000000000E+00 0. -1.
         -2    1    1    2    0  501 -0.78398475170E+00  0.50523294200E+02 -0.16380040300E+03  0.17141700590E+03  0.00000000000E+00 0.  1.
<mgrwt>
<rscale>  0 0.48045062E+02</rscale>
<asrwt>0</asrwt>
<pdfrwt beam="1">  1        2 0.10101489E+00 0.45943307E+02</pdfrwt>
<pdfrwt beam="2">  1       -1 0.48073347E-01 0.50242966E+02</pdfrwt>
<totfact> 0.24344895E+02</totfact>
</mgrwt>
</event>
<event>
13    1  0.3019759E-008  0.3580350E+02  0.7546771E-02  0.1621455E+00
          2   -1    0    0  503    0  0.00000000000E+00  0.00000000000E+00  0.48959445183E+04  0.48959445183E+04  0.00000000000E+00 0. -1.
          2   -1    0    0  502    0 -0.00000000000E+00 -0.00000000000E+00 -0.22848924033E+04  0.22848924033E+04  0.00000000000E+00 0. -1.
         25    2    1    2    0    0  0.58508558090E+02 -0.85402744223E+02 -0.21546541120E+03  0.26975318270E+03  0.12499822425E+03 0.  0.
         24    2    1    2    0    0  0.12597694834E+04 -0.73833869302E+02  0.10694427197E+04  0.16571049086E+04  0.99087616437E+02 0.  0.
         24    2    1    2    0    0 -0.13410268349E+04  0.14964231023E+03  0.18111305235E+03  0.13636952088E+04  0.78210559760E+02 0.  0.
        -13    1    4    4    0    0  0.36947771811E+03  0.14926886178E+02  0.27864375530E+03  0.46301073257E+03  0.00000000000E+00 0.  1.
         14    1    4    4    0    0  0.89029176528E+03 -0.88760755480E+02  0.79079896439E+03  0.11940941760E+04  0.00000000000E+00 0. -1.
        -13    1    5    5    0    0 -0.12212864800E+04  0.13668082469E+03  0.14212558613E+03  0.12371022578E+04  0.00000000000E+00 0.  1.
         14    1    5    5    0    0 -0.11974035492E+03  0.12961485541E+02  0.38987466222E+02  0.12659295093E+03  0.00000000000E+00 0. -1.
          5    1    3    3  501    0  0.36039939098E+02 -0.11463670925E+03 -0.13306052142E+03  0.17935340721E+03  0.47000000000E+01 0. -1.
         -5    1    3    3    0  501  0.22468618992E+02  0.29233965023E+02 -0.82404889775E+02  0.90399775493E+02  0.47000000000E+01 0. -1.
          1    1    1    2  502    0 -0.11980068102E+02  0.18307316607E+02 -0.11569402358E+04  0.11571470905E+04  0.00000000000E+00 0. -1.
          1    1    1    2  503    0  0.34728861560E+02 -0.87130133090E+01  0.27329019900E+04  0.27331365311E+04  0.00000000000E+00 0. -1.
<mgrwt>
<rscale>  0 0.27988140E+02</rscale>
<asrwt>0</asrwt>
<pdfrwt beam="1">  1        2 0.71999184E+00 0.35803502E+02</pdfrwt>
<pdfrwt beam="2">  1        2 0.33601359E+00 0.21878754E+02</pdfrwt>
<totfact> 0.24781905E-01</totfact>
</mgrwt>
</event>
<event>
13    1  0.3019759E-008  0.1870932E+03  0.7546771E-02  0.1271123E+00
          2   -1    0    0  503    0  0.00000000000E+00  0.00000000000E+00  0.71392820093E+03  0.71392820093E+03  0.00000000000E+00 0. -1.
          2   -1    0    0  502    0 -0.00000000000E+00 -0.00000000000E+00 -0.94657986670E+03  0.94657986670E+03  0.00000000000E+00 0. -1.
         25    2    1    2    0    0  0.23130056307E+02  0.19841175704E+03 -0.10204294066E+03  0.25678335812E+03  0.12499082539E+03 0.  0.
         24    2    1    2    0    0  0.93022485050E+02 -0.27801735062E+02 -0.71212204881E+02  0.14615513842E+03  0.82849424655E+02 0.  0.
         24    2    1    2    0    0 -0.18292413958E+02  0.18351421783E+03  0.44448486790E+03  0.48789405522E+03  0.80384891471E+02 0.  0.
        -11    1    5    5    0    0  0.31574320049E+02  0.65755876036E+02  0.14771039091E+03  0.16473958996E+03  0.00000000000E+00 0.  1.
         12    1    5    5    0    0 -0.49866734007E+02  0.11775834179E+03  0.29677447699E+03  0.32315446526E+03  0.00000000000E+00 0. -1.
        -11    1    4    4    0    0  0.89638032704E+02  0.54412631514E+01 -0.67886642843E+02  0.11257522164E+03  0.00000000000E+00 0.  1.
         12    1    4    4    0    0  0.33844523458E+01 -0.33242998213E+02 -0.33255620381E+01  0.33579916777E+02  0.00000000000E+00 0. -1.
          5    1    3    3  501    0  0.36372465914E+02  0.20034117923E+03 -0.59867704645E+02  0.21228701428E+03  0.47000000000E+01 0.  1.
         -5    1    3    3    0  501 -0.13242409607E+02 -0.19294221947E+01 -0.42175236012E+02  0.44496343837E+02  0.47000000000E+01 0.  1.
          1    1    1    2  502    0 -0.47459447686E+02 -0.32470314300E+03 -0.58440116046E+03  0.67023074131E+03  0.00000000000E+00 0. -1.
          1    1    1    2  503    0 -0.50400679713E+02 -0.29421096801E+02  0.80519772330E+02  0.99444774566E+02  0.00000000000E+00 0. -1.
<mgrwt>
<rscale>  0 0.10449241E+03</rscale>
<asrwt>0</asrwt>
<pdfrwt beam="1">  1        2 0.10498944E+00 0.58359485E+02</pdfrwt>
<pdfrwt beam="2">  1        2 0.13920292E+00 0.18709321E+03</pdfrwt>
<totfact> 0.21623262E+02</totfact>
</mgrwt>
</event>
<event>
13    1  0.3019759E-008  0.3029621E+02  0.7546771E-02  0.1668424E+00
         -3   -1    0    0    0  501 -0.00000000000E+00  0.00000000000E+00  0.94673055586E+03  0.94673055586E+03  0.00000000000E+00 0.  1.
          2   -1    0    0  503    0  0.00000000000E+00 -0.00000000000E+00 -0.35263112093E+04  0.35263112093E+04  0.00000000000E+00 0. -1.
         25    2    1    2    0    0  0.95443135049E+02 -0.11460028885E+03  0.26834962735E+03  0.33147925308E+03  0.12499741795E+03 0.  0.
         24    2    1    2    0    0 -0.12687553194E+03  0.30465559933E+02 -0.32454096831E+03  0.35899979826E+03  0.80798911490E+02 0.  0.
         24    2    1    2    0    0 -0.77507291631E+01  0.98915833559E+02 -0.10885298585E+04  0.10960534504E+04  0.81188036262E+02 0.  0.
        -13    1    4    4    0    0 -0.10722281101E+03  0.40814739389E+02 -0.18488890956E+03  0.21759247007E+03  0.00000000000E+00 0.  1.
         14    1    4    4    0    0 -0.19652720929E+02 -0.10349179456E+02 -0.13965205875E+03  0.14140732820E+03  0.00000000000E+00 0. -1.
        -13    1    5    5    0    0 -0.37385559141E+02  0.61490962709E+02 -0.83300156511E+03  0.83610431526E+03  0.00000000000E+00 0.  1.
         14    1    5    5    0    0  0.29634829978E+02  0.37424870850E+02 -0.25552829344E+03  0.25994913513E+03  0.00000000000E+00 0. -1.
          5    1    3    3  502    0 -0.15398396037E+02  0.14575953259E+02  0.50547304106E+02  0.55015352097E+02  0.47000000000E+01 0. -1.
         -5    1    3    3    0  502  0.11084153109E+03 -0.12917624211E+03  0.21780232324E+03  0.27646390099E+03  0.47000000000E+01 0. -1.
          1    1    1    2  503    0  0.30160135726E+02  0.28411718927E+01 -0.20604164103E+04  0.20606390974E+04  0.00000000000E+00 0. -1.
         -4    1    1    2    0  501  0.90229903281E+01 -0.17622276531E+02  0.62555695638E+03  0.62587016598E+03  0.00000000000E+00 0.  1.
<mgrwt>
<rscale>  0 0.24490874E+02</rscale>
<asrwt>0</asrwt>
<pdfrwt beam="2">  1        2 0.51857517E+00 0.30296207E+02</pdfrwt>
<pdfrwt beam="1">  1       -3 0.13922508E+00 0.19797954E+02</pdfrwt>
<totfact> 0.46253173E-01</totfact>
</mgrwt>
</event>
<event>
13    1  0.3019759E-008  0.7081835E+02  0.7546771E-02  0.1407793E+00
          2   -1    0    0  502    0  0.00000000000E+00  0.00000000000E+00  0.16104608291E+04  0.16104608291E+04  0.00000000000E+00 0. -1.
          2   -1    0    0  503    0 -0.00000000000E+00 -0.00000000000E+00 -0.43267872842E+03  0.43267872842E+03  0.00000000000E+00 0. -1.
         25    2    1    2    0    0  0.43294293370E+02  0.24038710023E+03 -0.90276658753E+02  0.28884458177E+03  0.12498385298E+03 0.  0.
         24    2    1    2    0    0 -0.26760597363E+02 -0.83165885480E+02  0.13426491472E+03  0.17834738164E+03  0.78409356170E+02 0.  0.
         24    2    1    2    0    0 -0.18511611681E+02 -0.39633954419E+02  0.74147050287E+02  0.11865426213E+03  0.81654875816E+02 0.  0.
        -11    1    4    4    0    0 -0.38504749842E+02 -0.45807076653E+02  0.12427529622E+03  0.13793206039E+03  0.00000000000E+00 0.  1.
         12    1    4    4    0    0  0.11744152479E+02 -0.37358808828E+02  0.99896185002E+01  0.40415321256E+02  0.00000000000E+00 0. -1.
        -13    1    5    5    0    0  0.79529041420E+01 -0.57542596150E+02  0.60605294762E+02  0.83948798736E+02  0.00000000000E+00 0.  1.
         14    1    5    5    0    0 -0.26464515823E+02  0.17908641732E+02  0.13541755525E+02  0.34705463390E+02  0.00000000000E+00 0. -1.
          5    1    3    3  501    0 -0.33552497795E+02  0.15801067881E+03 -0.51517690079E+02  0.16961517360E+03  0.47000000000E+01 0. -1.
         -5    1    3    3    0  501  0.76846791166E+02  0.82376421421E+02 -0.38758968674E+02  0.11922940816E+03  0.47000000000E+01 0. -1.
          1    1    1    2  502    0  0.19332786157E+01 -0.70593265601E+02  0.12546863227E+04  0.12566721589E+04  0.00000000000E+00 0. -1.
          1    1    1    2  503    0  0.44637058424E-01 -0.46993994727E+02 -0.19503952821E+03  0.20062117310E+03  0.00000000000E+00 0. -1.
<mgrwt>
<rscale>  0 0.57689156E+02</rscale>
<asrwt>0</asrwt>
<pdfrwt beam="1">  1        2 0.23683247E+00 0.70818351E+02</pdfrwt>
<pdfrwt beam="2">  1        2 0.63629225E-01 0.46994016E+02</pdfrwt>
<totfact> 0.17573208E+02</totfact>
</mgrwt>
</event>
<event>
13    1  0.3019759E-008  0.2543711E+03  0.7546771E-02  0.1253207E+00
          2   -1    0    0  502    0  0.00000000000E+00  0.00000000000E+00  0.25257054247E+04  0.25257054247E+04  0.00000000000E+00 0. -1.
          4   -1    0    0  503    0 -0.00000000000E+00 -0.00000000000E+00 -0.83992379274E+03  0.83992379274E+03  0.00000000000E+00 0. -1.
         25    2    1    2    0    0  0.95619049848E+02 -0.20916049430E+03 -0.41806025671E+03  0.49324343388E+03  0.12499436690E+03 0.  0.
         24    2    1    2    0    0 -0.11539162137E+03  0.57858086268E+02 -0.38824164890E+02  0.15788118117E+03  0.82197123786E+02 0.  0.
         24    2    1    2    0    0 -0.12677598807E+03 -0.65455341984E+02  0.84614045432E+01  0.16324295947E+03  0.78867708890E+02 0.  0.
        -11    1    5    5    0    0 -0.81543484013E+02 -0.79365614819E+02 -0.54400250491E+01  0.11392029878E+03  0.00000000000E+00 0.  1.
         12    1    5    5    0    0 -0.45232504059E+02  0.13910272835E+02  0.13901429592E+02  0.49322660699E+02  0.00000000000E+00 0. -1.
        -13    1    4    4    0    0 -0.31421283719E+02  0.10993270155E+02 -0.51049408795E+02  0.60944164590E+02  0.00000000000E+00 0.  1.
         14    1    4    4    0    0 -0.83970337649E+02  0.46864816113E+02  0.12225243906E+02  0.96937016576E+02  0.00000000000E+00 0. -1.
          5    1    3    3  501    0  0.10557406057E+02  0.95596849758E+01 -0.81788517183E+02  0.83152257591E+02  0.47000000000E+01 0. -1.
         -5    1    3    3    0  501  0.85061643791E+02 -0.21872017928E+03 -0.33627173952E+03  0.41009117629E+03  0.47000000000E+01 0. -1.
          1    1    1    2  502    0  0.99107726088E+02  0.23589807643E+03  0.23324905680E+04  0.23464830052E+04  0.00000000000E+00 0. -1.
          3    1    1    2  503    0  0.47440833503E+02 -0.19140326408E+02 -0.19828591902E+03  0.20477863770E+03  0.00000000000E+00 0. -1.
<mgrwt>
<rscale>  0 0.11407334E+03</rscale>
<asrwt>0</asrwt>
<pdfrwt beam="1">  1        2 0.37142727E+00 0.25437106E+03</pdfrwt>
<pdfrwt beam="2">  1        4 0.12351821E+00 0.51156473E+02</pdfrwt>
<totfact> 0.11788658E+00</totfact>
</mgrwt>
</event>
<event>
13    1  0.3019759E-008  0.1145194E+03  0.7546771E-02  0.1266639E+00
          2   -1    0    0  503    0  0.00000000000E+00  0.00000000000E+00  0.21833831240E+04  0.21833831240E+04  0.00000000000E+00 0. -1.
         -3   -1    0    0    0  501 -0.00000000000E+00 -0.00000000000E+00 -0.70371682999E+03  0.70371682999E+03  0.00000000000E+00 0.  1.
         25    2    1    2    0    0 -0.49720685565E+02  0.59807868068E+02 -0.59618691169E+02  0.15883549415E+03  0.12500079283E+03 0.  0.
         24    2    1    2    0    0 -0.52179754058E+02 -0.72775226974E+02  0.63652096390E+02  0.13732155567E+03  0.82381186462E+02 0.  0.
         24    2    1    2    0    0  0.85777296721E+01 -0.73231999954E+02  0.33170891262E+03  0.34987355100E+03  0.83331840951E+02 0.  0.
        -13    1    5    5    0    0  0.29957316080E+02 -0.82627526540E+02  0.25900807264E+03  0.27351404100E+03  0.00000000000E+00 0.  1.
         14    1    5    5    0    0 -0.21379586408E+02  0.93955265863E+01  0.72700839977E+02  0.76359510005E+02  0.00000000000E+00 0. -1.
        -13    1    4    4    0    0 -0.52017170098E+02 -0.13095855872E+02  0.53771602071E+01  0.53909194743E+02  0.00000000000E+00 0.  1.
         14    1    4    4    0    0 -0.16258396051E+00 -0.59679371102E+02  0.58274936183E+02  0.83412360929E+02  0.00000000000E+00 0. -1.
          5    1    3    3  502    0  0.33776781299E+02  0.53382784309E+02 -0.25523017162E+02  0.68294267845E+02  0.47000000000E+01 0. -1.
         -5    1    3    3    0  502 -0.83497466863E+02  0.64250837590E+01 -0.34095674007E+02  0.90541226300E+02  0.47000000000E+01 0. -1.
          1    1    1    2  503    0  0.44340510195E+02  0.17289445472E+03  0.16832202192E+04  0.16926573427E+04  0.00000000000E+00 0. -1.
         -4    1    1    2    0  501  0.48982199756E+02 -0.86695095855E+02 -0.53929624303E+03  0.54841201052E+03  0.00000000000E+00 0.  1.
<mgrwt>
<rscale>  0 0.10678639E+03</rscale>
<asrwt>0</asrwt>
<pdfrwt beam="1">  1        2 0.32108575E+00 0.11451937E+03</pdfrwt>
<pdfrwt beam="2">  1       -3 0.10348777E+00 0.99575577E+02</pdfrwt>
<totfact> 0.37756922E+00</totfact>
</mgrwt>
</event>
<event>
13    1  0.3019759E-008  0.8689233E+02  0.7546771E-02  0.1388399E+00
          2   -1    0    0  502    0  0.00000000000E+00  0.00000000000E+00  0.88736226923E+03  0.88736226923E+03  0.00000000000E+00 0. -1.
          2   -1    0    0  503    0 -0.00000000000E+00 -0.00000000000E+00 -0.17814426110E+04  0.17814426110E+04  0.00000000000E+00 0. -1.
         25    2    1    2    0    0 -0.43136262981E+02  0.95349108833E+02 -0.83000005091E+03  0.84585884779E+03  0.12499966454E+03 0.  0.
         24    2    1    2    0    0 -0.80731627584E+02  0.73408551731E+02 -0.21668972371E+03  0.25639393755E+03  0.82927701580E+02 0.  0.
         24    2    1    2    0    0  0.99050069424E+02 -0.11343622540E+03  0.24386211608E+03  0.29825149861E+03  0.82501704713E+02 0.  0.
        -11    1    4    4    0    0 -0.56579145041E+02  0.77685580236E+02 -0.10626446752E+03  0.14327730486E+03  0.00000000000E+00 0.  1.
         12    1    4    4    0    0 -0.24152482543E+02 -0.42770285051E+01 -0.11042525619E+03  0.11311663269E+03  0.00000000000E+00 0. -1.
        -11    1    5    5    0    0  0.45779978532E+02  0.76435540973E-01  0.55090104289E+02  0.71629127227E+02  0.00000000000E+00 0.  1.
         12    1    5    5    0    0  0.53270090893E+02 -0.11351266094E+03  0.18877201179E+03  0.22662237138E+03  0.00000000000E+00 0. -1.
          5    1    3    3  501    0 -0.38358625991E+02  0.12221416740E+03 -0.75717535520E+03  0.76794810725E+03  0.47000000000E+01 0.  1.
         -5    1    3    3    0  501 -0.47776369895E+01 -0.26865058565E+02 -0.72824695709E+02  0.77910740543E+02  0.47000000000E+01 0.  1.
          1    1    1    2  502    0  0.69402467380E+02 -0.52447179960E+02  0.58456777529E+03  0.59100498565E+03  0.00000000000E+00 0. -1.
          1    1    1    2  503    0 -0.44584646240E+02 -0.28742552076E+01 -0.67582045849E+03  0.67729561060E+03  0.00000000000E+00 0. -1.
<mgrwt>
<rscale>  0 0.62306547E+02</rscale>
<asrwt>0</asrwt>
<pdfrwt beam="1">  1        2 0.13049445E+00 0.86892328E+02</pdfrwt>
<pdfrwt beam="2">  1        2 0.26197686E+00 0.44677198E+02</pdfrwt>
<totfact> 0.67726472E+01</totfact>
</mgrwt>
</event>
<event>
13    1  0.3019759E-008  0.9716171E+02  0.7546771E-02  0.1347177E+00
          4   -1    0    0  503    0  0.00000000000E+00  0.00000000000E+00  0.62991708036E+03  0.62991708036E+03  0.00000000000E+00 0. -1.
         -1   -1    0    0    0  501 -0.00000000000E+00 -0.00000000000E+00 -0.10681853837E+04  0.10681853837E+04  0.00000000000E+00 0.  1.
         25    2    1    2    0    0  0.10733426142E+03  0.12494128405E+03 -0.52661377102E+03  0.56575346589E+03  0.12499580877E+03 0.  0.
         24    2    1    2    0    0  0.46876976715E+01 -0.13256081708E+03  0.29354019227E+01  0.15531842792E+03  0.80751797080E+02 0.  0.
         24    2    1    2    0    0  0.11472141447E+02 -0.27379598181E+01  0.87542907359E+02  0.11971534795E+03  0.80801593127E+02 0.  0.
        -13    1    5    5    0    0  0.11699143463E+02 -0.39860426588E+02  0.62086609884E+02  0.74702548099E+02  0.00000000000E+00 0.  1.
         14    1    5    5    0    0 -0.22700201607E+00  0.37122466770E+02  0.25456297475E+02  0.45012799848E+02  0.00000000000E+00 0. -1.
        -13    1    4    4    0    0 -0.27477331054E+02 -0.10865510854E+03  0.15899811412E+02  0.11319779298E+03  0.00000000000E+00 0.  1.
         14    1    4    4    0    0  0.32165028726E+02 -0.23905708541E+02 -0.12964409489E+02  0.42120634933E+02  0.00000000000E+00 0. -1.
          5    1    3    3  502    0  0.47204030177E+01  0.81612144960E+01 -0.23518047195E+03  0.23541629513E+03  0.47000000000E+01 0. -1.
         -5    1    3    3    0  502  0.10261385840E+03  0.11678006955E+03 -0.29143329906E+03  0.33033717076E+03  0.47000000000E+01 0. -1.
          3    1    1    2  503    0 -0.10738658960E+03  0.64275059776E+02  0.41651040508E+03  0.43490697911E+03  0.00000000000E+00 0. -1.
         -2    1    1    2    0  501 -0.16107510942E+02 -0.53917566925E+02 -0.41864324671E+03  0.42240824323E+03  0.00000000000E+00 0.  1.
<mgrwt>
<rscale>  0 0.73942539E+02</rscale>
<asrwt>0</asrwt>
<pdfrwt beam="1">  1        4 0.92634864E-01 0.97161706E+02</pdfrwt>
<pdfrwt beam="2">  1       -1 0.15708609E+00 0.56272159E+02</pdfrwt>
<totfact> 0.14425919E+00</totfact>
</mgrwt>
</event>
<event>
13    1  0.3019759E-008  0.9273935E+02  0.7546771E-02  0.1355238E+00
          2   -1    0    0  502    0  0.00000000000E+00  0.00000000000E+00  0.72618213258E+03  0.72618213258E+03  0.00000000000E+00 0. -1.
          2   -1    0    0  503    0 -0.00000000000E+00 -0.00000000000E+00 -0.23034202440E+04  0.23034202440E+04  0.00000000000E+00 0. -1.
         25    2    1    2    0    0 -0.94816294204E+01 -0.13416769030E+03 -0.78838347160E+03  0.80948452083E+03  0.12500328303E+03 0.  0.
         24    2    1    2    0    0  0.30293194707E+02 -0.99737365811E+02 -0.15820180865E+03  0.21643156790E+03  0.10464029596E+03 0.  0.
         24    2    1    2    0    0 -0.78185379932E+02  0.19334114000E+03 -0.64675586785E+02  0.23426972213E+03  0.84885930097E+02 0.  0.
        -11    1    5    5    0    0 -0.12873873842E+02  0.15157104121E+02 -0.37648917245E+02  0.42578344294E+02  0.00000000000E+00 0.  1.
         12    1    5    5    0    0 -0.65311506091E+02  0.17818403588E+03 -0.27026669540E+02  0.19169137783E+03  0.00000000000E+00 0. -1.
        -11    1    4    4    0    0  0.18712414838E+01 -0.11468686891E+03 -0.13286002811E+03  0.17552312245E+03  0.00000000000E+00 0.  1.
         12    1    4    4    0    0  0.28421953223E+02  0.14949503102E+02 -0.25341780535E+02  0.40908445444E+02  0.00000000000E+00 0. -1.
          5    1    3    3  501    0 -0.29303846048E+02 -0.13572027126E+03 -0.46136004712E+03  0.48182350556E+03  0.47000000000E+01 0. -1.
         -5    1    3    3    0  501  0.19822216628E+02  0.15525809619E+01 -0.32702342447E+03  0.32766101528E+03  0.47000000000E+01 0. -1.
          1    1    1    2  502    0  0.92840440115E+02 -0.15309419059E+01  0.59748299746E+03  0.60465496223E+03  0.00000000000E+00 0. -1.
          1    1    1    2  503    0 -0.35466625469E+02  0.42094858016E+02 -0.11634602419E+04  0.11647616035E+04  0.00000000000E+00 0. -1.
<mgrwt>
<rscale>  0 0.71447596E+02</rscale>
<asrwt>0</asrwt>
<pdfrwt beam="1">  1        2 0.10679149E+00 0.92739353E+02</pdfrwt>
<pdfrwt beam="2">  1        2 0.33873827E+00 0.55044151E+02</pdfrwt>
<totfact> 0.47935201E+01</totfact>
</mgrwt>
</event>
<event>
13    1  0.3019759E-008  0.8198995E+02  0.7546771E-02  0.1475336E+00
          2   -1    0    0  503    0  0.00000000000E+00  0.00000000000E+00  0.12627497514E+04  0.12627497514E+04  0.00000000000E+00 0. -1.
          2   -1    0    0  502    0 -0.00000000000E+00 -0.00000000000E+00 -0.27891724857E+04  0.27891724857E+04  0.00000000000E+00 0. -1.
         25    2    1    2    0    0  0.11237705511E+03 -0.69871750053E+02 -0.21755985303E+03  0.28366796019E+03  0.12499823205E+03 0.  0.
         24    2    1    2    0    0 -0.74536256431E+02  0.22773860291E+02 -0.15236655568E+03  0.19503428620E+03  0.93533433944E+02 0.  0.
         24    2    1    2    0    0  0.20471211328E+02  0.23740568665E+02  0.31020115611E+03  0.32260822239E+03  0.82877154945E+02 0.  0.
        -11    1    4    4    0    0 -0.34277947090E+02  0.19454523558E+02 -0.21404606458E+01  0.39471986463E+02  0.00000000000E+00 0.  1.
         12    1    4    4    0    0 -0.40258309341E+02  0.33193367326E+01 -0.15022609504E+03  0.15556229973E+03  0.00000000000E+00 0. -1.
        -11    1    5    5    0    0  0.48685438154E+02  0.55922021022E+00  0.21944324476E+03  0.22477971947E+03  0.00000000000E+00 0.  1.
         12    1    5    5    0    0 -0.28214226826E+02  0.23181348455E+02  0.90757911346E+02  0.97828502919E+02  0.00000000000E+00 0. -1.
          5    1    3    3  501    0  0.13991175884E+03 -0.55562474818E+02 -0.18202802117E+03  0.23625998256E+03  0.47000000000E+01 0.  1.
         -5    1    3    3    0  501 -0.27534703731E+02 -0.14309275235E+02 -0.35531831866E+02  0.47407977631E+02  0.47000000000E+01 0.  1.
          1    1    1    2  502    0  0.97665189156E+01 -0.22495398906E+02 -0.23567023843E+04  0.23568299803E+04  0.00000000000E+00 0. -1.
          1    1    1    2  503    0 -0.68078528918E+02  0.45852720003E+02  0.89000490255E+03  0.89378178802E+03  0.00000000000E+00 0. -1.
<mgrwt>
<rscale>  0 0.44841095E+02</rscale>
<asrwt>0</asrwt>
<pdfrwt beam="1">  1        2 0.18569849E+00 0.81989953E+02</pdfrwt>
<pdfrwt beam="2">  1        2 0.41017242E+00 0.24524026E+02</pdfrwt>
<totfact> 0.15535219E+01</totfact>
</mgrwt>
</event>
<event>
13    1  0.3019759E-008  0.9283505E+02  0.7546771E-02  0.1421275E+00
          2   -1    0    0  503    0  0.00000000000E+00  0.00000000000E+00  0.91562095196E+03  0.91562095196E+03  0.00000000000E+00 0. -1.
          2   -1    0    0  502    0 -0.00000000000E+00 -0.00000000000E+00 -0.10148665184E+04  0.10148665184E+04  0.00000000000E+00 0. -1.
         25    2    1    2    0    0 -0.24621102704E+02 -0.21845921093E+03 -0.25657001765E+03  0.36026032593E+03  0.12501481088E+03 0.  0.
         24    2    1    2    0    0 -0.22607263652E+02  0.40931535677E+02  0.72766124893E+02  0.11856063104E+03  0.81087824715E+02 0.  0.
         24    2    1    2    0    0  0.66947732678E+02  0.82949276777E+02  0.37689719270E+03  0.39998800771E+03  0.81094580717E+02 0.  0.
        -11    1    4    4    0    0 -0.43883851569E+02  0.50928036759E+02  0.39976849043E+02  0.78215125238E+02  0.00000000000E+00 0.  1.
         12    1    4    4    0    0  0.21276587917E+02 -0.99965010824E+01  0.32789275850E+02  0.40345505797E+02  0.00000000000E+00 0. -1.
        -13    1    5    5    0    0 -0.36973380854E+01  0.13638242931E+02  0.17055174004E+03  0.17113610960E+03  0.00000000000E+00 0.  1.
         14    1    5    5    0    0  0.70645070764E+02  0.69311033846E+02  0.20634545266E+03  0.22885189811E+03  0.00000000000E+00 0. -1.
          5    1    3    3  501    0  0.15193968143E+02 -0.67767581022E+02 -0.12638127422E+02  0.70746830108E+02  0.47000000000E+01 0. -1.
         -5    1    3    3    0  501 -0.39815070847E+02 -0.15069162991E+03 -0.24393189023E+03  0.28951349582E+03  0.47000000000E+01 0. -1.
          1    1    1    2  502    0 -0.48197566239E+02  0.79355297975E+02 -0.66810600254E+03  0.67452642597E+03  0.00000000000E+00 0. -1.
          1    1    1    2  503    0  0.28478199917E+02  0.15223100503E+02  0.37576713613E+03  0.37715207974E+03  0.00000000000E+00 0. -1.
<mgrwt>
<rscale>  0 0.54752141E+02</rscale>
<asrwt>0</asrwt>
<pdfrwt beam="1">  1        2 0.13465014E+00 0.32291650E+02</pdfrwt>
<pdfrwt beam="2">  1        2 0.14924508E+00 0.92835049E+02</pdfrwt>
<totfact> 0.15568061E+02</totfact>
</mgrwt>
</event>
<event>
13    1  0.3019759E-008  0.1162576E+03  0.7546771E-02  0.1345073E+00
          2   -1    0    0  503    0  0.00000000000E+00  0.00000000000E+00  0.32482413718E+04  0.32482413718E+04  0.00000000000E+00 0. -1.
          2   -1    0    0  502    0 -0.00000000000E+00 -0.00000000000E+00 -0.11785160833E+04  0.11785160833E+04  0.00000000000E+00 0. -1.
         25    2    1    2    0    0  0.83821674920E+02 -0.26103856213E+03 -0.21713944230E+03  0.37138015439E+03  0.12492588830E+03 0.  0.
         24    2    1    2    0    0 -0.32024076092E+02  0.82749050889E+02  0.11403983273E+03  0.16756259709E+03  0.84848061971E+02 0.  0.
         24    2    1    2    0    0  0.54852680732E+01  0.48799372065E+02  0.64088048529E+03  0.64783830508E+03  0.80964228084E+02 0.  0.
        -13    1    5    5    0    0 -0.17845591988E+01 -0.18632926435E+02  0.28099161653E+03  0.28161438024E+03  0.00000000000E+00 0.  1.
         14    1    5    5    0    0  0.72698272720E+01  0.67432298500E+02  0.35988886876E+03  0.36622392484E+03  0.00000000000E+00 0. -1.
        -13    1    4    4    0    0 -0.18051214483E+02 -0.35743063524E+01 -0.57238345774E+01  0.19271333438E+02  0.00000000000E+00 0.  1.
         14    1    4    4    0    0 -0.13972861609E+02  0.86323357241E+02  0.11976366731E+03  0.14829126365E+03  0.00000000000E+00 0. -1.
          5    1    3    3  501    0  0.69144830524E+02 -0.42721644098E+02 -0.72742888798E+02  0.10917767324E+03  0.47000000000E+01 0.  1.
         -5    1    3    3    0  501  0.14676844396E+02 -0.21831691803E+03 -0.14439655350E+03  0.26220248115E+03  0.47000000000E+01 0.  1.
          1    1    1    2  502    0 -0.32053174300E+02  0.35576431593E+02 -0.85235283787E+03  0.85369693023E+03  0.00000000000E+00 0. -1.
          1    1    1    2  503    0 -0.25229692601E+02  0.93913707584E+02  0.23842972506E+04  0.23862794683E+04  0.00000000000E+00 0. -1.
<mgrwt>
<rscale>  0 0.74613230E+02</rscale>
<asrwt>0</asrwt>
<pdfrwt beam="1">  1        2 0.47768255E+00 0.11625758E+03</pdfrwt>
<pdfrwt beam="2">  1        2 0.17331119E+00 0.47886203E+02</pdfrwt>
<totfact> 0.78733568E+00</totfact>
</mgrwt>
</event>
<event>
13    1  0.3019759E-008  0.1589209E+03  0.7546771E-02  0.1260466E+00
          2   -1    0    0  503    0  0.00000000000E+00  0.00000000000E+00  0.33261112552E+04  0.33261112552E+04  0.00000000000E+00 0. -1.
         -1   -1    0    0    0  501 -0.00000000000E+00 -0.00000000000E+00 -0.54862759188E+03  0.54862759188E+03  0.00000000000E+00 0.  1.
         25    2    1    2    0    0  0.23414642664E+02  0.16602791916E+03  0.40279432193E+03  0.45385171919E+03  0.12499840718E+03 0.  0.
         24    2    1    2    0    0  0.12167731030E+03  0.20171555050E+03  0.80110699130E+03  0.83918463436E+03  0.83450032242E+02 0.  0.
         24    2    1    2    0    0 -0.17052729871E+03 -0.14070523231E+03  0.12480915229E+04  0.12699900676E+04  0.79150490735E+02 0.  0.
        -11    1    5    5    0    0 -0.10304798943E+02 -0.34477245669E+01  0.12704907155E+02  0.16717964941E+02  0.00000000000E+00 0.  1.
         12    1    5    5    0    0 -0.16022249977E+03 -0.13725750774E+03  0.12353866158E+04  0.12532721027E+04  0.00000000000E+00 0. -1.
        -11    1    4    4    0    0  0.51814411997E+01  0.21241362851E+02  0.19337150886E+03  0.19460365687E+03  0.00000000000E+00 0.  1.
         12    1    4    4    0    0  0.11649586910E+03  0.18047418765E+03  0.60773548244E+03  0.64458097749E+03  0.00000000000E+00 0. -1.
          5    1    3    3  502    0 -0.41841659041E+02  0.36531794467E+02  0.61525427332E+02  0.83022675497E+02  0.47000000000E+01 0. -1.
         -5    1    3    3    0  502  0.65256301705E+02  0.12949612470E+03  0.34126889460E+03  0.37082904369E+03  0.47000000000E+01 0. -1.
          1    1    1    2  503    0  0.33119673407E+02 -0.68643747532E+02  0.80400306203E+03  0.80760745452E+03  0.00000000000E+00 0. -1.
         -2    1    1    2    0  501 -0.76843276568E+01 -0.15839448982E+03 -0.47851223486E+03  0.50410497142E+03  0.00000000000E+00 0.  1.
<mgrwt>
<rscale>  0 0.11005594E+03</rscale>
<asrwt>0</asrwt>
<pdfrwt beam="1">  1        2 0.48913400E+00 0.76215988E+02</pdfrwt>
<pdfrwt beam="2">  1       -1 0.80680530E-01 0.15892085E+03</pdfrwt>
<totfact> 0.37751413E+00</totfact>
</mgrwt>
</event>
<event>
13    1  0.3019759E-008  0.2004313E+03  0.7546771E-02  0.1236633E+00
          2   -1    0    0  503    0  0.00000000000E+00  0.00000000000E+00  0.36676773609E+04  0.36676773609E+04  0.00000000000E+00 0. -1.
         -1   -1    0    0    0  501 -0.00000000000E+00 -0.00000000000E+00 -0.11804741521E+04  0.11804741521E+04  0.00000000000E+00 0.  1.
         25    2    1    2    0    0  0.17648426694E+03 -0.16896176287E+02 -0.16600629064E+03  0.27315214551E+03  0.12498731461E+03 0.  0.
         24    2    1    2    0    0 -0.91877550094E+01 -0.77083941541E+02  0.16521440732E+03  0.19970139072E+03  0.80984542877E+02 0.  0.
         24    2    1    2    0    0  0.60325807298E+02  0.16252380204E+03  0.62013972206E+02  0.19981559353E+03  0.77636005909E+02 0.  0.
        -11    1    4    4    0    0 -0.19792943653E+02  0.70338842692E+01  0.10985728224E+02  0.23704901834E+02  0.00000000000E+00 0.  1.
         12    1    4    4    0    0  0.10605188644E+02 -0.84117825810E+02  0.15422867910E+03  0.17599648889E+03  0.00000000000E+00 0. -1.
        -13    1    5    5    0    0  0.71229306752E+02  0.16145628564E+03  0.65629193484E+02  0.18827888185E+03  0.00000000000E+00 0.  1.
         14    1    5    5    0    0 -0.10903499454E+02  0.10675164048E+01 -0.36152212779E+01  0.11536711685E+02  0.00000000000E+00 0. -1.
          5    1    3    3  502    0  0.13282759085E+03  0.22084580369E+02 -0.51070690881E+02  0.14408748401E+03  0.47000000000E+01 0.  1.
         -5    1    3    3    0  502  0.43656676099E+02 -0.38980756656E+02 -0.11493559976E+03  0.12906466151E+03  0.47000000000E+01 0.  1.
          1    1    1    2  503    0 -0.16588296600E+03 -0.11408799463E+03  0.32959720317E+04  0.33021152104E+04  0.00000000000E+00 0. -1.
         -2    1    1    2    0  501 -0.61739353235E+02  0.45544310412E+02 -0.86999091176E+03  0.87336717278E+03  0.00000000000E+00 0.  1.
<mgrwt>
<rscale>  0 0.12400479E+03</rscale>
<asrwt>0</asrwt>
<pdfrwt beam="1">  1        2 0.53936431E+00 0.20043134E+03</pdfrwt>
<pdfrwt beam="2">  1       -1 0.17359914E+00 0.76720479E+02</pdfrwt>
<totfact> 0.34268796E-01</totfact>
</mgrwt>
</event>
<event>
13    1  0.3019759E-008  0.8824521E+02  0.7546771E-02  0.1383968E+00
          2   -1    0    0  503    0  0.00000000000E+00  0.00000000000E+00  0.23146034759E+04  0.23146034759E+04  0.00000000000E+00 0. -1.
          2   -1    0    0  502    0 -0.00000000000E+00 -0.00000000000E+00 -0.59053139601E+03  0.59053139601E+03  0.00000000000E+00 0. -1.
         25    2    1    2    0    0  0.32954209599E+02 -0.13182944775E+03  0.90253966418E+02  0.20551180899E+03  0.12499736780E+03 0.  0.
         24    2    1    2    0    0  0.38607161243E+02 -0.10487984971E+02  0.10388870286E+03  0.13772054291E+03  0.81077584011E+02 0.  0.
         24    2    1    2    0    0  0.84327569617E+01  0.47565134487E+02  0.63363079899E+03  0.64030086663E+03  0.78508961087E+02 0.  0.
        -11    1    4    4    0    0  0.61807169552E+02 -0.10239145725E+02  0.92894319114E+02  0.11204606569E+03  0.00000000000E+00 0.  1.
         12    1    4    4    0    0 -0.23200008308E+02 -0.24883924573E+00  0.10994383748E+02  0.25674477219E+02  0.00000000000E+00 0. -1.
        -13    1    5    5    0    0 -0.39090652280E+01 -0.20156040711E+02  0.22269695751E+03  0.22364141309E+03  0.00000000000E+00 0.  1.
         14    1    5    5    0    0  0.12341822190E+02  0.67721175198E+02  0.41093384148E+03  0.41665945354E+03  0.00000000000E+00 0. -1.
          5    1    3    3  501    0 -0.33289657369E+02 -0.55843095858E+02  0.81291958880E+02  0.10419752982E+03  0.47000000000E+01 0.  1.
         -5    1    3    3    0  501  0.66243866969E+02 -0.75986351891E+02  0.89620075381E+01  0.10131427917E+03  0.47000000000E+01 0.  1.
          1    1    1    2  502    0 -0.43161148579E+02  0.14701107676E+02 -0.51025616746E+03  0.51228933596E+03  0.00000000000E+00 0. -1.
          1    1    1    2  503    0 -0.36832979225E+02  0.80051190557E+02  0.14065547791E+04  0.14093123174E+04  0.00000000000E+00 0. -1.
<mgrwt>
<rscale>  0 0.63432172E+02</rscale>
<asrwt>0</asrwt>
<pdfrwt beam="1">  1        2 0.34038286E+00 0.88245212E+02</pdfrwt>
<pdfrwt beam="2">  1        2 0.86842853E-01 0.45596133E+02</pdfrwt>
<totfact> 0.57155527E+01</totfact>
</mgrwt>
</event>
<event>
13    1  0.3019759E-008  0.1434111E+03  0.7546771E-02  0.1335924E+00
          2   -1    0    0  502    0  0.00000000000E+00  0.00000000000E+00  0.21569536325E+04  0.21569536325E+04  0.00000000000E+00 0. -1.
          2   -1    0    0  503    0 -0.00000000000E+00 -0.00000000000E+00 -0.20339790278E+04  0.20339790278E+04  0.00000000000E+00 0. -1.
         25    2    1    2    0    0  0.89781465332E+00 -0.11302053629E+02 -0.82637577894E+03  0.83585212125E+03  0.12499319217E+03 0.  0.
         24    2    1    2    0    0 -0.86524340687E+02  0.86181110296E+02 -0.10421022310E+03  0.17928422123E+03  0.79808621582E+02 0.  0.
         24    2    1    2    0    0 -0.12096430932E+02 -0.11565006067E+03  0.10922123166E+04  0.11012486251E+04  0.79369576122E+02 0.  0.
        -11    1    5    5    0    0  0.50367565903E+01 -0.11385911151E+03  0.75070359008E+03  0.75930570019E+03  0.00000000000E+00 0.  1.
         12    1    5    5    0    0 -0.17133187522E+02 -0.17909491553E+01  0.34150872653E+03  0.34194292493E+03  0.00000000000E+00 0. -1.
        -13    1    4    4    0    0 -0.31992238524E+02  0.84903942150E+02 -0.72899563849E+02  0.11638955764E+03  0.00000000000E+00 0.  1.
         14    1    4    4    0    0 -0.54532102163E+02  0.12771681460E+01 -0.31310659256E+02  0.62894663588E+02  0.00000000000E+00 0. -1.
          5    1    3    3  501    0 -0.30525535246E+01  0.56728535969E+02 -0.39920392752E+03  0.40325340745E+03  0.47000000000E+01 0. -1.
         -5    1    3    3    0  501  0.39503681780E+01 -0.68030589598E+02 -0.42717185142E+03  0.43259871380E+03  0.47000000000E+01 0. -1.
          1    1    1    2  502    0 -0.41588507513E+02  0.59976412234E+01  0.10126321611E+04  0.10135035616E+04  0.00000000000E+00 0. -1.
          1    1    1    2  503    0  0.13931146448E+03  0.34773362775E+02 -0.10512838709E+04  0.10610441311E+04  0.00000000000E+00 0. -1.
<mgrwt>
<rscale>  0 0.77627037E+02</rscale>
<asrwt>0</asrwt>
<pdfrwt beam="1">  1        2 0.31719906E+00 0.42018754E+02</pdfrwt>
<pdfrwt beam="2">  1        2 0.29911456E+00 0.14341113E+03</pdfrwt>
<totfact> 0.11287104E+01</totfact>
</mgrwt>
</event>
<event>
13    1  0.3019759E-008  0.1545975E+03  0.7546771E-02  0.1271834E+00
          2   -1    0    0  503    0  0.00000000000E+00  0.00000000000E+00  0.37408802959E+04  0.37408802959E+04  0.00000000000E+00 0. -1.
          2   -1    0    0  502    0 -0.00000000000E+00 -0.00000000000E+00 -0.24762216689E+04  0.24762216689E+04  0.00000000000E+00 0. -1.
         25    2    1    2    0    0 -0.20732482025E+03 -0.12563448501E+03 -0.37078613913E+03  0.46029795279E+03  0.12499695776E+03 0.  0.
         24    2    1    2    0    0  0.19250555159E+02 -0.20627417573E+02  0.20063836059E+03  0.21798777392E+03  0.80416687377E+02 0.  0.
         24    2    1    2    0    0  0.26607339544E+02 -0.26729739197E+01  0.15976582995E+04  0.15999805272E+04  0.81917946445E+02 0.  0.
        -11    1    4    4    0    0 -0.30653707954E+02 -0.16837725046E+02  0.75250969762E+02  0.82981125843E+02  0.00000000000E+00 0.  1.
         12    1    4    4    0    0  0.49904263113E+02 -0.37896925266E+01  0.12538739083E+03  0.13500664808E+03  0.00000000000E+00 0. -1.
        -11    1    5    5    0    0  0.43661985613E+02 -0.22847318508E+02  0.61638837523E+03  0.61835507443E+03  0.00000000000E+00 0.  1.
         12    1    5    5    0    0 -0.17054646068E+02  0.20174344588E+02  0.98126992429E+03  0.98162545274E+03  0.00000000000E+00 0. -1.
          5    1    3    3  501    0 -0.15002072993E+02 -0.61704810260E+02 -0.13554844138E+03  0.14975986032E+03  0.47000000000E+01 0. -1.
         -5    1    3    3    0  501 -0.19232274725E+03 -0.63929674750E+02 -0.23523769775E+03  0.31053809246E+03  0.47000000000E+01 0. -1.
          1    1    1    2  502    0  0.10906744277E+03  0.10230371482E+03 -0.20474645626E+04  0.20529181406E+04  0.00000000000E+00 0. -1.
          1    1    1    2  503    0  0.52399482779E+02  0.46631161687E+02  0.18846126686E+04  0.18859175702E+04  0.00000000000E+00 0. -1.
<mgrwt>
<rscale>  0 0.10413489E+03</rscale>
<asrwt>0</asrwt>
<pdfrwt beam="1">  1        2 0.55012946E+00 0.70143931E+02</pdfrwt>
<pdfrwt beam="2">  1        2 0.36415024E+00 0.15459748E+03</pdfrwt>
<totfact> 0.92293990E-01</totfact>
</mgrwt>
</event>
<event>
13    1  0.3019759E-008  0.2966009E+03  0.7546771E-02  0.1180036E+00
         -3   -1    0    0    0  501 -0.00000000000E+00  0.00000000000E+00  0.20972194631E+03  0.20972194631E+03  0.00000000000E+00 0.  1.
          2   -1    0    0  503    0  0.00000000000E+00 -0.00000000000E+00 -0.35365548214E+04  0.35365548214E+04  0.00000000000E+00 0. -1.
         25    2    1    2    0    0 -0.52359053673E+02  0.81779684262E+02 -0.18792494717E+03  0.24570715742E+03  0.12500733649E+03 0.  0.
         24    2    1    2    0    0  0.17829949672E+03  0.10283593704E+01 -0.51593960642E+03  0.55185253372E+03  0.80967730887E+02 0.  0.
         24    2    1    2    0    0 -0.12721296659E+03  0.23818664491E+03 -0.65899852949E+03  0.71676339818E+03  0.80961042564E+02 0.  0.
        -11    1    5    5    0    0 -0.10012003089E+03  0.10313304326E+03 -0.35613158512E+03  0.38404446502E+03  0.00000000000E+00 0.  1.
         12    1    5    5    0    0 -0.27092935699E+02  0.13505360166E+03 -0.30286694437E+03  0.33271893316E+03  0.00000000000E+00 0. -1.
        -13    1    4    4    0    0  0.16031640470E+03 -0.23117784754E+02 -0.38866796375E+03  0.42106836456E+03  0.00000000000E+00 0.  1.
         14    1    4    4    0    0  0.17983092025E+02  0.24146144125E+02 -0.12727164267E+03  0.13078416916E+03  0.00000000000E+00 0. -1.
          5    1    3    3  502    0 -0.90884663462E+02  0.54168684598E+02 -0.99734318517E+02  0.14547608990E+03  0.47000000000E+01 0. -1.
         -5    1    3    3    0  502  0.38525609788E+02  0.27610999664E+02 -0.88190628655E+02  0.10023106751E+03  0.47000000000E+01 0. -1.
          1    1    1    2  503    0  0.83536248572E+02 -0.27334837540E+03 -0.20699456067E+04  0.20895866706E+04  0.00000000000E+00 0. -1.
         -4    1    1    2    0  501 -0.82263725034E+02 -0.47646313151E+02  0.10597581470E+03  0.14236700782E+03  0.00000000000E+00 0.  1.
<mgrwt>
<rscale>  0 0.16791836E+03</rscale>
<asrwt>0</asrwt>
<pdfrwt beam="2">  1        2 0.52008154E+00 0.29660087E+03</pdfrwt>
<pdfrwt beam="1">  1       -3 0.30841466E-01 0.95065723E+02</pdfrwt>
<totfact> 0.72150365E+00</totfact>
</mgrwt>
</event>
<event>
13    1  0.3019759E-008  0.1286329E+03  0.7546771E-02  0.1247572E+00
         -3   -1    0    0    0  501 -0.00000000000E+00  0.00000000000E+00  0.19681105198E+04  0.19681105198E+04  0.00000000000E+00 0.  1.
          2   -1    0    0  503    0  0.00000000000E+00 -0.00000000000E+00 -0.38068056899E+04  0.38068056899E+04  0.00000000000E+00 0. -1.
         25    2    1    2    0    0  0.64092980976E+02 -0.41299964692E+02  0.14455716709E+04  0.14529680306E+04  0.12500018052E+03 0.  0.
         24    2    1    2    0    0 -0.54295449211E+02  0.52407596108E+01 -0.54360776321E+02  0.11113240315E+03  0.80124001777E+02 0.  0.
         24    2    1    2    0    0 -0.14283701854E+03  0.30215792053E+02 -0.14521377391E+03  0.22143143970E+03  0.81421338725E+02 0.  0.
        -11    1    4    4    0    0  0.22733166907E+00  0.23997488163E+02 -0.47303873790E+02  0.53043261527E+02  0.00000000000E+00 0.  1.
         12    1    4    4    0    0 -0.54522780880E+02 -0.18756728553E+02 -0.70569025312E+01  0.58089141621E+02  0.00000000000E+00 0. -1.
        -11    1    5    5    0    0 -0.10642883629E+03 -0.14605081914E+02 -0.11021497877E+03  0.15390824265E+03  0.00000000000E+00 0.  1.
         12    1    5    5    0    0 -0.36408182249E+02  0.44820873967E+02 -0.34998795137E+02  0.67523197043E+02  0.00000000000E+00 0. -1.
          5    1    3    3  502    0 -0.16673407707E+02  0.21321863204E+02  0.10623608243E+03  0.10973066839E+03  0.47000000000E+01 0. -1.
         -5    1    3    3    0  502  0.80766388683E+02 -0.62621827896E+02  0.13393355884E+04  0.13432373622E+04  0.47000000000E+01 0. -1.
          1    1    1    2  503    0  0.23919986008E+03 -0.68977291629E+01 -0.35266080187E+04  0.35347175657E+04  0.00000000000E+00 0. -1.
         -4    1    1    2    0  501 -0.10616037331E+03  0.12741142191E+02  0.44191572797E+03  0.45466677050E+03  0.00000000000E+00 0.  1.
<mgrwt>
<rscale>  0 0.11732745E+03</rscale>
<asrwt>0</asrwt>
<pdfrwt beam="2">  1        2 0.55982436E+00 0.12863295E+03</pdfrwt>
<pdfrwt beam="1">  1       -3 0.28942802E+00 0.10701558E+03</pdfrwt>
<totfact> 0.30879961E-02</totfact>
</mgrwt>
</event>
<event>
13    1  0.3019759E-008  0.6725338E+02  0.7546771E-02  0.1577724E+00
          4   -1    0    0  503    0  0.00000000000E+00  0.00000000000E+00  0.51721050328E+03  0.51721050328E+03  0.00000000000E+00 0. -1.
         -1   -1    0    0    0  501 -0.00000000000E+00 -0.00000000000E+00 -0.31088502751E+04  0.31088502751E+04  0.00000000000E+00 0.  1.
         25    2    1    2    0    0  0.44550869832E+02  0.10785403380E+03 -0.27197427871E+04  0.27251153365E+04  0.12504197994E+03 0.  0.
         24    2    1    2    0    0 -0.64495864474E+02  0.17615340316E+02  0.52158433967E+01  0.10354275457E+03  0.78891572761E+02 0.  0.
         24    2    1    2    0    0  0.92403849917E+02 -0.90990685781E+02  0.14361503975E+03  0.20862528815E+03  0.77983683123E+02 0.  0.
        -11    1    4    4    0    0 -0.31345625468E+02 -0.30850625995E+02  0.82407715698E+01  0.44746169404E+02  0.00000000000E+00 0.  1.
         12    1    4    4    0    0 -0.33150239005E+02  0.48465966311E+02 -0.30249281731E+01  0.58796585164E+02  0.00000000000E+00 0. -1.
        -13    1    5    5    0    0 -0.13000459871E+02 -0.11066085228E+02  0.69670191727E+01  0.18439348016E+02  0.00000000000E+00 0.  1.
         14    1    5    5    0    0  0.10540430979E+03 -0.79924600553E+02  0.13664802058E+03  0.19018594013E+03  0.00000000000E+00 0. -1.
          5    1    3    3  502    0 -0.49958744890E-02  0.12046500889E+03 -0.21967346609E+04  0.22000402448E+04  0.47000000000E+01 0. -1.
         -5    1    3    3    0  502  0.44555865707E+02 -0.12610975090E+02 -0.52300812619E+03  0.52507509170E+03  0.47000000000E+01 0. -1.
          3    1    1    2  503    0 -0.63426861879E+02 -0.22308198873E+02  0.27985209064E+03  0.28781559231E+03  0.00000000000E+00 0. -1.
         -2    1    1    2    0  501 -0.90319933967E+01 -0.12170489458E+02 -0.30057995853E+03  0.30096180686E+03  0.00000000000E+00 0.  1.
<mgrwt>
<rscale>  0 0.31926127E+02</rscale>
<asrwt>0</asrwt>
<pdfrwt beam="1">  1        4 0.76060365E-01 0.67253383E+02</pdfrwt>
<pdfrwt beam="2">  1       -1 0.45718388E+00 0.15155782E+02</pdfrwt>
<totfact> 0.36311102E-02</totfact>
</mgrwt>
</event>
<event>
13    1  0.3019759E-008  0.5928337E+02  0.7546771E-02  0.1414616E+00
          2   -1    0    0  502    0  0.00000000000E+00  0.00000000000E+00  0.28344699845E+04  0.28344699845E+04  0.00000000000E+00 0. -1.
          4   -1    0    0  503    0 -0.00000000000E+00 -0.00000000000E+00 -0.49651705773E+03  0.49651705773E+03  0.00000000000E+00 0. -1.
         25    2    1    2    0    0 -0.38647075341E+02 -0.53077258920E+02 -0.11686131379E+03  0.18328298622E+03  0.12500117812E+03 0.  0.
         24    2    1    2    0    0 -0.68748508581E+02 -0.12188605485E+02 -0.99594650822E+02  0.14538789168E+03  0.79646877140E+02 0.  0.
         24    2    1    2    0    0  0.56251024005E+02  0.31555970611E+02 -0.95795906813E+02  0.14061198371E+03  0.80217935763E+02 0.  0.
        -11    1    4    4    0    0 -0.18861244724E+02  0.31184019593E+02 -0.53753554347E+02  0.64943315556E+02  0.00000000000E+00 0.  1.
         12    1    4    4    0    0 -0.49887263857E+02 -0.43372625077E+02 -0.45841096475E+02  0.80444576121E+02  0.00000000000E+00 0. -1.
        -13    1    5    5    0    0 -0.12930179513E+01  0.38620037786E+01 -0.72530415787E+02  0.72644670712E+02  0.00000000000E+00 0.  1.
         14    1    5    5    0    0  0.57544041956E+02  0.27693966832E+02 -0.23265491026E+02  0.67967312998E+02  0.00000000000E+00 0. -1.
          5    1    3    3  501    0  0.28298589784E+02 -0.27878947456E+02  0.65774216463E+01  0.40538850138E+02  0.47000000000E+01 0. -1.
         -5    1    3    3    0  501 -0.66945665125E+02 -0.25198311464E+02 -0.12343873544E+03  0.14274413609E+03  0.47000000000E+01 0. -1.
          1    1    1    2  502    0 -0.72994788308E+01  0.52729268313E+02  0.27467446227E+04  0.27472603954E+04  0.00000000000E+00 0. -1.
          3    1    1    2  503    0  0.58444038748E+02 -0.19019374520E+02 -0.96539824439E+02  0.11444378522E+03  0.00000000000E+00 0. -1.
<mgrwt>
<rscale>  0 0.56176323E+02</rscale>
<asrwt>0</asrwt>
<pdfrwt beam="1">  1        2 0.41683381E+00 0.53232116E+02</pdfrwt>
<pdfrwt beam="2">  1        4 0.73017216E-01 0.59283372E+02</pdfrwt>
<totfact> 0.33180561E+00</totfact>
</mgrwt>
</event>
<event>
13    1  0.3019759E-008  0.2820310E+02  0.7546771E-02  0.1669140E+00
          2   -1    0    0  502    0  0.00000000000E+00  0.00000000000E+00  0.41370923668E+03  0.41370923668E+03  0.00000000000E+00 0. -1.
          2   -1    0    0  503    0 -0.00000000000E+00 -0.00000000000E+00 -0.17911564119E+04  0.17911564119E+04  0.00000000000E+00 0. -1.
         25    2    1    2    0    0 -0.33595956499E+02  0.23408055638E+02 -0.87969842682E+03  0.88948190586E+03  0.12502845015E+03 0.  0.
         24    2    1    2    0    0 -0.26143190754E+02  0.29266750153E+02 -0.36169137909E+03  0.37269483315E+03  0.80875063266E+02 0.  0.
         24    2    1    2    0    0  0.63366964836E+02 -0.46239720328E+02  0.31259350826E+03  0.33221094035E+03  0.80597292245E+02 0.  0.
        -11    1    4    4    0    0 -0.35081700499E+02  0.53461643682E+02 -0.26739051973E+03  0.27493010584E+03  0.00000000000E+00 0.  1.
         12    1    4    4    0    0  0.89385097448E+01 -0.24194893530E+02 -0.94300859357E+02  0.97764727304E+02  0.00000000000E+00 0. -1.
        -13    1    5    5    0    0  0.98320591544E+01  0.98433501130E+01  0.46685929152E+01  0.14675036234E+02  0.00000000000E+00 0.  1.
         14    1    5    5    0    0  0.53534905682E+02 -0.56083070441E+02  0.30792491534E+03  0.31753590412E+03  0.00000000000E+00 0. -1.
          5    1    3    3  501    0 -0.75415494762E+02  0.15107933357E+01 -0.37377526415E+03  0.38133950416E+03  0.47000000000E+01 0. -1.
         -5    1    3    3    0  501  0.41819538263E+02  0.21897262303E+02 -0.50592316267E+03  0.50814240170E+03  0.47000000000E+01 0. -1.
          1    1    1    2  502    0 -0.19671984820E+02 -0.20267120393E+02  0.78229406854E+02  0.83172010031E+02  0.00000000000E+00 0. -1.
          1    1    1    2  503    0  0.16044167238E+02  0.13832034930E+02 -0.52688028441E+03  0.52730595919E+03  0.00000000000E+00 0. -1.
<mgrwt>
<rscale>  0 0.24442589E+02</rscale>
<asrwt>0</asrwt>
<pdfrwt beam="1">  1        2 0.60839594E-01 0.28203096E+02</pdfrwt>
<pdfrwt beam="2">  1        2 0.26340535E+00 0.21183496E+02</pdfrwt>
<totfact> 0.17088387E+02</totfact>
</mgrwt>
</event>
<event>
13    1  0.3019759E-008  0.1322998E+03  0.7546771E-02  0.1430640E+00
          2   -1    0    0  502    0  0.00000000000E+00  0.00000000000E+00  0.58077150959E+03  0.58077150959E+03  0.00000000000E+00 0. -1.
          2   -1    0    0  503    0 -0.00000000000E+00 -0.00000000000E+00 -0.28148774463E+04  0.28148774463E+04  0.00000000000E+00 0. -1.
         25    2    1    2    0    0 -0.14674296122E+03 -0.23248691621E+02 -0.10667141810E+04  0.10842412630E+04  0.12500389698E+03 0.  0.
         24    2    1    2    0    0 -0.51283363100E+02  0.15702383448E+01 -0.27354117012E+03  0.28919297276E+03  0.78583425497E+02 0.  0.
         24    2    1    2    0    0  0.79945918121E+02  0.11974050887E+03 -0.24333414949E+02  0.16743055902E+03  0.81925195903E+02 0.  0.
        -11    1    4    4    0    0  0.19833986366E+02 -0.21314900984E+01 -0.35419469845E+02  0.40650573297E+02  0.00000000000E+00 0.  1.
         12    1    4    4    0    0 -0.71117349466E+02  0.37017284432E+01 -0.23812170027E+03  0.24854239946E+03  0.00000000000E+00 0. -1.
        -11    1    5    5    0    0  0.32673669288E+02  0.18924085984E+02  0.25372081525E+02  0.45491012475E+02  0.00000000000E+00 0.  1.
         12    1    5    5    0    0  0.47272248833E+02  0.10081642288E+03 -0.49705496475E+02  0.12193954655E+03  0.00000000000E+00 0. -1.
          5    1    3    3  501    0 -0.71622989919E+02 -0.74229841446E+02 -0.56638551742E+03  0.57572091015E+03  0.47000000000E+01 0. -1.
         -5    1    3    3    0  501 -0.75119971302E+02  0.50981149825E+02 -0.50032866354E+03  0.50852035287E+03  0.47000000000E+01 0. -1.
          1    1    1    2  502    0  0.10101263218E+03 -0.85660696874E+02  0.48364797670E+03  0.50145455648E+03  0.00000000000E+00 0. -1.
          1    1    1    2  503    0  0.17067774018E+02 -0.12401358716E+02 -0.13531651474E+04  0.13533296046E+04  0.00000000000E+00 0. -1.
<mgrwt>
<rscale>  0 0.52831703E+02</rscale>
<asrwt>0</asrwt>
<pdfrwt beam="1">  1        2 0.85407574E-01 0.13229979E+03</pdfrwt>
<pdfrwt beam="2">  1        2 0.41395257E+00 0.21097455E+02</pdfrwt>
<totfact> 0.40580500E+01</totfact>
</mgrwt>
</event>
<event>
13    1  0.3019759E-008  0.1066580E+03  0.7546771E-02  0.1353784E+00
          2   -1    0    0  502    0  0.00000000000E+00  0.00000000000E+00  0.22901678027E+04  0.22901678027E+04  0.00000000000E+00 0. -1.
          2   -1    0    0  503    0 -0.00000000000E+00 -0.00000000000E+00 -0.51432333861E+03  0.51432333861E+03  0.00000000000E+00 0. -1.
         25    2    1    2    0    0 -0.39650980255E+02  0.84899144996E+02 -0.15489395497E+03  0.21999258681E+03  0.12499814363E+03 0.  0.
         24    2    1    2    0    0  0.98624418659E+01 -0.44177320243E+02  0.63034481129E+02  0.11173287856E+03  0.80386484911E+02 0.  0.
         24    2    1    2    0    0 -0.58688507245E+02 -0.64653152863E+02  0.22829049375E+03  0.25645487326E+03  0.77641364149E+02 0.  0.
        -11    1    5    5    0    0 -0.31487854147E+02 -0.60113413445E+02  0.76846990957E+02  0.10252105859E+03  0.00000000000E+00 0.  1.
         12    1    5    5    0    0 -0.27200653098E+02 -0.45397394174E+01  0.15144350279E+03  0.15393381467E+03  0.00000000000E+00 0. -1.
        -13    1    4    4    0    0  0.28232712059E+02 -0.14748856749E+01  0.58565799752E+02  0.65032408986E+02  0.00000000000E+00 0.  1.
         14    1    4    4    0    0 -0.18370270193E+02 -0.42702434568E+02  0.44686813773E+01  0.46700469573E+02  0.00000000000E+00 0. -1.
          5    1    3    3  501    0 -0.84222659307E+02  0.42477088601E+02 -0.96719691542E+02  0.13518338703E+03  0.47000000000E+01 0.  1.
         -5    1    3    3    0  501  0.44571679053E+02  0.42422056395E+02 -0.58174263431E+02  0.84809199785E+02  0.47000000000E+01 0.  1.
          1    1    1    2  502    0  0.13118270671E+03  0.10391282422E+01  0.19235772452E+04  0.19280454871E+04  0.00000000000E+00 0. -1.
          1    1    1    2  503    0 -0.42705661080E+02  0.22892199868E+02 -0.28416380103E+03  0.28826531550E+03  0.00000000000E+00 0. -1.
<mgrwt>
<rscale>  0 0.71889112E+02</rscale>
<asrwt>0</asrwt>
<pdfrwt beam="1">  1        2 0.33678938E+00 0.10665796E+03</pdfrwt>
<pdfrwt beam="2">  1        2 0.75635786E-01 0.48454373E+02</pdfrwt>
<totfact> 0.66411988E+01</totfact>
</mgrwt>
</event>
<event>
13    1  0.3019759E-008  0.1082307E+03  0.7546771E-02  0.1362600E+00
          2   -1    0    0  503    0  0.00000000000E+00  0.00000000000E+00  0.21169364254E+04  0.21169364254E+04  0.00000000000E+00 0. -1.
          2   -1    0    0  502    0 -0.00000000000E+00 -0.00000000000E+00 -0.22004725056E+04  0.22004725056E+04  0.00000000000E+00 0. -1.
         25    2    1    2    0    0  0.14268550715E+03  0.99349094167E+02 -0.10731779256E+03  0.23955222972E+03  0.12505505069E+03 0.  0.
         24    2    1    2    0    0 -0.40198636474E+03  0.37918494712E+03  0.12105052800E+03  0.57138407582E+03  0.80326024499E+02 0.  0.
         24    2    1    2    0    0  0.14341146294E+03 -0.45569898136E+03  0.30498971957E+03  0.57110176693E+03  0.70072033166E+02 0.  0.
        -11    1    4    4    0    0 -0.24818590988E+03  0.28343867242E+03  0.70324196030E+02  0.38324824779E+03  0.00000000000E+00 0.  1.
         12    1    4    4    0    0 -0.15380045486E+03  0.95746274703E+02  0.50726331969E+02  0.18813582803E+03  0.00000000000E+00 0. -1.
        -13    1    5    5    0    0  0.51804231411E+02 -0.86460906795E+02  0.45424635104E+02  0.11055570664E+03  0.00000000000E+00 0.  1.
         14    1    5    5    0    0  0.91607231532E+02 -0.36923807456E+03  0.25956508446E+03  0.46054606029E+03  0.00000000000E+00 0. -1.
          5    1    3    3  501    0  0.41569006625E+02  0.56254373899E+02 -0.10891142507E+03  0.12952345504E+03  0.47000000000E+01 0. -1.
         -5    1    3    3    0  501  0.10111650052E+03  0.43094720268E+02  0.15936325139E+01  0.11002877468E+03  0.47000000000E+01 0. -1.
          1    1    1    2  502    0  0.90580665647E+02 -0.59232306712E+02 -0.16666710928E+04  0.16701813838E+04  0.00000000000E+00 0. -1.
          1    1    1    2  503    0  0.25308729004E+02  0.36397246781E+02  0.12644125575E+04  0.12651894748E+04  0.00000000000E+00 0. -1.
<mgrwt>
<rscale>  0 0.69267906E+02</rscale>
<asrwt>0</asrwt>
<pdfrwt beam="1">  1        2 0.31131418E+00 0.44331607E+02</pdfrwt>
<pdfrwt beam="2">  1        2 0.32359890E+00 0.10823074E+03</pdfrwt>
<totfact> 0.10001899E+01</totfact>
</mgrwt>
</event>
<event>
13    1  0.3019759E-008  0.2420712E+03  0.7546771E-02  0.1331674E+00
          2   -1    0    0  503    0  0.00000000000E+00  0.00000000000E+00  0.21786785551E+04  0.21786785551E+04  0.00000000000E+00 0. -1.
          2   -1    0    0  502    0 -0.00000000000E+00 -0.00000000000E+00 -0.27208431914E+04  0.27208431914E+04  0.00000000000E+00 0. -1.
         25    2    1    2    0    0 -0.37882073317E+03  0.27548372095E+03 -0.14110211062E+04  0.14919789169E+04  0.12499639200E+03 0.  0.
         24    2    1    2    0    0  0.18607770401E+03  0.87658424451E+02  0.59292300099E+01  0.22167632504E+03  0.82439832665E+02 0.  0.
         24    2    1    2    0    0 -0.70605673769E+02 -0.32658934837E+03  0.17170667780E+03  0.38433846113E+03  0.81160987322E+02 0.  0.
        -11    1    5    5    0    0 -0.17701419883E+02 -0.12812179296E+03  0.11022750735E+03  0.16993715742E+03  0.00000000000E+00 0.  1.
         12    1    5    5    0    0 -0.52904253887E+02 -0.19846755541E+03  0.61479170449E+02  0.21440130370E+03  0.00000000000E+00 0. -1.
        -13    1    4    4    0    0  0.46376852812E+02  0.19850720193E+01  0.31101774136E+02  0.55875516482E+02  0.00000000000E+00 0.  1.
         14    1    4    4    0    0  0.13970085120E+03  0.85673352432E+02 -0.25172544126E+02  0.16580080856E+03  0.00000000000E+00 0. -1.
          5    1    3    3  501    0 -0.28742194649E+03  0.26791182356E+03 -0.11466920615E+04  0.12121521746E+04  0.47000000000E+01 0.  1.
         -5    1    3    3    0  501 -0.91398786685E+02  0.75718973958E+01 -0.26432904466E+03  0.27982674226E+03  0.47000000000E+01 0.  1.
          1    1    1    2  502    0  0.25624558097E+02  0.32982348558E+01 -0.10466762164E+04  0.10469950326E+04  0.00000000000E+00 0. -1.
          1    1    1    2  503    0  0.23772414483E+03 -0.39851031886E+02  0.17378967784E+04  0.17545330109E+04  0.00000000000E+00 0. -1.
<mgrwt>
<rscale>  0 0.79083117E+02</rscale>
<asrwt>0</asrwt>
<pdfrwt beam="1">  1        2 0.32039391E+00 0.24207119E+03</pdfrwt>
<pdfrwt beam="2">  1        2 0.40012400E+00 0.25835950E+02</pdfrwt>
<totfact> 0.53022189E+00</totfact>
</mgrwt>
</event>
<event>
13    1  0.3019759E-008  0.3237318E+02  0.7546771E-02  0.1716646E+00
          2   -1    0    0  502    0  0.00000000000E+00  0.00000000000E+00  0.72608740942E+03  0.72608740942E+03  0.00000000000E+00 0. -1.
          2   -1    0    0  503    0 -0.00000000000E+00 -0.00000000000E+00 -0.16487815859E+04  0.16487815859E+04  0.00000000000E+00 0. -1.
         25    2    1    2    0    0 -0.16632552169E+03  0.11027384213E+03 -0.96400299434E+03  0.99234588916E+03  0.12499636479E+03 0.  0.
         24    2    1    2    0    0 -0.23576683834E+02  0.41008927800E+00 -0.43500877214E+02  0.10452429727E+03  0.92070484997E+02 0.  0.
         24    2    1    2    0    0  0.16743892989E+03 -0.93845217940E+02  0.40495221047E+03  0.45526776964E+03  0.80247922959E+02 0.  0.
        -11    1    4    4    0    0 -0.32146521654E+02 -0.41035600762E+02 -0.29772361163E+02  0.60030932640E+02  0.00000000000E+00 0.  1.
         12    1    4    4    0    0  0.85698378194E+01  0.41445690040E+02 -0.13728516050E+02  0.44493364630E+02  0.00000000000E+00 0. -1.
        -13    1    5    5    0    0  0.42422425316E+02 -0.30614922981E+01  0.37685826541E+02  0.56826546850E+02  0.00000000000E+00 0.  1.
         14    1    5    5    0    0  0.12501650457E+03 -0.90783725642E+02  0.36726638393E+03  0.39844122279E+03  0.00000000000E+00 0. -1.
          5    1    3    3  501    0 -0.10811925617E+03  0.33597805480E+02 -0.28773556449E+03  0.30924493717E+03  0.47000000000E+01 0. -1.
         -5    1    3    3    0  501 -0.58206265517E+02  0.76676036651E+02 -0.67626742985E+03  0.68310095200E+03  0.47000000000E+01 0. -1.
          1    1    1    2  502    0  0.14693893212E+02 -0.28854151336E+02  0.25016108310E+03  0.25224797332E+03  0.00000000000E+00 0. -1.
          1    1    1    2  503    0  0.77693824267E+01  0.12015437868E+02 -0.57030359854E+03  0.57048306597E+03  0.00000000000E+00 0. -1.
<mgrwt>
<rscale>  0 0.21522375E+02</rscale>
<asrwt>0</asrwt>
<pdfrwt beam="1">  1        2 0.10677756E+00 0.32373179E+02</pdfrwt>
<pdfrwt beam="2">  1        2 0.24246788E+00 0.14308531E+02</pdfrwt>
<totfact> 0.11454495E+02</totfact>
</mgrwt>
</event>
<event>
13    1  0.3019759E-008  0.1313611E+03  0.7546771E-02  0.1408632E+00
          4   -1    0    0  503    0 -0.00000000000E+00  0.00000000000E+00  0.52290123514E+03  0.52290123514E+03  0.00000000000E+00 0. -1.
          2   -1    0    0  502    0  0.00000000000E+00 -0.00000000000E+00 -0.25461698835E+04  0.25461698835E+04  0.00000000000E+00 0. -1.
         25    2    1    2    0    0  0.72836136601E+01 -0.76647392220E+02 -0.58614469667E+02  0.15808213339E+03  0.12500572419E+03 0.  0.
         24    2    1    2    0    0  0.48588808845E+02 -0.26729078113E+02 -0.50282461504E+02  0.10965464067E+03  0.80128012101E+02 0.  0.
         24    2    1    2    0    0  0.55930005876E+02 -0.10962628883E+01 -0.66307940582E+03  0.67016459785E+03  0.79479069175E+02 0.  0.
        -11    1    4    4    0    0  0.62534590188E+01 -0.49064238192E+02 -0.22838766966E+02  0.54479486925E+02  0.00000000000E+00 0.  1.
         12    1    4    4    0    0  0.42335349826E+02  0.22335160079E+02 -0.27443694537E+02  0.55175153742E+02  0.00000000000E+00 0. -1.
        -13    1    5    5    0    0 -0.18817364458E+02  0.86892357179E+01 -0.18835501863E+03  0.18949197626E+03  0.00000000000E+00 0.  1.
         14    1    5    5    0    0  0.74747370334E+02 -0.97854986063E+01 -0.47472438719E+03  0.48067262159E+03  0.00000000000E+00 0. -1.
          5    1    3    3  501    0 -0.97434244507E+01  0.25713605380E+02 -0.45517383725E+02  0.53385822489E+02  0.47000000000E+01 0.  1.
         -5    1    3    3    0  501  0.17027038111E+02 -0.10236099760E+03 -0.13097085942E+02  0.10469631090E+03  0.47000000000E+01 0.  1.
          1    1    1    2  502    0 -0.25009462052E+02 -0.28318088466E+01 -0.16803106350E+04  0.16804991289E+04  0.00000000000E+00 0. -1.
          3    1    1    2  503    0 -0.86792966328E+02  0.10730454207E+03  0.42901832361E+03  0.45067061780E+03  0.00000000000E+00 0. -1.
<mgrwt>
<rscale>  0 0.57500119E+02</rscale>
<asrwt>0</asrwt>
<pdfrwt beam="2">  1        2 0.37443675E+00 0.25169274E+02</pdfrwt>
<pdfrwt beam="1">  1        4 0.76897240E-01 0.13136111E+03</pdfrwt>
<totfact> 0.48472406E+00</totfact>
</mgrwt>
</event>
<event>
13    1  0.3019759E-008  0.8658858E+02  0.7546771E-02  0.1515921E+00
          2   -1    0    0  503    0  0.00000000000E+00  0.00000000000E+00  0.31996936833E+03  0.31996936833E+03  0.00000000000E+00 0. -1.
          2   -1    0    0  502    0 -0.00000000000E+00 -0.00000000000E+00 -0.16843966249E+04  0.16843966249E+04  0.00000000000E+00 0. -1.
         25    2    1    2    0    0 -0.44741417501E+02 -0.27351266792E+02 -0.20780888936E+03  0.24811310618E+03  0.12500277086E+03 0.  0.
         24    2    1    2    0    0 -0.33162555470E+02 -0.30580564543E+01 -0.16583769761E+03  0.18733053658E+03  0.80507646783E+02 0.  0.
         24    2    1    2    0    0 -0.38844573704E+02  0.14424782781E+02  0.11406233704E+03  0.14572149440E+03  0.80669460981E+02 0.  0.
        -13    1    5    5    0    0 -0.35274993983E+02 -0.20858751115E+02  0.99084322540E+02  0.10722460385E+03  0.00000000000E+00 0.  1.
         14    1    5    5    0    0 -0.35695797213E+01  0.35283533895E+02  0.14978014504E+02  0.38496890550E+02  0.00000000000E+00 0. -1.
        -13    1    4    4    0    0  0.87709812248E+01 -0.31346886452E+02 -0.93955806773E+02  0.99434657078E+02  0.00000000000E+00 0.  1.
         14    1    4    4    0    0 -0.41933536695E+02  0.28288829998E+02 -0.71881890838E+02  0.87895879498E+02  0.00000000000E+00 0. -1.
          5    1    3    3  501    0 -0.28694979114E+02 -0.73417364086E+02 -0.16548471377E+03  0.18335973295E+03  0.47000000000E+01 0.  1.
         -5    1    3    3    0  501 -0.16046438387E+02  0.46066097294E+02 -0.42324175598E+02  0.64753373232E+02  0.47000000000E+01 0.  1.
          1    1    1    2  502    0  0.10879666559E+03  0.31618390545E+02 -0.12609911199E+04  0.12660707096E+04  0.00000000000E+00 0. -1.
          1    1    1    2  503    0  0.79518810860E+01 -0.15633850079E+02  0.15614811325E+03  0.15713014655E+03  0.00000000000E+00 0. -1.
<mgrwt>
<rscale>  0 0.38971259E+02</rscale>
<asrwt>0</asrwt>
<pdfrwt beam="1">  1        2 0.47054318E-01 0.17539945E+02</pdfrwt>
<pdfrwt beam="2">  1        2 0.24770539E+00 0.86588582E+02</pdfrwt>
<totfact> 0.21293851E+02</totfact>
</mgrwt>
</event>
<event>
13    1  0.3019759E-008  0.6551663E+02  0.7546771E-02  0.1413450E+00
          2   -1    0    0  503    0  0.00000000000E+00  0.00000000000E+00  0.13468675752E+04  0.13468675752E+04  0.00000000000E+00 0. -1.
         -1   -1    0    0    0  501 -0.00000000000E+00 -0.00000000000E+00 -0.34914704091E+03  0.34914704091E+03  0.00000000000E+00 0.  1.
         25    2    1    2    0    0  0.67433341273E+02 -0.62150578200E+02 -0.12648143707E+03  0.20008203388E+03  0.12500126588E+03 0.  0.
         24    2    1    2    0    0  0.72436186170E+02  0.10143582629E+02  0.35577291103E+02  0.11411670547E+03  0.80043647401E+02 0.  0.
         24    2    1    2    0    0 -0.11642318995E+03 -0.90942596518E+01  0.17689370660E+03  0.22675875512E+03  0.80567269224E+02 0.  0.
        -11    1    5    5    0    0 -0.55670419636E+02 -0.37924491006E+02  0.52694073690E+02  0.85522675605E+02  0.00000000000E+00 0.  1.
         12    1    5    5    0    0 -0.60752770318E+02  0.28830231354E+02  0.12419963291E+03  0.14123607952E+03  0.00000000000E+00 0. -1.
        -13    1    4    4    0    0  0.41812891478E+02 -0.30908246973E+02  0.42529220015E+00  0.51998254761E+02  0.00000000000E+00 0.  1.
         14    1    4    4    0    0  0.30623294692E+02  0.41051829602E+02  0.35151998903E+02  0.62118450707E+02  0.00000000000E+00 0. -1.
          5    1    3    3  502    0  0.69500057115E+02 -0.96402344523E+02 -0.85798454919E+02  0.14665311055E+03  0.47000000000E+01 0.  1.
         -5    1    3    3    0  502 -0.20667158422E+01  0.34251766324E+02 -0.40682982155E+02  0.53428923325E+02  0.47000000000E+01 0.  1.
          1    1    1    2  503    0 -0.59226969853E+02  0.28203754991E+02  0.10274513412E+04  0.10295433669E+04  0.00000000000E+00 0. -1.
         -2    1    1    2    0  501  0.35780632364E+02  0.32897500232E+02 -0.11572036754E+03  0.12551375477E+03  0.00000000000E+00 0.  1.
<mgrwt>
<rscale>  0 0.56431125E+02</rscale>
<asrwt>0</asrwt>
<pdfrwt beam="1">  1        2 0.19806876E+00 0.65516634E+02</pdfrwt>
<pdfrwt beam="2">  1       -1 0.51345153E-01 0.48605547E+02</pdfrwt>
<totfact> 0.89730028E+01</totfact>
</mgrwt>
</event>
<event>
13    1  0.3019759E-008  0.1074448E+03  0.7546771E-02  0.1549622E+00
          2   -1    0    0  503    0  0.00000000000E+00  0.00000000000E+00  0.98742766683E+03  0.98742766683E+03  0.00000000000E+00 0. -1.
         -1   -1    0    0    0  501 -0.00000000000E+00 -0.00000000000E+00 -0.10872344951E+04  0.10872344951E+04  0.00000000000E+00 0.  1.
         25    2    1    2    0    0  0.22632067180E+03  0.14733766779E+02 -0.10028930026E+04  0.10357883749E+04  0.12500020949E+03 0.  0.
         24    2    1    2    0    0 -0.10000128385E+03 -0.13395483576E+03  0.21331148572E+03  0.28249545877E+03  0.79735434331E+02 0.  0.
         24    2    1    2    0    0 -0.12471798134E+02 -0.13884597913E+02  0.77742140058E+02  0.10518667051E+03  0.68352523752E+02 0.  0.
        -11    1    5    5    0    0 -0.88910850487E+00  0.86383070282E+01 -0.10359021368E+02  0.13517403077E+02  0.00000000000E+00 0.  1.
         12    1    5    5    0    0 -0.11582689629E+02 -0.22522904941E+02  0.88101161426E+02  0.91669267428E+02  0.00000000000E+00 0. -1.
        -11    1    4    4    0    0 -0.97794708302E+01  0.10776870151E+02  0.14306023885E+02  0.20406893428E+02  0.00000000000E+00 0.  1.
         12    1    4    4    0    0 -0.90221813017E+02 -0.14473170591E+03  0.19900546183E+03  0.26208856534E+03  0.00000000000E+00 0. -1.
          5    1    3    3  502    0  0.11335790887E+03 -0.47346403597E+02 -0.37011948281E+03  0.39000284485E+03  0.47000000000E+01 0.  1.
         -5    1    3    3    0  502  0.11296276293E+03  0.62080170376E+02 -0.63277351984E+03  0.64578553001E+03  0.47000000000E+01 0.  1.
          1    1    1    2  503    0 -0.10483081972E+03  0.12625083097E+03  0.61727170480E+03  0.63871208743E+03  0.00000000000E+00 0. -1.
         -2    1    1    2    0  501 -0.90167701003E+01  0.68548359312E+01 -0.52391561707E+01  0.12479570348E+02  0.00000000000E+00 0.  1.
<mgrwt>
<rscale>  0 0.34885231E+02</rscale>
<asrwt>0</asrwt>
<pdfrwt beam="1">  1        2 0.14520995E+00 0.10744476E+03</pdfrwt>
<pdfrwt beam="2">  1       -1 0.15988742E+00 0.11326558E+02</pdfrwt>
<totfact> 0.13780638E+01</totfact>
</mgrwt>
</event>
<event>
13    1  0.3019759E-008  0.1324082E+03  0.7546771E-02  0.1352555E+00
          2   -1    0    0  502    0  0.00000000000E+00  0.00000000000E+00  0.33362618233E+04  0.33362618233E+04  0.00000000000E+00 0. -1.
          2   -1    0    0  503    0 -0.00000000000E+00 -0.00000000000E+00 -0.12682588261E+04  0.12682588261E+04  0.00000000000E+00 0. -1.
         25    2    1    2    0    0 -0.21393397931E+03  0.32869992164E+03 -0.98453914454E+03  0.10671241246E+04  0.12500073688E+03 0.  0.
         24    2    1    2    0    0  0.90438763390E+02 -0.93135683303E+02  0.31037510215E+03  0.34611195035E+03  0.81285624271E+02 0.  0.
         24    2    1    2    0    0  0.16148833303E+03 -0.14556202178E+03  0.80394068761E+03  0.83682233377E+03  0.81756988772E+02 0.  0.
        -11    1    4    4    0    0  0.65455610192E+02 -0.87774580278E+02  0.29847524379E+03  0.31792496757E+03  0.00000000000E+00 0.  1.
         12    1    4    4    0    0  0.24983153198E+02 -0.53611030249E+01  0.11899858362E+02  0.28186982783E+02  0.00000000000E+00 0. -1.
        -13    1    5    5    0    0 -0.45468286320E+01  0.54254950448E+01  0.15057311656E+02  0.16638277597E+02  0.00000000000E+00 0.  1.
         14    1    5    5    0    0  0.16603516166E+03 -0.15098751682E+03  0.78888337595E+03  0.82018405617E+03  0.00000000000E+00 0. -1.
          5    1    3    3  501    0 -0.14051914433E+03  0.11665332341E+03 -0.52107940636E+03  0.55217702371E+03  0.47000000000E+01 0.  1.
         -5    1    3    3    0  501 -0.73414834981E+02  0.21204659822E+03 -0.46345973819E+03  0.51494710091E+03  0.47000000000E+01 0.  1.
          1    1    1    2  502    0 -0.70710155887E+02 -0.11202870075E+03  0.21424111130E+04  0.21465031407E+04  0.00000000000E+00 0. -1.
          1    1    1    2  503    0  0.32717038780E+02  0.22026484193E+02 -0.20418476098E+03  0.20795909994E+03  0.00000000000E+00 0. -1.
<mgrwt>
<rscale>  0 0.72265323E+02</rscale>
<asrwt>0</asrwt>
<pdfrwt beam="1">  1        2 0.49062674E+00 0.13240824E+03</pdfrwt>
<pdfrwt beam="2">  1        2 0.18650865E+00 0.39440723E+02</pdfrwt>
<totfact> 0.62686812E+00</totfact>
</mgrwt>
</event>
<event>
13    1  0.3019759E-008  0.3612471E+02  0.7546771E-02  0.1542205E+00
          2   -1    0    0  502    0  0.00000000000E+00  0.00000000000E+00  0.38118974908E+03  0.38118974908E+03  0.00000000000E+00 0. -1.
          2   -1    0    0  503    0 -0.00000000000E+00 -0.00000000000E+00 -0.25332577964E+04  0.25332577964E+04  0.00000000000E+00 0. -1.
         25    2    1    2    0    0 -0.72459008576E+02 -0.10119144636E+03 -0.52302882044E+03  0.55197026776E+03  0.12498805038E+03 0.  0.
         24    2    1    2    0    0  0.99753739497E+02  0.32110789777E+02 -0.45129696603E+02  0.14031717445E+03  0.81671957029E+02 0.  0.
         24    2    1    2    0    0 -0.28514541170E+02  0.71468863695E+02  0.15896083787E+03  0.19441935151E+03  0.81298577651E+02 0.  0.
        -11    1    4    4    0    0  0.97632632790E+02 -0.27402076431E+01 -0.29223677845E+02  0.10194931618E+03  0.00000000000E+00 0.  1.
         12    1    4    4    0    0  0.21211067070E+01  0.34850997421E+02 -0.15906018758E+02  0.38367858262E+02  0.00000000000E+00 0. -1.
        -13    1    5    5    0    0 -0.79940469012E+01  0.22854557669E+02 -0.27019538303E+01  0.24362597288E+02  0.00000000000E+00 0.  1.
         14    1    5    5    0    0 -0.20520494268E+02  0.48614306026E+02  0.16166279170E+03  0.17005675422E+03  0.00000000000E+00 0. -1.
          5    1    3    3  501    0 -0.41835914401E+02 -0.19504310565E+02 -0.39043256267E+03  0.39317977804E+03  0.47000000000E+01 0.  1.
         -5    1    3    3    0  501 -0.30623094175E+02 -0.81687135798E+02 -0.13259625777E+03  0.15879048972E+03  0.47000000000E+01 0.  1.
          1    1    1    2  502    0  0.26032410489E+02  0.23902089130E+02  0.14006680428E+03  0.14445658836E+03  0.00000000000E+00 0. -1.
          1    1    1    2  503    0 -0.24812600241E+02 -0.26290296240E+02 -0.18829371724E+04  0.18832841634E+04  0.00000000000E+00 0. -1.
<mgrwt>
<rscale>  0 0.35730779E+02</rscale>
<asrwt>0</asrwt>
<pdfrwt beam="1">  1        2 0.56057315E-01 0.35341141E+02</pdfrwt>
<pdfrwt beam="2">  1        2 0.37253792E+00 0.36124712E+02</pdfrwt>
<totfact> 0.79652790E+01</totfact>
</mgrwt>
</event>
<event>
13    1  0.3019759E-008  0.8761546E+02  0.7546771E-02  0.1350861E+00
          2   -1    0    0  503    0  0.00000000000E+00  0.00000000000E+00  0.20889525421E+04  0.20889525421E+04  0.00000000000E+00 0. -1.
          2   -1    0    0  502    0 -0.00000000000E+00 -0.00000000000E+00 -0.28382740008E+04  0.28382740008E+04  0.00000000000E+00 0. -1.
         25    2    1    2    0    0  0.48650438857E+02 -0.23035413518E+03 -0.81138739951E+03  0.85405138138E+03  0.12499742865E+03 0.  0.
         24    2    1    2    0    0  0.16493043489E+03  0.33930205199E+03 -0.78302134010E+03  0.87280075984E+03  0.79566428145E+02 0.  0.
         24    2    1    2    0    0 -0.29091704405E+03 -0.18800819863E+03  0.95259589543E+02  0.36379644202E+03  0.57390352428E+02 0.  0.
        -11    1    4    4    0    0  0.71687274667E+02  0.10902079811E+03 -0.35057552720E+03  0.37406924498E+03  0.00000000000E+00 0.  1.
         12    1    4    4    0    0  0.93243160221E+02  0.23028125388E+03 -0.43244581290E+03  0.49873151485E+03  0.00000000000E+00 0. -1.
        -13    1    5    5    0    0 -0.13840503757E+03 -0.56379467036E+02  0.46584849453E+02  0.15653992119E+03  0.00000000000E+00 0.  1.
         14    1    5    5    0    0 -0.15251200649E+03 -0.13162873159E+03  0.48674740090E+02  0.20725652083E+03  0.00000000000E+00 0. -1.
          5    1    3    3  501    0 -0.20080375561E+02 -0.37519919516E+02 -0.30242585086E+03  0.30544140372E+03  0.47000000000E+01 0.  1.
         -5    1    3    3    0  501  0.68730814419E+02 -0.19283421566E+03 -0.50896154865E+03  0.54860997766E+03  0.47000000000E+01 0.  1.
          1    1    1    2  502    0 -0.81591956306E+01  0.59916791597E+02 -0.10414274222E+04  0.10431815135E+04  0.00000000000E+00 0. -1.
          1    1    1    2  503    0  0.85495365939E+02  0.19143490220E+02  0.17912551136E+04  0.17933964461E+04  0.00000000000E+00 0. -1.
<mgrwt>
<rscale>  0 0.72787962E+02</rscale>
<asrwt>0</asrwt>
<pdfrwt beam="1">  1        2 0.30719890E+00 0.87615455E+02</pdfrwt>
<pdfrwt beam="2">  1        2 0.41739323E+00 0.60469781E+02</pdfrwt>
<totfact> 0.49812831E+00</totfact>
</mgrwt>
</event>
<event>
13    1  0.3019759E-008  0.1204843E+03  0.7546771E-02  0.1330941E+00
          2   -1    0    0  503    0  0.00000000000E+00  0.00000000000E+00  0.11146406289E+04  0.11146406289E+04  0.00000000000E+00 0. -1.
         -1   -1    0    0    0  501 -0.00000000000E+00 -0.00000000000E+00 -0.10259154187E+04  0.10259154187E+04  0.00000000000E+00 0.  1.
         25    2    1    2    0    0 -0.23129114799E+02 -0.40683820967E+02 -0.60689763883E+03  0.62140200151E+03  0.12500229689E+03 0.  0.
         24    2    1    2    0    0  0.90325751628E+02 -0.40788169665E+02 -0.27540855460E+03  0.30364516823E+03  0.80796658683E+02 0.  0.
         24    2    1    2    0    0  0.34462354575E+02  0.12741603193E+03  0.23789489210E+03  0.28380737437E+03  0.80809324848E+02 0.  0.
        -11    1    5    5    0    0  0.38650780495E+02  0.10094315718E+03  0.11419978189E+03  0.15724183285E+03  0.00000000000E+00 0.  1.
         12    1    5    5    0    0 -0.41884259202E+01  0.26472874748E+02  0.12369511022E+03  0.12656554152E+03  0.00000000000E+00 0. -1.
        -13    1    4    4    0    0  0.57530701761E+02 -0.65208798746E+02 -0.18987091485E+03  0.20883709772E+03  0.00000000000E+00 0.  1.
         14    1    4    4    0    0  0.32795049867E+02  0.24420629081E+02 -0.85537639744E+02  0.94808070508E+02  0.00000000000E+00 0. -1.
          5    1    3    3  502    0  0.46381721879E+02  0.62787433571E+01 -0.16436055813E+03  0.17095955607E+03  0.47000000000E+01 0.  1.
         -5    1    3    3    0  502 -0.69510836677E+02 -0.46962564324E+02 -0.44253708069E+03  0.45044244544E+03  0.47000000000E+01 0.  1.
          1    1    1    2  503    0 -0.77801072547E+02 -0.92421754413E+02  0.82080446009E+03  0.82964736441E+03  0.00000000000E+00 0. -1.
         -2    1    1    2    0  501 -0.23857918858E+02  0.46477713117E+02 -0.87667948489E+02  0.10205413907E+03  0.00000000000E+00 0.  1.
<mgrwt>
<rscale>  0 0.79337987E+02</rscale>
<asrwt>0</asrwt>
<pdfrwt beam="1">  1        2 0.16391774E+00 0.12048431E+03</pdfrwt>
<pdfrwt beam="2">  1       -1 0.15086991E+00 0.52243450E+02</pdfrwt>
<totfact> 0.12025491E+01</totfact>
</mgrwt>
</event>
<event>
13    1  0.3019759E-008  0.8151061E+02  0.7546771E-02  0.1490259E+00
         -1   -1    0    0    0  501 -0.00000000000E+00  0.00000000000E+00  0.74363012654E+03  0.74363012654E+03  0.00000000000E+00 0.  1.
          2   -1    0    0  503    0  0.00000000000E+00 -0.00000000000E+00 -0.32722297343E+04  0.32722297343E+04  0.00000000000E+00 0. -1.
         25    2    1    2    0    0 -0.39938953492E+03 -0.86030840395E+02 -0.16254456957E+03  0.45711904982E+03  0.12499512994E+03 0.  0.
         24    2    1    2    0    0  0.62998133801E+03  0.59836905994E+02 -0.15029105212E+03  0.65453750514E+03  0.73314416938E+02 0.  0.
         24    2    1    2    0    0 -0.15789438328E+03  0.74423178269E+02 -0.35588332404E+03  0.40343334778E+03  0.75073830590E+02 0.  0.
        -13    1    5    5    0    0 -0.48812982030E+02  0.27226034260E+02 -0.48970831724E+02  0.74310877508E+02  0.00000000000E+00 0.  1.
         14    1    5    5    0    0 -0.10908140125E+03  0.47197144009E+02 -0.30691249232E+03  0.32912247028E+03  0.00000000000E+00 0. -1.
        -13    1    4    4    0    0  0.47081420322E+03  0.26603286263E+02 -0.84220804499E+02  0.47902702711E+03  0.00000000000E+00 0.  1.
         14    1    4    4    0    0  0.15916713479E+03  0.33233619730E+02 -0.66070247621E+02  0.17551047803E+03  0.00000000000E+00 0. -1.
          5    1    3    3  502    0 -0.21186887389E+03 -0.50206245547E+02 -0.15252711902E+03  0.26588662782E+03  0.47000000000E+01 0.  1.
         -5    1    3    3    0  502 -0.18752066103E+03 -0.35824594848E+02 -0.10017450545E+02  0.19123242200E+03  0.47000000000E+01 0.  1.
          1    1    1    2  503    0 -0.77091203662E+02 -0.26458854548E+02 -0.21791777247E+04  0.21807014194E+04  0.00000000000E+00 0. -1.
         -2    1    1    2    0  501  0.43937838511E+01 -0.21770389319E+02  0.31929706271E+03  0.32006853867E+03  0.00000000000E+00 0.  1.
<mgrwt>
<rscale>  0 0.42547591E+02</rscale>
<asrwt>0</asrwt>
<pdfrwt beam="2">  1        2 0.48121024E+00 0.81510607E+02</pdfrwt>
<pdfrwt beam="1">  1       -1 0.10935737E+00 0.22209349E+02</pdfrwt>
<totfact> 0.22706006E+00</totfact>
</mgrwt>
</event>
<event>
13    1  0.3019759E-008  0.7880427E+02  0.7546771E-02  0.1356229E+00
          2   -1    0    0  503    0  0.00000000000E+00  0.00000000000E+00  0.39588361966E+04  0.39588361966E+04  0.00000000000E+00 0. -1.
          2   -1    0    0  502    0 -0.00000000000E+00 -0.00000000000E+00 -0.17655431571E+04  0.17655431571E+04  0.00000000000E+00 0. -1.
         25    2    1    2    0    0 -0.14903472044E+03 -0.10657528127E+00 -0.38920428680E+03  0.43511317450E+03  0.12502855076E+03 0.  0.
         24    2    1    2    0    0  0.19269983197E+01  0.60427346344E+01  0.92132917042E+01  0.80998889401E+02  0.80222860681E+02 0.  0.
         24    2    1    2    0    0  0.14496434305E+03  0.10706285331E+02  0.11404547203E+04  0.11525729729E+04  0.81597816051E+02 0.  0.
        -11    1    5    5    0    0  0.46756706509E+01 -0.20887840962E+02  0.20744277411E+03  0.20854416397E+03  0.00000000000E+00 0.  1.
         12    1    5    5    0    0  0.14028867240E+03  0.31594126293E+02  0.93301194615E+03  0.94402880892E+03  0.00000000000E+00 0. -1.
        -13    1    4    4    0    0 -0.26044136791E+02  0.82040180106E+01  0.33969302775E+02  0.43583443000E+02  0.00000000000E+00 0.  1.
         14    1    4    4    0    0  0.27971135111E+02 -0.21612833762E+01 -0.24756011071E+02  0.37415446401E+02  0.00000000000E+00 0. -1.
          5    1    3    3  501    0 -0.89206208051E+02 -0.60343457204E+02 -0.18865638422E+03  0.21728414965E+03  0.47000000000E+01 0.  1.
         -5    1    3    3    0  501 -0.59828512387E+02  0.60236881923E+02 -0.20054790258E+03  0.21782902485E+03  0.47000000000E+01 0.  1.
          1    1    1    2  502    0  0.27487821117E+02  0.58059107010E+02 -0.13100784906E+04  0.13116524279E+04  0.00000000000E+00 0. -1.
          1    1    1    2  503    0 -0.25344442053E+02 -0.74701551694E+02  0.27429078049E+04  0.27440418890E+04  0.00000000000E+00 0. -1.
<mgrwt>
<rscale>  0 0.71148996E+02</rscale>
<asrwt>0</asrwt>
<pdfrwt beam="1">  1        2 0.58218180E+00 0.78804273E+02</pdfrwt>
<pdfrwt beam="2">  1        2 0.25963870E+00 0.64237374E+02</pdfrwt>
<totfact> 0.15946642E+00</totfact>
</mgrwt>
</event>
<event>
13    1  0.3019759E-008  0.9358883E+02  0.7546771E-02  0.1446391E+00
          2   -1    0    0  503    0  0.00000000000E+00  0.00000000000E+00  0.12742843068E+04  0.12742843068E+04  0.00000000000E+00 0. -1.
          2   -1    0    0  502    0 -0.00000000000E+00 -0.00000000000E+00 -0.16308299029E+04  0.16308299029E+04  0.00000000000E+00 0. -1.
         25    2    1    2    0    0 -0.31525960307E+01 -0.48214559518E+01 -0.29413739079E+02  0.12854254898E+03  0.12499933421E+03 0.  0.
         24    2    1    2    0    0  0.38525775149E+02 -0.50920516571E+02  0.25834830311E+02  0.10434074774E+03  0.78373584978E+02 0.  0.
         24    2    1    2    0    0  0.67428240049E+01 -0.44568847343E+01  0.85202216088E+01  0.60808861215E+02  0.59664008657E+02 0.  0.
        -11    1    5    5    0    0  0.26498473189E+02 -0.11902558671E+02 -0.11941917787E+02  0.31407791784E+02  0.00000000000E+00 0.  1.
         12    1    5    5    0    0 -0.19755649185E+02  0.74456739365E+01  0.20462139396E+02  0.29401069432E+02  0.00000000000E+00 0. -1.
        -13    1    4    4    0    0  0.51561060346E+02 -0.62682273445E+02  0.12124890185E+02  0.82064750717E+02  0.00000000000E+00 0.  1.
         14    1    4    4    0    0 -0.13035285197E+02  0.11761756874E+02  0.13709940126E+02  0.22275997019E+02  0.00000000000E+00 0. -1.
          5    1    3    3  501    0 -0.51391367368E+02  0.19205763160E+02  0.16613192678E+02  0.57515407931E+02  0.47000000000E+01 0.  1.
         -5    1    3    3    0  501  0.48238771338E+02 -0.24027219112E+02 -0.46026931757E+02  0.71027141047E+02  0.47000000000E+01 0.  1.
          1    1    1    2  502    0 -0.37254504801E+02  0.86254912287E+02 -0.14848132818E+04  0.14877830117E+04  0.00000000000E+00 0. -1.
          1    1    1    2  503    0 -0.48614983224E+01 -0.26056055030E+02  0.11233263729E+04  0.11236390400E+04  0.00000000000E+00 0. -1.
<mgrwt>
<rscale>  0 0.49805998E+02</rscale>
<asrwt>0</asrwt>
<pdfrwt beam="1">  1        2 0.18739475E+00 0.26505701E+02</pdfrwt>
<pdfrwt beam="2">  1        2 0.23982793E+00 0.93588828E+02</pdfrwt>
<totfact> 0.49340526E+01</totfact>
</mgrwt>
</event>
<event>
13    1  0.3019759E-008  0.1135309E+03  0.7546771E-02  0.1342465E+00
          2   -1    0    0  502    0  0.00000000000E+00  0.00000000000E+00  0.80861717537E+03  0.80861717537E+03  0.00000000000E+00 0. -1.
          2   -1    0    0  503    0 -0.00000000000E+00 -0.00000000000E+00 -0.11734265337E+04  0.11734265337E+04  0.00000000000E+00 0. -1.
         25    2    1    2    0    0 -0.33152786554E+02 -0.42326070322E+02 -0.43328381629E+03  0.45414890617E+03  0.12500304007E+03 0.  0.
         24    2    1    2    0    0 -0.51883783954E+02 -0.15258309248E+03 -0.46644590922E+02  0.18752462100E+03  0.83762989848E+02 0.  0.
         24    2    1    2    0    0  0.49052426893E+01  0.15011995075E+03  0.11112344291E+03  0.20306192290E+03  0.79534042691E+02 0.  0.
        -13    1    4    4    0    0 -0.27045356723E+02 -0.22110192629E+02 -0.41997882602E+02  0.54627228389E+02  0.00000000000E+00 0.  1.
         14    1    4    4    0    0 -0.24838427231E+02 -0.13047289985E+03 -0.46467083191E+01  0.13289739261E+03  0.00000000000E+00 0. -1.
        -13    1    5    5    0    0  0.41599274427E+02  0.81903735228E+02  0.68999645553E+02  0.11488982794E+03  0.00000000000E+00 0.  1.
         14    1    5    5    0    0 -0.36694031738E+02  0.68216215525E+02  0.42123797356E+02  0.88172094959E+02  0.00000000000E+00 0. -1.
          5    1    3    3  501    0 -0.22261583643E+02 -0.16749142884E+02 -0.42329677211E+03  0.42423856398E+03  0.47000000000E+01 0. -1.
         -5    1    3    3    0  501 -0.10891202910E+02 -0.25576927438E+02 -0.99870441831E+01  0.29910342183E+02  0.47000000000E+01 0. -1.
          1    1    1    2  502    0  0.65821410353E+02  0.92854553611E+02  0.56384463930E+03  0.57521752708E+03  0.00000000000E+00 0. -1.
          1    1    1    2  503    0  0.14309917466E+02 -0.48065341560E+02 -0.55984903333E+03  0.56209073192E+03  0.00000000000E+00 0. -1.
<mgrwt>
<rscale>  0 0.75455980E+02</rscale>
<asrwt>0</asrwt>
<pdfrwt beam="1">  1        2 0.11891429E+00 0.11353086E+03</pdfrwt>
<pdfrwt beam="2">  1        2 0.17256272E+00 0.50150282E+02</pdfrwt>
<totfact> 0.14614418E+02</totfact>
</mgrwt>
</event>
<event>
13    1  0.3019759E-008  0.8349579E+02  0.7546771E-02  0.1570772E+00
         -1   -1    0    0    0  501 -0.00000000000E+00  0.00000000000E+00  0.12631952093E+04  0.12631952093E+04  0.00000000000E+00 0.  1.
          2   -1    0    0  503    0  0.00000000000E+00 -0.00000000000E+00 -0.42543173754E+03  0.42543173754E+03  0.00000000000E+00 0. -1.
         25    2    1    2    0    0 -0.15041758946E+03 -0.36050887030E+02  0.31369467141E+03  0.37142213796E+03  0.12499976007E+03 0.  0.
         24    2    1    2    0    0  0.12437021243E+02 -0.12222541752E+03  0.15785254936E+03  0.20680821469E+03  0.52521216094E+02 0.  0.
         24    2    1    2    0    0  0.73082417948E+02  0.96810094512E+02 -0.32957433205E+03  0.36057436232E+03  0.81739807958E+02 0.  0.
        -11    1    5    5    0    0  0.14505352602E+02 -0.14425949371E+02 -0.41777486611E+02  0.46517433903E+02  0.00000000000E+00 0.  1.
         12    1    5    5    0    0  0.58577065346E+02  0.11123604388E+03 -0.28779684544E+03  0.31405692842E+03  0.00000000000E+00 0. -1.
        -13    1    4    4    0    0  0.27679830377E+02 -0.35827607841E+02  0.63282774969E+02  0.77810668299E+02  0.00000000000E+00 0.  1.
         14    1    4    4    0    0 -0.15242809134E+02 -0.86397809675E+02  0.94569774387E+02  0.12899754639E+03  0.00000000000E+00 0. -1.
          5    1    3    3  502    0 -0.13199584600E+03 -0.49028547567E+02  0.31817483847E+03  0.34797129145E+03  0.47000000000E+01 0. -1.
         -5    1    3    3    0  502 -0.18421743458E+02  0.12977660537E+02 -0.44801670564E+01  0.23450846507E+02  0.47000000000E+01 0. -1.
          1    1    1    2  503    0  0.12301488806E+02 -0.33407681062E+01 -0.22949587577E+02  0.26252065220E+02  0.00000000000E+00 0. -1.
         -2    1    1    2    0  501  0.52596661465E+02  0.64806978140E+02  0.71874017061E+03  0.72357016665E+03  0.00000000000E+00 0.  1.
<mgrwt>
<rscale>  0 0.32623998E+02</rscale>
<asrwt>0</asrwt>
<pdfrwt beam="2">  1        2 0.62563491E-01 0.12747053E+02</pdfrwt>
<pdfrwt beam="1">  1       -1 0.18576400E+00 0.83495789E+02</pdfrwt>
<totfact> 0.20769366E+01</totfact>
</mgrwt>
</event>
<event>
13    1  0.3019759E-008  0.9817934E+02  0.7546771E-02  0.1472943E+00
          2   -1    0    0  503    0  0.00000000000E+00  0.00000000000E+00  0.12469142675E+04  0.12469142675E+04  0.00000000000E+00 0. -1.
          2   -1    0    0  502    0 -0.00000000000E+00 -0.00000000000E+00 -0.27059999383E+04  0.27059999383E+04  0.00000000000E+00 0. -1.
         25    2    1    2    0    0 -0.39572670089E+02  0.11443901068E+03 -0.10123605636E+03  0.20133559687E+03  0.12500000031E+03 0.  0.
         24    2    1    2    0    0  0.61757976452E+02 -0.92551628670E+02  0.22133782762E+03  0.26021739207E+03  0.79641732612E+02 0.  0.
         24    2    1    2    0    0 -0.75238886954E+02 -0.11409818894E+03  0.39262712270E+03  0.42234151529E+03  0.74411096136E+02 0.  0.
        -11    1    4    4    0    0  0.65692405600E+01  0.60783900940E+01 -0.26470081198E+01  0.93331880757E+01  0.00000000000E+00 0.  1.
         12    1    4    4    0    0  0.55188735892E+02 -0.98630018764E+02  0.22398483574E+03  0.25088420399E+03  0.00000000000E+00 0. -1.
        -11    1    5    5    0    0 -0.10518387331E+01  0.94097488198E+01  0.45993552595E+02  0.46958030387E+02  0.00000000000E+00 0.  1.
         12    1    5    5    0    0 -0.74187048220E+02 -0.12350793776E+03  0.34663357010E+03  0.37538348490E+03  0.00000000000E+00 0. -1.
          5    1    3    3  501    0 -0.18955428615E+02  0.38715114143E+02  0.26881242791E+02  0.51018227636E+02  0.47000000000E+01 0.  1.
         -5    1    3    3    0  501 -0.20617241474E+02  0.75723896534E+02 -0.12811729915E+03  0.15031736924E+03  0.47000000000E+01 0.  1.
          1    1    1    2  502    0 -0.10788072509E+02  0.17821120021E+02 -0.25159945498E+04  0.25160807915E+04  0.00000000000E+00 0. -1.
          1    1    1    2  503    0  0.63841653099E+02  0.74389686914E+02  0.54417998505E+03  0.55293891011E+03  0.00000000000E+00 0. -1.
<mgrwt>
<rscale>  0 0.45224752E+02</rscale>
<asrwt>0</asrwt>
<pdfrwt beam="1">  1        2 0.18336974E+00 0.98179342E+02</pdfrwt>
<pdfrwt beam="2">  1        2 0.39794117E+00 0.20832062E+02</pdfrwt>
<totfact> 0.17643440E+01</totfact>
</mgrwt>
</event>
<event>
13    1  0.3019759E-008  0.1423046E+03  0.7546771E-02  0.1297636E+00
          2   -1    0    0  503    0  0.00000000000E+00  0.00000000000E+00  0.14542029926E+04  0.14542029926E+04  0.00000000000E+00 0. -1.
          2   -1    0    0  502    0 -0.00000000000E+00 -0.00000000000E+00 -0.98004075910E+03  0.98004075910E+03  0.00000000000E+00 0. -1.
         25    2    1    2    0    0 -0.13821800413E+03 -0.49395734521E+01 -0.34753882258E+03  0.39437908668E+03  0.12499205880E+03 0.  0.
         24    2    1    2    0    0 -0.11381311475E+03 -0.52549050572E+02  0.68380605082E+01  0.14950342392E+03  0.81176886416E+02 0.  0.
         24    2    1    2    0    0  0.13508418753E+03 -0.30488504609E+02  0.94432797972E+03  0.95898717185E+03  0.93401155525E+02 0.  0.
        -11    1    4    4    0    0  0.71280433208E+01 -0.35031521875E+01  0.16833897519E+02  0.18613467772E+02  0.00000000000E+00 0.  1.
         12    1    4    4    0    0 -0.12094115807E+03 -0.49045898384E+02 -0.99958370105E+01  0.13088995615E+03  0.00000000000E+00 0. -1.
        -13    1    5    5    0    0 -0.14397782114E+02 -0.33158376647E+01  0.68035645599E+02  0.69621404621E+02  0.00000000000E+00 0.  1.
         14    1    5    5    0    0  0.14948196964E+03 -0.27172666944E+02  0.87629233412E+03  0.88936576723E+03  0.00000000000E+00 0. -1.
          5    1    3    3  501    0 -0.93489989612E+01  0.39320949420E+02 -0.36061694860E+02  0.54369814061E+02  0.47000000000E+01 0.  1.
         -5    1    3    3    0  501 -0.12886900517E+03 -0.44260522872E+02 -0.31147712772E+03  0.34000927262E+03  0.47000000000E+01 0.  1.
          1    1    1    2  502    0  0.14896564272E+03  0.13839089182E+03 -0.50850931954E+03  0.54765365854E+03  0.00000000000E+00 0. -1.
          1    1    1    2  503    0 -0.32018711370E+02 -0.50413763189E+02  0.37904433538E+03  0.38372041069E+03  0.00000000000E+00 0. -1.
<mgrwt>
<rscale>  0 0.92188659E+02</rscale>
<asrwt>0</asrwt>
<pdfrwt beam="1">  1        2 0.21385338E+00 0.59722235E+02</pdfrwt>
<pdfrwt beam="2">  1        2 0.14412364E+00 0.14230460E+03</pdfrwt>
<totfact> 0.81125408E+01</totfact>
</mgrwt>
</event>
<event>
13    1  0.3019759E-008  0.2092769E+03  0.7546771E-02  0.1228676E+00
         -1   -1    0    0    0  501 -0.00000000000E+00  0.00000000000E+00  0.11723187972E+04  0.11723187972E+04  0.00000000000E+00 0.  1.
          2   -1    0    0  503    0  0.00000000000E+00 -0.00000000000E+00 -0.16113497846E+04  0.16113497846E+04  0.00000000000E+00 0. -1.
         25    2    1    2    0    0  0.42113543582E+03  0.22588685882E+03  0.15298000827E+03  0.51710620488E+03  0.12496405844E+03 0.  0.
         24    2    1    2    0    0 -0.62163208299E+03  0.68373049725E+02 -0.88353074281E+02  0.63434575127E+03  0.59050367461E+02 0.  0.
         24    2    1    2    0    0  0.38169119981E+03 -0.25865258940E+03 -0.23283346824E+03  0.52442131154E+03  0.90647416133E+02 0.  0.
        -13    1    4    4    0    0 -0.45633410714E+03  0.26011327633E+02 -0.74965120436E+02  0.46318157971E+03  0.00000000000E+00 0.  1.
         14    1    4    4    0    0 -0.16529797585E+03  0.42361722092E+02 -0.13387953845E+02  0.17116417156E+03  0.00000000000E+00 0. -1.
        -13    1    5    5    0    0  0.96446084196E+02 -0.93903786670E+02 -0.10641354905E+03  0.17159140925E+03  0.00000000000E+00 0.  1.
         14    1    5    5    0    0  0.28524511561E+03 -0.16474880273E+03 -0.12641991919E+03  0.35282990229E+03  0.00000000000E+00 0. -1.
          5    1    3    3  502    0  0.20175999951E+03  0.39692186742E+02  0.75265411384E+02  0.21901949512E+03  0.47000000000E+01 0.  1.
         -5    1    3    3    0  502  0.21937543631E+03  0.18619467208E+03  0.77714596887E+02  0.29808670976E+03  0.47000000000E+01 0.  1.
          1    1    1    2  503    0  0.25335399525E+02 -0.75608186901E+02 -0.66032143499E+03  0.66511869459E+03  0.00000000000E+00 0. -1.
         -2    1    1    2    0  501 -0.20652995216E+03  0.40000867751E+02  0.38949698190E+03  0.44267661952E+03  0.00000000000E+00 0.  1.
<mgrwt>
<rscale>  0 0.12918109E+03</rscale>
<asrwt>0</asrwt>
<pdfrwt beam="2">  1        2 0.23696320E+00 0.79740080E+02</pdfrwt>
<pdfrwt beam="1">  1       -1 0.17239982E+00 0.20927687E+03</pdfrwt>
<totfact> 0.43865316E+00</totfact>
</mgrwt>
</event>
<event>
13    1  0.3019759E-008  0.5530430E+02  0.7546771E-02  0.1423367E+00
          2   -1    0    0  502    0  0.00000000000E+00  0.00000000000E+00  0.28128122075E+04  0.28128122075E+04  0.00000000000E+00 0. -1.
          2   -1    0    0  503    0 -0.00000000000E+00 -0.00000000000E+00 -0.17899942027E+04  0.17899942027E+04  0.00000000000E+00 0. -1.
         25    2    1    2    0    0  0.20173117793E+03  0.13880763975E+02 -0.34161839629E+03  0.41617097872E+03  0.12492802363E+03 0.  0.
         24    2    1    2    0    0 -0.13000043870E+03  0.25535707749E+02  0.34446082088E+03  0.37765238722E+03  0.80099201088E+02 0.  0.
         24    2    1    2    0    0 -0.31669574387E+02  0.50052911785E+02  0.11924570071E+04  0.11966300760E+04  0.80383886270E+02 0.  0.
        -11    1    4    4    0    0 -0.11158194599E+03  0.45771644162E+02  0.31570853094E+03  0.33796072344E+03  0.00000000000E+00 0.  1.
         12    1    4    4    0    0 -0.18418492716E+02 -0.20235936413E+02  0.28752289937E+02  0.39691663773E+02  0.00000000000E+00 0. -1.
        -13    1    5    5    0    0 -0.72849071848E+01  0.62534771589E+02  0.10263735962E+04  0.10283026920E+04  0.00000000000E+00 0.  1.
         14    1    5    5    0    0 -0.24384667202E+02 -0.12481859804E+02  0.16608341095E+03  0.16832738402E+03  0.00000000000E+00 0. -1.
          5    1    3    3  501    0 -0.10888676560E+02 -0.16443225465E+02 -0.50124900867E+02  0.54069757054E+02  0.47000000000E+01 0. -1.
         -5    1    3    3    0  501  0.21261985449E+03  0.30323989441E+02 -0.29149349543E+03  0.36210122167E+03  0.47000000000E+01 0. -1.
          1    1    1    2  502    0 -0.40950730523E+02 -0.34183794111E+02  0.12188032369E+04  0.12199700096E+04  0.00000000000E+00 0. -1.
          1    1    1    2  503    0  0.88956568520E+00 -0.55285589398E+02 -0.13912846638E+04  0.13923829586E+04  0.00000000000E+00 0. -1.
<mgrwt>
<rscale>  0 0.54314886E+02</rscale>
<asrwt>0</asrwt>
<pdfrwt beam="1">  1        2 0.41364886E+00 0.53343173E+02</pdfrwt>
<pdfrwt beam="2">  1        2 0.26323444E+00 0.55304300E+02</pdfrwt>
<totfact> 0.76065289E+00</totfact>
</mgrwt>
</event>
<event>
13    1  0.3019759E-008  0.9375598E+02  0.7546771E-02  0.1383954E+00
          2   -1    0    0  502    0  0.00000000000E+00  0.00000000000E+00  0.10714955051E+04  0.10714955051E+04  0.00000000000E+00 0. -1.
          2   -1    0    0  503    0 -0.00000000000E+00 -0.00000000000E+00 -0.19466079539E+04  0.19466079539E+04  0.00000000000E+00 0. -1.
         25    2    1    2    0    0 -0.18221728095E+02 -0.12296664902E+03 -0.69608767479E+03  0.71806283810E+03  0.12499344110E+03 0.  0.
         24    2    1    2    0    0 -0.63855457733E+02 -0.19288650003E+03 -0.22975773261E+03  0.31810560273E+03  0.84379129044E+02 0.  0.
         24    2    1    2    0    0  0.17815154523E+03  0.24366589088E+03  0.53702614534E+02  0.31718861593E+03  0.81324091246E+02 0.  0.
        -11    1    5    5    0    0  0.53390654649E+02  0.13983061269E+03  0.35701337383E+02  0.15387575423E+03  0.00000000000E+00 0.  1.
         12    1    5    5    0    0  0.12476089058E+03  0.10383527820E+03  0.18001277151E+02  0.16331286170E+03  0.00000000000E+00 0. -1.
        -11    1    4    4    0    0 -0.69986583565E+02 -0.18725721632E+03 -0.23480012653E+03  0.30837393917E+03  0.00000000000E+00 0.  1.
         12    1    4    4    0    0  0.61311258314E+01 -0.56292837099E+01  0.50423939238E+01  0.97316635541E+01  0.00000000000E+00 0. -1.
          5    1    3    3  501    0 -0.13600880382E+02 -0.64961269369E+02 -0.61252192268E+03  0.61612510599E+03  0.47000000000E+01 0. -1.
         -5    1    3    3    0  501 -0.46208477131E+01 -0.58005379651E+02 -0.83565752107E+02  0.10193773211E+03  0.47000000000E+01 0. -1.
          1    1    1    2  502    0 -0.74555778021E+01  0.42268547575E+02  0.82770770166E+03  0.82881979654E+03  0.00000000000E+00 0. -1.
          1    1    1    2  503    0 -0.88618781599E+02  0.29918710589E+02 -0.83067735765E+03  0.83592660575E+03  0.00000000000E+00 0. -1.
<mgrwt>
<rscale>  0 0.63435827E+02</rscale>
<asrwt>0</asrwt>
<pdfrwt beam="1">  1        2 0.15757287E+00 0.42921041E+02</pdfrwt>
<pdfrwt beam="2">  1        2 0.28626587E+00 0.93755977E+02</pdfrwt>
<totfact> 0.42667804E+01</totfact>
</mgrwt>
</event>
<event>
13    1  0.3019759E-008  0.6019956E+02  0.7546771E-02  0.1528296E+00
          2   -1    0    0  502    0  0.00000000000E+00  0.00000000000E+00  0.24102801267E+04  0.24102801267E+04  0.00000000000E+00 0. -1.
          2   -1    0    0  503    0 -0.00000000000E+00 -0.00000000000E+00 -0.59440948501E+03  0.59440948501E+03  0.00000000000E+00 0. -1.
         25    2    1    2    0    0 -0.29564313688E+00  0.19793468956E+03 -0.33501208740E+02  0.23648337897E+03  0.12499531515E+03 0.  0.
         24    2    1    2    0    0 -0.19414199956E+03 -0.27899903238E+03 -0.16506121748E+03  0.38627917935E+03  0.80217347387E+02 0.  0.
         24    2    1    2    0    0  0.17091076168E+03  0.12014172848E+03  0.12779908384E+04  0.12994149538E+04  0.10758306501E+03 0.  0.
        -11    1    5    5    0    0  0.17000264201E+03  0.89214701728E+02  0.90486838571E+03  0.92501186844E+03  0.00000000000E+00 0.  1.
         12    1    5    5    0    0  0.90811966925E+00  0.30927026756E+02  0.37312245265E+03  0.37440308537E+03  0.00000000000E+00 0. -1.
        -13    1    4    4    0    0 -0.17665556523E+03 -0.19367723552E+03 -0.12367000183E+03  0.28984880478E+03  0.00000000000E+00 0.  1.
         14    1    4    4    0    0 -0.17486434333E+02 -0.85321796865E+02 -0.41391215657E+02  0.96430374569E+02  0.00000000000E+00 0. -1.
          5    1    3    3  501    0  0.55360393160E+02  0.10545075648E+03  0.10867465294E+02  0.11968636921E+03  0.47000000000E+01 0. -1.
         -5    1    3    3    0  501 -0.55656036297E+02  0.92483933082E+02 -0.44368674034E+02  0.11679700977E+03  0.47000000000E+01 0. -1.
          1    1    1    2  502    0 -0.23207605390E+02 -0.10358706433E+01  0.90407699085E+03  0.90437540400E+03  0.00000000000E+00 0. -1.
          1    1    1    2  503    0  0.46734486411E+02 -0.38041515020E+02 -0.16763476134E+03  0.17813669553E+03  0.00000000000E+00 0. -1.
<mgrwt>
<rscale>  0 0.37396239E+02</rscale>
<asrwt>0</asrwt>
<pdfrwt beam="1">  1        2 0.35445296E+00 0.23230712E+02</pdfrwt>
<pdfrwt beam="2">  1        2 0.87413160E-01 0.60199563E+02</pdfrwt>
<totfact> 0.61028711E+01</totfact>
</mgrwt>
</event>
<event>
13    1  0.3019759E-008  0.1158235E+03  0.7546771E-02  0.1331366E+00
          2   -1    0    0  502    0  0.00000000000E+00  0.00000000000E+00  0.43534682948E+04  0.43534682948E+04  0.00000000000E+00 0. -1.
          2   -1    0    0  503    0 -0.00000000000E+00 -0.00000000000E+00 -0.10986253520E+04  0.10986253520E+04  0.00000000000E+00 0. -1.
         25    2    1    2    0    0  0.14884687714E+02  0.60281890957E+02 -0.30528351021E+03  0.33568490097E+03  0.12502348111E+03 0.  0.
         24    2    1    2    0    0 -0.10482401795E+03 -0.78821723789E+02  0.45306481191E+03  0.47885339831E+03  0.82655395499E+02 0.  0.
         24    2    1    2    0    0  0.14243073295E+02 -0.28299939501E+02  0.29504851587E+03  0.30696533441E+03  0.78551499669E+02 0.  0.
        -11    1    4    4    0    0 -0.15894928763E+02  0.14569159728E+02  0.32834950123E+02  0.39281587610E+02  0.00000000000E+00 0.  1.
         12    1    4    4    0    0 -0.88929089182E+02 -0.93390883517E+02  0.42022986179E+03  0.43957181070E+03  0.00000000000E+00 0. -1.
        -11    1    5    5    0    0  0.54425255228E+01 -0.49733130036E+02  0.11472277983E+03  0.12515718725E+03  0.00000000000E+00 0.  1.
         12    1    5    5    0    0  0.88005477723E+01  0.21433190534E+02  0.18032573603E+03  0.18180814716E+03  0.00000000000E+00 0. -1.
          5    1    3    3  501    0 -0.26035928656E+02 -0.25221466178E+02 -0.14383602203E+03  0.14840782719E+03  0.47000000000E+01 0. -1.
         -5    1    3    3    0  501  0.40920616370E+02  0.85503357135E+02 -0.16144748817E+03  0.18727707378E+03  0.47000000000E+01 0. -1.
          1    1    1    2  502    0 -0.39901105402E+02  0.36597387065E+02  0.35666606019E+04  0.35670715322E+04  0.00000000000E+00 0. -1.
          1    1    1    2  503    0  0.11559736234E+03  0.10242385268E+02 -0.75464747662E+03  0.76351848085E+03  0.00000000000E+00 0. -1.
<mgrwt>
<rscale>  0 0.79189867E+02</rscale>
<asrwt>0</asrwt>
<pdfrwt beam="1">  1        2 0.64021592E+00 0.54143023E+02</pdfrwt>
<pdfrwt beam="2">  1        2 0.16156255E+00 0.11582351E+03</pdfrwt>
<totfact> 0.19162860E+00</totfact>
</mgrwt>
</event>
<event>
13    1  0.3019759E-008  0.1468894E+03  0.7546771E-02  0.1260998E+00
          2   -1    0    0  503    0  0.00000000000E+00  0.00000000000E+00  0.29960259618E+04  0.29960259618E+04  0.00000000000E+00 0. -1.
          2   -1    0    0  502    0 -0.00000000000E+00 -0.00000000000E+00 -0.61238589156E+03  0.61238589156E+03  0.00000000000E+00 0. -1.
         25    2    1    2    0    0  0.49540176751E+02  0.50858658609E+02 -0.94193336736E+02  0.17187161754E+03  0.12500654368E+03 0.  0.
         24    2    1    2    0    0 -0.58250046255E+02  0.95126533493E+02  0.36101468571E+02  0.14154952648E+03  0.79314734766E+02 0.  0.
         24    2    1    2    0    0  0.16736884964E+01 -0.30701516541E+02  0.11468607593E+03  0.14322700371E+03  0.80098028865E+02 0.  0.
        -11    1    4    4    0    0 -0.72886281170E+02  0.54739727740E+02  0.11046964689E+02  0.91819841019E+02  0.00000000000E+00 0.  1.
         12    1    4    4    0    0  0.14636234916E+02  0.40386805752E+02  0.25054503882E+02  0.49729685462E+02  0.00000000000E+00 0. -1.
        -13    1    5    5    0    0 -0.60917619292E+01  0.26815237122E+02  0.31790488147E+02  0.42033339647E+02  0.00000000000E+00 0.  1.
         14    1    5    5    0    0  0.77654504256E+01 -0.57516753663E+02  0.82895587785E+02  0.10119366406E+03  0.00000000000E+00 0. -1.
          5    1    3    3  501    0 -0.53753770372E+01  0.48277931825E+02 -0.10487166746E+03  0.11567112870E+03  0.47000000000E+01 0. -1.
         -5    1    3    3    0  501  0.54915553788E+02  0.25807267838E+01  0.10678330724E+02  0.56200488838E+02  0.47000000000E+01 0. -1.
          1    1    1    2  502    0 -0.81963590064E+02  0.32846832086E+01 -0.40625062011E+03  0.41444949702E+03  0.00000000000E+00 0. -1.
          1    1    1    2  503    0  0.88999771071E+02 -0.11856835877E+03  0.27332964826E+04  0.27373142087E+04  0.00000000000E+00 0. -1.
<mgrwt>
<rscale>  0 0.10976908E+03</rscale>
<asrwt>0</asrwt>
<pdfrwt beam="1">  1        2 0.44059204E+00 0.14688944E+03</pdfrwt>
<pdfrwt beam="2">  1        2 0.90056751E-01 0.82029380E+02</pdfrwt>
<totfact> 0.22763741E+01</totfact>
</mgrwt>
</event>
<event>
13    1  0.3019759E-008  0.5162166E+02  0.7546771E-02  0.1469179E+00
          2   -1    0    0  503    0  0.00000000000E+00  0.00000000000E+00  0.16474812811E+03  0.16474812811E+03  0.00000000000E+00 0. -1.
          2   -1    0    0  502    0 -0.00000000000E+00 -0.00000000000E+00 -0.39171556763E+04  0.39171556763E+04  0.00000000000E+00 0. -1.
         25    2    1    2    0    0  0.11110963534E+02 -0.60928264633E+01 -0.30506468246E+03  0.32992494083E+03  0.12500172022E+03 0.  0.
         24    2    1    2    0    0  0.22551348361E+02 -0.36165890365E+02 -0.72235629347E+02  0.11612557469E+03  0.80315801754E+02 0.  0.
         24    2    1    2    0    0 -0.75912046235E+01  0.86438349657E+02 -0.18934767879E+03  0.22343973758E+03  0.80892262855E+02 0.  0.
        -11    1    4    4    0    0 -0.18146966924E+02  0.69349710927E+01 -0.48544538553E+02  0.52287459835E+02  0.00000000000E+00 0.  1.
         12    1    4    4    0    0  0.40698315286E+02 -0.43100861458E+02 -0.23691090794E+02  0.63838114857E+02  0.00000000000E+00 0. -1.
        -13    1    5    5    0    0 -0.30603464946E+02  0.15305643371E+02 -0.23471938846E+02  0.41494176686E+02  0.00000000000E+00 0.  1.
         14    1    5    5    0    0  0.23012260323E+02  0.71132706286E+02 -0.16587573994E+03  0.18194556090E+03  0.00000000000E+00 0. -1.
          5    1    3    3  501    0 -0.34526797131E+02  0.10680785255E+02 -0.21776014856E+02  0.42455432123E+02  0.47000000000E+01 0.  1.
         -5    1    3    3    0  501  0.45637760665E+02 -0.16773611718E+02 -0.28328866760E+03  0.28746950871E+03  0.47000000000E+01 0.  1.
          1    1    1    2  502    0 -0.40314630479E+02  0.55994204110E+01 -0.32930402912E+04  0.32932918156E+04  0.00000000000E+00 0. -1.
          1    1    1    2  503    0  0.14243523207E+02 -0.49779053240E+02  0.10728073367E+03  0.11912173568E+03  0.00000000000E+00 0. -1.
<mgrwt>
<rscale>  0 0.45837601E+02</rscale>
<asrwt>0</asrwt>
<pdfrwt beam="1">  1        2 0.24227664E-01 0.51621655E+02</pdfrwt>
<pdfrwt beam="2">  1        2 0.57605235E+00 0.40701633E+02</pdfrwt>
<totfact> 0.33383793E+01</totfact>
</mgrwt>
</event>
<event>
13    1  0.3019759E-008  0.8454041E+02  0.7546771E-02  0.1500063E+00
          2   -1    0    0  503    0  0.00000000000E+00  0.00000000000E+00  0.99256562582E+03  0.99256562582E+03  0.00000000000E+00 0. -1.
          2   -1    0    0  502    0 -0.00000000000E+00 -0.00000000000E+00 -0.23733489839E+04  0.23733489839E+04  0.00000000000E+00 0. -1.
         25    2    1    2    0    0  0.67030250167E+01  0.38006044974E+02 -0.47557168079E+03  0.49323743896E+03  0.12500143051E+03 0.  0.
         24    2    1    2    0    0  0.34959353471E+02  0.38697748090E+02 -0.12257102144E+03  0.15478251942E+03  0.78830837353E+02 0.  0.
         24    2    1    2    0    0  0.39035099349E+02  0.53847255546E+02  0.61618951995E+02  0.12184501519E+03  0.81400531764E+02 0.  0.
        -11    1    4    4    0    0  0.51862517091E+00 -0.23314022524E+02 -0.35511707089E+02  0.42484043578E+02  0.00000000000E+00 0.  1.
         12    1    4    4    0    0  0.34440728300E+02  0.62011770614E+02 -0.87059314351E+02  0.11229847584E+03  0.00000000000E+00 0. -1.
        -11    1    5    5    0    0  0.58255957196E+02  0.49140118290E+02  0.24978883048E+02  0.80202570861E+02  0.00000000000E+00 0.  1.
         12    1    5    5    0    0 -0.19220857847E+02  0.47071372560E+01  0.36640068947E+02  0.41642444332E+02  0.00000000000E+00 0. -1.
          5    1    3    3  501    0  0.44480743786E+02 -0.89245896767E+00 -0.64020122082E+02  0.78102490883E+02  0.47000000000E+01 0. -1.
         -5    1    3    3    0  501 -0.37777718770E+02  0.38898503942E+02 -0.41155155871E+03  0.41513494808E+03  0.47000000000E+01 0. -1.
          1    1    1    2  502    0 -0.10874336359E+02 -0.16796621712E+02 -0.17150110253E+04  0.17151277488E+04  0.00000000000E+00 0. -1.
          1    1    1    2  503    0 -0.69823141477E+02 -0.11375442690E+03  0.87075141744E+03  0.88092188739E+03  0.00000000000E+00 0. -1.
<mgrwt>
<rscale>  0 0.41129141E+02</rscale>
<asrwt>0</asrwt>
<pdfrwt beam="1">  1        2 0.14596554E+00 0.84540410E+02</pdfrwt>
<pdfrwt beam="2">  1        2 0.34902190E+00 0.20009440E+02</pdfrwt>
<totfact> 0.35037236E+01</totfact>
</mgrwt>
</event>
<event>
13    1  0.3019759E-008  0.1103722E+03  0.7546771E-02  0.1367456E+00
          2   -1    0    0  503    0  0.00000000000E+00  0.00000000000E+00  0.14604912444E+04  0.14604912444E+04  0.00000000000E+00 0. -1.
          2   -1    0    0  502    0 -0.00000000000E+00 -0.00000000000E+00 -0.68602096398E+03  0.68602096398E+03  0.00000000000E+00 0. -1.
         25    2    1    2    0    0  0.13893126330E+01 -0.96682107680E+02 -0.85866232410E+02  0.17985112314E+03  0.12499622590E+03 0.  0.
         24    2    1    2    0    0 -0.54835473946E+02 -0.65600750577E+02  0.51212317484E+02  0.12671899760E+03  0.78259920856E+02 0.  0.
         24    2    1    2    0    0  0.10895260538E+03  0.12020932436E+03  0.50233533398E+03  0.53379364997E+03  0.79208087335E+02 0.  0.
        -11    1    5    5    0    0  0.95923491860E+01  0.67205988647E+02  0.19439016343E+03  0.20590336012E+03  0.00000000000E+00 0.  1.
         12    1    5    5    0    0  0.99360256195E+02  0.53003335718E+02  0.30794517055E+03  0.32789028985E+03  0.00000000000E+00 0. -1.
        -11    1    4    4    0    0 -0.38747370256E+02 -0.71866785228E+02  0.10276213903E+02  0.82290911363E+02  0.00000000000E+00 0.  1.
         12    1    4    4    0    0 -0.16088103690E+02  0.62660346518E+01  0.40936103580E+02  0.44428086240E+02  0.00000000000E+00 0. -1.
          5    1    3    3  501    0  0.40722429917E+02 -0.36404695286E+02  0.14073033045E+02  0.56601752591E+02  0.47000000000E+01 0. -1.
         -5    1    3    3    0  501 -0.39333117284E+02 -0.60277412394E+02 -0.99939265456E+02  0.12324937055E+03  0.47000000000E+01 0. -1.
          1    1    1    2  502    0  0.36022286198E+02 -0.21098328419E+02 -0.49496286733E+03  0.49672022769E+03  0.00000000000E+00 0. -1.
          1    1    1    2  503    0 -0.91528730266E+02  0.63171862311E+02  0.80175172867E+03  0.80942820996E+03  0.00000000000E+00 0. -1.
<mgrwt>
<rscale>  0 0.67879441E+02</rscale>
<asrwt>0</asrwt>
<pdfrwt beam="1">  1        2 0.21477812E+00 0.11037219E+03</pdfrwt>
<pdfrwt beam="2">  1        2 0.10088544E+00 0.41746192E+02</pdfrwt>
<totfact> 0.12361465E+02</totfact>
</mgrwt>
</event>
<event>
13    1  0.3019759E-008  0.7968262E+02  0.7546771E-02  0.1437571E+00
          2   -1    0    0  503    0  0.00000000000E+00  0.00000000000E+00  0.21086595267E+04  0.21086595267E+04  0.00000000000E+00 0. -1.
          2   -1    0    0  502    0 -0.00000000000E+00 -0.00000000000E+00 -0.26050710852E+04  0.26050710852E+04  0.00000000000E+00 0. -1.
         25    2    1    2    0    0  0.16668639072E+03 -0.76078532308E+02 -0.16079689711E+04  0.16231943477E+04  0.12499352941E+03 0.  0.
         24    2    1    2    0    0 -0.22804393443E+02 -0.20258822031E+02  0.23921589352E+02  0.76493298198E+02  0.65943324163E+02 0.  0.
         24    2    1    2    0    0 -0.16764459279E+03 -0.19869780398E+02  0.71070072206E+03  0.73462465007E+03  0.77963725491E+02 0.  0.
        -11    1    4    4    0    0 -0.15358494030E+02 -0.40879389405E+02 -0.50329987486E+00  0.43672200857E+02  0.00000000000E+00 0.  1.
         12    1    4    4    0    0 -0.74458994132E+01  0.20620567374E+02  0.24424889227E+02  0.32821097340E+02  0.00000000000E+00 0. -1.
        -11    1    5    5    0    0 -0.92454828911E+02 -0.48479880589E+02  0.36113542526E+03  0.37592152052E+03  0.00000000000E+00 0.  1.
         12    1    5    5    0    0 -0.75189763877E+02  0.28610100191E+02  0.34956529680E+03  0.35870312956E+03  0.00000000000E+00 0. -1.
          5    1    3    3  501    0  0.90355388692E+02 -0.10627549866E+03 -0.10178059477E+04  0.10273313074E+04  0.47000000000E+01 0. -1.
         -5    1    3    3    0  501  0.76331002031E+02  0.30196966354E+02 -0.59016302339E+03  0.59586304032E+03  0.47000000000E+01 0. -1.
          1    1    1    2  502    0 -0.24403667106E+02  0.22578037423E+02 -0.94886325056E+03  0.94944550923E+03  0.00000000000E+00 0. -1.
          1    1    1    2  503    0  0.48166262615E+02  0.93629097314E+02  0.13257983518E+04  0.13299728066E+04  0.00000000000E+00 0. -1.
<mgrwt>
<rscale>  0 0.51469802E+02</rscale>
<asrwt>0</asrwt>
<pdfrwt beam="1">  1        2 0.31009699E+00 0.79682617E+02</pdfrwt>
<pdfrwt beam="2">  1        2 0.38309869E+00 0.33246154E+02</pdfrwt>
<totfact> 0.70464616E+00</totfact>
</mgrwt>
</event>
<event>
13    1  0.3019759E-008  0.2054966E+03  0.7546771E-02  0.1329787E+00
          2   -1    0    0  503    0  0.00000000000E+00  0.00000000000E+00  0.27925668221E+04  0.27925668221E+04  0.00000000000E+00 0. -1.
          2   -1    0    0  502    0 -0.00000000000E+00 -0.00000000000E+00 -0.20863161079E+04  0.20863161079E+04  0.00000000000E+00 0. -1.
         25    2    1    2    0    0  0.32066232382E+02 -0.52453173265E+02 -0.84860920145E+03  0.85996601952E+03  0.12499759718E+03 0.  0.
         24    2    1    2    0    0 -0.81968999884E+02  0.10939193797E+03 -0.80164202863E+03  0.81734329449E+03  0.82064644919E+02 0.  0.
         24    2    1    2    0    0 -0.11490125536E+03  0.17558095740E+02 -0.18129564098E+03  0.23185247271E+03  0.85888732985E+02 0.  0.
        -13    1    5    5    0    0 -0.86049647944E+01  0.34954990066E+02 -0.56602577687E+02  0.67080165104E+02  0.00000000000E+00 0.  1.
         14    1    5    5    0    0 -0.10629629056E+03 -0.17396894326E+02 -0.12469306329E+03  0.16477230760E+03  0.00000000000E+00 0. -1.
        -13    1    4    4    0    0 -0.67543004410E+02  0.22557975744E+02 -0.37907437038E+03  0.38570493644E+03  0.00000000000E+00 0.  1.
         14    1    4    4    0    0 -0.14425995474E+02  0.86833962229E+02 -0.42256765824E+03  0.43163835804E+03  0.00000000000E+00 0. -1.
          5    1    3    3  501    0 -0.34052895508E+02  0.20336583840E+02 -0.20275601822E+03  0.20665253268E+03  0.47000000000E+01 0.  1.
         -5    1    3    3    0  501  0.66119127890E+02 -0.72789757105E+02 -0.64585318322E+03  0.65331348684E+03  0.47000000000E+01 0.  1.
          1    1    1    2  502    0 -0.16394255405E+02  0.26243184308E+02 -0.21092932559E+03  0.21318690562E+03  0.00000000000E+00 0. -1.
          1    1    1    2  503    0  0.18119827826E+03 -0.10074004476E+03  0.27487269109E+04  0.27565342376E+04  0.00000000000E+00 0. -1.
<mgrwt>
<rscale>  0 0.79741478E+02</rscale>
<asrwt>0</asrwt>
<pdfrwt beam="1">  1        2 0.41067159E+00 0.20549655E+03</pdfrwt>
<pdfrwt beam="2">  1        2 0.30681119E+00 0.30943114E+02</pdfrwt>
<totfact> 0.50036838E+00</totfact>
</mgrwt>
</event>
<event>
13    1  0.3019759E-008  0.1734754E+03  0.7546771E-02  0.1330103E+00
          2   -1    0    0  502    0  0.00000000000E+00  0.00000000000E+00  0.35489866835E+04  0.35489866835E+04  0.00000000000E+00 0. -1.
          2   -1    0    0  503    0 -0.00000000000E+00 -0.00000000000E+00 -0.35127740275E+04  0.35127740275E+04  0.00000000000E+00 0. -1.
         25    2    1    2    0    0 -0.19345326668E+03  0.30871768349E+02 -0.18513908974E+04  0.18659176698E+04  0.12499305207E+03 0.  0.
         24    2    1    2    0    0  0.31835692254E+01 -0.21501985553E+02  0.12326361281E+03  0.14855518606E+03  0.80014089789E+02 0.  0.
         24    2    1    2    0    0 -0.50346681650E+01 -0.61330380900E+02  0.33757115971E+03  0.35152629337E+03  0.76352364444E+02 0.  0.
        -11    1    5    5    0    0 -0.34998976120E+02 -0.43265796135E+02  0.13606752390E+03  0.14700757975E+03  0.00000000000E+00 0.  1.
         12    1    5    5    0    0  0.29964307955E+02 -0.18064584764E+02  0.20150363581E+03  0.20451871362E+03  0.00000000000E+00 0. -1.
        -13    1    4    4    0    0 -0.18521294871E+02  0.22731173227E+02  0.24604641837E+02  0.38277055789E+02  0.00000000000E+00 0.  1.
         14    1    4    4    0    0  0.21704864097E+02 -0.44233158780E+02  0.98658970978E+02  0.11027813027E+03  0.00000000000E+00 0. -1.
          5    1    3    3  501    0 -0.14310314276E+03  0.20469370923E+02 -0.16963898580E+04  0.17025446087E+04  0.47000000000E+01 0. -1.
         -5    1    3    3    0  501 -0.50350123920E+02  0.10402397427E+02 -0.15500103944E+03  0.16337306105E+03  0.47000000000E+01 0. -1.
          1    1    1    2  502    0  0.36330693600E+02 -0.40259361340E+01  0.30568106754E+04  0.30570292169E+04  0.00000000000E+00 0. -1.
          1    1    1    2  503    0  0.15897367202E+03  0.55986534237E+02 -0.16300418945E+04  0.16387323449E+04  0.00000000000E+00 0. -1.
<mgrwt>
<rscale>  0 0.79630763E+02</rscale>
<asrwt>0</asrwt>
<pdfrwt beam="1">  1        2 0.52190981E+00 0.36553077E+02</pdfrwt>
<pdfrwt beam="2">  1        2 0.51658441E+00 0.17347536E+03</pdfrwt>
<totfact> 0.36614067E-01</totfact>
</mgrwt>
</event>
<event>
13    1  0.3019759E-008  0.8113133E+02  0.7546771E-02  0.1356177E+00
          2   -1    0    0  503    0  0.00000000000E+00  0.00000000000E+00  0.29843428121E+03  0.29843428121E+03  0.00000000000E+00 0. -1.
          2   -1    0    0  502    0 -0.00000000000E+00 -0.00000000000E+00 -0.26404814328E+04  0.26404814328E+04  0.00000000000E+00 0. -1.
         25    2    1    2    0    0  0.62328909826E+02  0.10327827114E+03 -0.18924291215E+04  0.19003864028E+04  0.12501682106E+03 0.  0.
         24    2    1    2    0    0 -0.17433828461E+03 -0.17782749528E+03 -0.14617498558E+03  0.29971985823E+03  0.80302001524E+02 0.  0.
         24    2    1    2    0    0  0.70128487756E+02 -0.19485278392E+02  0.78961918965E+02  0.13425820282E+03  0.80576668508E+02 0.  0.
        -11    1    5    5    0    0  0.12960892843E+02  0.99455337703E+01 -0.13803542418E+02  0.21387757446E+02  0.00000000000E+00 0.  1.
         12    1    5    5    0    0  0.57167594912E+02 -0.29430812162E+02  0.92765461383E+02  0.11287044537E+03  0.00000000000E+00 0. -1.
        -13    1    4    4    0    0 -0.24997334927E+01 -0.37132871560E+02 -0.36100342686E+02  0.51849142325E+02  0.00000000000E+00 0.  1.
         14    1    4    4    0    0 -0.17183855112E+03 -0.14069462372E+03 -0.11007464289E+03  0.24787071590E+03  0.00000000000E+00 0. -1.
          5    1    3    3  501    0  0.25095049801E+02  0.70628289395E+02 -0.39179166451E+03  0.39892469862E+03  0.47000000000E+01 0.  1.
         -5    1    3    3    0  501  0.37233860025E+02  0.32649981745E+02 -0.15006374570E+04  0.15014617042E+04  0.47000000000E+01 0.  1.
          1    1    1    2  502    0 -0.18686064252E+02  0.78928668081E+02 -0.48103619122E+03  0.48782652747E+03  0.00000000000E+00 0. -1.
          1    1    1    2  503    0  0.60566951282E+02  0.15105834449E+02  0.98631227721E+02  0.11672472276E+03  0.00000000000E+00 0. -1.
<mgrwt>
<rscale>  0 0.71164619E+02</rscale>
<asrwt>0</asrwt>
<pdfrwt beam="1">  1        2 0.43887392E-01 0.62422286E+02</pdfrwt>
<pdfrwt beam="2">  1        2 0.38830612E+00 0.81131329E+02</pdfrwt>
<totfact> 0.80998299E+01</totfact>
</mgrwt>
</event>
<event>
13    1  0.3019759E-008  0.1944454E+03  0.7546771E-02  0.1311242E+00
         -1   -1    0    0    0  501  0.00000000000E+00  0.00000000000E+00  0.39612461016E+03  0.39612461016E+03  0.00000000000E+00 0.  1.
         -1   -1    0    0    0  502 -0.00000000000E+00 -0.00000000000E+00 -0.84483136446E+03  0.84483136446E+03  0.00000000000E+00 0.  1.
         25    2    1    2    0    0  0.17161922746E+03 -0.60976665505E+02 -0.12701883228E+03  0.25481897501E+03  0.12501045276E+03 0.  0.
         24    2    1    2    0    0 -0.56550269679E+02  0.13271771257E+03 -0.47798885241E+02  0.17198949130E+03  0.80521596204E+02 0.  0.
         24    2    1    2    0    0  0.10021353975E+03  0.57837056485E+02  0.13096008616E+03  0.19078673442E+03  0.76558181871E+02 0.  0.
        -11    1    5    5    0    0  0.10307486296E+03  0.71066484869E+02  0.11764185638E+03  0.17179778526E+03  0.00000000000E+00 0.  1.
         12    1    5    5    0    0 -0.28613232122E+01 -0.13229428383E+02  0.13318229780E+02  0.18988949164E+02  0.00000000000E+00 0. -1.
        -11    1    4    4    0    0  0.17156211593E+02  0.56459293436E+01 -0.23199919746E+01  0.18209735779E+02  0.00000000000E+00 0.  1.
         12    1    4    4    0    0 -0.73706481273E+02  0.12707178323E+03 -0.45478893267E+02  0.15377975552E+03  0.00000000000E+00 0. -1.
          5    1    3    3  503    0  0.21630862228E+02 -0.45336305832E+02  0.95109002944E+01  0.51340257612E+02  0.47000000000E+01 0. -1.
         -5    1    3    3    0  503  0.14998836524E+03 -0.15640359673E+02 -0.13652973258E+03  0.20347871740E+03  0.47000000000E+01 0. -1.
         -2    1    1    2    0  502 -0.17775524028E+03 -0.13857050400E+03 -0.48477432810E+03  0.53460720086E+03  0.00000000000E+00 0.  1.
         -2    1    1    2    0  501 -0.37527257255E+02  0.89924004440E+01  0.79925205173E+02  0.88753573025E+02  0.00000000000E+00 0.  1.
<mgrwt>
<rscale>  0 0.86623161E+02</rscale>
<asrwt>0</asrwt>
<pdfrwt beam="1">  1       -1 0.58253619E-01 0.38589614E+02</pdfrwt>
<pdfrwt beam="2">  1       -1 0.12423991E+00 0.19444538E+03</pdfrwt>
<totfact> 0.16695007E+01</totfact>
</mgrwt>
</event>
<event>
13    1  0.3019759E-008  0.1048455E+03  0.7546771E-02  0.1357510E+00
          2   -1    0    0  503    0  0.00000000000E+00  0.00000000000E+00  0.30985736444E+04  0.30985736444E+04  0.00000000000E+00 0. -1.
          2   -1    0    0  502    0 -0.00000000000E+00 -0.00000000000E+00 -0.17299034462E+04  0.17299034462E+04  0.00000000000E+00 0. -1.
         25    2    1    2    0    0  0.27046007984E+02 -0.75959517772E+02 -0.80983759549E+03  0.82338489278E+03  0.12499766275E+03 0.  0.
         24    2    1    2    0    0 -0.40142863336E+02  0.91097006904E+01  0.11612521747E+03  0.14719802543E+03  0.80546610330E+02 0.  0.
         24    2    1    2    0    0  0.77199748245E+02 -0.18631404186E+02  0.79396580744E+03  0.80207302160E+03  0.81440151284E+02 0.  0.
        -11    1    4    4    0    0 -0.45334426294E+02  0.38903970071E+02  0.84005727846E+02  0.10308099440E+03  0.00000000000E+00 0.  1.
         12    1    4    4    0    0  0.51915629583E+01 -0.29794269381E+02  0.32119489626E+02  0.44117031039E+02  0.00000000000E+00 0. -1.
        -13    1    5    5    0    0  0.89016130366E+02 -0.27783700055E+02  0.74670186145E+03  0.75250214309E+03  0.00000000000E+00 0.  1.
         14    1    5    5    0    0 -0.11816382120E+02  0.91522958693E+01  0.47263945989E+02  0.49570878513E+02  0.00000000000E+00 0. -1.
          5    1    3    3  501    0  0.35048521257E+02 -0.27027804792E+02 -0.77619864675E+02  0.89475328814E+02  0.47000000000E+01 0.  1.
         -5    1    3    3    0  501 -0.80025132725E+01 -0.48931712980E+02 -0.73221773082E+03  0.73390956396E+03  0.47000000000E+01 0.  1.
          1    1    1    2  502    0 -0.43787784246E+02 -0.19077134825E+02 -0.89175089319E+03  0.89302909394E+03  0.00000000000E+00 0. -1.
          1    1    1    2  503    0 -0.20315108648E+02  0.10455835609E+03  0.21601676620E+04  0.21627920569E+04  0.00000000000E+00 0. -1.
<mgrwt>
<rscale>  0 0.70765365E+02</rscale>
<asrwt>0</asrwt>
<pdfrwt beam="1">  1        2 0.45567259E+00 0.10484546E+03</pdfrwt>
<pdfrwt beam="2">  1        2 0.25439757E+00 0.47763031E+02</pdfrwt>
<totfact> 0.52450070E+00</totfact>
</mgrwt>
</event>
<event>
13    1  0.4561370E-008  0.5610514E+02  0.7546771E-02  0.1518642E+00
          2   -1    0    0  503    0  0.00000000000E+00  0.00000000000E+00  0.17067329611E+04  0.17067329611E+04  0.00000000000E+00 0. -1.
          2   -1    0    0  502    0 -0.00000000000E+00 -0.00000000000E+00 -0.36344591378E+04  0.36344591378E+04  0.00000000000E+00 0. -1.
         25    2    1    2    0    0 -0.29096099408E+02 -0.76244615955E+03 -0.84993599430E+03  0.11489938575E+04  0.12499984391E+03 0.  0.
         24    2    1    2    0    0 -0.28658030254E+03  0.12394054224E+04 -0.95703041287E+03  0.15939796869E+04  0.81301661891E+02 0.  0.
         24    2    1    2    0    0  0.32512204476E+03 -0.55784089084E+03  0.32058225779E+03  0.72685791193E+03  0.93051795476E+02 0.  0.
        -11    1    5    5    0    0  0.27593699924E+03 -0.45060756102E+03  0.29838375531E+03  0.60681238207E+03  0.00000000000E+00 0.  1.
         12    1    5    5    0    0  0.49185045517E+02 -0.10723332982E+03  0.22198502479E+02  0.12004552986E+03  0.00000000000E+00 0. -1.
        -13    1    4    4    0    0 -0.11355909477E+03  0.45727174871E+03 -0.40308834536E+03  0.62005913778E+03  0.00000000000E+00 0.  1.
         14    1    4    4    0    0 -0.17302120776E+03  0.78213367369E+03 -0.55394206751E+03  0.97392054912E+03  0.00000000000E+00 0. -1.
          5    1    3    3  501    0 -0.65908758671E+02 -0.42954114700E+03 -0.53447248678E+03  0.68886318712E+03  0.47000000000E+01 0.  1.
         -5    1    3    3    0  501  0.36812659263E+02 -0.33290501255E+03 -0.31546350751E+03  0.46013067039E+03  0.47000000000E+01 0.  1.
          1    1    1    2  502    0 -0.13054826033E+02  0.54547718621E+02 -0.11554237980E+04  0.11567843512E+04  0.00000000000E+00 0. -1.
          1    1    1    2  503    0  0.36091832167E+01  0.26333909378E+02  0.71408177067E+03  0.71457629137E+03  0.00000000000E+00 0. -1.
<mgrwt>
<rscale>  0 0.38617089E+02</rscale>
<asrwt>0</asrwt>
<pdfrwt beam="1">  1        2 0.25099014E+00 0.26580086E+02</pdfrwt>
<pdfrwt beam="2">  1        2 0.53447929E+00 0.56105144E+02</pdfrwt>
<totfact> 0.31693296E+00</totfact>
</mgrwt>
</event>
<event>
13    1  0.3019759E-008  0.9061627E+02  0.7546771E-02  0.1364114E+00
          2   -1    0    0  502    0  0.00000000000E+00  0.00000000000E+00  0.17842758430E+04  0.17842758430E+04  0.00000000000E+00 0. -1.
          2   -1    0    0  503    0 -0.00000000000E+00 -0.00000000000E+00 -0.62717775840E+03  0.62717775840E+03  0.00000000000E+00 0. -1.
         25    2    1    2    0    0 -0.77681056151E+02 -0.18404418557E+02  0.19013462640E+02  0.14953277611E+03  0.12500188104E+03 0.  0.
         24    2    1    2    0    0  0.56758320681E+02 -0.25629600323E+02  0.19153816448E+03  0.21637635301E+03  0.79078911902E+02 0.  0.
         24    2    1    2    0    0 -0.42368184968E+01 -0.18706568029E+02  0.50379314449E+03  0.51057020544E+03  0.80662977463E+02 0.  0.
        -13    1    4    4    0    0 -0.18908245210E+01 -0.38662960646E+02  0.55539901434E+02  0.67698451937E+02  0.00000000000E+00 0.  1.
         14    1    4    4    0    0  0.58649145202E+02  0.13033360323E+02  0.13599826305E+03  0.14867790107E+03  0.00000000000E+00 0. -1.
        -13    1    5    5    0    0  0.27366141700E+02  0.14416043556E+01  0.70185412902E+02  0.75345710686E+02  0.00000000000E+00 0.  1.
         14    1    5    5    0    0 -0.31602960196E+02 -0.20148172385E+02  0.43360773159E+03  0.43522449475E+03  0.00000000000E+00 0. -1.
          5    1    3    3  501    0 -0.77088677093E+02  0.40340863319E+02  0.24024172103E+02  0.90384181329E+02  0.47000000000E+01 0. -1.
         -5    1    3    3    0  501 -0.59237905782E+00 -0.58745281876E+02 -0.50107094629E+01  0.59148594784E+02  0.47000000000E+01 0. -1.
          1    1    1    2  502    0  0.67658707533E+02  0.93193076584E+02  0.98424740830E+03  0.99096196242E+03  0.00000000000E+00 0. -1.
          1    1    1    2  503    0 -0.42499153567E+02 -0.30452489675E+02 -0.54149409527E+03  0.54401230445E+03  0.00000000000E+00 0. -1.
<mgrwt>
<rscale>  0 0.68831009E+02</rscale>
<asrwt>0</asrwt>
<pdfrwt beam="1">  1        2 0.26239350E+00 0.90616270E+02</pdfrwt>
<pdfrwt beam="2">  1        2 0.92232024E-01 0.52283192E+02</pdfrwt>
<totfact> 0.95799986E+01</totfact>
</mgrwt>
</event>
<event>
13    1  0.3019759E-008  0.9443267E+02  0.7546771E-02  0.1341798E+00
          2   -1    0    0  502    0  0.00000000000E+00  0.00000000000E+00  0.14871238538E+03  0.14871238538E+03  0.00000000000E+00 0. -1.
          2   -1    0    0  503    0 -0.00000000000E+00 -0.00000000000E+00 -0.27356878361E+04  0.27356878361E+04  0.00000000000E+00 0. -1.
         25    2    1    2    0    0  0.13536505844E+03  0.16656094848E+03 -0.15459073670E+04  0.15657326844E+04  0.12499201229E+03 0.  0.
         24    2    1    2    0    0 -0.44126684970E+02 -0.48122617833E+02 -0.17976781919E+03  0.20898970236E+03  0.84245333412E+02 0.  0.
         24    2    1    2    0    0  0.18328549072E+02 -0.32043925797E+02 -0.56563991814E+02  0.10457512639E+03  0.79835599821E+02 0.  0.
        -11    1    4    4    0    0 -0.52023783527E+02 -0.67725896746E+02 -0.14659717821E+03  0.16965849169E+03  0.00000000000E+00 0.  1.
         12    1    4    4    0    0  0.78970985568E+01  0.19603278913E+02 -0.33170640979E+02  0.39331210669E+02  0.00000000000E+00 0. -1.
        -13    1    5    5    0    0  0.17246044226E+02  0.70485717403E+01 -0.62320922700E+02  0.65046182142E+02  0.00000000000E+00 0.  1.
         14    1    5    5    0    0  0.10825048463E+01 -0.39092497538E+02  0.57569308864E+01  0.39528944252E+02  0.00000000000E+00 0. -1.
          5    1    3    3  501    0  0.12526079663E+03  0.56277699423E+02 -0.88030647016E+03  0.89096521707E+03  0.47000000000E+01 0. -1.
         -5    1    3    3    0  501  0.10104261813E+02  0.11028324906E+03 -0.66560089679E+03  0.67476746731E+03  0.47000000000E+01 0. -1.
          1    1    1    2  502    0 -0.97758076385E+02 -0.26914210965E+02  0.73211121472E+02  0.12506352209E+03  0.00000000000E+00 0. -1.
          1    1    1    2  503    0 -0.11808846159E+02 -0.59480193883E+02 -0.87794739428E+03  0.88003918631E+03  0.00000000000E+00 0. -1.
<mgrwt>
<rscale>  0 0.75673642E+02</rscale>
<asrwt>0</asrwt>
<pdfrwt beam="1">  1        2 0.21869468E-01 0.94432665E+02</pdfrwt>
<pdfrwt beam="2">  1        2 0.40230704E+00 0.60641094E+02</pdfrwt>
<totfact> 0.16029962E+02</totfact>
</mgrwt>
</event>
<event>
13    1  0.3019759E-008  0.1459648E+03  0.7546771E-02  0.1338625E+00
          2   -1    0    0  503    0  0.00000000000E+00  0.00000000000E+00  0.67426420169E+03  0.67426420169E+03  0.00000000000E+00 0. -1.
          2   -1    0    0  502    0 -0.00000000000E+00 -0.00000000000E+00 -0.17302854129E+04  0.17302854129E+04  0.00000000000E+00 0. -1.
         25    2    1    2    0    0 -0.11647713305E+03 -0.34934258848E+03 -0.66895640739E+03  0.77378013056E+03  0.12500339520E+03 0.  0.
         24    2    1    2    0    0  0.52545478675E+01  0.45787812600E+03 -0.11980899402E+03  0.48019720419E+03  0.80964012521E+02 0.  0.
         24    2    1    2    0    0  0.25589718026E+03 -0.22313498527E+03 -0.21978092355E+03  0.41600641622E+03  0.97391454767E+02 0.  0.
        -11    1    5    5    0    0  0.11755448186E+03 -0.16628393629E+03 -0.12608802657E+03  0.23951533170E+03  0.00000000000E+00 0.  1.
         12    1    5    5    0    0  0.13834269840E+03 -0.56851048983E+02 -0.93692896977E+02  0.17649108452E+03  0.00000000000E+00 0. -1.
        -13    1    4    4    0    0  0.31915165218E+02  0.22012392924E+03 -0.29042339193E+02  0.22431357395E+03  0.00000000000E+00 0.  1.
         14    1    4    4    0    0 -0.26660617351E+02  0.23775419676E+03 -0.90766654829E+02  0.25588363024E+03  0.00000000000E+00 0. -1.
          5    1    3    3  501    0  0.15133177102E+02 -0.52912673716E+00 -0.22837739662E+02  0.27801895208E+02  0.47000000000E+01 0. -1.
         -5    1    3    3    0  501 -0.13161031015E+03 -0.34881346174E+03 -0.64611866772E+03  0.74597823535E+03  0.47000000000E+01 0. -1.
          1    1    1    2  502    0 -0.11517845920E+03  0.87102849869E+02 -0.37641460140E+03  0.40316365916E+03  0.00000000000E+00 0. -1.
          1    1    1    2  503    0 -0.29496135880E+02  0.27496597888E+02  0.32893971515E+03  0.33140220447E+03  0.00000000000E+00 0. -1.
<mgrwt>
<rscale>  0 0.76720228E+02</rscale>
<asrwt>0</asrwt>
<pdfrwt beam="1">  1        2 0.99156500E-01 0.40324743E+02</pdfrwt>
<pdfrwt beam="2">  1        2 0.25445374E+00 0.14596481E+03</pdfrwt>
<totfact> 0.90637166E+01</totfact>
</mgrwt>
</event>
<event>
13    1  0.3019759E-008  0.2599363E+03  0.7546771E-02  0.1148590E+00
          2   -1    0    0  502    0  0.00000000000E+00  0.00000000000E+00  0.26192957565E+04  0.26192957565E+04  0.00000000000E+00 0. -1.
          2   -1    0    0  503    0 -0.00000000000E+00 -0.00000000000E+00 -0.14836869153E+04  0.14836869153E+04  0.00000000000E+00 0. -1.
         25    2    1    2    0    0  0.10090444704E+03  0.29617522188E+03 -0.88550400935E+03  0.94744075499E+03  0.12500065666E+03 0.  0.
         24    2    1    2    0    0 -0.57495056979E+02 -0.19156233839E+03  0.36382356417E+02  0.21897765607E+03  0.81398568358E+02 0.  0.
         24    2    1    2    0    0 -0.18729641063E+03  0.24388266507E+03  0.86991057251E+03  0.92627399935E+03  0.81733823761E+02 0.  0.
        -11    1    5    5    0    0  0.58313149153E+01  0.19228799689E+02  0.84255861599E+02  0.86618711517E+02  0.00000000000E+00 0.  1.
         12    1    5    5    0    0 -0.19312772555E+03  0.22465386538E+03  0.78565471091E+03  0.83965528783E+03  0.00000000000E+00 0. -1.
        -11    1    4    4    0    0 -0.47181214452E+02 -0.40204596946E+02 -0.35890754506E+01  0.62091529820E+02  0.00000000000E+00 0.  1.
         12    1    4    4    0    0 -0.10313842528E+02 -0.15135774145E+03  0.39971431867E+02  0.15688612625E+03  0.00000000000E+00 0. -1.
          5    1    3    3  501    0  0.11262504628E+03  0.20644646846E+03 -0.51754335556E+03  0.56848725603E+03  0.47000000000E+01 0. -1.
         -5    1    3    3    0  501 -0.11720599242E+02  0.89728753414E+02 -0.36796065379E+03  0.37895349896E+03  0.47000000000E+01 0. -1.
          1    1    1    2  502    0  0.14939925251E+03 -0.19259602555E+03  0.15390787626E+04  0.15582608264E+04  0.00000000000E+00 0. -1.
          1    1    1    2  503    0 -0.55122319340E+01 -0.15589952301E+03 -0.42425884091E+03  0.45202943496E+03  0.00000000000E+00 0. -1.
<mgrwt>
<rscale>  0 0.20136850E+03</rscale>
<asrwt>0</asrwt>
<pdfrwt beam="1">  1        2 0.38519055E+00 0.25993633E+03</pdfrwt>
<pdfrwt beam="2">  1        2 0.21818925E+00 0.15599694E+03</pdfrwt>
<totfact> 0.99109424E+00</totfact>
</mgrwt>
</event>
<event>
13    1  0.3019759E-008  0.8591884E+02  0.7546771E-02  0.1481588E+00
          2   -1    0    0  503    0  0.00000000000E+00  0.00000000000E+00  0.82463659307E+03  0.82463659307E+03  0.00000000000E+00 0. -1.
          2   -1    0    0  502    0 -0.00000000000E+00 -0.00000000000E+00 -0.73634480310E+03  0.73634480310E+03  0.00000000000E+00 0. -1.
         25    2    1    2    0    0 -0.27582657227E+01  0.67196530938E+02 -0.10079145384E+03  0.17408758781E+03  0.12499835704E+03 0.  0.
         24    2    1    2    0    0  0.17942936128E+03  0.77457882003E+02  0.27477261539E+03  0.34640647159E+03  0.79390391246E+02 0.  0.
         24    2    1    2    0    0 -0.14531392516E+03 -0.66585183082E+02  0.22179304997E+03  0.28503581830E+03  0.80644511558E+02 0.  0.
        -11    1    5    5    0    0  0.47854680330E+01 -0.19573027562E+02  0.38909879181E+02  0.43817608448E+02  0.00000000000E+00 0.  1.
         12    1    5    5    0    0 -0.15009939320E+03 -0.47012155521E+02  0.18288317079E+03  0.24121820985E+03  0.00000000000E+00 0. -1.
        -13    1    4    4    0    0  0.81159081030E+02  0.37246753403E+02  0.62306374615E+02  0.10888618549E+03  0.00000000000E+00 0.  1.
         14    1    4    4    0    0  0.98270280248E+02  0.40211128599E+02  0.21246624077E+03  0.23752028610E+03  0.00000000000E+00 0. -1.
          5    1    3    3  501    0 -0.72296869470E+00 -0.30026038073E+02  0.44453535391E+01  0.30723554713E+02  0.47000000000E+01 0. -1.
         -5    1    3    3    0  501 -0.20352970280E+01  0.97222569011E+02 -0.10523680738E+03  0.14336403310E+03  0.47000000000E+01 0. -1.
          1    1    1    2  502    0 -0.51679469226E+02 -0.68672599227E+02 -0.52742023538E+03  0.53437701869E+03  0.00000000000E+00 0. -1.
          1    1    1    2  503    0  0.20322298835E+02 -0.93966306309E+01  0.21993781384E+03  0.22107449978E+03  0.00000000000E+00 0. -1.
<mgrwt>
<rscale>  0 0.43859836E+02</rscale>
<asrwt>0</asrwt>
<pdfrwt beam="1">  1        2 0.12127009E+00 0.22389562E+02</pdfrwt>
<pdfrwt beam="2">  1        2 0.10828600E+00 0.85918839E+02</pdfrwt>
<totfact> 0.26643549E+02</totfact>
</mgrwt>
</event>
<event>
13    1  0.3019759E-008  0.9141630E+02  0.7546771E-02  0.1457382E+00
          2   -1    0    0  502    0  0.00000000000E+00  0.00000000000E+00  0.14192545278E+04  0.14192545278E+04  0.00000000000E+00 0. -1.
          2   -1    0    0  503    0 -0.00000000000E+00 -0.00000000000E+00 -0.13464402534E+04  0.13464402534E+04  0.00000000000E+00 0. -1.
         25    2    1    2    0    0  0.23094698911E+03  0.80124468491E+02 -0.58966182928E+03  0.65044773171E+03  0.12499894617E+03 0.  0.
         24    2    1    2    0    0 -0.19837386039E+03 -0.63760435242E+02  0.16050588564E+03  0.27502779008E+03  0.80377636223E+02 0.  0.
         24    2    1    2    0    0  0.44321161079E+02 -0.34857168604E+02  0.54228039251E+02  0.11997220606E+03  0.90957476131E+02 0.  0.
        -11    1    4    4    0    0 -0.19479693720E+03 -0.63849988062E+02  0.16908659619E+03  0.26573096306E+03  0.00000000000E+00 0.  1.
         12    1    4    4    0    0 -0.35769231879E+01  0.89552820307E-01 -0.85807105472E+01  0.92968270229E+01  0.00000000000E+00 0. -1.
        -11    1    5    5    0    0  0.23485095732E+02  0.29658689170E+02  0.10372416147E+02  0.39227217357E+02  0.00000000000E+00 0.  1.
         12    1    5    5    0    0  0.20836065347E+02 -0.64515857774E+02  0.43855623104E+02  0.80744988707E+02  0.00000000000E+00 0. -1.
          5    1    3    3  501    0 -0.11887711435E+02  0.97358975214E+01 -0.12626847263E+02  0.20436062622E+02  0.47000000000E+01 0.  1.
         -5    1    3    3    0  501  0.24283470055E+03  0.70388570970E+02 -0.57703498201E+03  0.63001166908E+03  0.47000000000E+01 0.  1.
          1    1    1    2  502    0 -0.91437514731E+02 -0.18787434142E+01  0.10818181955E+04  0.10856771882E+04  0.00000000000E+00 0. -1.
          1    1    1    2  503    0  0.14543224923E+02  0.20371878769E+02 -0.63407601669E+03  0.63456986516E+03  0.00000000000E+00 0. -1.
<mgrwt>
<rscale>  0 0.47834953E+02</rscale>
<asrwt>0</asrwt>
<pdfrwt beam="1">  1        2 0.20871390E+00 0.91416299E+02</pdfrwt>
<pdfrwt beam="2">  1        2 0.19800592E+00 0.25030358E+02</pdfrwt>
<totfact> 0.58294856E+01</totfact>
</mgrwt>
</event>
<event>
13    1  0.3019759E-008  0.7591118E+02  0.7546771E-02  0.1419082E+00
          2   -1    0    0  503    0  0.00000000000E+00  0.00000000000E+00  0.20575029218E+04  0.20575029218E+04  0.00000000000E+00 0. -1.
          2   -1    0    0  502    0 -0.00000000000E+00 -0.00000000000E+00 -0.10316607088E+04  0.10316607088E+04  0.00000000000E+00 0. -1.
         25    2    1    2    0    0  0.10706002900E+03  0.68249185054E+02 -0.32240914419E+03  0.36836453897E+03  0.12499990495E+03 0.  0.
         24    2    1    2    0    0  0.28369724696E+02  0.53286345233E+03  0.50020304690E+03  0.73613935674E+03  0.83365246399E+02 0.  0.
         24    2    1    2    0    0 -0.77492596625E+02 -0.61111632557E+03  0.28874335287E+03  0.68512888124E+03  0.80997494857E+02 0.  0.
        -11    1    4    4    0    0  0.30130692980E+02  0.34566706617E+03  0.27141467529E+03  0.44052185559E+03  0.00000000000E+00 0.  1.
         12    1    4    4    0    0 -0.17609682836E+01  0.18719638617E+03  0.22878837161E+03  0.29561750115E+03  0.00000000000E+00 0. -1.
        -13    1    5    5    0    0 -0.58850868315E+02 -0.17695673482E+03  0.77556926620E+02  0.20197075919E+03  0.00000000000E+00 0.  1.
         14    1    5    5    0    0 -0.18641728310E+02 -0.43415959075E+03  0.21118642625E+03  0.48315812205E+03  0.00000000000E+00 0. -1.
          5    1    3    3  501    0  0.53505557372E+02  0.73297411483E+01 -0.26086483692E+03  0.26643784062E+03  0.47000000000E+01 0. -1.
         -5    1    3    3    0  501  0.53554471630E+02  0.60919443905E+02 -0.61544307274E+02  0.10192669834E+03  0.47000000000E+01 0. -1.
          1    1    1    2  502    0 -0.70612397851E+02 -0.28105986905E+02 -0.36577109197E+03  0.37358338956E+03  0.00000000000E+00 0. -1.
          1    1    1    2  503    0  0.12675240776E+02  0.38109675090E+02  0.92507604944E+03  0.92594746412E+03  0.00000000000E+00 0. -1.
<mgrwt>
<rscale>  0 0.55215636E+02</rscale>
<asrwt>0</asrwt>
<pdfrwt beam="1">  1        2 0.30257396E+00 0.40162284E+02</pdfrwt>
<pdfrwt beam="2">  1        2 0.15171481E+00 0.75911181E+02</pdfrwt>
<totfact> 0.42386474E+01</totfact>
</mgrwt>
</event>
<event>
13    1  0.3019759E-008  0.1178180E+03  0.7546771E-02  0.1405639E+00
         -1   -1    0    0    0  501 -0.00000000000E+00  0.00000000000E+00  0.13411737421E+03  0.13411737421E+03  0.00000000000E+00 0.  1.
          2   -1    0    0  503    0  0.00000000000E+00 -0.00000000000E+00 -0.31974270502E+04  0.31974270502E+04  0.00000000000E+00 0. -1.
         25    2    1    2    0    0  0.11279703505E+03 -0.52179146077E+02 -0.63841815217E+02  0.18747036691E+03  0.12499410665E+03 0.  0.
         24    2    1    2    0    0 -0.37562630201E+02 -0.47278373670E+02 -0.10899924459E+03  0.14597639280E+03  0.76039964031E+02 0.  0.
         24    2    1    2    0    0 -0.31544568966E+02  0.38200431773E+02 -0.80504037788E+03  0.81078717582E+03  0.82652898614E+02 0.  0.
        -11    1    5    5    0    0  0.13464096894E+02  0.43253915647E+02 -0.26437824120E+03  0.26823131350E+03  0.00000000000E+00 0.  1.
         12    1    5    5    0    0 -0.45008665860E+02 -0.50534838741E+01 -0.54066213668E+03  0.54255586233E+03  0.00000000000E+00 0. -1.
        -13    1    4    4    0    0 -0.19678709037E+02  0.19650728918E+02 -0.32261354125E+02  0.42593399798E+02  0.00000000000E+00 0.  1.
         14    1    4    4    0    0 -0.17883921164E+02 -0.66929102588E+02 -0.76737890463E+02  0.10338299300E+03  0.00000000000E+00 0. -1.
          5    1    3    3  502    0 -0.23105840119E+01  0.31401729991E+02 -0.23389909254E+02  0.39504244073E+02  0.47000000000E+01 0. -1.
         -5    1    3    3    0  502  0.11510761906E+03 -0.83580876068E+02 -0.40451905962E+02  0.14796612283E+03  0.47000000000E+01 0. -1.
          1    1    1    2  503    0 -0.63982632720E+02  0.81592572454E+02 -0.21309556251E+04  0.21334767403E+04  0.00000000000E+00 0. -1.
         -2    1    1    2    0  501  0.20292796837E+02 -0.20335484481E+02  0.45527386830E+02  0.53833748560E+02  0.00000000000E+00 0.  1.
<mgrwt>
<rscale>  0 0.58178515E+02</rscale>
<asrwt>0</asrwt>
<pdfrwt beam="2">  1        2 0.47020982E+00 0.11781798E+03</pdfrwt>
<pdfrwt beam="1">  1       -1 0.19723145E-01 0.28728549E+02</pdfrwt>
<totfact> 0.47437144E+01</totfact>
</mgrwt>
</event>
<event>
13    1  0.3019759E-008  0.1269054E+03  0.7546771E-02  0.1433773E+00
          2   -1    0    0  502    0  0.00000000000E+00  0.00000000000E+00  0.14227824799E+04  0.14227824799E+04  0.00000000000E+00 0. -1.
          2   -1    0    0  503    0 -0.00000000000E+00 -0.00000000000E+00 -0.95953573350E+03  0.95953573350E+03  0.00000000000E+00 0. -1.
         25    2    1    2    0    0 -0.45913307023E+00 -0.71570472324E+02 -0.45961124431E+03  0.48165704536E+03  0.12501387980E+03 0.  0.
         24    2    1    2    0    0  0.28798168826E+02 -0.37553770978E+02 -0.10640662377E+03  0.13686405420E+03  0.71901178768E+02 0.  0.
         24    2    1    2    0    0  0.12790828309E+03  0.21621713455E+02  0.47649535998E+03  0.50033847811E+03  0.80391151371E+02 0.  0.
        -13    1    4    4    0    0 -0.79946737858E+00  0.13237723868E+02  0.21281478134E+01  0.13431511248E+02  0.00000000000E+00 0.  1.
         14    1    4    4    0    0  0.29597636205E+02 -0.50791494846E+02 -0.10853477158E+03  0.12343254295E+03  0.00000000000E+00 0. -1.
        -13    1    5    5    0    0  0.31700674403E+02 -0.29571216266E+02  0.12227674381E+03  0.12973431183E+03  0.00000000000E+00 0.  1.
         14    1    5    5    0    0  0.96207608691E+02  0.51192929722E+02  0.35421861617E+03  0.37060416628E+03  0.00000000000E+00 0. -1.
          5    1    3    3  501    0  0.47210568813E+02  0.10898615698E+02 -0.15431247870E+03  0.16180867936E+03  0.47000000000E+01 0.  1.
         -5    1    3    3    0  501 -0.47669701883E+02 -0.82469088022E+02 -0.30529876561E+03  0.31984836601E+03  0.47000000000E+01 0.  1.
          1    1    1    2  502    0 -0.17285250992E+03  0.73877496574E+02  0.89804881353E+03  0.91751160547E+03  0.00000000000E+00 0. -1.
          1    1    1    2  503    0  0.16605191074E+02  0.13625033272E+02 -0.34527955900E+03  0.34594703029E+03  0.00000000000E+00 0. -1.
<mgrwt>
<rscale>  0 0.52209961E+02</rscale>
<asrwt>0</asrwt>
<pdfrwt beam="1">  1        2 0.20923272E+00 0.12690544E+03</pdfrwt>
<pdfrwt beam="2">  1        2 0.14110820E+00 0.21479616E+02</pdfrwt>
<totfact> 0.89293773E+01</totfact>
</mgrwt>
</event>
<event>
13    1  0.3019759E-008  0.1065435E+03  0.7546771E-02  0.1384243E+00
          2   -1    0    0  503    0  0.00000000000E+00  0.00000000000E+00  0.90598301854E+03  0.90598301854E+03  0.00000000000E+00 0. -1.
         -1   -1    0    0    0  501 -0.00000000000E+00 -0.00000000000E+00 -0.85716994425E+03  0.85716994425E+03  0.00000000000E+00 0.  1.
         25    2    1    2    0    0  0.87592102403E+02 -0.21100971567E+03 -0.41625156310E+03  0.49100854701E+03  0.12500621165E+03 0.  0.
         24    2    1    2    0    0 -0.41119456249E+02  0.14641896401E+03  0.16265368282E+03  0.23687995554E+03  0.80787190189E+02 0.  0.
         24    2    1    2    0    0  0.34445970109E+02 -0.11186429812E+03  0.81703347681E+02  0.16417718057E+03  0.81108344484E+02 0.  0.
        -13    1    5    5    0    0  0.41899493041E+02 -0.15908948934E+02  0.36717653599E+02  0.57938314259E+02  0.00000000000E+00 0.  1.
         14    1    5    5    0    0 -0.74535229321E+01 -0.95955349190E+02  0.44985694082E+02  0.10623886631E+03  0.00000000000E+00 0. -1.
        -13    1    4    4    0    0 -0.24781257906E+02  0.14802177015E+03  0.16142930761E+03  0.22041773190E+03  0.00000000000E+00 0.  1.
         14    1    4    4    0    0 -0.16338198343E+02 -0.16028061388E+01  0.12243752144E+01  0.16462223643E+02  0.00000000000E+00 0. -1.
          5    1    3    3  502    0  0.62182465813E+02 -0.42842671813E+02 -0.21246323725E+03  0.22553241622E+03  0.47000000000E+01 0. -1.
         -5    1    3    3    0  502  0.25409636590E+02 -0.16816704386E+03 -0.20378832585E+03  0.26547613080E+03  0.47000000000E+01 0. -1.
          1    1    1    2  503    0 -0.73028619278E+02  0.13960932763E+03  0.53337423766E+03  0.55615826973E+03  0.00000000000E+00 0. -1.
         -2    1    1    2    0  501 -0.78899969852E+01  0.36845722155E+02 -0.31266663078E+03  0.31492900993E+03  0.00000000000E+00 0.  1.
<mgrwt>
<rscale>  0 0.63361418E+02</rscale>
<asrwt>0</asrwt>
<pdfrwt beam="1">  1        2 0.13323280E+00 0.10654354E+03</pdfrwt>
<pdfrwt beam="2">  1       -1 0.12605440E+00 0.37681020E+02</pdfrwt>
<totfact> 0.25171812E+01</totfact>
</mgrwt>
</event>
<event>
13    1  0.3019759E-008  0.1223888E+03  0.7546771E-02  0.1453550E+00
          2   -1    0    0  502    0  0.00000000000E+00  0.00000000000E+00  0.90344699209E+03  0.90344699209E+03  0.00000000000E+00 0. -1.
          2   -1    0    0  503    0 -0.00000000000E+00 -0.00000000000E+00 -0.79928301820E+03  0.79928301820E+03  0.00000000000E+00 0. -1.
         25    2    1    2    0    0 -0.11297580773E+02 -0.24488498364E+02 -0.94213071927E+01  0.12822491340E+03  0.12500218199E+03 0.  0.
         24    2    1    2    0    0  0.14465333699E+03 -0.10051219890E+03  0.82415565703E+02  0.21262591179E+03  0.85966056452E+02 0.  0.
         24    2    1    2    0    0 -0.25677330058E+03  0.57305671952E+02  0.34972592068E+03  0.44086961507E+03  0.53304127079E+02 0.  0.
        -13    1    5    5    0    0 -0.15457045092E+03  0.18716582127E+02  0.16982984794E+03  0.23040076388E+03  0.00000000000E+00 0.  1.
         14    1    5    5    0    0 -0.10220284965E+03  0.38589089825E+02  0.17989607275E+03  0.21046885119E+03  0.00000000000E+00 0. -1.
        -13    1    4    4    0    0  0.12738111437E+03 -0.88095639130E+02  0.32336781020E+02  0.15821648883E+03  0.00000000000E+00 0.  1.
         14    1    4    4    0    0  0.17272222627E+02 -0.12416559767E+02  0.50078784683E+02  0.54409422954E+02  0.00000000000E+00 0. -1.
          5    1    3    3  501    0  0.13313083939E+02  0.39250101296E+02 -0.35666750761E+02  0.54881834568E+02  0.47000000000E+01 0.  1.
         -5    1    3    3    0  501 -0.24610664712E+02 -0.63738599659E+02  0.26245443568E+02  0.73343078830E+02  0.47000000000E+01 0.  1.
          1    1    1    2  502    0  0.14097342985E+02  0.13074626925E+02  0.29488655843E+03  0.29551271257E+03  0.00000000000E+00 0. -1.
          1    1    1    2  503    0  0.10932020137E+03  0.54620398383E+02 -0.61344276373E+03  0.62549685748E+03  0.00000000000E+00 0. -1.
<mgrwt>
<rscale>  0 0.48509596E+02</rscale>
<asrwt>0</asrwt>
<pdfrwt beam="1">  1        2 0.13285985E+00 0.19227089E+02</pdfrwt>
<pdfrwt beam="2">  1        2 0.11754162E+00 0.12238883E+03</pdfrwt>
<totfact> 0.21662849E+02</totfact>
</mgrwt>
</event>
<event>
13    1  0.3019759E-008  0.4607616E+02  0.7546771E-02  0.1553857E+00
          2   -1    0    0  502    0  0.00000000000E+00  0.00000000000E+00  0.30318955307E+04  0.30318955307E+04  0.00000000000E+00 0. -1.
          2   -1    0    0  503    0 -0.00000000000E+00 -0.00000000000E+00 -0.59109845142E+03  0.59109845142E+03  0.00000000000E+00 0. -1.
         25    2    1    2    0    0  0.25989017220E+02 -0.27673972863E+02 -0.43719660898E+01  0.13071618036E+03  0.12500531161E+03 0.  0.
         24    2    1    2    0    0  0.51973088906E+02 -0.60383711142E+01 -0.10150150401E+02  0.96042780096E+02  0.79896972154E+02 0.  0.
         24    2    1    2    0    0 -0.45457124173E+02  0.25747625071E+02  0.11498077760E+03  0.15001756133E+03  0.80965419495E+02 0.  0.
        -13    1    5    5    0    0 -0.46415878003E+01  0.48362017579E+02  0.47268356474E+02  0.67784412702E+02  0.00000000000E+00 0.  1.
         14    1    5    5    0    0 -0.40815536372E+02 -0.22614392508E+02  0.67712421128E+02  0.82233148626E+02  0.00000000000E+00 0. -1.
        -13    1    4    4    0    0  0.26156906530E+02 -0.41123442767E+02  0.69827362583E+01  0.49234946023E+02  0.00000000000E+00 0.  1.
         14    1    4    4    0    0  0.25816182375E+02  0.35085071653E+02 -0.17132886660E+02  0.46807834073E+02  0.00000000000E+00 0. -1.
          5    1    3    3  501    0  0.49147740804E+02 -0.67658072241E+02  0.23348808611E+01  0.83789359911E+02  0.47000000000E+01 0.  1.
         -5    1    3    3    0  501 -0.23158723585E+02  0.39984099378E+02 -0.67068469509E+01  0.46926820446E+02  0.47000000000E+01 0.  1.
          1    1    1    2  502    0 -0.43498172562E+02 -0.15271259871E+02  0.27927228383E+04  0.27931033196E+04  0.00000000000E+00 0. -1.
          1    1    1    2  503    0  0.10993190609E+02  0.23235978778E+02 -0.45238442013E+03  0.45311414073E+03  0.00000000000E+00 0. -1.
<mgrwt>
<rscale>  0 0.34415116E+02</rscale>
<asrwt>0</asrwt>
<pdfrwt beam="1">  1        2 0.44586698E+00 0.46076162E+02</pdfrwt>
<pdfrwt beam="2">  1        2 0.86926244E-01 0.25705271E+02</pdfrwt>
<totfact> 0.27816314E+01</totfact>
</mgrwt>
</event>
<event>
13    1  0.3019759E-008  0.4230341E+03  0.7546771E-02  0.1275063E+00
          2   -1    0    0  503    0  0.00000000000E+00  0.00000000000E+00  0.15380415568E+04  0.15380415568E+04  0.00000000000E+00 0. -1.
         -1   -1    0    0    0  501 -0.00000000000E+00 -0.00000000000E+00 -0.80854178889E+03  0.80854178889E+03  0.00000000000E+00 0.  1.
         25    2    1    2    0    0 -0.41091225820E+03  0.13767427486E+03  0.23495808816E+03  0.50856487096E+03  0.12501933808E+03 0.  0.
         24    2    1    2    0    0 -0.82182462465E+01  0.59911489642E+02  0.13924543312E+03  0.17296928038E+03  0.82898462882E+02 0.  0.
         24    2    1    2    0    0  0.39800532455E+02 -0.52526903934E+02  0.58316323850E+03  0.59259456411E+03  0.82132798844E+02 0.  0.
        -11    1    4    4    0    0  0.28250194903E+01  0.76534846981E+02  0.81342789076E+02  0.11172382410E+03  0.00000000000E+00 0.  1.
         12    1    4    4    0    0 -0.11043265737E+02 -0.16623357339E+02  0.57902644048E+02  0.61245456281E+02  0.00000000000E+00 0. -1.
        -13    1    5    5    0    0  0.42305543289E+02 -0.20607983540E+02  0.12918910403E+03  0.13749280919E+03  0.00000000000E+00 0.  1.
         14    1    5    5    0    0 -0.25050108337E+01 -0.31918920394E+02  0.45397413447E+03  0.45510175491E+03  0.00000000000E+00 0. -1.
          5    1    3    3  502    0 -0.10384628670E+03  0.90931816534E+02  0.96390055503E+02  0.16842143367E+03  0.47000000000E+01 0. -1.
         -5    1    3    3    0  502 -0.30706597149E+03  0.46742458327E+02  0.13856803266E+03  0.34014343729E+03  0.47000000000E+01 0. -1.
          1    1    1    2  503    0 -0.20776904820E+02 -0.13632796463E+02  0.35361413322E+03  0.35448623122E+03  0.00000000000E+00 0. -1.
         -2    1    1    2    0  501  0.40010687681E+03 -0.13142606411E+03 -0.58148112508E+03  0.71796839904E+03  0.00000000000E+00 0.  1.
<mgrwt>
<rscale>  0 0.10253042E+03</rscale>
<asrwt>0</asrwt>
<pdfrwt beam="1">  1        2 0.22618258E+00 0.24850210E+02</pdfrwt>
<pdfrwt beam="2">  1       -1 0.11890320E+00 0.42303412E+03</pdfrwt>
<totfact> 0.13196403E+01</totfact>
</mgrwt>
</event>
<event>
13    1  0.3019759E-008  0.1401519E+03  0.7546771E-02  0.1458094E+00
          2   -1    0    0  503    0  0.00000000000E+00  0.00000000000E+00  0.25561476209E+04  0.25561476209E+04  0.00000000000E+00 0. -1.
          2   -1    0    0  502    0 -0.00000000000E+00 -0.00000000000E+00 -0.32735384017E+04  0.32735384017E+04  0.00000000000E+00 0. -1.
         25    2    1    2    0    0  0.79188898585E+03  0.43337937211E+03 -0.20974604520E+04  0.22868910206E+04  0.12499738413E+03 0.  0.
         24    2    1    2    0    0 -0.67605168498E+03 -0.26030529686E+03  0.77362958549E+02  0.73572066003E+03  0.10244576083E+03 0.  0.
         24    2    1    2    0    0  0.47818871149E+02  0.25031581143E+02  0.11400780775E+03  0.14985419016E+03  0.80902865144E+02 0.  0.
        -11    1    5    5    0    0 -0.97016081001E+01  0.28455384888E+02  0.11359213977E+02  0.32138168445E+02  0.00000000000E+00 0.  1.
         12    1    5    5    0    0  0.57520479249E+02 -0.34238037449E+01  0.10264859377E+03  0.11771602171E+03  0.00000000000E+00 0. -1.
        -13    1    4    4    0    0 -0.25970233471E+03 -0.12225591038E+03 -0.15120476097E+02  0.28743771338E+03  0.00000000000E+00 0.  1.
         14    1    4    4    0    0 -0.41634935027E+03 -0.13804938649E+03  0.92483434646E+02  0.44828294666E+03  0.00000000000E+00 0. -1.
          5    1    3    3  501    0  0.58357227366E+03  0.37904411026E+03 -0.16170055328E+04  0.17603863267E+04  0.47000000000E+01 0.  1.
         -5    1    3    3    0  501  0.20831671218E+03  0.54335261852E+02 -0.48045491925E+03  0.52650469389E+03  0.47000000000E+01 0.  1.
          1    1    1    2  502    0 -0.81549823269E+01 -0.14046263739E+02 -0.72662145242E+03  0.72680295567E+03  0.00000000000E+00 0. -1.
          1    1    1    2  503    0 -0.15550118969E+03 -0.18405939265E+03  0.19153203573E+04  0.19304171962E+04  0.00000000000E+00 0. -1.
<mgrwt>
<rscale>  0 0.47711024E+02</rscale>
<asrwt>0</asrwt>
<pdfrwt beam="1">  1        2 0.37590407E+00 0.14015191E+03</pdfrwt>
<pdfrwt beam="2">  1        2 0.48140270E+00 0.16241960E+02</pdfrwt>
<totfact> 0.21269360E+00</totfact>
</mgrwt>
</event>
<event>
13    1  0.3019759E-008  0.1239408E+03  0.7546771E-02  0.1268434E+00
          2   -1    0    0  502    0  0.00000000000E+00  0.00000000000E+00  0.28113707754E+04  0.28113707754E+04  0.00000000000E+00 0. -1.
          2   -1    0    0  503    0 -0.00000000000E+00 -0.00000000000E+00 -0.10814319285E+04  0.10814319285E+04  0.00000000000E+00 0. -1.
         25    2    1    2    0    0 -0.24680274869E+03 -0.61155932538E+01 -0.11138578629E+03  0.29829674624E+03  0.12500063275E+03 0.  0.
         24    2    1    2    0    0  0.34232256730E+02 -0.45613987279E+02  0.66994311511E+02  0.11930716846E+03  0.80582128512E+02 0.  0.
         24    2    1    2    0    0  0.24484273677E+02 -0.71865833939E+02  0.61290432815E+03  0.62281134658E+03  0.80486522001E+02 0.  0.
        -11    1    5    5    0    0  0.30239308139E+02 -0.79613885461E+02  0.60299218957E+03  0.60897649149E+03  0.00000000000E+00 0.  1.
         12    1    5    5    0    0 -0.57550344622E+01  0.77480515220E+01  0.99121385829E+01  0.13834855089E+02  0.00000000000E+00 0. -1.
        -11    1    4    4    0    0 -0.25584912178E+02 -0.57703156143E+01  0.12179251104E+02  0.28917441638E+02  0.00000000000E+00 0.  1.
         12    1    4    4    0    0  0.59817168909E+02 -0.39843671665E+02  0.54815060407E+02  0.90389726824E+02  0.00000000000E+00 0. -1.
          5    1    3    3  501    0 -0.25596513075E+03  0.59248658345E+01 -0.11693157604E+03  0.28151080915E+03  0.47000000000E+01 0. -1.
         -5    1    3    3    0  501  0.91623820546E+01 -0.12040459088E+02  0.55457897521E+01  0.16785937089E+02  0.47000000000E+01 0. -1.
          1    1    1    2  502    0  0.11143834433E+03  0.75632748588E+02  0.20022205945E+04  0.20067451572E+04  0.00000000000E+00 0. -1.
          1    1    1    2  503    0  0.76647873953E+02  0.47962665884E+02 -0.84079460092E+03  0.84564228539E+03  0.00000000000E+00 0. -1.
<mgrwt>
<rscale>  0 0.10586032E+03</rscale>
<asrwt>0</asrwt>
<pdfrwt beam="1">  1        2 0.41343688E+00 0.12394076E+03</pdfrwt>
<pdfrwt beam="2">  1        2 0.15903411E+00 0.90417442E+02</pdfrwt>
<totfact> 0.14579802E+01</totfact>
</mgrwt>
</event>
<event>
13    1  0.3019759E-008  0.3699792E+02  0.7546771E-02  0.1596543E+00
         -3   -1    0    0    0  501 -0.00000000000E+00  0.00000000000E+00  0.72135519589E+03  0.72135519589E+03  0.00000000000E+00 0.  1.
          2   -1    0    0  503    0  0.00000000000E+00 -0.00000000000E+00 -0.21072473916E+04  0.21072473916E+04  0.00000000000E+00 0. -1.
         25    2    1    2    0    0  0.19396412327E+02  0.64199199254E+02  0.21797793694E+03  0.26007651954E+03  0.12501062768E+03 0.  0.
         24    2    1    2    0    0  0.32019117724E+02 -0.10521116529E+03  0.15767848629E+02  0.13688087899E+03  0.79957093375E+02 0.  0.
         24    2    1    2    0    0 -0.71806614532E+02  0.15482829379E+02 -0.41019246717E+03  0.42457229486E+03  0.81288778722E+02 0.  0.
        -11    1    4    4    0    0 -0.22617277297E+02 -0.76587682579E+01 -0.55413099815E+00  0.23885247010E+02  0.00000000000E+00 0.  1.
         12    1    4    4    0    0  0.54636395021E+02 -0.97552397029E+02  0.16321979627E+02  0.11299563198E+03  0.00000000000E+00 0. -1.
        -11    1    5    5    0    0  0.51787781504E+01  0.26743248314E+02 -0.60825193457E+02  0.66646269457E+02  0.00000000000E+00 0.  1.
         12    1    5    5    0    0 -0.76985392682E+02 -0.11260418935E+02 -0.34936727371E+03  0.35792602541E+03  0.00000000000E+00 0. -1.
          5    1    3    3  502    0 -0.40844701043E+01  0.32168410351E+02  0.21762962981E+03  0.22008233753E+03  0.47000000000E+01 0.  1.
         -5    1    3    3    0  502  0.23480882431E+02  0.32030788903E+02  0.34830712777E+00  0.39994182019E+02  0.47000000000E+01 0.  1.
          1    1    1    2  503    0 -0.15981353578E+02  0.18640977613E+02 -0.16073061859E+04  0.16074937215E+04  0.00000000000E+00 0. -1.
         -4    1    1    2    0  501  0.36372438059E+02  0.68881590415E+01  0.39786067177E+03  0.39957917253E+03  0.00000000000E+00 0.  1.
<mgrwt>
<rscale>  0 0.30140336E+02</rscale>
<asrwt>0</asrwt>
<pdfrwt beam="2">  1        2 0.30988933E+00 0.24553813E+02</pdfrwt>
<pdfrwt beam="1">  1       -3 0.10608165E+00 0.36997915E+02</pdfrwt>
<totfact> 0.45504870E+00</totfact>
</mgrwt>
</event>
<event>
13    1  0.3019759E-008  0.1248988E+03  0.7546771E-02  0.1510448E+00
          2   -1    0    0  502    0  0.00000000000E+00  0.00000000000E+00  0.89209051084E+03  0.89209051084E+03  0.00000000000E+00 0. -1.
          2   -1    0    0  503    0 -0.00000000000E+00 -0.00000000000E+00 -0.10563792705E+04  0.10563792705E+04  0.00000000000E+00 0. -1.
         25    2    1    2    0    0 -0.12844335694E+03  0.56940592215E+02 -0.91536470639E+03  0.93448762919E+03  0.12503861976E+03 0.  0.
         24    2    1    2    0    0  0.48235969395E+02 -0.46674912929E+00 -0.38563728684E+02  0.10464126260E+03  0.84473108568E+02 0.  0.
         24    2    1    2    0    0 -0.37358966019E+02 -0.89211746726E+02  0.32787631125E+03  0.35132406943E+03  0.81063544165E+02 0.  0.
        -11    1    5    5    0    0 -0.45929562120E+02 -0.15772696808E+02  0.90592801737E+02  0.10278792910E+03  0.00000000000E+00 0.  1.
         12    1    5    5    0    0  0.85705961012E+01 -0.73439049918E+02  0.23728350951E+03  0.24853614034E+03  0.00000000000E+00 0. -1.
        -13    1    4    4    0    0  0.68277936405E+02  0.15411730990E+02 -0.19242205335E+02  0.72592427415E+02  0.00000000000E+00 0.  1.
         14    1    4    4    0    0 -0.20041967009E+02 -0.15878480119E+02 -0.19321523348E+02  0.32048835190E+02  0.00000000000E+00 0. -1.
          5    1    3    3  501    0 -0.70007758082E+02 -0.11538518228E+02 -0.17869953454E+03  0.19232742196E+03  0.47000000000E+01 0. -1.
         -5    1    3    3    0  501 -0.58435598859E+02  0.68479110443E+02 -0.73666517185E+03  0.74216020723E+03  0.47000000000E+01 0. -1.
          1    1    1    2  502    0  0.12271980733E+03  0.21220830561E+02  0.50128804964E+03  0.51652704041E+03  0.00000000000E+00 0. -1.
          1    1    1    2  503    0 -0.51534537688E+01  0.11517073079E+02 -0.39524685501E+02  0.41489779729E+02  0.00000000000E+00 0. -1.
<mgrwt>
<rscale>  0 0.39697727E+02</rscale>
<asrwt>0</asrwt>
<pdfrwt beam="1">  1        2 0.13118978E+00 0.12489881E+03</pdfrwt>
<pdfrwt beam="2">  1        2 0.15534989E+00 0.12617490E+02</pdfrwt>
<totfact> 0.16052109E+02</totfact>
</mgrwt>
</event>
<event>
13    1  0.3019759E-008  0.7357741E+02  0.7546771E-02  0.1443208E+00
          2   -1    0    0  503    0  0.00000000000E+00  0.00000000000E+00  0.12991888720E+04  0.12991888720E+04  0.00000000000E+00 0. -1.
          2   -1    0    0  502    0 -0.00000000000E+00 -0.00000000000E+00 -0.17855544919E+04  0.17855544919E+04  0.00000000000E+00 0. -1.
         25    2    1    2    0    0 -0.24367096851E+03 -0.32377681072E+03 -0.48724431519E+03  0.64594118106E+03  0.12500409052E+03 0.  0.
         24    2    1    2    0    0  0.27035891872E+02  0.29337871310E+03  0.34449206774E+03  0.46030013921E+03  0.79996404117E+02 0.  0.
         24    2    1    2    0    0  0.16511409797E+03 -0.14430761905E+02  0.74055404878E+02  0.20041185818E+03  0.84910527425E+02 0.  0.
        -11    1    4    4    0    0  0.19557835235E+01  0.12258239091E+03  0.20276132955E+03  0.23694392672E+03  0.00000000000E+00 0.  1.
         12    1    4    4    0    0  0.25080108348E+02  0.17079632219E+03  0.14173073819E+03  0.22335621249E+03  0.00000000000E+00 0. -1.
        -13    1    5    5    0    0  0.39052478329E+02 -0.41359422849E+02  0.29080059243E+02  0.63885426880E+02  0.00000000000E+00 0.  1.
         14    1    5    5    0    0  0.12606161965E+03  0.26928660945E+02  0.44975345635E+02  0.13652643130E+03  0.00000000000E+00 0. -1.
          5    1    3    3  501    0 -0.15644255213E+03 -0.28260012419E+03 -0.33292327523E+03  0.46389341394E+03  0.47000000000E+01 0.  1.
         -5    1    3    3    0  501 -0.87228416388E+02 -0.41176686533E+02 -0.15432103995E+03  0.18204776712E+03  0.47000000000E+01 0.  1.
          1    1    1    2  502    0 -0.20151773430E+02  0.28028053671E+02 -0.10956150811E+04  0.10961587803E+04  0.00000000000E+00 0. -1.
          1    1    1    2  503    0  0.71672752098E+02  0.16800805859E+02  0.67794630378E+03  0.68193140511E+03  0.00000000000E+00 0. -1.
<mgrwt>
<rscale>  0 0.50397718E+02</rscale>
<asrwt>0</asrwt>
<pdfrwt beam="1">  1        2 0.19105719E+00 0.73577412E+02</pdfrwt>
<pdfrwt beam="2">  1        2 0.26258154E+00 0.34520512E+02</pdfrwt>
<totfact> 0.41480744E+01</totfact>
</mgrwt>
</event>
<event>
13    1  0.3019759E-008  0.1151389E+03  0.7546771E-02  0.1305947E+00
          2   -1    0    0  503    0  0.00000000000E+00  0.00000000000E+00  0.17577898761E+04  0.17577898761E+04  0.00000000000E+00 0. -1.
          2   -1    0    0  502    0 -0.00000000000E+00 -0.00000000000E+00 -0.26184695978E+04  0.26184695978E+04  0.00000000000E+00 0. -1.
         25    2    1    2    0    0  0.13801351748E+03  0.13650432749E+03 -0.11454972950E+04  0.11685363727E+04  0.12502815303E+03 0.  0.
         24    2    1    2    0    0 -0.22057303058E+02 -0.20603712939E+02 -0.22989685512E+03  0.24518660701E+03  0.79704897338E+02 0.  0.
         24    2    1    2    0    0 -0.96884783928E+02  0.14292735193E+02  0.30293217647E+02  0.12771204781E+03  0.76169183294E+02 0.  0.
        -11    1    5    5    0    0 -0.10562727768E+03  0.98434990137E+00  0.34708772434E+02  0.11118808218E+03  0.00000000000E+00 0.  1.
         12    1    5    5    0    0  0.87424937508E+01  0.13308385291E+02 -0.44155547866E+01  0.16523965629E+02  0.00000000000E+00 0. -1.
        -11    1    4    4    0    0 -0.28409157145E+02 -0.48548035490E+02 -0.14194761804E+03  0.15268633936E+03  0.00000000000E+00 0.  1.
         12    1    4    4    0    0  0.63518540879E+01  0.27944322551E+02 -0.87949237078E+02  0.92500267652E+02  0.00000000000E+00 0. -1.
          5    1    3    3  501    0  0.46866908627E+02 -0.12191521915E+02 -0.39718718175E+03  0.40015607915E+03  0.47000000000E+01 0. -1.
         -5    1    3    3    0  501  0.91146608854E+02  0.14869584941E+03 -0.74831011324E+03  0.76838029355E+03  0.47000000000E+01 0. -1.
          1    1    1    2  502    0  0.48498135311E+02 -0.14071781605E+03 -0.11697796197E+04  0.11792107240E+04  0.00000000000E+00 0. -1.
          1    1    1    2  503    0 -0.67569565806E+02  0.10524466298E+02  0.16542008304E+04  0.16556137224E+04  0.00000000000E+00 0. -1.
<mgrwt>
<rscale>  0 0.88733825E+02</rscale>
<asrwt>0</asrwt>
<pdfrwt beam="1">  1        2 0.25849851E+00 0.68384286E+02</pdfrwt>
<pdfrwt beam="2">  1        2 0.38506905E+00 0.11513890E+03</pdfrwt>
<totfact> 0.86537596E+00</totfact>
</mgrwt>
</event>
<event>
13    1  0.3019759E-008  0.6070758E+02  0.7546771E-02  0.1403767E+00
          2   -1    0    0  503    0  0.00000000000E+00  0.00000000000E+00  0.23426279297E+04  0.23426279297E+04  0.00000000000E+00 0. -1.
          2   -1    0    0  502    0 -0.00000000000E+00 -0.00000000000E+00 -0.13330350610E+04  0.13330350610E+04  0.00000000000E+00 0. -1.
         25    2    1    2    0    0  0.14221395651E+03 -0.48143694592E+02 -0.46861454580E+03  0.50770877402E+03  0.12500392762E+03 0.  0.
         24    2    1    2    0    0 -0.87673980268E+02  0.35158771143E+02  0.69945996686E+02  0.14246699933E+03  0.80507996129E+02 0.  0.
         24    2    1    2    0    0 -0.43802908839E+02 -0.44788920042E+01  0.21265552516E+03  0.23134102052E+03  0.79734184011E+02 0.  0.
        -11    1    5    5    0    0 -0.49326274831E+02 -0.14584959304E+01  0.21773184188E+03  0.22325403370E+03  0.00000000000E+00 0.  1.
         12    1    5    5    0    0  0.55233659925E+01 -0.30203960738E+01 -0.50763167191E+01  0.80869868160E+01  0.00000000000E+00 0. -1.
        -13    1    4    4    0    0 -0.38258961440E+02 -0.13175983882E+02 -0.46943349040E+01  0.40735628901E+02  0.00000000000E+00 0.  1.
         14    1    4    4    0    0 -0.49415018827E+02  0.48334755025E+02  0.74640331590E+02  0.10173137043E+03  0.00000000000E+00 0. -1.
          5    1    3    3  501    0  0.13910017360E+03 -0.73748239146E+02 -0.44630299506E+03  0.47328227779E+03  0.47000000000E+01 0. -1.
         -5    1    3    3    0  501  0.31137829141E+01  0.25604544554E+02 -0.22311550744E+02  0.34426496227E+02  0.47000000000E+01 0. -1.
          1    1    1    2  502    0 -0.59993438246E+02 -0.10379478486E+02 -0.79770864977E+03  0.80002877206E+03  0.00000000000E+00 0. -1.
          1    1    1    2  503    0  0.49256370837E+02  0.27843293939E+02  0.19933145424E+04  0.19941174248E+04  0.00000000000E+00 0. -1.
<mgrwt>
<rscale>  0 0.58608116E+02</rscale>
<asrwt>0</asrwt>
<pdfrwt beam="1">  1        2 0.34450411E+00 0.56581261E+02</pdfrwt>
<pdfrwt beam="2">  1        2 0.19603457E+00 0.60707577E+02</pdfrwt>
<totfact> 0.21032706E+01</totfact>
</mgrwt>
</event>
<event>
13    1  0.3019759E-008  0.4266219E+03  0.7546771E-02  0.1228898E+00
          2   -1    0    0  502    0  0.00000000000E+00  0.00000000000E+00  0.19691547253E+04  0.19691547253E+04  0.00000000000E+00 0. -1.
          4   -1    0    0  503    0 -0.00000000000E+00 -0.00000000000E+00 -0.65934693590E+03  0.65934693590E+03  0.00000000000E+00 0. -1.
         25    2    1    2    0    0 -0.50655721919E+02  0.10782433601E+02 -0.29689878045E+03  0.32627681294E+03  0.12500163917E+03 0.  0.
         24    2    1    2    0    0  0.10766260366E+02 -0.69258530304E+02  0.16591211151E+02  0.11359792015E+03  0.87843968452E+02 0.  0.
         24    2    1    2    0    0 -0.36962000129E+03 -0.14526464259E+03 -0.50935084944E+02  0.40844513035E+03  0.80698698173E+02 0.  0.
        -11    1    5    5    0    0 -0.53516644023E+02  0.76490969606E+01 -0.89737275268E+01  0.54800252350E+02  0.00000000000E+00 0.  1.
         12    1    5    5    0    0 -0.31610335726E+03 -0.15291373955E+03 -0.41961357417E+02  0.35364487800E+03  0.00000000000E+00 0. -1.
        -11    1    4    4    0    0  0.51739218074E+01  0.18673231861E+02  0.16559122306E+02  0.25488499103E+02  0.00000000000E+00 0.  1.
         12    1    4    4    0    0  0.55923385582E+01 -0.87931762165E+02  0.32088845543E-01  0.88109421049E+02  0.00000000000E+00 0. -1.
          5    1    3    3  501    0 -0.54802956615E+02  0.51234631273E+02 -0.26172535379E+03  0.27230608203E+03  0.47000000000E+01 0. -1.
         -5    1    3    3    0  501  0.41472346957E+01 -0.40452197672E+02 -0.35173426664E+02  0.53970730914E+02  0.47000000000E+01 0. -1.
          1    1    1    2  502    0  0.39638500949E+03  0.16698737997E+03  0.16744519990E+04  0.17288132802E+04  0.00000000000E+00 0. -1.
          3    1    1    2  503    0  0.13124453350E+02  0.36753359325E+02 -0.33401555347E+02  0.51368517567E+02  0.00000000000E+00 0. -1.
<mgrwt>
<rscale>  0 0.12903303E+03</rscale>
<asrwt>0</asrwt>
<pdfrwt beam="1">  1        2 0.28958158E+00 0.42662193E+03</pdfrwt>
<pdfrwt beam="2">  1        4 0.96962785E-01 0.39026410E+02</pdfrwt>
<totfact> 0.36725068E+00</totfact>
</mgrwt>
</event>
<event>
13    1  0.3019759E-008  0.6686444E+02  0.7546771E-02  0.1383413E+00
          2   -1    0    0  503    0  0.00000000000E+00  0.00000000000E+00  0.77076478187E+03  0.77076478187E+03  0.00000000000E+00 0. -1.
          2   -1    0    0  502    0 -0.00000000000E+00 -0.00000000000E+00 -0.23139684843E+04  0.23139684843E+04  0.00000000000E+00 0. -1.
         25    2    1    2    0    0 -0.18519341934E+03 -0.53539831468E+02 -0.53263582670E+03  0.58007626053E+03  0.12499771204E+03 0.  0.
         24    2    1    2    0    0  0.43971172196E+01  0.14494484832E+03 -0.12570418046E+03  0.20756842535E+03  0.79087081880E+02 0.  0.
         24    2    1    2    0    0  0.68235954124E+02 -0.32652403933E+02  0.79731889079E+02  0.13687547161E+03  0.81580608443E+02 0.  0.
        -13    1    4    4    0    0  0.11269672221E+02  0.90323209689E+02 -0.27673630642E+02  0.95137361502E+02  0.00000000000E+00 0.  1.
         14    1    4    4    0    0 -0.68725550011E+01  0.54621638629E+02 -0.98030549821E+02  0.11243106384E+03  0.00000000000E+00 0. -1.
        -13    1    5    5    0    0 -0.35011170314E+01  0.17384196756E+02  0.33597908223E+02  0.37990624558E+02  0.00000000000E+00 0.  1.
         14    1    5    5    0    0  0.71737071156E+02 -0.50036600689E+02  0.46133980856E+02  0.98884847050E+02  0.00000000000E+00 0. -1.
          5    1    3    3  501    0 -0.10345239697E+03 -0.79772686621E+02 -0.22069663183E+03  0.25650569832E+03  0.47000000000E+01 0. -1.
         -5    1    3    3    0  501 -0.81741022372E+02  0.26232855153E+02 -0.31193919487E+03  0.32357056221E+03  0.47000000000E+01 0. -1.
          1    1    1    2  502    0  0.57886305835E+02 -0.32971236441E+02 -0.15601636682E+04  0.15615852837E+04  0.00000000000E+00 0. -1.
          1    1    1    2  503    0  0.54674042160E+02 -0.25781376477E+02  0.59556808387E+03  0.59862782493E+03  0.00000000000E+00 0. -1.
<mgrwt>
<rscale>  0 0.63575192E+02</rscale>
<asrwt>0</asrwt>
<pdfrwt beam="1">  1        2 0.11334776E+00 0.60447748E+02</pdfrwt>
<pdfrwt beam="2">  1        2 0.34028948E+00 0.66864443E+02</pdfrwt>
<totfact> 0.43707803E+01</totfact>
</mgrwt>
</event>
<event>
13    1  0.3019759E-008  0.4913102E+02  0.7546771E-02  0.1507753E+00
          2   -1    0    0  503    0  0.00000000000E+00  0.00000000000E+00  0.17323072346E+03  0.17323072346E+03  0.00000000000E+00 0. -1.
          2   -1    0    0  502    0 -0.00000000000E+00 -0.00000000000E+00 -0.16016000134E+04  0.16016000134E+04  0.00000000000E+00 0. -1.
         25    2    1    2    0    0  0.10216260318E+03  0.10927861985E+03 -0.53377880095E+03  0.56826364287E+03  0.12499898085E+03 0.  0.
         24    2    1    2    0    0  0.54443152569E+02 -0.55868567101E+02 -0.21417617739E+03  0.24166932765E+03  0.80294927074E+02 0.  0.
         24    2    1    2    0    0 -0.12020872467E+03 -0.56521822022E+02 -0.31730883061E+02  0.15834257116E+03  0.80129064948E+02 0.  0.
        -11    1    4    4    0    0 -0.62038402412E+01 -0.47533731066E+02 -0.68057409346E+02  0.83245145142E+02  0.00000000000E+00 0.  1.
         12    1    4    4    0    0  0.60646992810E+02 -0.83348360352E+01 -0.14611876805E+03  0.15842418251E+03  0.00000000000E+00 0. -1.
        -13    1    5    5    0    0 -0.62282767764E+02 -0.57171431225E+02  0.12492594762E+02  0.85462159068E+02  0.00000000000E+00 0.  1.
         14    1    5    5    0    0 -0.57925956909E+02  0.64960920310E+00 -0.44223477823E+02  0.72880412092E+02  0.00000000000E+00 0. -1.
          5    1    3    3  501    0 -0.16531503230E+02 -0.73795600586E-01 -0.16239061635E+03  0.16329757598E+03  0.47000000000E+01 0. -1.
         -5    1    3    3    0  501  0.11869410641E+03  0.10935241545E+03 -0.37138818461E+03  0.40496606688E+03  0.47000000000E+01 0. -1.
          1    1    1    2  502    0 -0.34041334992E+02  0.35694259824E+02 -0.72336325589E+03  0.72504295917E+03  0.00000000000E+00 0. -1.
          1    1    1    2  503    0 -0.23556960830E+01 -0.32582490551E+02  0.74679827395E+02  0.81512235979E+02  0.00000000000E+00 0. -1.
<mgrwt>
<rscale>  0 0.40062321E+02</rscale>
<asrwt>0</asrwt>
<pdfrwt beam="1">  1        2 0.25475106E-01 0.32667537E+02</pdfrwt>
<pdfrwt beam="2">  1        2 0.23552942E+00 0.49131024E+02</pdfrwt>
<totfact> 0.46356438E+02</totfact>
</mgrwt>
</event>
<event>
13    1  0.3019759E-008  0.2301801E+02  0.7546771E-02  0.1694424E+00
          2   -1    0    0  503    0  0.00000000000E+00  0.00000000000E+00  0.23417450145E+04  0.23417450145E+04  0.00000000000E+00 0. -1.
         -1   -1    0    0    0  501 -0.00000000000E+00 -0.00000000000E+00 -0.11935913108E+04  0.11935913108E+04  0.00000000000E+00 0.  1.
         25    2    1    2    0    0  0.14553098698E+03  0.12224441169E+03  0.49108406499E+02  0.23271255630E+03  0.12498213436E+03 0.  0.
         24    2    1    2    0    0  0.45469651160E+03 -0.38347600135E+02  0.67749894538E+03  0.82081168305E+03  0.80669337104E+02 0.  0.
         24    2    1    2    0    0 -0.63808897277E+03 -0.89101801781E+02  0.11953520287E+04  0.13601320586E+04  0.77434334137E+02 0.  0.
        -11    1    4    4    0    0  0.32572731527E+03  0.66112679155E+01  0.45203352522E+03  0.55720400277E+03  0.00000000000E+00 0.  1.
         12    1    4    4    0    0  0.12896919633E+03 -0.44958868051E+02  0.22546542016E+03  0.26360768029E+03  0.00000000000E+00 0. -1.
        -13    1    5    5    0    0 -0.34321214249E+03 -0.63094915628E+02  0.57164363210E+03  0.66974023715E+03  0.00000000000E+00 0.  1.
         14    1    5    5    0    0 -0.29487683027E+03 -0.26006886153E+02  0.62370839658E+03  0.69039182145E+03  0.00000000000E+00 0. -1.
          5    1    3    3  502    0  0.37503473504E+02  0.37900319967E+02 -0.42029394400E+02  0.68055159776E+02  0.47000000000E+01 0. -1.
         -5    1    3    3    0  502  0.10802751348E+03  0.84344091725E+02  0.91137800900E+02  0.16465739652E+03  0.47000000000E+01 0. -1.
          1    1    1    2  503    0  0.20398530745E+02 -0.97899222056E+01  0.17306090539E+03  0.17453372055E+03  0.00000000000E+00 0. -1.
         -2    1    1    2    0  501  0.17462943437E+02  0.14994912430E+02 -0.94686658225E+03  0.94714630674E+03  0.00000000000E+00 0.  1.
<mgrwt>
<rscale>  0 0.22821239E+02</rscale>
<asrwt>0</asrwt>
<pdfrwt beam="1">  1        2 0.34437427E+00 0.22626149E+02</pdfrwt>
<pdfrwt beam="2">  1       -1 0.17552813E+00 0.23018011E+02</pdfrwt>
<totfact> 0.26287366E+00</totfact>
</mgrwt>
</event>
<event>
13    1  0.3019759E-008  0.2316129E+03  0.7546771E-02  0.1171550E+00
          2   -1    0    0  502    0  0.00000000000E+00  0.00000000000E+00  0.24671879675E+04  0.24671879675E+04  0.00000000000E+00 0. -1.
          2   -1    0    0  503    0 -0.00000000000E+00 -0.00000000000E+00 -0.10056788330E+04  0.10056788330E+04  0.00000000000E+00 0. -1.
         25    2    1    2    0    0  0.39893285720E+02  0.29541298839E+03 -0.34081412710E+03  0.46971991710E+03  0.12498889284E+03 0.  0.
         24    2    1    2    0    0 -0.66481618001E+02 -0.52569368926E+03  0.46313471470E+03  0.70830950948E+03  0.80218057853E+02 0.  0.
         24    2    1    2    0    0 -0.30077459696E+02 -0.15561403372E+03  0.20282126649E+03  0.26875110781E+03  0.77267785878E+02 0.  0.
        -11    1    5    5    0    0 -0.43281815373E+02 -0.86702012469E+02  0.73516315519E+02  0.12163553410E+03  0.00000000000E+00 0.  1.
         12    1    5    5    0    0  0.13204355677E+02 -0.68912021255E+02  0.12930495098E+03  0.14711557371E+03  0.00000000000E+00 0. -1.
        -13    1    4    4    0    0 -0.33865443490E+02 -0.34727848016E+03  0.25461398612E+03  0.43194616907E+03  0.00000000000E+00 0.  1.
         14    1    4    4    0    0 -0.32616174511E+02 -0.17841520910E+03  0.20852072858E+03  0.27636334041E+03  0.00000000000E+00 0. -1.
          5    1    3    3  501    0  0.40709539272E+02  0.18384672455E+02 -0.34115890009E+02  0.56402541788E+02  0.47000000000E+01 0.  1.
         -5    1    3    3    0  501 -0.81625355210E+00  0.27702831594E+03 -0.30669823710E+03  0.41331737532E+03  0.47000000000E+01 0.  1.
          1    1    1    2  502    0  0.18929102698E+03  0.36663098178E+03  0.15433770867E+04  0.15975801080E+04  0.00000000000E+00 0. -1.
          1    1    1    2  503    0 -0.13262523500E+03  0.19263752816E+02 -0.40700980623E+03  0.42850615807E+03  0.00000000000E+00 0. -1.
<mgrwt>
<rscale>  0 0.17618187E+03</rscale>
<asrwt>0</asrwt>
<pdfrwt beam="1">  1        2 0.36282176E+00 0.23161286E+03</pdfrwt>
<pdfrwt beam="2">  1        2 0.14789395E+00 0.13401696E+03</pdfrwt>
<totfact> 0.21932157E+01</totfact>
</mgrwt>
</event>
<event>
13    1  0.3019759E-008  0.1206375E+03  0.7546771E-02  0.1301005E+00
          2   -1    0    0  502    0  0.00000000000E+00  0.00000000000E+00  0.39512284736E+03  0.39512284736E+03  0.00000000000E+00 0. -1.
          2   -1    0    0  503    0 -0.00000000000E+00 -0.00000000000E+00 -0.32726287107E+04  0.32726287107E+04  0.00000000000E+00 0. -1.
         25    2    1    2    0    0  0.49054294671E+02 -0.25126521331E+03 -0.13012134765E+04  0.13320369159E+04  0.12500121063E+03 0.  0.
         24    2    1    2    0    0 -0.59008962553E+02  0.42835670834E+02 -0.16228239697E+03  0.19482237539E+03  0.79392878959E+02 0.  0.
         24    2    1    2    0    0 -0.36503906352E+02  0.42473608864E+02  0.53769647606E+02  0.11146390655E+03  0.79978027174E+02 0.  0.
        -13    1    5    5    0    0 -0.19972672823E+02 -0.21812495740E+01 -0.16896738671E+02  0.26251957777E+02  0.00000000000E+00 0.  1.
         14    1    5    5    0    0 -0.16531233529E+02  0.44654858438E+02  0.70666386277E+02  0.85211948772E+02  0.00000000000E+00 0. -1.
        -13    1    4    4    0    0 -0.83382708472E+01  0.30701967850E+02 -0.92025064850E+01  0.33118329007E+02  0.00000000000E+00 0.  1.
         14    1    4    4    0    0 -0.50670691706E+02  0.12133702984E+02 -0.15307989049E+03  0.16170404639E+03  0.00000000000E+00 0. -1.
          5    1    3    3  501    0  0.78878430198E+01  0.77521784381E+01 -0.14377246131E+02  0.18737917290E+02  0.47000000000E+01 0.  1.
         -5    1    3    3    0  501  0.41166451651E+02 -0.25901739175E+03 -0.12868362304E+04  0.13132989986E+04  0.47000000000E+01 0.  1.
          1    1    1    2  502    0  0.70341640746E+02  0.10197594543E+03  0.26645703822E+03  0.29384756777E+03  0.00000000000E+00 0. -1.
          1    1    1    2  503    0 -0.23883066511E+02  0.63979988185E+02 -0.17342366757E+04  0.17355807924E+04  0.00000000000E+00 0. -1.
<mgrwt>
<rscale>  0 0.90766811E+02</rscale>
<asrwt>0</asrwt>
<pdfrwt beam="1">  1        2 0.58106304E-01 0.12063750E+03</pdfrwt>
<pdfrwt beam="2">  1        2 0.48126891E+00 0.68292311E+02</pdfrwt>
<totfact> 0.29040142E+01</totfact>
</mgrwt>
</event>
<event>
13    1  0.3019759E-008  0.1079240E+03  0.7546771E-02  0.1353810E+00
          2   -1    0    0  502    0  0.00000000000E+00  0.00000000000E+00  0.36147980900E+04  0.36147980900E+04  0.00000000000E+00 0. -1.
          2   -1    0    0  503    0 -0.00000000000E+00 -0.00000000000E+00 -0.32853506163E+04  0.32853506163E+04  0.00000000000E+00 0. -1.
         25    2    1    2    0    0 -0.55048817409E+02  0.66763763256E+01 -0.25910818482E+03  0.29297893396E+03  0.12499863201E+03 0.  0.
         24    2    1    2    0    0 -0.11005942080E+03 -0.62234378644E+02  0.21945178307E+03  0.26575511267E+03  0.80501557910E+02 0.  0.
         24    2    1    2    0    0  0.12662488849E+03  0.11925515875E+03  0.86303741564E+03  0.88596011710E+03  0.99177079178E+02 0.  0.
        -13    1    5    5    0    0 -0.68097842150E+01 -0.11157135083E+02  0.75449195009E+02  0.76573075241E+02  0.00000000000E+00 0.  1.
         14    1    5    5    0    0  0.13343467270E+03  0.13041229384E+03  0.78758822063E+03  0.80938704186E+03  0.00000000000E+00 0. -1.
        -13    1    4    4    0    0 -0.45282982517E+02 -0.69746638930E+02  0.14147646201E+03  0.16410585441E+03  0.00000000000E+00 0.  1.
         14    1    4    4    0    0 -0.64776438283E+02  0.75122602866E+01  0.77975321064E+02  0.10164925827E+03  0.00000000000E+00 0. -1.
          5    1    3    3  501    0 -0.58159502733E+02  0.59547022830E+02 -0.15026664309E+03  0.17184449282E+03  0.47000000000E+01 0.  1.
         -5    1    3    3    0  501  0.31106853243E+01 -0.52870646505E+02 -0.10884154173E+03  0.12113444114E+03  0.47000000000E+01 0.  1.
          1    1    1    2  502    0  0.86341208201E+02 -0.64996868600E+02  0.24793907056E+04  0.24817448838E+04  0.00000000000E+00 0. -1.
          1    1    1    2  503    0 -0.47857858479E+02  0.12997121643E+01 -0.29733242458E+04  0.29737096587E+04  0.00000000000E+00 0. -1.
<mgrwt>
<rscale>  0 0.71881273E+02</rscale>
<asrwt>0</asrwt>
<pdfrwt beam="1">  1        2 0.53158796E+00 0.10792403E+03</pdfrwt>
<pdfrwt beam="2">  1        2 0.48313979E+00 0.47875504E+02</pdfrwt>
<totfact> 0.45898362E-01</totfact>
</mgrwt>
</event>
<event>
13    1  0.3019759E-008  0.5676924E+02  0.7546771E-02  0.1509664E+00
          2   -1    0    0  503    0  0.00000000000E+00  0.00000000000E+00  0.16139425575E+04  0.16139425575E+04  0.00000000000E+00 0. -1.
          2   -1    0    0  502    0 -0.00000000000E+00 -0.00000000000E+00 -0.38656862099E+04  0.38656862099E+04  0.00000000000E+00 0. -1.
         25    2    1    2    0    0  0.76378427891E+02 -0.63430606862E+02 -0.93864565329E+02  0.18518435857E+03  0.12500233559E+03 0.  0.
         24    2    1    2    0    0 -0.24604454992E+02  0.15130927022E+03  0.23285113659E+03  0.29834404726E+03  0.10625273769E+03 0.  0.
         24    2    1    2    0    0 -0.26680327251E+01 -0.14173631651E+03  0.21565993924E+03  0.27460200805E+03  0.93812321245E+02 0.  0.
        -11    1    5    5    0    0 -0.28836487921E+02 -0.91618300497E+02  0.71466157446E+02  0.11971995524E+03  0.00000000000E+00 0.  1.
         12    1    5    5    0    0  0.26168455196E+02 -0.50118016009E+02  0.14419378180E+03  0.15488205282E+03  0.00000000000E+00 0. -1.
        -11    1    4    4    0    0 -0.44517572170E+02  0.14812468743E+03  0.23112600428E+03  0.27810423786E+03  0.00000000000E+00 0.  1.
         12    1    4    4    0    0  0.19913117178E+02  0.31845827860E+01  0.17251323088E+01  0.20239809405E+02  0.00000000000E+00 0. -1.
          5    1    3    3  501    0  0.94499940456E+02 -0.27370988894E+02 -0.10407245184E+03  0.14329192235E+03  0.47000000000E+01 0.  1.
         -5    1    3    3    0  501 -0.18121512565E+02 -0.36059617968E+02  0.10207886510E+02  0.41892436223E+02  0.47000000000E+01 0.  1.
          1    1    1    2  502    0 -0.50468818631E+02  0.25983207436E+02 -0.36635402342E+04  0.36639799776E+04  0.00000000000E+00 0. -1.
          1    1    1    2  503    0  0.13628784578E+01  0.27874445716E+02  0.10571500713E+04  0.10575183759E+04  0.00000000000E+00 0. -1.
<mgrwt>
<rscale>  0 0.39803284E+02</rscale>
<asrwt>0</asrwt>
<pdfrwt beam="1">  1        2 0.23734449E+00 0.27907744E+02</pdfrwt>
<pdfrwt beam="2">  1        2 0.56848327E+00 0.56769241E+02</pdfrwt>
<totfact> 0.25016212E+00</totfact>
</mgrwt>
</event>
<event>
13    1  0.3019759E-008  0.6584253E+02  0.7546771E-02  0.1536665E+00
          2   -1    0    0  503    0  0.00000000000E+00  0.00000000000E+00  0.15550806815E+04  0.15550806815E+04  0.00000000000E+00 0. -1.
          2   -1    0    0  502    0 -0.00000000000E+00 -0.00000000000E+00 -0.94349051321E+03  0.94349051321E+03  0.00000000000E+00 0. -1.
         25    2    1    2    0    0 -0.41092891630E+02  0.84241382468E+02  0.24220465486E+02  0.15817587685E+03  0.12509093015E+03 0.  0.
         24    2    1    2    0    0 -0.11573984592E+03  0.17150471463E+02  0.12178184242E+03  0.18738666049E+03  0.81197861921E+02 0.  0.
         24    2    1    2    0    0  0.76910762165E+02 -0.70356537437E+02  0.10737938083E+04  0.10819173450E+04  0.81527240456E+02 0.  0.
        -13    1    5    5    0    0 -0.15187883706E+02 -0.17229903631E+02  0.29604813732E+03  0.29693777295E+03  0.00000000000E+00 0.  1.
         14    1    5    5    0    0  0.92098645871E+02 -0.53126633806E+02  0.77774567102E+03  0.78497957208E+03  0.00000000000E+00 0. -1.
        -13    1    4    4    0    0 -0.33945330129E+02  0.38197484368E+02  0.19390418853E+02  0.54656395719E+02  0.00000000000E+00 0.  1.
         14    1    4    4    0    0 -0.81794515791E+02 -0.21047012905E+02  0.10239142357E+03  0.13273026477E+03  0.00000000000E+00 0. -1.
          5    1    3    3  501    0 -0.51367097659E+02  0.48616362357E+02 -0.41815984868E+02  0.82296998738E+02  0.47000000000E+01 0.  1.
         -5    1    3    3    0  501  0.10274206029E+02  0.35625020112E+02  0.66036450354E+02  0.75878878108E+02  0.47000000000E+01 0.  1.
          1    1    1    2  502    0  0.62191238320E+02 -0.21562506726E+02 -0.83791896077E+03  0.84050037278E+03  0.00000000000E+00 0. -1.
          1    1    1    2  503    0  0.17730737066E+02 -0.94728097690E+01  0.22971301277E+03  0.23059093954E+03  0.00000000000E+00 0. -1.
<mgrwt>
<rscale>  0 0.36381366E+02</rscale>
<asrwt>0</asrwt>
<pdfrwt beam="1">  1        2 0.22868834E+00 0.20102566E+02</pdfrwt>
<pdfrwt beam="2">  1        2 0.13874860E+00 0.65842529E+02</pdfrwt>
<totfact> 0.87032014E+01</totfact>
</mgrwt>
</event>
<event>
13    1  0.3019759E-008  0.1138705E+03  0.7546771E-02  0.1263667E+00
          2   -1    0    0  503    0  0.00000000000E+00  0.00000000000E+00  0.17632676487E+04  0.17632676487E+04  0.00000000000E+00 0. -1.
         -1   -1    0    0    0  501 -0.00000000000E+00 -0.00000000000E+00 -0.45773569469E+03  0.45773569469E+03  0.00000000000E+00 0.  1.
         25    2    1    2    0    0  0.35081639209E+03 -0.17482295985E+03 -0.50167524033E+02  0.41445977320E+03  0.12499965952E+03 0.  0.
         24    2    1    2    0    0 -0.83043431372E+01  0.33864730905E+02  0.86392260642E+02  0.12346956622E+03  0.81026717626E+02 0.  0.
         24    2    1    2    0    0 -0.11890620234E+03  0.13465162956E+03  0.42428846281E+03  0.46782048041E+03  0.81028118082E+02 0.  0.
        -13    1    5    5    0    0 -0.11911399022E+03  0.11663801179E+03  0.41566032323E+03  0.44784603690E+03  0.00000000000E+00 0.  1.
         14    1    5    5    0    0  0.20778787700E+00  0.18013617766E+02  0.86281395769E+01  0.19974443506E+02  0.00000000000E+00 0. -1.
        -13    1    4    4    0    0  0.21851343832E+02 -0.78972494224E+01  0.62515207507E+02  0.66693320096E+02  0.00000000000E+00 0.  1.
         14    1    4    4    0    0 -0.30155686969E+02  0.41761980328E+02  0.23877053135E+02  0.56776246123E+02  0.00000000000E+00 0. -1.
          5    1    3    3  502    0  0.37964282488E+02 -0.71179988096E+02  0.15357432962E+01  0.80822805926E+02  0.47000000000E+01 0.  1.
         -5    1    3    3    0  502  0.31285210961E+03 -0.10364297175E+03 -0.51703267329E+02  0.33363696727E+03  0.47000000000E+01 0.  1.
          1    1    1    2  503    0 -0.13491482026E+03 -0.45810764823E+02  0.10104502720E+04  0.10204461706E+04  0.00000000000E+00 0. -1.
         -2    1    1    2    0  501 -0.88691026354E+02  0.52117364207E+02 -0.16543151742E+03  0.19480735295E+03  0.00000000000E+00 0.  1.
<mgrwt>
<rscale>  0 0.10834416E+03</rscale>
<asrwt>0</asrwt>
<pdfrwt beam="1">  1        2 0.25930406E+00 0.11387052E+03</pdfrwt>
<pdfrwt beam="2">  1       -1 0.67314074E-01 0.10308600E+03</pdfrwt>
<totfact> 0.32144596E+01</totfact>
</mgrwt>
</event>
<event>
13    1  0.3019759E-008  0.3406473E+02  0.7546771E-02  0.1573950E+00
          4   -1    0    0  503    0  0.00000000000E+00  0.00000000000E+00  0.16966707326E+04  0.16966707326E+04  0.00000000000E+00 0. -1.
         -1   -1    0    0    0  501 -0.00000000000E+00 -0.00000000000E+00 -0.96234571320E+03  0.96234571320E+03  0.00000000000E+00 0.  1.
         25    2    1    2    0    0 -0.41549908197E+03 -0.10991877642E+03 -0.46406344605E+03  0.64474892010E+03  0.12499865392E+03 0.  0.
         24    2    1    2    0    0  0.17162254028E+03  0.53127563497E+02  0.81643559784E+02  0.21293430147E+03  0.79990696684E+02 0.  0.
         24    2    1    2    0    0  0.24029216020E+03  0.75538633378E+02  0.90230406632E+03  0.94002066700E+03  0.77716271854E+02 0.  0.
        -11    1    5    5    0    0  0.28723144980E+02  0.20032094335E+02  0.57186596557E+02  0.67056772117E+02  0.00000000000E+00 0.  1.
         12    1    5    5    0    0  0.21156901522E+03  0.55506539044E+02  0.84511746976E+03  0.87296389488E+03  0.00000000000E+00 0. -1.
        -13    1    4    4    0    0  0.44543790772E+02 -0.21273466092E+02  0.22386381277E+02  0.54202026923E+02  0.00000000000E+00 0.  1.
         14    1    4    4    0    0  0.12707874950E+03  0.74401029589E+02  0.59257178507E+02  0.15873227455E+03  0.00000000000E+00 0. -1.
          5    1    3    3  502    0 -0.23620706819E+03 -0.99447535917E+02 -0.34261752335E+03  0.42789303426E+03  0.47000000000E+01 0.  1.
         -5    1    3    3    0  502 -0.17929201378E+03 -0.10471240508E+02 -0.12144592271E+03  0.21685588585E+03  0.47000000000E+01 0.  1.
          3    1    1    2  503    0  0.30559909138E+02  0.20869721459E+01  0.53654068123E+03  0.53741433374E+03  0.00000000000E+00 0. -1.
         -2    1    1    2    0  501 -0.26975527640E+02 -0.20834392597E+02 -0.32209984190E+03  0.32389822345E+03  0.00000000000E+00 0.  1.
<mgrwt>
<rscale>  0 0.32302317E+02</rscale>
<asrwt>0</asrwt>
<pdfrwt beam="1">  1        4 0.24951040E+00 0.30631087E+02</pdfrwt>
<pdfrwt beam="2">  1       -1 0.14152143E+00 0.34064729E+02</pdfrwt>
<totfact> 0.15242448E-01</totfact>
</mgrwt>
</event>
<event>
13    1  0.3019759E-008  0.7514281E+02  0.7546771E-02  0.1455604E+00
          2   -1    0    0  503    0  0.00000000000E+00  0.00000000000E+00  0.20871023763E+04  0.20871023763E+04  0.00000000000E+00 0. -1.
          2   -1    0    0  502    0 -0.00000000000E+00 -0.00000000000E+00 -0.13705580391E+04  0.13705580391E+04  0.00000000000E+00 0. -1.
         25    2    1    2    0    0 -0.22861559872E+03  0.62923083806E+01 -0.16042580224E+03  0.30605029900E+03  0.12500264947E+03 0.  0.
         24    2    1    2    0    0  0.20852762108E+03  0.47911997015E+02  0.57518123431E+03  0.61919744274E+03  0.82417792866E+02 0.  0.
         24    2    1    2    0    0 -0.57363382685E+02 -0.43971358199E+02  0.29902051612E+03  0.31978815461E+03  0.87333594662E+02 0.  0.
        -11    1    4    4    0    0  0.10245678404E+03 -0.17421882578E+02  0.28720589985E+03  0.30543107814E+03  0.00000000000E+00 0.  1.
         12    1    4    4    0    0  0.10607083705E+03  0.65333879592E+02  0.28797533446E+03  0.31376636459E+03  0.00000000000E+00 0. -1.
        -13    1    5    5    0    0 -0.41305704952E+02  0.16476774449E+02  0.17908743920E+03  0.18452630229E+03  0.00000000000E+00 0.  1.
         14    1    5    5    0    0 -0.16057677733E+02 -0.60448132648E+02  0.11993307692E+03  0.13526185233E+03  0.00000000000E+00 0. -1.
          5    1    3    3  501    0 -0.20266207925E+03  0.42820042054E+02 -0.15865981994E+03  0.26096073043E+03  0.47000000000E+01 0. -1.
         -5    1    3    3    0  501 -0.25953519471E+02 -0.36527733673E+02 -0.17659823035E+01  0.45089568569E+02  0.47000000000E+01 0. -1.
          1    1    1    2  502    0  0.50578470585E+01 -0.30431302693E+02 -0.11034373529E+04  0.11038684875E+04  0.00000000000E+00 0. -1.
          1    1    1    2  503    0  0.72393513263E+02  0.20198355497E+02  0.11062057418E+04  0.11087560316E+04  0.00000000000E+00 0. -1.
<mgrwt>
<rscale>  0 0.48146261E+02</rscale>
<asrwt>0</asrwt>
<pdfrwt beam="1">  1        2 0.30692682E+00 0.75142808E+02</pdfrwt>
<pdfrwt beam="2">  1        2 0.20155265E+00 0.30848760E+02</pdfrwt>
<totfact> 0.27113527E+01</totfact>
</mgrwt>
</event>
<event>
13    1  0.3019759E-008  0.4407417E+02  0.7546771E-02  0.1631980E+00
          2   -1    0    0  503    0  0.00000000000E+00  0.00000000000E+00  0.88335469354E+03  0.88335469354E+03  0.00000000000E+00 0. -1.
          2   -1    0    0  502    0 -0.00000000000E+00 -0.00000000000E+00 -0.28101139028E+04  0.28101139028E+04  0.00000000000E+00 0. -1.
         25    2    1    2    0    0  0.24780338101E+01  0.57086945127E+02 -0.33929028700E+03  0.36607416501E+03  0.12500934158E+03 0.  0.
         24    2    1    2    0    0 -0.32544543170E+03 -0.22089540529E+03 -0.40149795545E+03  0.56789450365E+03  0.81203755788E+02 0.  0.
         24    2    1    2    0    0  0.35450311645E+03  0.17493793754E+03  0.20197989558E+03  0.45155296703E+03  0.82634510042E+02 0.  0.
        -11    1    4    4    0    0 -0.15899377128E+03 -0.11789089080E+03 -0.25803200877E+03  0.32520424196E+03  0.00000000000E+00 0.  1.
         12    1    4    4    0    0 -0.16645166042E+03 -0.10300451449E+03 -0.14346594668E+03  0.24269026169E+03  0.00000000000E+00 0. -1.
        -13    1    5    5    0    0  0.31788425150E+03  0.12584804028E+03  0.16129025043E+03  0.37802469691E+03  0.00000000000E+00 0.  1.
         14    1    5    5    0    0  0.36618864953E+02  0.49089897263E+02  0.40689645157E+02  0.73528270119E+02  0.00000000000E+00 0. -1.
          5    1    3    3  501    0 -0.12746345915E+01  0.96702163835E+02 -0.22443590762E+03  0.24443097147E+03  0.47000000000E+01 0. -1.
         -5    1    3    3    0  501  0.37526684016E+01 -0.39615218708E+02 -0.11485437937E+03  0.12164319354E+03  0.47000000000E+01 0. -1.
          1    1    1    2  502    0 -0.34367561119E+02 -0.27605944614E+02 -0.18475340154E+04  0.18480598355E+04  0.00000000000E+00 0. -1.
          1    1    1    2  503    0  0.28318425597E+01  0.16476467237E+02  0.45958315304E+03  0.45988712513E+03  0.00000000000E+00 0. -1.
<mgrwt>
<rscale>  0 0.27144691E+02</rscale>
<asrwt>0</asrwt>
<pdfrwt beam="1">  1        2 0.12990510E+00 0.16718053E+02</pdfrwt>
<pdfrwt beam="2">  1        2 0.41325204E+00 0.44074167E+02</pdfrwt>
<totfact> 0.23847159E+01</totfact>
</mgrwt>
</event>
<event>
13    1  0.3019759E-008  0.2233246E+03  0.7546771E-02  0.1243940E+00
          2   -1    0    0  503    0  0.00000000000E+00  0.00000000000E+00  0.13826917208E+04  0.13826917208E+04  0.00000000000E+00 0. -1.
          2   -1    0    0  502    0 -0.00000000000E+00 -0.00000000000E+00 -0.44693716476E+03  0.44693716476E+03  0.00000000000E+00 0. -1.
         25    2    1    2    0    0 -0.13785622260E+03  0.20570041566E+03  0.39369728001E+03  0.48160064251E+03  0.12499852585E+03 0.  0.
         24    2    1    2    0    0  0.57862612944E+00  0.17810979865E+02  0.63861145143E+02  0.10068714832E+03  0.75776580584E+02 0.  0.
         24    2    1    2    0    0  0.34524398633E+02 -0.16032443758E+02  0.18339482383E+03  0.20416368486E+03  0.81241463882E+02 0.  0.
        -11    1    5    5    0    0  0.48654524419E+02  0.12879588064E+02  0.14801465184E+03  0.15633772320E+03  0.00000000000E+00 0.  1.
         12    1    5    5    0    0 -0.14130125785E+02 -0.28912031822E+02  0.35380171985E+02  0.47825961658E+02  0.00000000000E+00 0. -1.
        -13    1    4    4    0    0 -0.36200777003E+02  0.18663847841E+02  0.38134301397E+02  0.55794806344E+02  0.00000000000E+00 0.  1.
         14    1    4    4    0    0  0.36779403133E+02 -0.85286797553E+00  0.25726843746E+02  0.44892341972E+02  0.00000000000E+00 0. -1.
          5    1    3    3  501    0 -0.67892176824E+00  0.52708565433E+02  0.22936276491E+02  0.57678562604E+02  0.47000000000E+01 0.  1.
         -5    1    3    3    0  501 -0.13717730083E+03  0.15299185022E+03  0.37076100352E+03  0.42392207991E+03  0.47000000000E+01 0.  1.
          1    1    1    2  502    0  0.14941161720E+03 -0.16376933957E+03 -0.33960584782E+03  0.40555685152E+03  0.00000000000E+00 0. -1.
          1    1    1    2  503    0 -0.46658419363E+02 -0.43709612191E+02  0.63440715489E+03  0.63762055838E+03  0.00000000000E+00 0. -1.
<mgrwt>
<rscale>  0 0.11949060E+03</rscale>
<asrwt>0</asrwt>
<pdfrwt beam="1">  1        2 0.20333702E+00 0.63933859E+02</pdfrwt>
<pdfrwt beam="2">  1        2 0.65726054E-01 0.22332461E+03</pdfrwt>
<totfact> 0.21865158E+02</totfact>
</mgrwt>
</event>
<event>
13    1  0.3019759E-008  0.1017742E+03  0.7546771E-02  0.1317038E+00
          2   -1    0    0  502    0  0.00000000000E+00  0.00000000000E+00  0.11270951004E+04  0.11270951004E+04  0.00000000000E+00 0. -1.
          2   -1    0    0  503    0 -0.00000000000E+00 -0.00000000000E+00 -0.45807008321E+03  0.45807008321E+03  0.00000000000E+00 0. -1.
         25    2    1    2    0    0  0.10170559668E+03 -0.15156504865E+03 -0.14394108297E+03  0.26392494592E+03  0.12498539652E+03 0.  0.
         24    2    1    2    0    0 -0.22133266743E+02  0.45784488604E+02  0.25898116528E+03  0.27601973280E+03  0.80805618834E+02 0.  0.
         24    2    1    2    0    0  0.26420903688E+02 -0.19886455551E+02  0.23571736904E+03  0.25110590267E+03  0.79987255388E+02 0.  0.
        -11    1    5    5    0    0 -0.16895204487E+02 -0.21602919712E+02  0.29087665295E+02  0.39977823190E+02  0.00000000000E+00 0.  1.
         12    1    5    5    0    0  0.43316108176E+02  0.17164641606E+01  0.20662970375E+03  0.21112807948E+03  0.00000000000E+00 0. -1.
        -13    1    4    4    0    0  0.27905106951E+02  0.54593530040E+01  0.51679729040E+02  0.58985539946E+02  0.00000000000E+00 0.  1.
         14    1    4    4    0    0 -0.50038373693E+02  0.40325135600E+02  0.20730143624E+03  0.21703419286E+03  0.00000000000E+00 0. -1.
          5    1    3    3  501    0  0.35553299319E+02  0.13320906150E+02 -0.55128517667E+01  0.38651845593E+02  0.47000000000E+01 0. -1.
         -5    1    3    3    0  501  0.66152297360E+02 -0.16488595480E+03 -0.13842823121E+03  0.22527310033E+03  0.47000000000E+01 0. -1.
          1    1    1    2  502    0 -0.60055974142E+02  0.35911144089E+02  0.54316263982E+03  0.54765133396E+03  0.00000000000E+00 0. -1.
          1    1    1    2  503    0 -0.45937259484E+02  0.89755871509E+02 -0.22489507399E+03  0.24646326822E+03  0.00000000000E+00 0. -1.
<mgrwt>
<rscale>  0 0.84389114E+02</rscale>
<asrwt>0</asrwt>
<pdfrwt beam="1">  1        2 0.16574928E+00 0.69973783E+02</pdfrwt>
<pdfrwt beam="2">  1        2 0.67363248E-01 0.10177416E+03</pdfrwt>
<totfact> 0.28819269E+02</totfact>
</mgrwt>
</event>
<event>
13    1  0.3019759E-008  0.1753733E+03  0.7546771E-02  0.1213509E+00
          2   -1    0    0  502    0  0.00000000000E+00  0.00000000000E+00  0.22715151531E+04  0.22715151531E+04  0.00000000000E+00 0. -1.
          2   -1    0    0  503    0 -0.00000000000E+00 -0.00000000000E+00 -0.17213861295E+04  0.17213861295E+04  0.00000000000E+00 0. -1.
         25    2    1    2    0    0 -0.11888452038E+03 -0.23854370873E+03 -0.37936526832E+03  0.48021030941E+03  0.12508918539E+03 0.  0.
         24    2    1    2    0    0  0.10024701317E+03 -0.13976887825E+02  0.17402593393E+03  0.21702112695E+03  0.81045214646E+02 0.  0.
         24    2    1    2    0    0 -0.56473041198E+02  0.12187142244E+03  0.29065440038E+02  0.15890738961E+03  0.79780390304E+02 0.  0.
        -13    1    5    5    0    0 -0.39187450936E+02  0.51489619629E+02 -0.24074727959E+02  0.69039334923E+02  0.00000000000E+00 0.  1.
         14    1    5    5    0    0 -0.17285590262E+02  0.70381802815E+02  0.53140167997E+02  0.89868054685E+02  0.00000000000E+00 0. -1.
        -13    1    4    4    0    0  0.27131794549E+02 -0.37511243264E+02  0.34449600366E+02  0.57706174817E+02  0.00000000000E+00 0.  1.
         14    1    4    4    0    0  0.73115218624E+02  0.23534355439E+02  0.13957633357E+03  0.15931495213E+03  0.00000000000E+00 0. -1.
          5    1    3    3  501    0 -0.11724401671E+03 -0.19038945725E+03 -0.22023331985E+03  0.31387753991E+03  0.47000000000E+01 0.  1.
         -5    1    3    3    0  501 -0.16405036701E+01 -0.48154251471E+02 -0.15913194847E+03  0.16633276950E+03  0.47000000000E+01 0.  1.
          1    1    1    2  502    0  0.15219498094E+03  0.50021002008E+02  0.19256681434E+04  0.19323206803E+04  0.00000000000E+00 0. -1.
          1    1    1    2  503    0 -0.77084432536E+02  0.80628172099E+02 -0.11992652254E+04  0.12044417764E+04  0.00000000000E+00 0. -1.
<mgrwt>
<rscale>  0 0.13986602E+03</rscale>
<asrwt>0</asrwt>
<pdfrwt beam="1">  1        2 0.33404634E+00 0.17537328E+03</pdfrwt>
<pdfrwt beam="2">  1        2 0.25314502E+00 0.11154780E+03</pdfrwt>
<totfact> 0.12227805E+01</totfact>
</mgrwt>
</event>
<event>
13    1  0.3019759E-008  0.1190319E+03  0.7546771E-02  0.1342375E+00
         -1   -1    0    0    0  501 -0.00000000000E+00  0.00000000000E+00  0.88920737200E+03  0.88920737200E+03  0.00000000000E+00 0.  1.
          2   -1    0    0  503    0  0.00000000000E+00 -0.00000000000E+00 -0.52583884035E+03  0.52583884035E+03  0.00000000000E+00 0. -1.
         25    2    1    2    0    0 -0.38717944366E+02  0.36158699471E+02  0.92708883744E+02  0.16439630051E+03  0.12499870293E+03 0.  0.
         24    2    1    2    0    0 -0.49315035685E+02  0.41650484701E+02  0.22238571840E+02  0.10528000810E+03  0.80141065669E+02 0.  0.
         24    2    1    2    0    0 -0.56119375907E+02  0.16194384332E+02 -0.17200335043E+03  0.19987067381E+03  0.83375603483E+02 0.  0.
        -13    1    5    5    0    0 -0.28772765118E+02 -0.15438479899E+02 -0.12477751166E+02  0.34955871442E+02  0.00000000000E+00 0.  1.
         14    1    5    5    0    0 -0.27346610789E+02  0.31632864231E+02 -0.15952559926E+03  0.16491480237E+03  0.00000000000E+00 0. -1.
        -13    1    4    4    0    0  0.14384490806E+02 -0.98631009474E+01  0.15060535520E+02  0.23043742452E+02  0.00000000000E+00 0.  1.
         14    1    4    4    0    0 -0.63699526492E+02  0.51513585648E+02  0.71780363204E+01  0.82236265644E+02  0.00000000000E+00 0. -1.
          5    1    3    3  502    0  0.84150649018E+01  0.32352855271E+02 -0.21959281718E+02  0.40271834017E+02  0.47000000000E+01 0.  1.
         -5    1    3    3    0  502 -0.47133009268E+02  0.38058441999E+01  0.11466816546E+03  0.12412446650E+03  0.47000000000E+01 0.  1.
          1    1    1    2  503    0  0.13757355232E+03 -0.14141903682E+03 -0.22445766932E+03  0.29884288780E+03  0.00000000000E+00 0. -1.
         -2    1    1    2    0  501  0.65788036432E+01  0.47415468320E+02  0.64488209582E+03  0.64665634212E+03  0.00000000000E+00 0.  1.
<mgrwt>
<rscale>  0 0.75485236E+02</rscale>
<asrwt>0</asrwt>
<pdfrwt beam="2">  1        2 0.77329240E-01 0.11903191E+03</pdfrwt>
<pdfrwt beam="1">  1       -1 0.13076579E+00 0.47869691E+02</pdfrwt>
<totfact> 0.42820133E+01</totfact>
</mgrwt>
</event>
<event>
13    1  0.3019759E-008  0.6725922E+02  0.7546771E-02  0.1549725E+00
          2   -1    0    0  503    0  0.00000000000E+00  0.00000000000E+00  0.23818486483E+04  0.23818486483E+04  0.00000000000E+00 0. -1.
          2   -1    0    0  502    0 -0.00000000000E+00 -0.00000000000E+00 -0.16834602485E+04  0.16834602485E+04  0.00000000000E+00 0. -1.
         25    2    1    2    0    0  0.40921154597E+02 -0.58051795516E+01 -0.19314455241E+03  0.23375918396E+03  0.12502118604E+03 0.  0.
         24    2    1    2    0    0  0.17603790784E+02 -0.72781709491E+02 -0.20552182539E+02  0.10752959220E+03  0.74385148412E+02 0.  0.
         24    2    1    2    0    0  0.11268257366E+02  0.44436097393E+02  0.50707148139E+03  0.51537523292E+03  0.79928737622E+02 0.  0.
        -11    1    4    4    0    0  0.88043215277E+01 -0.74593061709E+02 -0.40729089930E+02  0.85442961671E+02  0.00000000000E+00 0.  1.
         12    1    4    4    0    0  0.87994692567E+01  0.18113522180E+01  0.20176907391E+02  0.22086630525E+02  0.00000000000E+00 0. -1.
        -11    1    5    5    0    0  0.32704243593E+02  0.27778238386E+02  0.12159420821E+03  0.12894320280E+03  0.00000000000E+00 0.  1.
         12    1    5    5    0    0 -0.21435986226E+02  0.16657859006E+02  0.38547727318E+03  0.38643203013E+03  0.00000000000E+00 0. -1.
          5    1    3    3  501    0 -0.24561130927E+02  0.42445453470E+02 -0.86612104571E+02  0.99642422346E+02  0.47000000000E+01 0. -1.
         -5    1    3    3    0  501  0.65482285524E+02 -0.48250633022E+02 -0.10653244784E+03  0.13411676162E+03  0.47000000000E+01 0. -1.
          1    1    1    2  502    0 -0.65146316486E+02  0.16676191447E+02 -0.14009638534E+04  0.14025768630E+04  0.00000000000E+00 0. -1.
          1    1    1    2  503    0 -0.46468862616E+01  0.17474600203E+02  0.18059775068E+04  0.18060680248E+04  0.00000000000E+00 0. -1.
<mgrwt>
<rscale>  0 0.34873696E+02</rscale>
<asrwt>0</asrwt>
<pdfrwt beam="1">  1        2 0.35027186E+00 0.18081903E+02</pdfrwt>
<pdfrwt beam="2">  1        2 0.24756768E+00 0.67259221E+02</pdfrwt>
<totfact> 0.15923001E+01</totfact>
</mgrwt>
</event>
<event>
13    1  0.3019759E-008  0.1892941E+03  0.7546771E-02  0.1229644E+00
         -1   -1    0    0    0  501 -0.00000000000E+00  0.00000000000E+00  0.10828923010E+04  0.10828923010E+04  0.00000000000E+00 0.  1.
          2   -1    0    0  503    0  0.00000000000E+00 -0.00000000000E+00 -0.16045690797E+04  0.16045690797E+04  0.00000000000E+00 0. -1.
         25    2    1    2    0    0 -0.12852085353E+03  0.28677146481E+03  0.81181695219E+02  0.34780986117E+03  0.12500299623E+03 0.  0.
         24    2    1    2    0    0  0.26356296245E+03 -0.27721857441E+03 -0.27593770372E+03  0.47876839222E+03  0.82231282912E+02 0.  0.
         24    2    1    2    0    0 -0.27140685196E+02  0.23825453001E+03 -0.23991023758E+03  0.35095622033E+03  0.90063914121E+02 0.  0.
        -11    1    4    4    0    0  0.10404701261E+03 -0.81337969859E+02 -0.13772983773E+03  0.19081707045E+03  0.00000000000E+00 0.  1.
         12    1    4    4    0    0  0.15951594983E+03 -0.19588060455E+03 -0.13820786599E+03  0.28795132177E+03  0.00000000000E+00 0. -1.
        -13    1    5    5    0    0  0.33005756643E+02  0.87027660277E+02 -0.95885525382E+02  0.13363093804E+03  0.00000000000E+00 0.  1.
         14    1    5    5    0    0 -0.60146441839E+02  0.15122686974E+03 -0.14402471219E+03  0.21732528228E+03  0.00000000000E+00 0. -1.
          5    1    3    3  502    0 -0.48439418507E+02  0.10086879320E+02  0.58504743804E+01  0.50044384802E+02  0.47000000000E+01 0.  1.
         -5    1    3    3    0  502 -0.80081435023E+02  0.27668458549E+03  0.75331220838E+02  0.29776547637E+03  0.47000000000E+01 0.  1.
          1    1    1    2  503    0 -0.54371462793E+02 -0.17886997237E+03 -0.78476948679E+03  0.80673035791E+03  0.00000000000E+00 0. -1.
         -2    1    1    2    0  501 -0.53529960930E+02 -0.68937448049E+02  0.69775895419E+03  0.70319654906E+03  0.00000000000E+00 0.  1.
<mgrwt>
<rscale>  0 0.12853647E+03</rscale>
<asrwt>0</asrwt>
<pdfrwt beam="2">  1        2 0.23596604E+00 0.18929413E+03</pdfrwt>
<pdfrwt beam="1">  1       -1 0.15924887E+00 0.87280172E+02</pdfrwt>
<totfact> 0.54410778E+00</totfact>
</mgrwt>
</event>
<event>
13    1  0.3019759E-008  0.9327148E+02  0.7546771E-02  0.1345321E+00
          2   -1    0    0  503    0  0.00000000000E+00  0.00000000000E+00  0.23800626322E+04  0.23800626322E+04  0.00000000000E+00 0. -1.
          2   -1    0    0  502    0 -0.00000000000E+00 -0.00000000000E+00 -0.22650056086E+04  0.22650056086E+04  0.00000000000E+00 0. -1.
         25    2    1    2    0    0  0.19678565738E+03  0.69516047219E+02 -0.13683813800E+04  0.13898376750E+04  0.12499634348E+03 0.  0.
         24    2    1    2    0    0 -0.53134342503E+02 -0.10754280520E+03  0.20529563481E+02  0.14574876765E+03  0.80203036057E+02 0.  0.
         24    2    1    2    0    0  0.25884226984E+02  0.45872980390E+02  0.86701661899E+02  0.12909319244E+03  0.79834520234E+02 0.  0.
        -11    1    5    5    0    0  0.73547853892E+01 -0.21443311489E+02  0.36989971572E+02  0.43383942566E+02  0.00000000000E+00 0.  1.
         12    1    5    5    0    0  0.18529441595E+02  0.67316291879E+02  0.49711690327E+02  0.85709249870E+02  0.00000000000E+00 0. -1.
        -13    1    4    4    0    0 -0.68673965344E+02 -0.69355810897E+02  0.32410109545E+02  0.10284336256E+03  0.00000000000E+00 0.  1.
         14    1    4    4    0    0  0.15539622841E+02 -0.38186994300E+02 -0.11880546064E+02  0.42905405096E+02  0.00000000000E+00 0. -1.
          5    1    3    3  501    0  0.51205731737E+02  0.68503939608E+02 -0.31519372882E+03  0.32662515732E+03  0.47000000000E+01 0. -1.
         -5    1    3    3    0  501  0.14557992564E+03  0.10121076110E+01 -0.10531876512E+04  0.10632125177E+04  0.47000000000E+01 0. -1.
          1    1    1    2  502    0 -0.55939269813E+02  0.20450698837E+02 -0.79940917382E+03  0.80162488745E+03  0.00000000000E+00 0. -1.
          1    1    1    2  503    0 -0.11359627205E+03 -0.28296921249E+02  0.21756163520E+04  0.21787637183E+04  0.00000000000E+00 0. -1.
<mgrwt>
<rscale>  0 0.74533751E+02</rscale>
<asrwt>0</asrwt>
<pdfrwt beam="1">  1        2 0.35000921E+00 0.93271478E+02</pdfrwt>
<pdfrwt beam="2">  1        2 0.33308906E+00 0.59560331E+02</pdfrwt>
<totfact> 0.68355410E+00</totfact>
</mgrwt>
</event>
<event>
13    1  0.3019759E-008  0.1178292E+03  0.7546771E-02  0.1274039E+00
          4   -1    0    0  503    0 -0.00000000000E+00  0.00000000000E+00  0.23302910138E+03  0.23302910138E+03  0.00000000000E+00 0. -1.
          2   -1    0    0  502    0  0.00000000000E+00 -0.00000000000E+00 -0.18730130155E+04  0.18730130155E+04  0.00000000000E+00 0. -1.
         25    2    1    2    0    0  0.19491642107E+03 -0.52263606042E+02 -0.43204265689E+02  0.24127969962E+03  0.12500155660E+03 0.  0.
         24    2    1    2    0    0  0.30120141980E+02  0.14062714678E+03 -0.44935559211E+02  0.17092626230E+03  0.80705422977E+02 0.  0.
         24    2    1    2    0    0 -0.29251501028E+02 -0.84171667715E+02 -0.24571236867E+03  0.27181977843E+03  0.74638487852E+02 0.  0.
        -11    1    4    4    0    0 -0.18505020258E+02  0.97465535121E+02 -0.34742071362E+02  0.10511411815E+03  0.00000000000E+00 0.  1.
         12    1    4    4    0    0  0.48625162238E+02  0.43161611661E+02 -0.10193487849E+02  0.65812144155E+02  0.00000000000E+00 0. -1.
        -13    1    5    5    0    0  0.17542735355E+02 -0.60460845827E+02 -0.14997466923E+03  0.16265196849E+03  0.00000000000E+00 0.  1.
         14    1    5    5    0    0 -0.46794236383E+02 -0.23710821888E+02 -0.95737699433E+02  0.10916780994E+03  0.00000000000E+00 0. -1.
          5    1    3    3  501    0  0.96789827162E+02 -0.80137066858E+02 -0.57314085943E+02  0.13819267193E+03  0.47000000000E+01 0. -1.
         -5    1    3    3    0  501  0.98126593910E+02  0.27873460816E+02  0.14109820254E+02  0.10308702769E+03  0.47000000000E+01 0. -1.
          1    1    1    2  502    0 -0.88207133550E+02  0.18367697336E+02 -0.13089647620E+04  0.13120619722E+04  0.00000000000E+00 0. -1.
          3    1    1    2  503    0 -0.10757792847E+03 -0.22559570361E+02  0.28330414510E+01  0.10995440434E+03  0.00000000000E+00 0. -1.
<mgrwt>
<rscale>  0 0.10303554E+03</rscale>
<asrwt>0</asrwt>
<pdfrwt beam="2">  1        2 0.27544309E+00 0.90099227E+02</pdfrwt>
<pdfrwt beam="1">  1        4 0.34268986E-01 0.11782924E+03</pdfrwt>
<totfact> 0.44296600E+01</totfact>
</mgrwt>
</event>
<event>
13    1  0.3019759E-008  0.6523375E+02  0.7546771E-02  0.1502363E+00
          2   -1    0    0  502    0  0.00000000000E+00  0.00000000000E+00  0.63042509892E+03  0.63042509892E+03  0.00000000000E+00 0. -1.
          2   -1    0    0  503    0 -0.00000000000E+00 -0.00000000000E+00 -0.28035753162E+04  0.28035753162E+04  0.00000000000E+00 0. -1.
         25    2    1    2    0    0 -0.42266027592E+02  0.17779759934E+02 -0.60800540842E+03  0.62241408881E+03  0.12500473722E+03 0.  0.
         24    2    1    2    0    0  0.28760200924E+03 -0.19116936237E+03 -0.36325415309E+03  0.50830054679E+03  0.84588564872E+02 0.  0.
         24    2    1    2    0    0 -0.31773814546E+03  0.21274451938E+03 -0.40904699661E+03  0.56564892060E+03  0.80134239498E+02 0.  0.
        -11    1    4    4    0    0  0.11673873648E+03 -0.99279160235E+02 -0.10706111705E+03  0.18693947426E+03  0.00000000000E+00 0.  1.
         12    1    4    4    0    0  0.17086327276E+03 -0.91890202135E+02 -0.25619303604E+03  0.32136107254E+03  0.00000000000E+00 0. -1.
        -11    1    5    5    0    0 -0.15844434136E+03  0.13394242069E+03 -0.26702241332E+03  0.33815107657E+03  0.00000000000E+00 0.  1.
         12    1    5    5    0    0 -0.15929380410E+03  0.78802098683E+02 -0.14202458329E+03  0.22749784403E+03  0.00000000000E+00 0. -1.
          5    1    3    3  501    0 -0.31604350675E+02  0.69467702101E+02 -0.28439920567E+03  0.29449888760E+03  0.47000000000E+01 0.  1.
         -5    1    3    3    0  501 -0.10661676918E+02 -0.51687942167E+02 -0.32360620275E+03  0.32791520120E+03  0.47000000000E+01 0.  1.
          1    1    1    2  502    0  0.47450048398E+02 -0.44734514647E+02  0.47001642599E+03  0.47451883481E+03  0.00000000000E+00 0. -1.
          1    1    1    2  503    0  0.24952115417E+02  0.53795977074E+01 -0.12628600852E+04  0.12631180241E+04  0.00000000000E+00 0. -1.
<mgrwt>
<rscale>  0 0.40805885E+02</rscale>
<asrwt>0</asrwt>
<pdfrwt beam="1">  1        2 0.92709572E-01 0.65233750E+02</pdfrwt>
<pdfrwt beam="2">  1        2 0.41229049E+00 0.25525441E+02</pdfrwt>
<totfact> 0.36789297E+01</totfact>
</mgrwt>
</event>
<event>
13    1  0.3019759E-008  0.7092697E+02  0.7546771E-02  0.1390200E+00
          2   -1    0    0  502    0  0.00000000000E+00  0.00000000000E+00  0.30030519607E+04  0.30030519607E+04  0.00000000000E+00 0. -1.
          4   -1    0    0  503    0 -0.00000000000E+00 -0.00000000000E+00 -0.38051203299E+03  0.38051203299E+03  0.00000000000E+00 0. -1.
         25    2    1    2    0    0 -0.13717109308E+03  0.17776544639E+03  0.23670020394E+02  0.25807350075E+03  0.12500079686E+03 0.  0.
         24    2    1    2    0    0  0.12011030435E+03 -0.18330039174E+03  0.15196007857E+04  0.15374752035E+04  0.81350689965E+02 0.  0.
         24    2    1    2    0    0  0.26831390169E+01  0.23519337331E+02  0.31053879480E+03  0.32202176572E+03  0.81873781258E+02 0.  0.
        -13    1    5    5    0    0  0.76591295244E+01 -0.26269702793E+02  0.18272677051E+03  0.18476426119E+03  0.00000000000E+00 0.  1.
         14    1    5    5    0    0 -0.49759905076E+01  0.49789040124E+02  0.12781202428E+03  0.13725750453E+03  0.00000000000E+00 0. -1.
        -13    1    4    4    0    0  0.10295928016E+02 -0.12234179163E+02  0.29342708193E+02  0.33416699383E+02  0.00000000000E+00 0.  1.
         14    1    4    4    0    0  0.10981437633E+03 -0.17106621258E+03  0.14902580775E+04  0.15040585041E+04  0.00000000000E+00 0. -1.
          5    1    3    3  501    0 -0.15472799144E+03  0.14884828195E+03 -0.29461097002E+01  0.21477274486E+03  0.47000000000E+01 0. -1.
         -5    1    3    3    0  501  0.17556898354E+02  0.28917164443E+02  0.26616130094E+02  0.43300755888E+02  0.47000000000E+01 0. -1.
          1    1    1    2  502    0  0.10281663081E+02  0.52958142361E+02  0.10115510423E+04  0.10129885432E+04  0.00000000000E+00 0. -1.
          3    1    1    2  503    0  0.40959866384E+01 -0.70942534337E+02 -0.24282071549E+03  0.25300498049E+03  0.00000000000E+00 0. -1.
<mgrwt>
<rscale>  0 0.61857064E+02</rscale>
<asrwt>0</asrwt>
<pdfrwt beam="1">  1        2 0.44162528E+00 0.53946987E+02</pdfrwt>
<pdfrwt beam="2">  1        4 0.55957654E-01 0.70926970E+02</pdfrwt>
<totfact> 0.48011341E+00</totfact>
</mgrwt>
</event>
<event>
13    1  0.3019759E-008  0.1371012E+03  0.7546771E-02  0.1363651E+00
          2   -1    0    0  503    0  0.00000000000E+00  0.00000000000E+00  0.14850476985E+04  0.14850476985E+04  0.00000000000E+00 0. -1.
          2   -1    0    0  502    0 -0.00000000000E+00 -0.00000000000E+00 -0.24464543098E+04  0.24464543098E+04  0.00000000000E+00 0. -1.
         25    2    1    2    0    0  0.39932909961E+02 -0.81400098561E+02 -0.63756850671E+03  0.65600230550E+03  0.12499924289E+03 0.  0.
         24    2    1    2    0    0 -0.48913981437E+02 -0.45636884003E+02 -0.81362100253E+02  0.13316263350E+03  0.81468968579E+02 0.  0.
         24    2    1    2    0    0 -0.15772037955E+03  0.86869379778E+02  0.53811929397E+03  0.57316086336E+03  0.80740284055E+02 0.  0.
        -11    1    5    5    0    0 -0.14704405085E+02  0.56277195155E+01  0.16055648240E+03  0.16132660908E+03  0.00000000000E+00 0.  1.
         12    1    5    5    0    0 -0.14301597447E+03  0.81241660262E+02  0.37756281158E+03  0.41183425428E+03  0.00000000000E+00 0. -1.
        -11    1    4    4    0    0 -0.51553277192E+02 -0.76501300407E+01 -0.79472319041E+02  0.95037436690E+02  0.00000000000E+00 0.  1.
         12    1    4    4    0    0  0.26392957553E+01 -0.37986753962E+02 -0.18897812116E+01  0.38125196809E+02  0.00000000000E+00 0. -1.
          5    1    3    3  501    0  0.47187481836E+01  0.31490446588E+02 -0.84721500726E+02  0.90629672271E+02  0.47000000000E+01 0. -1.
         -5    1    3    3    0  501  0.35214161777E+02 -0.11289054515E+03 -0.55284700599E+03  0.56537263323E+03  0.47000000000E+01 0. -1.
          1    1    1    2  502    0  0.34574629826E+02  0.28297801283E+01 -0.16694345061E+04  0.16697948924E+04  0.00000000000E+00 0. -1.
          1    1    1    2  503    0  0.13212682120E+03  0.37337822658E+02  0.88883920777E+03  0.89938131355E+03  0.00000000000E+00 0. -1.
<mgrwt>
<rscale>  0 0.68964293E+02</rscale>
<asrwt>0</asrwt>
<pdfrwt beam="1">  1        2 0.21838937E+00 0.13710121E+03</pdfrwt>
<pdfrwt beam="2">  1        2 0.35977269E+00 0.34690239E+02</pdfrwt>
<totfact> 0.15894146E+01</totfact>
</mgrwt>
</event>
<event>
13    1  0.3019759E-008  0.8574933E+02  0.7546771E-02  0.1364650E+00
          2   -1    0    0  503    0  0.00000000000E+00  0.00000000000E+00  0.75086087947E+03  0.75086087947E+03  0.00000000000E+00 0. -1.
         -1   -1    0    0    0  501 -0.00000000000E+00 -0.00000000000E+00 -0.24511437192E+04  0.24511437192E+04  0.00000000000E+00 0.  1.
         25    2    1    2    0    0  0.66771977910E+02 -0.38353244714E+02 -0.34154537503E+03  0.37176221819E+03  0.12499774099E+03 0.  0.
         24    2    1    2    0    0 -0.21026323651E+03 -0.55392136216E+01  0.33571429944E+03  0.40492262144E+03  0.83767099680E+02 0.  0.
         24    2    1    2    0    0  0.11384397679E+03  0.35023046687E+02  0.17202269753E+03  0.22225570681E+03  0.74958160945E+02 0.  0.
        -13    1    5    5    0    0  0.27734377158E+02 -0.22601352184E+02  0.31525883274E+02  0.47685407758E+02  0.00000000000E+00 0.  1.
         14    1    5    5    0    0  0.86109599637E+02  0.57624398871E+02  0.14049681425E+03  0.17457029905E+03  0.00000000000E+00 0. -1.
        -13    1    4    4    0    0 -0.24670624531E+02 -0.19354341821E+02  0.16535662523E+02  0.35449377951E+02  0.00000000000E+00 0.  1.
         14    1    4    4    0    0 -0.18559261198E+03  0.13815128200E+02  0.31917863692E+03  0.36947324349E+03  0.00000000000E+00 0. -1.
          5    1    3    3  502    0  0.89779948071E+01  0.43131223578E+02 -0.75495454812E+02  0.87536052775E+02  0.47000000000E+01 0.  1.
         -5    1    3    3    0  502  0.57793983102E+02 -0.81484468292E+02 -0.26604992022E+03  0.28422616541E+03  0.47000000000E+01 0.  1.
          1    1    1    2  503    0 -0.50697438441E+02 -0.21335501400E+02  0.16286896000E+03  0.17190617213E+03  0.00000000000E+00 0. -1.
         -2    1    1    2    0  501  0.80344720249E+02  0.30204913048E+02 -0.20293434217E+04  0.20311578801E+04  0.00000000000E+00 0.  1.
<mgrwt>
<rscale>  0 0.68677152E+02</rscale>
<asrwt>0</asrwt>
<pdfrwt beam="1">  1        2 0.11042072E+00 0.55003944E+02</pdfrwt>
<pdfrwt beam="2">  1       -1 0.36046231E+00 0.85749328E+02</pdfrwt>
<totfact> 0.93279945E-01</totfact>
</mgrwt>
</event>
<event>
13    1  0.3019759E-008  0.9841620E+02  0.7546771E-02  0.1330749E+00
          2   -1    0    0  502    0  0.00000000000E+00  0.00000000000E+00  0.33978838339E+04  0.33978838339E+04  0.00000000000E+00 0. -1.
          2   -1    0    0  503    0 -0.00000000000E+00 -0.00000000000E+00 -0.87839505353E+03  0.87839505353E+03  0.00000000000E+00 0. -1.
         25    2    1    2    0    0  0.44058080154E+01  0.72902621089E+02 -0.77787211220E+02  0.16434344836E+03  0.12499486182E+03 0.  0.
         24    2    1    2    0    0 -0.13479502779E+03 -0.69040929311E+02  0.74423513516E+03  0.76389341663E+03  0.81919876242E+02 0.  0.
         24    2    1    2    0    0  0.16252803909E+03  0.14608025723E+03  0.16089331846E+04  0.16257063934E+04  0.80625552519E+02 0.  0.
        -11    1    4    4    0    0 -0.13136846593E+03 -0.84423691723E+02  0.68737377406E+03  0.70488845843E+03  0.00000000000E+00 0.  1.
         12    1    4    4    0    0 -0.34265618634E+01  0.15382762412E+02  0.56861361101E+02  0.59004958197E+02  0.00000000000E+00 0. -1.
        -13    1    5    5    0    0  0.82411936947E+02  0.46719481406E+02  0.45645994370E+03  0.46618678391E+03  0.00000000000E+00 0.  1.
         14    1    5    5    0    0  0.80116102139E+02  0.99360775827E+02  0.11524732410E+04  0.11595196095E+04  0.00000000000E+00 0. -1.
          5    1    3    3  501    0  0.39064005722E+02 -0.20767155621E+02 -0.28831432908E+02  0.53015213091E+02  0.47000000000E+01 0. -1.
         -5    1    3    3    0  501 -0.34658197706E+02  0.93669776710E+02 -0.48955778312E+02  0.11132823527E+03  0.47000000000E+01 0. -1.
          1    1    1    2  502    0  0.13233435472E+02 -0.62684267737E+02  0.97889823035E+03  0.98099244983E+03  0.00000000000E+00 0. -1.
          1    1    1    2  503    0 -0.45372254784E+02 -0.87257681274E+02 -0.73479055858E+03  0.74134317925E+03  0.00000000000E+00 0. -1.
<mgrwt>
<rscale>  0 0.79404808E+02</rscale>
<asrwt>0</asrwt>
<pdfrwt beam="1">  1        2 0.49968880E+00 0.64065913E+02</pdfrwt>
<pdfrwt beam="2">  1        2 0.12917574E+00 0.98416196E+02</pdfrwt>
<totfact> 0.10210646E+01</totfact>
</mgrwt>
</event>
<event>
13    1  0.3019759E-008  0.4236003E+02  0.7546771E-02  0.1494926E+00
          2   -1    0    0  502    0  0.00000000000E+00  0.00000000000E+00  0.16592095111E+04  0.16592095111E+04  0.00000000000E+00 0. -1.
          2   -1    0    0  503    0 -0.00000000000E+00 -0.00000000000E+00 -0.53166974427E+03  0.53166974427E+03  0.00000000000E+00 0. -1.
         25    2    1    2    0    0 -0.71353317521E+02 -0.65955684723E+02  0.17169022368E+03  0.23354446327E+03  0.12499614053E+03 0.  0.
         24    2    1    2    0    0  0.58336057463E+02 -0.29637290791E+02  0.35768156071E+03  0.37244113356E+03  0.80590535967E+02 0.  0.
         24    2    1    2    0    0  0.66784618597E+01  0.53480183957E+02  0.54590265467E+03  0.55439123197E+03  0.80219684479E+02 0.  0.
        -13    1    5    5    0    0 -0.34674875331E+02  0.15191195612E+02  0.16139297116E+03  0.16577337103E+03  0.00000000000E+00 0.  1.
         14    1    5    5    0    0  0.41353337191E+02  0.38288988345E+02  0.38450968351E+03  0.38861786094E+03  0.00000000000E+00 0. -1.
        -13    1    4    4    0    0  0.19143735143E+02  0.27862307636E+02  0.10178255393E+03  0.10724961103E+03  0.00000000000E+00 0.  1.
         14    1    4    4    0    0  0.39192322320E+02 -0.57499598427E+02  0.25589900678E+03  0.26519152253E+03  0.00000000000E+00 0. -1.
          5    1    3    3  501    0 -0.40301024067E+02  0.32491504088E+02  0.37108535378E+02  0.63867078974E+02  0.47000000000E+01 0. -1.
         -5    1    3    3    0  501 -0.31052293454E+02 -0.98447188812E+02  0.13458168831E+03  0.16967738430E+03  0.47000000000E+01 0. -1.
          1    1    1    2  502    0  0.38668163657E+02  0.14716170994E+02  0.53967271690E+03  0.54125634771E+03  0.00000000000E+00 0. -1.
          1    1    1    2  503    0 -0.32329365460E+02  0.27396620563E+02 -0.48740738914E+03  0.48924607886E+03  0.00000000000E+00 0. -1.
<mgrwt>
<rscale>  0 0.41864017E+02</rscale>
<asrwt>0</asrwt>
<pdfrwt beam="1">  1        2 0.24400140E+00 0.41373815E+02</pdfrwt>
<pdfrwt beam="2">  1        2 0.78186727E-01 0.42360027E+02</pdfrwt>
<totfact> 0.14144110E+02</totfact>
</mgrwt>
</event>
<event>
13    1  0.3019759E-008  0.1608670E+03  0.7546771E-02  0.1495125E+00
          2   -1    0    0  502    0  0.00000000000E+00  0.00000000000E+00  0.11107253787E+04  0.11107253787E+04  0.00000000000E+00 0. -1.
          2   -1    0    0  503    0 -0.00000000000E+00 -0.00000000000E+00 -0.76643630512E+03  0.76643630512E+03  0.00000000000E+00 0. -1.
         25    2    1    2    0    0  0.14822013723E+03 -0.34981355799E+02 -0.40830921771E+03  0.45335358343E+03  0.12498059852E+03 0.  0.
         24    2    1    2    0    0 -0.13571710090E+03 -0.12739886379E+03 -0.20958339797E+03  0.29118722460E+03  0.78836521292E+02 0.  0.
         24    2    1    2    0    0  0.41987607295E+02  0.32483121087E+03  0.45783861776E+03  0.56788692299E+03  0.74840381222E+02 0.  0.
        -13    1    5    5    0    0  0.36915852757E+02  0.13407012639E+03  0.14112278753E+03  0.19812425428E+03  0.00000000000E+00 0.  1.
         14    1    5    5    0    0  0.50717545371E+01  0.19076108448E+03  0.31671583023E+03  0.36976266870E+03  0.00000000000E+00 0. -1.
        -13    1    4    4    0    0 -0.18774840366E+02 -0.68266099063E+02 -0.65954498556E+02  0.96761308341E+02  0.00000000000E+00 0.  1.
         14    1    4    4    0    0 -0.11694226054E+03 -0.59132764724E+02 -0.14362889942E+03  0.19442591625E+03  0.00000000000E+00 0. -1.
          5    1    3    3  501    0 -0.85558871421E+01  0.25757314075E+02 -0.41356132842E+02  0.49689658449E+02  0.47000000000E+01 0. -1.
         -5    1    3    3    0  501  0.15677602437E+03 -0.60738669874E+02 -0.36695308487E+03  0.40366392498E+03  0.47000000000E+01 0. -1.
          1    1    1    2  502    0 -0.53134259936E+02 -0.15165616097E+03  0.52078763533E+03  0.54501614825E+03  0.00000000000E+00 0. -1.
          1    1    1    2  503    0 -0.13563836851E+01 -0.10794830310E+02 -0.16444563817E+02  0.19717804575E+02  0.00000000000E+00 0. -1.
<mgrwt>
<rscale>  0 0.41835239E+02</rscale>
<asrwt>0</asrwt>
<pdfrwt beam="1">  1        2 0.16334197E+00 0.16086705E+03</pdfrwt>
<pdfrwt beam="2">  1        2 0.11271122E+00 0.10879712E+02</pdfrwt>
<totfact> 0.16986786E+02</totfact>
</mgrwt>
</event>
<event>
13    1  0.3019759E-008  0.7159560E+02  0.7546771E-02  0.1380258E+00
          2   -1    0    0  502    0  0.00000000000E+00  0.00000000000E+00  0.18968313316E+03  0.18968313316E+03  0.00000000000E+00 0. -1.
          2   -1    0    0  503    0 -0.00000000000E+00 -0.00000000000E+00 -0.16125640854E+04  0.16125640854E+04  0.00000000000E+00 0. -1.
         25    2    1    2    0    0  0.12870421558E+03  0.19924164855E+03 -0.66407932623E+03  0.71616198129E+03  0.12499848920E+03 0.  0.
         24    2    1    2    0    0  0.11420640651E+02 -0.10751865501E+03 -0.56133115638E+02  0.14553281987E+03  0.79612704888E+02 0.  0.
         24    2    1    2    0    0 -0.38799445445E+02 -0.48365243199E+02 -0.70172793536E+01  0.97725128392E+02  0.75208807949E+02 0.  0.
        -11    1    4    4    0    0 -0.20655827334E+02 -0.21603391213E+02 -0.43760826703E+02  0.52994147493E+02  0.00000000000E+00 0.  1.
         12    1    4    4    0    0  0.32076467985E+02 -0.85915263794E+02 -0.12372288935E+02  0.92538672374E+02  0.00000000000E+00 0. -1.
        -13    1    5    5    0    0 -0.43792809064E+02  0.27880426554E+01  0.70361797828E+01  0.44441997406E+02  0.00000000000E+00 0.  1.
         14    1    5    5    0    0  0.49933636189E+01 -0.51153285854E+02 -0.14053459136E+02  0.53283130985E+02  0.00000000000E+00 0. -1.
          5    1    3    3  501    0  0.28170802460E+02  0.20339713461E+02 -0.26575414773E+03  0.26805718623E+03  0.47000000000E+01 0. -1.
         -5    1    3    3    0  501  0.10053341312E+03  0.17890193509E+03 -0.39832517850E+03  0.44810479506E+03  0.47000000000E+01 0. -1.
          1    1    1    2  502    0 -0.70811888878E+02  0.58731159594E+01  0.55056166454E+02  0.89888812218E+02  0.00000000000E+00 0. -1.
          1    1    1    2  503    0 -0.30513521905E+02 -0.49230866304E+02 -0.75070739748E+03  0.75293847680E+03  0.00000000000E+00 0. -1.
<mgrwt>
<rscale>  0 0.64395915E+02</rscale>
<asrwt>0</asrwt>
<pdfrwt beam="1">  1        2 0.27894580E-01 0.71595601E+02</pdfrwt>
<pdfrwt beam="2">  1        2 0.23714177E+00 0.57920231E+02</pdfrwt>
<totfact> 0.42150765E+02</totfact>
</mgrwt>
</event>
<event>
13    1  0.3019759E-008  0.9686004E+02  0.7546771E-02  0.1369268E+00
          2   -1    0    0  503    0  0.00000000000E+00  0.00000000000E+00  0.11234401423E+04  0.11234401423E+04  0.00000000000E+00 0. -1.
          2   -1    0    0  502    0 -0.00000000000E+00 -0.00000000000E+00 -0.10596316072E+04  0.10596316072E+04  0.00000000000E+00 0. -1.
         25    2    1    2    0    0  0.16028621117E+03  0.12267344280E+02 -0.54453549408E+03  0.58136327913E+03  0.12498880263E+03 0.  0.
         24    2    1    2    0    0 -0.14456390188E+03 -0.42774991281E+02  0.34100230697E+02  0.17456787813E+03  0.81133819927E+02 0.  0.
         24    2    1    2    0    0  0.23538735063E+02  0.69564386043E+02  0.34964089913E+03  0.36631399617E+03  0.80894434844E+02 0.  0.
        -11    1    5    5    0    0  0.34026925014E+02  0.84105995946E+02  0.30495504903E+03  0.31816541627E+03  0.00000000000E+00 0.  1.
         12    1    5    5    0    0 -0.10488189952E+02 -0.14541609904E+02  0.44685850102E+02  0.48148579900E+02  0.00000000000E+00 0. -1.
        -13    1    4    4    0    0 -0.46541249547E+02  0.23669939827E+02  0.17042114718E+02  0.54925291395E+02  0.00000000000E+00 0.  1.
         14    1    4    4    0    0 -0.98022652333E+02 -0.66444931107E+02  0.17058115979E+02  0.11964258674E+03  0.00000000000E+00 0. -1.
          5    1    3    3  501    0  0.82835388382E+02  0.25272258576E+02 -0.45042099736E+03  0.45869549102E+03  0.47000000000E+01 0.  1.
         -5    1    3    3    0  501  0.77450822792E+02 -0.13004914296E+02 -0.94114496719E+02  0.12266778811E+03  0.47000000000E+01 0.  1.
          1    1    1    2  502    0  0.69830354358E+01  0.46336747224E+02 -0.41311141363E+03  0.41576062464E+03  0.00000000000E+00 0. -1.
          1    1    1    2  503    0 -0.46244079793E+02 -0.85393486266E+02  0.63771431304E+03  0.64506597141E+03  0.00000000000E+00 0. -1.
<mgrwt>
<rscale>  0 0.67371053E+02</rscale>
<asrwt>0</asrwt>
<pdfrwt beam="1">  1        2 0.16521178E+00 0.96860043E+02</pdfrwt>
<pdfrwt beam="2">  1        2 0.15582818E+00 0.46859971E+02</pdfrwt>
<totfact> 0.11050571E+02</totfact>
</mgrwt>
</event>
<event>
13    1  0.3019759E-008  0.3707041E+02  0.7546771E-02  0.1732672E+00
          2   -1    0    0  503    0  0.00000000000E+00  0.00000000000E+00  0.15023846209E+04  0.15023846209E+04  0.00000000000E+00 0. -1.
         -1   -1    0    0    0  501 -0.00000000000E+00 -0.00000000000E+00 -0.22190928889E+03  0.22190928889E+03  0.00000000000E+00 0.  1.
         25    2    1    2    0    0  0.57852148777E+01 -0.51694023400E+02  0.44328177610E+02  0.14246265753E+03  0.12499952278E+03 0.  0.
         24    2    1    2    0    0  0.10195046374E+00  0.10390284835E+03  0.61012152715E+02  0.14783576686E+03  0.85656983926E+02 0.  0.
         24    2    1    2    0    0 -0.20335341784E+02 -0.82723832420E+02  0.77726489228E+03  0.78429885458E+03  0.61050978252E+02 0.  0.
        -13    1    5    5    0    0 -0.18723107363E+02  0.30890734457E+01  0.14134302929E+03  0.14261118138E+03  0.00000000000E+00 0.  1.
         14    1    5    5    0    0 -0.16122344211E+01 -0.85812905866E+02  0.63592186299E+03  0.64168767321E+03  0.00000000000E+00 0. -1.
        -13    1    4    4    0    0 -0.24319867260E+02  0.10263157902E+02  0.41395460989E+02  0.49095545054E+02  0.00000000000E+00 0.  1.
         14    1    4    4    0    0  0.24421817724E+02  0.93639690448E+02  0.19616691727E+02  0.98740221807E+02  0.00000000000E+00 0. -1.
          5    1    3    3  502    0 -0.12427119190E+02 -0.83699905250E+02  0.13732989305E+00  0.84747957437E+02  0.47000000000E+01 0. -1.
         -5    1    3    3    0  502  0.18212334067E+02  0.32005881850E+02  0.44190847717E+02  0.57714700095E+02  0.47000000000E+01 0. -1.
          1    1    1    2  503    0  0.96539522920E+01 -0.62579938821E+01  0.52098795845E+03  0.52111497208E+03  0.00000000000E+00 0. -1.
         -2    1    1    2    0  501  0.47942241503E+01  0.36773001353E+02 -0.12311784904E+03  0.12858165875E+03  0.00000000000E+00 0.  1.
<mgrwt>
<rscale>  0 0.20651612E+02</rscale>
<asrwt>0</asrwt>
<pdfrwt beam="1">  1        2 0.22093891E+00 0.11504837E+02</pdfrwt>
<pdfrwt beam="2">  1       -1 0.32633720E-01 0.37070415E+02</pdfrwt>
<totfact> 0.18953109E+02</totfact>
</mgrwt>
</event>
<event>
13    1  0.3019759E-008  0.1911155E+03  0.7546771E-02  0.1254890E+00
          2   -1    0    0  502    0  0.00000000000E+00  0.00000000000E+00  0.47113278711E+03  0.47113278711E+03  0.00000000000E+00 0. -1.
          2   -1    0    0  503    0 -0.00000000000E+00 -0.00000000000E+00 -0.33168694754E+04  0.33168694754E+04  0.00000000000E+00 0. -1.
         25    2    1    2    0    0 -0.26767861759E+03 -0.10854407395E+02 -0.14865780905E+04  0.15156945270E+04  0.12508325098E+03 0.  0.
         24    2    1    2    0    0  0.57533776633E+02  0.54266167006E+02 -0.29844891818E+03  0.31873957393E+03  0.79172008272E+02 0.  0.
         24    2    1    2    0    0  0.83878444431E+01  0.54662413762E+02 -0.16540546465E+03  0.19211487059E+03  0.80565627631E+02 0.  0.
        -11    1    5    5    0    0 -0.30652942139E+02  0.49199110637E+02 -0.90580515057E+02  0.10754062050E+03  0.00000000000E+00 0.  1.
         12    1    5    5    0    0  0.39040786582E+02  0.54633031245E+01 -0.74824949590E+02  0.84574250095E+02  0.00000000000E+00 0. -1.
        -11    1    4    4    0    0 -0.17147862213E+02  0.16013055307E+02 -0.34088624717E+02  0.41382380959E+02  0.00000000000E+00 0.  1.
         12    1    4    4    0    0  0.74681638846E+02  0.38253111699E+02 -0.26436029346E+03  0.27735719297E+03  0.00000000000E+00 0. -1.
          5    1    3    3  501    0 -0.19545653572E+02  0.37749044479E+02 -0.21641458935E+03  0.22060006214E+03  0.47000000000E+01 0.  1.
         -5    1    3    3    0  501 -0.24813296402E+03 -0.48603451875E+02 -0.12701635011E+04  0.12950944649E+04  0.47000000000E+01 0.  1.
          1    1    1    2  502    0  0.14186719875E+03 -0.12802407829E+03  0.41109545655E+03  0.45333866049E+03  0.00000000000E+00 0. -1.
          1    1    1    2  503    0  0.59889797769E+02  0.29949904920E+02 -0.13063996715E+04  0.13081146305E+04  0.00000000000E+00 0. -1.
<mgrwt>
<rscale>  0 0.11312514E+03</rscale>
<asrwt>0</asrwt>
<pdfrwt beam="1">  1        2 0.69284234E-01 0.19111550E+03</pdfrwt>
<pdfrwt beam="2">  1        2 0.48777492E+00 0.66961068E+02</pdfrwt>
<totfact> 0.22712832E+01</totfact>
</mgrwt>
</event>
<event>
13    1  0.3019759E-008  0.1282405E+03  0.7546771E-02  0.1266959E+00
          2   -1    0    0  502    0  0.00000000000E+00  0.00000000000E+00  0.50654859552E+04  0.50654859552E+04  0.00000000000E+00 0. -1.
          2   -1    0    0  503    0 -0.00000000000E+00 -0.00000000000E+00 -0.35706055479E+03  0.35706055479E+03  0.00000000000E+00 0. -1.
         25    2    1    2    0    0  0.47553321189E+02  0.91158260418E+02  0.18932916790E+03  0.24907990330E+03  0.12499647039E+03 0.  0.
         24    2    1    2    0    0 -0.10253069597E+03 -0.90191548196E+02  0.60853916264E+03  0.62886087974E+03  0.80616590225E+02 0.  0.
         24    2    1    2    0    0  0.73740712793E+02  0.19084459854E+03  0.87440573271E+03  0.90193358221E+03  0.83901417186E+02 0.  0.
        -11    1    4    4    0    0 -0.78520207554E+02 -0.58692406237E+02  0.54673905885E+03  0.55545820726E+03  0.00000000000E+00 0.  1.
         12    1    4    4    0    0 -0.24010488421E+02 -0.31499141959E+02  0.61800103786E+02  0.73402672474E+02  0.00000000000E+00 0. -1.
        -11    1    5    5    0    0  0.28628220555E+02  0.10729564737E+03  0.30333923786E+03  0.32302728086E+03  0.00000000000E+00 0.  1.
         12    1    5    5    0    0  0.45112492238E+02  0.83548951168E+02  0.57106649485E+03  0.57890630135E+03  0.00000000000E+00 0. -1.
          5    1    3    3  501    0 -0.18518325570E+02  0.74687052200E+02  0.44601429169E+02  0.89064367916E+02  0.47000000000E+01 0.  1.
         -5    1    3    3    0  501  0.66071646758E+02  0.16471208218E+02  0.14472773873E+03  0.16001553538E+03  0.47000000000E+01 0.  1.
          1    1    1    2  502    0 -0.55285816419E+02 -0.69292600343E+02  0.33253206144E+04  0.33265019426E+04  0.00000000000E+00 0. -1.
          1    1    1    2  503    0  0.36522478412E+02 -0.12251871041E+03 -0.28916927721E+03  0.31617020212E+03  0.00000000000E+00 0. -1.
<mgrwt>
<rscale>  0 0.10662043E+03</rscale>
<asrwt>0</asrwt>
<pdfrwt beam="1">  1        2 0.74492436E+00 0.88645282E+02</pdfrwt>
<pdfrwt beam="2">  1        2 0.52508908E-01 0.12824052E+03</pdfrwt>
<totfact> 0.15223146E+00</totfact>
</mgrwt>
</event>
<event>
13    1  0.3019759E-008  0.8413684E+02  0.7546771E-02  0.1374331E+00
          2   -1    0    0  503    0  0.00000000000E+00  0.00000000000E+00  0.16109163833E+04  0.16109163833E+04  0.00000000000E+00 0. -1.
          2   -1    0    0  502    0 -0.00000000000E+00 -0.00000000000E+00 -0.27144688346E+04  0.27144688346E+04  0.00000000000E+00 0. -1.
         25    2    1    2    0    0  0.64412271333E+02  0.75156889349E+01 -0.19643525783E+03  0.24169587471E+03  0.12499863621E+03 0.  0.
         24    2    1    2    0    0  0.16559079506E+02  0.74398546739E+02 -0.51839653336E+02  0.12670982897E+03  0.86940693737E+02 0.  0.
         24    2    1    2    0    0 -0.52903738480E+02  0.22591153407E+02  0.21142607063E+03  0.24187631924E+03  0.10244024944E+03 0.  0.
        -11    1    4    4    0    0 -0.23837033425E+00  0.90024933267E+02 -0.29623250399E+02  0.94773848684E+02  0.00000000000E+00 0.  1.
         12    1    4    4    0    0  0.16797449840E+02 -0.15626386529E+02 -0.22216402937E+02  0.31935980281E+02  0.00000000000E+00 0. -1.
        -13    1    5    5    0    0 -0.12510248385E+02  0.60644557079E+02  0.10731167467E+03  0.12389537577E+03  0.00000000000E+00 0.  1.
         14    1    5    5    0    0 -0.40393490094E+02 -0.38053403672E+02  0.10411439597E+03  0.11798094346E+03  0.00000000000E+00 0. -1.
          5    1    3    3  501    0  0.58995859222E+02  0.37287910457E+02 -0.19902818086E+03  0.21096257120E+03  0.47000000000E+01 0.  1.
         -5    1    3    3    0  501  0.54164121107E+01 -0.29772221522E+02  0.25929230338E+01  0.30733303505E+02  0.47000000000E+01 0.  1.
          1    1    1    2  502    0  0.18537433913E+02 -0.82038481855E+02 -0.23896579303E+04  0.23911375897E+04  0.00000000000E+00 0. -1.
          1    1    1    2  503    0 -0.46605046272E+02 -0.22466907226E+02  0.13229543196E+04  0.13239656053E+04  0.00000000000E+00 0. -1.
<mgrwt>
<rscale>  0 0.65977637E+02</rscale>
<asrwt>0</asrwt>
<pdfrwt beam="1">  1        2 0.23689947E+00 0.51737726E+02</pdfrwt>
<pdfrwt beam="2">  1        2 0.39918659E+00 0.84136836E+02</pdfrwt>
<totfact> 0.97264221E+00</totfact>
</mgrwt>
</event>
<event>
13    1  0.3019759E-008  0.2085555E+03  0.7546771E-02  0.1255585E+00
          2   -1    0    0  502    0  0.00000000000E+00  0.00000000000E+00  0.11722839160E+04  0.11722839160E+04  0.00000000000E+00 0. -1.
          2   -1    0    0  503    0 -0.00000000000E+00 -0.00000000000E+00 -0.14413087606E+04  0.14413087606E+04  0.00000000000E+00 0. -1.
         25    2    1    2    0    0  0.89156362517E+02  0.39347581998E+02 -0.36656343603E+03  0.39936233416E+03  0.12499772850E+03 0.  0.
         24    2    1    2    0    0  0.11473699891E+03 -0.29104256606E+02 -0.27556937169E+03  0.31392220679E+03  0.92720206184E+02 0.  0.
         24    2    1    2    0    0  0.16649506088E+02 -0.15861130199E+03  0.19647807986E+03  0.26498222282E+03  0.78595110354E+02 0.  0.
        -11    1    4    4    0    0  0.12230699418E+03 -0.13337365359E+02 -0.26794753050E+03  0.29484362846E+03  0.00000000000E+00 0.  1.
         12    1    4    4    0    0 -0.75699952770E+01 -0.15766891248E+02 -0.76218411824E+01  0.19078578331E+02  0.00000000000E+00 0. -1.
        -11    1    5    5    0    0 -0.23131208590E+02 -0.39420869521E+02  0.87220671435E+02  0.98470824563E+02  0.00000000000E+00 0.  1.
         12    1    5    5    0    0  0.39780714677E+02 -0.11919043247E+03  0.10925740842E+03  0.16651139825E+03  0.00000000000E+00 0. -1.
          5    1    3    3  501    0  0.45451633555E+02 -0.43192066622E+02 -0.18015692081E+03  0.19081407633E+03  0.47000000000E+01 0. -1.
         -5    1    3    3    0  501  0.43704728962E+02  0.82539648620E+02 -0.18640651522E+03  0.20854825783E+03  0.47000000000E+01 0. -1.
          1    1    1    2  502    0 -0.26191144394E+03  0.10361973823E+03  0.88274171901E+03  0.92658922781E+03  0.00000000000E+00 0. -1.
          1    1    1    2  503    0  0.41368576429E+02  0.44748238372E+02 -0.70611183582E+03  0.70873668498E+03  0.00000000000E+00 0. -1.
<mgrwt>
<rscale>  0 0.11273647E+03</rscale>
<asrwt>0</asrwt>
<pdfrwt beam="1">  1        2 0.17239469E+00 0.20855554E+03</pdfrwt>
<pdfrwt beam="2">  1        2 0.21195717E+00 0.60940659E+02</pdfrwt>
<totfact> 0.62618499E+01</totfact>
</mgrwt>
</event>
<event>
13    1  0.3019759E-008  0.2235233E+03  0.7546771E-02  0.1237111E+00
          2   -1    0    0  503    0  0.00000000000E+00  0.00000000000E+00  0.92993950936E+03  0.92993950936E+03  0.00000000000E+00 0. -1.
          2   -1    0    0  502    0 -0.00000000000E+00 -0.00000000000E+00 -0.99868454164E+03  0.99868454164E+03  0.00000000000E+00 0. -1.
         25    2    1    2    0    0 -0.14904945277E+03 -0.24012085044E+03  0.30461964926E+02  0.31052377256E+03  0.12499327914E+03 0.  0.
         24    2    1    2    0    0  0.35944869043E+02  0.10455082665E+02  0.77186910777E+02  0.11792845841E+03  0.80919464557E+02 0.  0.
         24    2    1    2    0    0 -0.99311768609E+01  0.13961180480E+03  0.27303063509E+03  0.31715819715E+03  0.80333741382E+02 0.  0.
        -11    1    5    5    0    0  0.22315882450E+02  0.71746174227E+01  0.58088483155E+02  0.62639808588E+02  0.00000000000E+00 0.  1.
         12    1    5    5    0    0 -0.32247059311E+02  0.13243718738E+03  0.21494215194E+03  0.25451838856E+03  0.00000000000E+00 0. -1.
        -13    1    4    4    0    0  0.57187822662E+02 -0.89523003102E+01  0.37732663825E+02  0.69096632776E+02  0.00000000000E+00 0.  1.
         14    1    4    4    0    0 -0.21242953619E+02  0.19407382975E+02  0.39454246952E+02  0.48831825637E+02  0.00000000000E+00 0. -1.
          5    1    3    3  501    0 -0.15562214412E+03 -0.20922082858E+03  0.59345632258E+02  0.26746140080E+03  0.47000000000E+01 0.  1.
         -5    1    3    3    0  501  0.65726913508E+01 -0.30900021865E+02 -0.28883667332E+02  0.43062371758E+02  0.47000000000E+01 0.  1.
          1    1    1    2  502    0  0.16635810423E+03  0.14306221385E+03 -0.79808460149E+03  0.82769610789E+03  0.00000000000E+00 0. -1.
          1    1    1    2  503    0 -0.43322343651E+02 -0.53008250871E+02  0.34866005842E+03  0.35531751499E+03  0.00000000000E+00 0. -1.
<mgrwt>
<rscale>  0 0.12370242E+03</rscale>
<asrwt>0</asrwt>
<pdfrwt beam="1">  1        2 0.13675581E+00 0.68459478E+02</pdfrwt>
<pdfrwt beam="2">  1        2 0.14686537E+00 0.22352332E+03</pdfrwt>
<totfact> 0.14483034E+02</totfact>
</mgrwt>
</event>
<event>
13    1  0.3019759E-008  0.5503826E+02  0.7546771E-02  0.1615514E+00
          2   -1    0    0  503    0  0.00000000000E+00  0.00000000000E+00  0.55942578080E+03  0.55942578080E+03  0.00000000000E+00 0. -1.
         -1   -1    0    0    0  501 -0.00000000000E+00 -0.00000000000E+00 -0.21925390101E+03  0.21925390101E+03  0.00000000000E+00 0.  1.
         25    2    1    2    0    0 -0.11499225102E+02 -0.36204413827E+02  0.40217037501E+02  0.13669440829E+03  0.12499983757E+03 0.  0.
         24    2    1    2    0    0  0.41635928445E+02 -0.73704157066E+02  0.68427670977E+01  0.12005324696E+03  0.84853434444E+02 0.  0.
         24    2    1    2    0    0  0.11509537757E+02  0.99186140424E+02  0.22154886088E+03  0.25573607760E+03  0.79666076318E+02 0.  0.
        -13    1    4    4    0    0  0.20042514733E+02 -0.89474037030E+02 -0.25105179169E+01  0.91725723761E+02  0.00000000000E+00 0.  1.
         14    1    4    4    0    0  0.21593413711E+02  0.15769879964E+02  0.93532850145E+01  0.28327523195E+02  0.00000000000E+00 0. -1.
        -13    1    5    5    0    0  0.40615656508E+01  0.10680807186E+02 -0.49441686382E+01  0.12450733360E+02  0.00000000000E+00 0.  1.
         14    1    5    5    0    0  0.74479721063E+01  0.88505333238E+02  0.22649302952E+03  0.24328534424E+03  0.00000000000E+00 0. -1.
          5    1    3    3  502    0  0.33277669802E+02 -0.61387978033E+02  0.47518054396E+02  0.84592804942E+02  0.47000000000E+01 0.  1.
         -5    1    3    3    0  502 -0.44776894903E+02  0.25183564206E+02 -0.73010168952E+01  0.52101603344E+02  0.47000000000E+01 0.  1.
          1    1    1    2  503    0 -0.55274204075E+02  0.51107835213E+01  0.16371669290E+03  0.17287137785E+03  0.00000000000E+00 0. -1.
         -2    1    1    2    0  501  0.13627962975E+02  0.56116469479E+01 -0.92153478600E+02  0.93324571118E+02  0.00000000000E+00 0.  1.
<mgrwt>
<rscale>  0 0.28480872E+02</rscale>
<asrwt>0</asrwt>
<pdfrwt beam="1">  1        2 0.82268497E-01 0.55038259E+02</pdfrwt>
<pdfrwt beam="2">  1       -1 0.32243221E-01 0.14738112E+02</pdfrwt>
<totfact> 0.57461493E+02</totfact>
</mgrwt>
</event>
<event>
13    1  0.3019759E-008  0.9552702E+02  0.7546771E-02  0.1361238E+00
          2   -1    0    0  503    0  0.00000000000E+00  0.00000000000E+00  0.40694790750E+04  0.40694790750E+04  0.00000000000E+00 0. -1.
          2   -1    0    0  502    0 -0.00000000000E+00 -0.00000000000E+00 -0.25982558605E+03  0.25982558605E+03  0.00000000000E+00 0. -1.
         25    2    1    2    0    0 -0.13770734426E+02 -0.20096309181E+03  0.41879141625E+03  0.48123406556E+03  0.12499671248E+03 0.  0.
         24    2    1    2    0    0 -0.33111084792E+02  0.11399102402E+03  0.30152603056E+03  0.33509925465E+03  0.85342052194E+02 0.  0.
         24    2    1    2    0    0 -0.92288528653E+01  0.25169079179E+02  0.11010005050E+04  0.11041600449E+04  0.79048330267E+02 0.  0.
        -11    1    4    4    0    0  0.17273324281E+02  0.40668753758E+02  0.17456885429E+03  0.18007387416E+03  0.00000000000E+00 0.  1.
         12    1    4    4    0    0 -0.50384409073E+02  0.73322270257E+02  0.12695717626E+03  0.15502538049E+03  0.00000000000E+00 0. -1.
        -13    1    5    5    0    0 -0.35930679875E+02  0.29685391584E+02  0.41205252816E+03  0.41468002387E+03  0.00000000000E+00 0.  1.
         14    1    5    5    0    0  0.26701827009E+02 -0.45163124052E+01  0.68894797684E+03  0.68948002105E+03  0.00000000000E+00 0. -1.
          5    1    3    3  501    0  0.29822677799E+02 -0.33610585237E+02  0.26227507104E+02  0.52240173047E+02  0.47000000000E+01 0. -1.
         -5    1    3    3    0  501 -0.43593412225E+02 -0.16735250658E+03  0.39256390915E+03  0.42899389251E+03  0.47000000000E+01 0. -1.
          1    1    1    2  502    0  0.16854348412E+02  0.94051120062E+02 -0.19907131150E+03  0.22081455864E+03  0.00000000000E+00 0. -1.
          1    1    1    2  503    0  0.39256323671E+02 -0.32248131443E+02  0.21874068486E+04  0.21879967372E+04  0.00000000000E+00 0. -1.
<mgrwt>
<rscale>  0 0.69664280E+02</rscale>
<asrwt>0</asrwt>
<pdfrwt beam="1">  1        2 0.59845277E+00 0.50803552E+02</pdfrwt>
<pdfrwt beam="2">  1        2 0.38209647E-01 0.95527018E+02</pdfrwt>
<totfact> 0.15824611E+01</totfact>
</mgrwt>
</event>
<event>
13    1  0.3019759E-008  0.6478862E+02  0.7546771E-02  0.1560188E+00
          2   -1    0    0  503    0  0.00000000000E+00  0.00000000000E+00  0.72735163323E+03  0.72735163323E+03  0.00000000000E+00 0. -1.
         -1   -1    0    0    0  501 -0.00000000000E+00 -0.00000000000E+00 -0.10801379670E+04  0.10801379670E+04  0.00000000000E+00 0.  1.
         25    2    1    2    0    0  0.18395326371E+03 -0.18723364113E+03 -0.10455437539E+03  0.30896223114E+03  0.12502321088E+03 0.  0.
         24    2    1    2    0    0 -0.27175376043E+03  0.23601788538E+03  0.27070365965E+03  0.45742666007E+03  0.80025805037E+02 0.  0.
         24    2    1    2    0    0  0.12250236345E+03 -0.10348251387E+03  0.16117482450E+02  0.18315748120E+03  0.87013964101E+02 0.  0.
        -13    1    5    5    0    0  0.98596468602E+01  0.12438955722E+02 -0.10933153973E+02  0.19273663675E+02  0.00000000000E+00 0.  1.
         14    1    5    5    0    0  0.11264271659E+03 -0.11592146959E+03  0.27050636423E+02  0.16388381752E+03  0.00000000000E+00 0. -1.
        -13    1    4    4    0    0 -0.49210674420E+02  0.11904226140E+02  0.21031710167E+02  0.54824573955E+02  0.00000000000E+00 0.  1.
         14    1    4    4    0    0 -0.22254308601E+03  0.22411365924E+03  0.24967194948E+03  0.40260208612E+03  0.00000000000E+00 0. -1.
          5    1    3    3  502    0  0.18056368583E+03 -0.13280760149E+03 -0.46104078439E+02  0.22888595348E+03  0.47000000000E+01 0.  1.
         -5    1    3    3    0  502  0.33895778757E+01 -0.54426039640E+02 -0.58450296954E+02  0.80076277655E+02  0.47000000000E+01 0.  1.
          1    1    1    2  503    0 -0.48150322914E+02  0.43408333543E+02  0.15482084485E+03  0.16784585493E+03  0.00000000000E+00 0. -1.
         -2    1    1    2    0  501  0.13448456181E+02  0.11289936073E+02 -0.68987394534E+03  0.69009737290E+03  0.00000000000E+00 0.  1.
<mgrwt>
<rscale>  0 0.33728815E+02</rscale>
<asrwt>0</asrwt>
<pdfrwt beam="1">  1        2 0.10696348E+00 0.64788625E+02</pdfrwt>
<pdfrwt beam="2">  1       -1 0.15884382E+00 0.17559147E+02</pdfrwt>
<totfact> 0.20104489E+01</totfact>
</mgrwt>
</event>
<event>
13    1  0.3019759E-008  0.7478668E+02  0.7546771E-02  0.1395952E+00
          2   -1    0    0  502    0  0.00000000000E+00  0.00000000000E+00  0.13334497413E+04  0.13334497413E+04  0.00000000000E+00 0. -1.
          2   -1    0    0  503    0 -0.00000000000E+00 -0.00000000000E+00 -0.30524690194E+04  0.30524690194E+04  0.00000000000E+00 0. -1.
         25    2    1    2    0    0 -0.31597653181E+02  0.42165022987E+02 -0.52470239038E+03  0.54195379805E+03  0.12500007957E+03 0.  0.
         24    2    1    2    0    0 -0.11143773365E+03 -0.97507774043E+02 -0.13680569319E+03  0.21696316571E+03  0.80194034095E+02 0.  0.
         24    2    1    2    0    0  0.44366081556E+02  0.22254962240E+02  0.43026230100E+03  0.44057800342E+03  0.80744640067E+02 0.  0.
        -11    1    5    5    0    0  0.10150135858E+02 -0.28152382443E+02  0.20702450790E+03  0.20917631024E+03  0.00000000000E+00 0.  1.
         12    1    5    5    0    0  0.34215945698E+02  0.50407344683E+02  0.22323779310E+03  0.23140169318E+03  0.00000000000E+00 0. -1.
        -11    1    4    4    0    0 -0.65339669397E+01 -0.30113167037E+01 -0.51508773527E+02  0.52008792550E+02  0.00000000000E+00 0.  1.
         12    1    4    4    0    0 -0.10490376671E+03 -0.94496457340E+02 -0.85296919664E+02  0.16495437316E+03  0.00000000000E+00 0. -1.
          5    1    3    3  501    0 -0.26047727276E+02 -0.42613779059E+02 -0.21500765897E+03  0.22078224947E+03  0.47000000000E+01 0. -1.
         -5    1    3    3    0  501 -0.55499259047E+01  0.84778802047E+02 -0.30969473141E+03  0.32117154858E+03  0.47000000000E+01 0. -1.
          1    1    1    2  502    0  0.74175430676E+02 -0.91917485975E+01  0.84742469301E+03  0.85071446037E+03  0.00000000000E+00 0. -1.
          1    1    1    2  503    0  0.24493874596E+02  0.42279537414E+02 -0.23351981886E+04  0.23357093332E+04  0.00000000000E+00 0. -1.
<mgrwt>
<rscale>  0 0.60450292E+02</rscale>
<asrwt>0</asrwt>
<pdfrwt beam="1">  1        2 0.19609555E+00 0.74786685E+02</pdfrwt>
<pdfrwt beam="2">  1        2 0.44889249E+00 0.48862145E+02</pdfrwt>
<totfact> 0.94168341E+00</totfact>
</mgrwt>
</event>
<event>
13    1  0.3019759E-008  0.3166104E+03  0.7546771E-02  0.1185625E+00
          2   -1    0    0  503    0  0.00000000000E+00  0.00000000000E+00  0.30176365339E+04  0.30176365339E+04  0.00000000000E+00 0. -1.
          2   -1    0    0  502    0 -0.00000000000E+00 -0.00000000000E+00 -0.16875966513E+04  0.16875966513E+04  0.00000000000E+00 0. -1.
         25    2    1    2    0    0  0.70358495081E+02  0.16754866064E+02 -0.69948960706E+03  0.71424218270E+03  0.12500056722E+03 0.  0.
         24    2    1    2    0    0  0.12900028018E+01  0.86130383478E+02 -0.36412762050E+02  0.12393828170E+03  0.81330814363E+02 0.  0.
         24    2    1    2    0    0  0.44777128917E+02  0.23251289850E+03  0.38077048664E+03  0.45545864698E+03  0.79932323656E+02 0.  0.
        -11    1    4    4    0    0 -0.21519801165E+02  0.34490295791E+01  0.12577295699E+02  0.25163187682E+02  0.00000000000E+00 0.  1.
         12    1    4    4    0    0  0.22809803967E+02  0.82681353899E+02 -0.48990057749E+02  0.98775094016E+02  0.00000000000E+00 0. -1.
        -11    1    5    5    0    0  0.25777283182E+02  0.61189660592E+02  0.17414519385E+03  0.18637379492E+03  0.00000000000E+00 0.  1.
         12    1    5    5    0    0  0.18999845736E+02  0.17132323791E+03  0.20662529280E+03  0.26908485206E+03  0.00000000000E+00 0. -1.
          5    1    3    3  501    0 -0.77995296988E+01 -0.40064783331E+02 -0.31949243573E+03  0.32212346394E+03  0.47000000000E+01 0. -1.
         -5    1    3    3    0  501  0.78158024780E+02  0.56819649395E+02 -0.37999717132E+03  0.39211871877E+03  0.47000000000E+01 0. -1.
          1    1    1    2  502    0 -0.83548911296E+02  0.43379051670E+01 -0.84971865954E+03  0.85382728838E+03  0.00000000000E+00 0. -1.
          1    1    1    2  503    0 -0.32876715503E+02 -0.33973605321E+03  0.25348904246E+04  0.25577667855E+04  0.00000000000E+00 0. -1.
<mgrwt>
<rscale>  0 0.16275161E+03</rscale>
<asrwt>0</asrwt>
<pdfrwt beam="1">  1        2 0.44377008E+00 0.31661040E+03</pdfrwt>
<pdfrwt beam="2">  1        2 0.24817598E+00 0.83661449E+02</pdfrwt>
<totfact> 0.49143046E+00</totfact>
</mgrwt>
</event>
<event>
13    1  0.3019759E-008  0.9341434E+02  0.7546771E-02  0.1400215E+00
          2   -1    0    0  503    0  0.00000000000E+00  0.00000000000E+00  0.41819219309E+03  0.41819219309E+03  0.00000000000E+00 0. -1.
          2   -1    0    0  502    0 -0.00000000000E+00 -0.00000000000E+00 -0.26762850037E+04  0.26762850037E+04  0.00000000000E+00 0. -1.
         25    2    1    2    0    0  0.30159285500E+02  0.17639065036E+03 -0.11275181638E+04  0.11484534382E+04  0.12499938398E+03 0.  0.
         24    2    1    2    0    0 -0.67027364215E+02  0.39426690762E+02 -0.11971676345E+03  0.16202513032E+03  0.76634900060E+02 0.  0.
         24    2    1    2    0    0  0.14333055822E+03 -0.20011844573E+03 -0.77769256990E+02  0.26902496213E+03  0.75731972608E+02 0.  0.
        -11    1    4    4    0    0 -0.10238327577E+02 -0.14768155754E+02  0.10358901287E+01  0.17999856785E+02  0.00000000000E+00 0.  1.
         12    1    4    4    0    0 -0.56789036639E+02  0.54194846516E+02 -0.12075265358E+03  0.14402527354E+03  0.00000000000E+00 0. -1.
        -11    1    5    5    0    0  0.33173003757E+02 -0.99505218571E+01  0.32768412707E+01  0.34787911007E+02  0.00000000000E+00 0.  1.
         12    1    5    5    0    0  0.11015755446E+03 -0.19016792388E+03 -0.81046098261E+02  0.23423705113E+03  0.00000000000E+00 0. -1.
          5    1    3    3  501    0 -0.30166551146E+02  0.14278176640E+03 -0.66963937929E+03  0.68537262998E+03  0.47000000000E+01 0.  1.
         -5    1    3    3    0  501  0.60325836646E+02  0.33608883966E+02 -0.45787878452E+03  0.46308080825E+03  0.47000000000E+01 0.  1.
          1    1    1    2  502    0 -0.24415515698E+02  0.28878466889E+02 -0.12162377887E+04  0.12168255593E+04  0.00000000000E+00 0. -1.
          1    1    1    2  503    0 -0.82046963805E+02 -0.44577362281E+02  0.28314916228E+03  0.29814810681E+03  0.00000000000E+00 0. -1.
<mgrwt>
<rscale>  0 0.59435662E+02</rscale>
<asrwt>0</asrwt>
<pdfrwt beam="1">  1        2 0.61498853E-01 0.93414341E+02</pdfrwt>
<pdfrwt beam="2">  1        2 0.39357132E+00 0.37816442E+02</pdfrwt>
<totfact> 0.61415122E+01</totfact>
</mgrwt>
</event>
<event>
13    1  0.3019759E-008  0.1314728E+03  0.7546771E-02  0.1381337E+00
          2   -1    0    0  502    0  0.00000000000E+00  0.00000000000E+00  0.20438908371E+04  0.20438908371E+04  0.00000000000E+00 0. -1.
          2   -1    0    0  503    0 -0.00000000000E+00 -0.00000000000E+00 -0.15997493421E+04  0.15997493421E+04  0.00000000000E+00 0. -1.
         25    2    1    2    0    0 -0.46036749576E+03  0.12789635964E+02 -0.35998383505E+03  0.59775516882E+03  0.12498429670E+03 0.  0.
         24    2    1    2    0    0  0.46212288475E+03 -0.20567456044E+03 -0.95056224424E+02  0.52084180193E+03  0.79880607283E+02 0.  0.
         24    2    1    2    0    0 -0.23229060492E+02  0.87291715335E+02 -0.75760047669E+02  0.14044897763E+03  0.76334118688E+02 0.  0.
        -13    1    4    4    0    0  0.82865607778E+02 -0.55727383005E+02 -0.46437047366E+02  0.11013014818E+03  0.00000000000E+00 0.  1.
         14    1    4    4    0    0  0.37925727697E+03 -0.14994717743E+03 -0.48619177058E+02  0.41071165376E+03  0.00000000000E+00 0. -1.
        -13    1    5    5    0    0 -0.13045914574E+02  0.96067560375E+02 -0.80685473384E+02  0.12613214364E+03  0.00000000000E+00 0.  1.
         14    1    5    5    0    0 -0.10183145918E+02 -0.87758450404E+01  0.49254257152E+01  0.14316833988E+02  0.00000000000E+00 0. -1.
          5    1    3    3  501    0 -0.18599126355E+03  0.84569458397E+01 -0.22446556922E+03  0.29166959357E+03  0.47000000000E+01 0.  1.
         -5    1    3    3    0  501 -0.27437623221E+03  0.43326901241E+01 -0.13551826583E+03  0.30608557525E+03  0.47000000000E+01 0.  1.
          1    1    1    2  502    0 -0.27058083764E+02 -0.15665079248E+02  0.16735699028E+04  0.16738619281E+04  0.00000000000E+00 0. -1.
          1    1    1    2  503    0  0.48531755264E+02  0.12125828839E+03 -0.69862830067E+03  0.71073230281E+03  0.00000000000E+00 0. -1.
<mgrwt>
<rscale>  0 0.64113729E+02</rscale>
<asrwt>0</asrwt>
<pdfrwt beam="1">  1        2 0.30057218E+00 0.31265550E+02</pdfrwt>
<pdfrwt beam="2">  1        2 0.23525725E+00 0.13147283E+03</pdfrwt>
<totfact> 0.21707898E+01</totfact>
</mgrwt>
</event>
<event>
13    1  0.3019759E-008  0.1409634E+03  0.7546771E-02  0.1265109E+00
          2   -1    0    0  502    0  0.00000000000E+00  0.00000000000E+00  0.13936708973E+04  0.13936708973E+04  0.00000000000E+00 0. -1.
          2   -1    0    0  503    0 -0.00000000000E+00 -0.00000000000E+00 -0.22011604297E+04  0.22011604297E+04  0.00000000000E+00 0. -1.
         25    2    1    2    0    0  0.16412145922E+02  0.21813286234E+02  0.92969693495E+02  0.15811677273E+03  0.12494947747E+03 0.  0.
         24    2    1    2    0    0  0.82344338862E+02 -0.11170953912E+03  0.20174668428E+03  0.25801393917E+03  0.81301026525E+02 0.  0.
         24    2    1    2    0    0 -0.12353115275E+03 -0.57869710287E+02  0.57436552474E+03  0.59672028646E+03  0.87008592640E+02 0.  0.
        -13    1    4    4    0    0 -0.24071418704E+01  0.83825351273E+01  0.33442523364E+02  0.34561012660E+02  0.00000000000E+00 0.  1.
         14    1    4    4    0    0  0.84751480732E+02 -0.12009207425E+03  0.16830416092E+03  0.22345292651E+03  0.00000000000E+00 0. -1.
        -13    1    5    5    0    0 -0.83513342395E+02 -0.96081887860E+01  0.19706137847E+03  0.21424281210E+03  0.00000000000E+00 0.  1.
         14    1    5    5    0    0 -0.40017810350E+02 -0.48261521501E+02  0.37730414627E+03  0.38247747436E+03  0.00000000000E+00 0. -1.
          5    1    3    3  501    0  0.63775777308E+02  0.39894283988E+01  0.16270412602E+02  0.66106592988E+02  0.47000000000E+01 0.  1.
         -5    1    3    3    0  501 -0.47363631386E+02  0.17823857835E+02  0.76699280893E+02  0.92010179740E+02  0.47000000000E+01 0.  1.
          1    1    1    2  502    0 -0.69835006778E+02  0.43187121947E+02  0.44662275329E+03  0.45410785000E+03  0.00000000000E+00 0. -1.
          1    1    1    2  503    0  0.94609674739E+02  0.10457884122E+03 -0.21231941882E+04  0.21278724787E+04  0.00000000000E+00 0. -1.
<mgrwt>
<rscale>  0 0.10758488E+03</rscale>
<asrwt>0</asrwt>
<pdfrwt beam="1">  1        2 0.20495160E+00 0.82110022E+02</pdfrwt>
<pdfrwt beam="2">  1        2 0.32370006E+00 0.14096338E+03</pdfrwt>
<totfact> 0.20155914E+01</totfact>
</mgrwt>
</event>
<event>
13    1  0.3019759E-008  0.6166846E+02  0.7546771E-02  0.1408471E+00
          2   -1    0    0  503    0  0.00000000000E+00  0.00000000000E+00  0.23872330051E+04  0.23872330051E+04  0.00000000000E+00 0. -1.
          2   -1    0    0  502    0 -0.00000000000E+00 -0.00000000000E+00 -0.14223706731E+04  0.14223706731E+04  0.00000000000E+00 0. -1.
         25    2    1    2    0    0  0.38560305401E+02 -0.11976579190E+02 -0.10603935996E+03  0.16881651224E+03  0.12499733334E+03 0.  0.
         24    2    1    2    0    0 -0.14369214574E+03  0.16808775943E+02  0.11013090345E+03  0.19926934889E+03  0.81544403952E+02 0.  0.
         24    2    1    2    0    0  0.93027892777E+02  0.28464978019E+02  0.27670056550E+03  0.30380952948E+03  0.79199642982E+02 0.  0.
        -11    1    4    4    0    0 -0.32293048078E+01 -0.63577447601E+01  0.39891891854E+02  0.40524219470E+02  0.00000000000E+00 0.  1.
         12    1    4    4    0    0 -0.14046284093E+03  0.23166520703E+02  0.70239011597E+02  0.15874512942E+03  0.00000000000E+00 0. -1.
        -13    1    5    5    0    0  0.29291861368E+02  0.47627832848E+02  0.15968037197E+03  0.16918701131E+03  0.00000000000E+00 0.  1.
         14    1    5    5    0    0  0.63736031409E+02 -0.19162854829E+02  0.11702019353E+03  0.13462251817E+03  0.00000000000E+00 0. -1.
          5    1    3    3  501    0  0.64312578851E+02 -0.48834060395E+02 -0.44085548300E+02  0.92122195057E+02  0.47000000000E+01 0.  1.
         -5    1    3    3    0  501 -0.25752273449E+02  0.36857481205E+02 -0.61953811661E+02  0.76694317181E+02  0.47000000000E+01 0.  1.
          1    1    1    2  502    0 -0.39730102479E+02 -0.47258508197E+02 -0.12256648567E+04  0.12272188837E+04  0.00000000000E+00 0. -1.
          1    1    1    2  503    0  0.51834050043E+02  0.13961333426E+02  0.19097350797E+04  0.19104894038E+04  0.00000000000E+00 0. -1.
<mgrwt>
<rscale>  0 0.57536477E+02</rscale>
<asrwt>0</asrwt>
<pdfrwt beam="1">  1        2 0.35106368E+00 0.53681352E+02</pdfrwt>
<pdfrwt beam="2">  1        2 0.20917216E+00 0.61668458E+02</pdfrwt>
<totfact> 0.18197113E+01</totfact>
</mgrwt>
</event>
<event>
13    1  0.3019759E-008  0.1411119E+03  0.7546771E-02  0.1302691E+00
          2   -1    0    0  503    0  0.00000000000E+00  0.00000000000E+00  0.42303867750E+03  0.42303867750E+03  0.00000000000E+00 0. -1.
          2   -1    0    0  502    0 -0.00000000000E+00 -0.00000000000E+00 -0.43026522048E+04  0.43026522048E+04  0.00000000000E+00 0. -1.
         25    2    1    2    0    0 -0.50243074176E+02 -0.13585850185E+03 -0.22813999932E+04  0.22894087931E+04  0.12499917516E+03 0.  0.
         24    2    1    2    0    0 -0.10598521319E+02 -0.46528364302E+02 -0.48433715239E+02  0.10442873951E+03  0.79261084553E+02 0.  0.
         24    2    1    2    0    0  0.43942769467E+02 -0.87487172465E+02 -0.24994548958E+03  0.28106470663E+03  0.83304556998E+02 0.  0.
        -11    1    5    5    0    0  0.60721484620E+02 -0.38252243886E+02 -0.10599687673E+03  0.12800652613E+03  0.00000000000E+00 0.  1.
         12    1    5    5    0    0 -0.16778715153E+02 -0.49234928579E+02 -0.14394861286E+03  0.15305818050E+03  0.00000000000E+00 0. -1.
        -13    1    4    4    0    0 -0.29557443425E+02 -0.44208875497E+02 -0.88477344120E+00  0.53186934097E+02  0.00000000000E+00 0.  1.
         14    1    4    4    0    0  0.18958922106E+02 -0.23194888051E+01 -0.47548941798E+02  0.51241805411E+02  0.00000000000E+00 0. -1.
          5    1    3    3  501    0  0.98986093854E+01 -0.38233011245E+02 -0.14005503104E+04  0.14011149159E+04  0.47000000000E+01 0.  1.
         -5    1    3    3    0  501 -0.60141683561E+02 -0.97625490601E+02 -0.88084968278E+03  0.88829387714E+03  0.47000000000E+01 0.  1.
          1    1    1    2  502    0  0.56413808711E+02  0.11051315925E+02 -0.16291004587E+04  0.16301143990E+04  0.00000000000E+00 0. -1.
          1    1    1    2  503    0 -0.39514982683E+02  0.25882272269E+03  0.32926612942E+03  0.42067424406E+03  0.00000000000E+00 0. -1.
<mgrwt>
<rscale>  0 0.90066479E+02</rscale>
<asrwt>0</asrwt>
<pdfrwt beam="1">  1        2 0.62211570E-01 0.14111191E+03</pdfrwt>
<pdfrwt beam="2">  1        2 0.63274298E+00 0.57486080E+02</pdfrwt>
<totfact> 0.63358678E+00</totfact>
</mgrwt>
</event>
<event>
13    1  0.3019759E-008  0.2989259E+02  0.7546771E-02  0.1745298E+00
          2   -1    0    0  502    0  0.00000000000E+00  0.00000000000E+00  0.50774333392E+03  0.50774333392E+03  0.00000000000E+00 0. -1.
          2   -1    0    0  503    0 -0.00000000000E+00 -0.00000000000E+00 -0.12183702845E+04  0.12183702845E+04  0.00000000000E+00 0. -1.
         25    2    1    2    0    0  0.49535469273E+02  0.10889157409E+02 -0.59064023956E+03  0.60584837153E+03  0.12499608086E+03 0.  0.
         24    2    1    2    0    0 -0.41262638000E+02 -0.10870225170E+03 -0.16032780449E+03  0.21356574062E+03  0.79915804790E+02 0.  0.
         24    2    1    2    0    0 -0.26321151382E+02  0.78427034597E+02  0.55690203737E+02  0.12912994598E+03  0.82033782013E+02 0.  0.
        -11    1    5    5    0    0 -0.52830091348E+02  0.67848840337E+02  0.51632035927E+02  0.10030130020E+03  0.00000000000E+00 0.  1.
         12    1    5    5    0    0  0.26508939966E+02  0.10578194260E+02  0.40581678093E+01  0.28828645787E+02  0.00000000000E+00 0. -1.
        -13    1    4    4    0    0 -0.23025741928E+02 -0.40417229519E+01 -0.27758728351E+01  0.23542000462E+02  0.00000000000E+00 0.  1.
         14    1    4    4    0    0 -0.18236896072E+02 -0.10466052874E+03 -0.15755193165E+03  0.19002374016E+03  0.00000000000E+00 0. -1.
          5    1    3    3  501    0  0.33167660993E+02 -0.72669525604E+01 -0.32767257913E+02  0.47420307110E+02  0.47000000000E+01 0.  1.
         -5    1    3    3    0  501  0.16367808279E+02  0.18156109970E+02 -0.55787298165E+03  0.55842806442E+03  0.47000000000E+01 0.  1.
          1    1    1    2  502    0  0.84239615622E+01  0.28685689160E+02  0.38041060500E+03  0.38158362162E+03  0.00000000000E+00 0. -1.
          1    1    1    2  503    0  0.96243585473E+01 -0.92996294710E+01 -0.39575971528E+03  0.39598593867E+03  0.00000000000E+00 0. -1.
<mgrwt>
<rscale>  0 0.20001501E+02</rscale>
<asrwt>0</asrwt>
<pdfrwt beam="1">  1        2 0.74668137E-01 0.29892594E+02</pdfrwt>
<pdfrwt beam="2">  1        2 0.17917210E+00 0.13383250E+02</pdfrwt>
<totfact> 0.26169665E+02</totfact>
</mgrwt>
</event>
<event>
13    1  0.3019759E-008  0.1724276E+03  0.7546771E-02  0.1391854E+00
         -1   -1    0    0    0  501 -0.00000000000E+00  0.00000000000E+00  0.86521463944E+03  0.86521463944E+03  0.00000000000E+00 0.  1.
          2   -1    0    0  503    0  0.00000000000E+00 -0.00000000000E+00 -0.28062501333E+04  0.28062501333E+04  0.00000000000E+00 0. -1.
         25    2    1    2    0    0 -0.18898424504E+02  0.70410506896E+02  0.12893057145E+03  0.19382312165E+03  0.12501807990E+03 0.  0.
         24    2    1    2    0    0  0.33432950347E+03 -0.39032684105E+03  0.11561160354E+03  0.53418892081E+03  0.88659463717E+02 0.  0.
         24    2    1    2    0    0 -0.32275535193E+03  0.12716301316E+03 -0.12214154190E+04  0.12722446259E+04  0.80058186426E+02 0.  0.
        -11    1    4    4    0    0  0.27027339433E+03 -0.27538991105E+03  0.11490838232E+03  0.40260557264E+03  0.00000000000E+00 0.  1.
         12    1    4    4    0    0  0.64056109139E+02 -0.11493693000E+03  0.70322122204E+00  0.13158334817E+03  0.00000000000E+00 0. -1.
        -11    1    5    5    0    0 -0.30044110189E+03  0.12442964103E+03 -0.10456850955E+04  0.10950821477E+04  0.00000000000E+00 0.  1.
         12    1    5    5    0    0 -0.22314250043E+02  0.27333721266E+01 -0.17573032353E+03  0.17716247821E+03  0.00000000000E+00 0. -1.
          5    1    3    3  502    0 -0.18695703525E+02 -0.18738602604E+02 -0.99990600133E+01  0.28683370774E+02  0.47000000000E+01 0. -1.
         -5    1    3    3    0  502 -0.20272097992E+00  0.89149109500E+02  0.13892963146E+03  0.16513975087E+03  0.47000000000E+01 0. -1.
          1    1    1    2  503    0  0.60563907013E+01  0.17089183187E+03 -0.13117914689E+04  0.13228898503E+04  0.00000000000E+00 0. -1.
         -2    1    1    2    0  501  0.12678822669E+01  0.21861489124E+02  0.34762921905E+03  0.34831825414E+03  0.00000000000E+00 0.  1.
<mgrwt>
<rscale>  0 0.61448019E+02</rscale>
<asrwt>0</asrwt>
<pdfrwt beam="2">  1        2 0.41268384E+00 0.17242763E+03</pdfrwt>
<pdfrwt beam="1">  1       -1 0.12723745E+00 0.21898224E+02</pdfrwt>
<totfact> 0.25867585E+00</totfact>
</mgrwt>
</event>
<event>
13    1  0.3019759E-008  0.1884988E+03  0.7546771E-02  0.1375205E+00
          2   -1    0    0  503    0  0.00000000000E+00  0.00000000000E+00  0.11387664646E+04  0.11387664646E+04  0.00000000000E+00 0. -1.
          2   -1    0    0  502    0 -0.00000000000E+00 -0.00000000000E+00 -0.11802875697E+04  0.11802875697E+04  0.00000000000E+00 0. -1.
         25    2    1    2    0    0  0.17067749915E+03 -0.18121605220E+03 -0.32514355301E+03  0.42814948705E+03  0.12499434747E+03 0.  0.
         24    2    1    2    0    0 -0.89795255316E+02  0.49043915848E+02  0.16610953471E+02  0.13517218688E+03  0.86758877187E+02 0.  0.
         24    2    1    2    0    0  0.43310522922E+02  0.18492044681E+02 -0.14098595714E+02  0.93177313610E+02  0.79154811971E+02 0.  0.
        -11    1    5    5    0    0 -0.11405719554E+02  0.50483805739E+01  0.22686183435E+02  0.25888984217E+02  0.00000000000E+00 0.  1.
         12    1    5    5    0    0  0.54716242477E+02  0.13443664107E+02 -0.36784779149E+02  0.67288329393E+02  0.00000000000E+00 0. -1.
        -11    1    4    4    0    0 -0.98602820690E+02  0.60004259927E+02  0.27943711415E+01  0.11545923942E+03  0.00000000000E+00 0.  1.
         12    1    4    4    0    0  0.88075653743E+01 -0.10960344079E+02  0.13816582330E+02  0.19712947456E+02  0.00000000000E+00 0. -1.
          5    1    3    3  501    0  0.86168517318E+02 -0.51924322838E+02 -0.21790240406E+03  0.24005144526E+03  0.47000000000E+01 0. -1.
         -5    1    3    3    0  501  0.84508981837E+02 -0.12929172937E+03 -0.10724114895E+03  0.18809804178E+03  0.47000000000E+01 0. -1.
          1    1    1    2  502    0  0.22835533842E+02 -0.20581507708E+01 -0.68152104023E+03  0.68190661081E+03  0.00000000000E+00 0. -1.
          1    1    1    2  503    0 -0.14702830060E+03  0.11573824245E+03  0.96263113035E+03  0.98064843602E+03  0.00000000000E+00 0. -1.
<mgrwt>
<rscale>  0 0.65741302E+02</rscale>
<asrwt>0</asrwt>
<pdfrwt beam="1">  1        2 0.16746566E+00 0.18849881E+03</pdfrwt>
<pdfrwt beam="2">  1        2 0.17357170E+00 0.22928096E+02</pdfrwt>
<totfact> 0.94575580E+01</totfact>
</mgrwt>
</event>
<event>
13    1  0.3019759E-008  0.7564256E+02  0.7546771E-02  0.1486126E+00
          2   -1    0    0  502    0  0.00000000000E+00  0.00000000000E+00  0.13951865791E+04  0.13951865791E+04  0.00000000000E+00 0. -1.
          2   -1    0    0  503    0 -0.00000000000E+00 -0.00000000000E+00 -0.95714769458E+03  0.95714769458E+03  0.00000000000E+00 0. -1.
         25    2    1    2    0    0 -0.56778611616E+02 -0.40742808780E+02 -0.35248262464E+03  0.38045882019E+03  0.12498450297E+03 0.  0.
         24    2    1    2    0    0  0.76876286350E+02  0.76148258233E+02 -0.32467551911E+03  0.35198157926E+03  0.82269792691E+02 0.  0.
         24    2    1    2    0    0  0.94137071740E+02 -0.51722804869E+01  0.22958305620E+03  0.26061561401E+03  0.79520926855E+02 0.  0.
        -13    1    5    5    0    0  0.44999700475E+02 -0.20685919614E+02  0.38567700051E+02  0.62772189705E+02  0.00000000000E+00 0.  1.
         14    1    5    5    0    0  0.49137371265E+02  0.15513639127E+02  0.19101535615E+03  0.19784342430E+03  0.00000000000E+00 0. -1.
        -13    1    4    4    0    0 -0.12286157707E+02  0.11484101461E+02 -0.10394648566E+03  0.10529817728E+03  0.00000000000E+00 0.  1.
         14    1    4    4    0    0  0.89162444057E+02  0.64664156772E+02 -0.22072903346E+03  0.24668340198E+03  0.00000000000E+00 0. -1.
          5    1    3    3  501    0  0.27668230172E+02 -0.50552420040E+02 -0.13206931679E+03  0.14417167742E+03  0.47000000000E+01 0. -1.
         -5    1    3    3    0  501 -0.84446841787E+02  0.98096112598E+01 -0.22041330785E+03  0.23628714277E+03  0.47000000000E+01 0. -1.
          1    1    1    2  502    0 -0.13372930416E+03 -0.15174817486E+02  0.11177576882E+04  0.11258312713E+04  0.00000000000E+00 0. -1.
          1    1    1    2  503    0  0.19494557685E+02 -0.15058351480E+02 -0.23214371611E+03  0.23344698897E+03  0.00000000000E+00 0. -1.
<mgrwt>
<rscale>  0 0.43166121E+02</rscale>
<asrwt>0</asrwt>
<pdfrwt beam="1">  1        2 0.20517450E+00 0.75642562E+02</pdfrwt>
<pdfrwt beam="2">  1        2 0.14075701E+00 0.24633143E+02</pdfrwt>
<totfact> 0.95346012E+01</totfact>
</mgrwt>
</event>
<event>
13    1  0.3019759E-008  0.1629727E+03  0.7546771E-02  0.1227847E+00
          4   -1    0    0  503    0 -0.00000000000E+00  0.00000000000E+00  0.23012272021E+03  0.23012272021E+03  0.00000000000E+00 0. -1.
          2   -1    0    0  502    0  0.00000000000E+00 -0.00000000000E+00 -0.34329135904E+04  0.34329135904E+04  0.00000000000E+00 0. -1.
         25    2    1    2    0    0  0.92108416872E+02  0.24413615829E+03 -0.34352595028E+03  0.44913501144E+03  0.12500302293E+03 0.  0.
         24    2    1    2    0    0 -0.11720536465E+03 -0.61741478502E+02 -0.45166332824E+03  0.47765066494E+03  0.81248310577E+02 0.  0.
         24    2    1    2    0    0 -0.17951760470E+02 -0.12409256757E+03 -0.39297925511E+03  0.42097181773E+03  0.84043710922E+02 0.  0.
        -11    1    5    5    0    0 -0.36844953670E+02 -0.53095346199E+02 -0.27079964272E+03  0.27840458491E+03  0.00000000000E+00 0.  1.
         12    1    5    5    0    0  0.18893193200E+02 -0.70997221367E+02 -0.12217961239E+03  0.14256723283E+03  0.00000000000E+00 0. -1.
        -11    1    4    4    0    0  0.19594171547E+01 -0.23257172735E+02 -0.31378102503E+02  0.39106530348E+02  0.00000000000E+00 0.  1.
         12    1    4    4    0    0 -0.11916478180E+03 -0.38484305767E+02 -0.42028522574E+03  0.43854413459E+03  0.00000000000E+00 0. -1.
          5    1    3    3  501    0  0.10155609206E+02  0.19135076759E+03 -0.22333271604E+03  0.29430909722E+03  0.47000000000E+01 0. -1.
         -5    1    3    3    0  501  0.81952807666E+02  0.52785390701E+02 -0.12019323424E+03  0.15482591422E+03  0.47000000000E+01 0. -1.
          1    1    1    2  502    0  0.14361373434E+03 -0.81821554960E+02 -0.21436469932E+04  0.21500097914E+04  0.00000000000E+00 0. -1.
          3    1    1    2  503    0 -0.10056502610E+03  0.23519442737E+02  0.12902465662E+03  0.16526902516E+03  0.00000000000E+00 0. -1.
<mgrwt>
<rscale>  0 0.12973670E+03</rscale>
<asrwt>0</asrwt>
<pdfrwt beam="2">  1        2 0.50484021E+00 0.16297274E+03</pdfrwt>
<pdfrwt beam="1">  1        4 0.33841578E-01 0.10327869E+03</pdfrwt>
<totfact> 0.64413470E+00</totfact>
</mgrwt>
</event>
<event>
13    1  0.3019759E-008  0.5088756E+02  0.7546771E-02  0.1591549E+00
          2   -1    0    0  503    0  0.00000000000E+00  0.00000000000E+00  0.42458487415E+04  0.42458487415E+04  0.00000000000E+00 0. -1.
          2   -1    0    0  502    0 -0.00000000000E+00 -0.00000000000E+00 -0.54636506915E+03  0.54636506915E+03  0.00000000000E+00 0. -1.
         25    2    1    2    0    0 -0.14823378721E+03  0.10792478910E+03 -0.15891909248E+03  0.27294875130E+03  0.12499890844E+03 0.  0.
         24    2    1    2    0    0  0.21311191211E+03 -0.57247383663E+02  0.34742397988E+03  0.41939759837E+03  0.80603807019E+02 0.  0.
         24    2    1    2    0    0 -0.96694656409E+02 -0.59200232876E+02  0.55751809101E+02  0.15236872372E+03  0.85167127453E+02 0.  0.
        -11    1    5    5    0    0 -0.44848617659E+02 -0.68324893068E+02  0.94740938800E+01  0.82276655095E+02  0.00000000000E+00 0.  1.
         12    1    5    5    0    0 -0.51846038750E+02  0.91246601928E+01  0.46277715221E+02  0.70092068622E+02  0.00000000000E+00 0. -1.
        -11    1    4    4    0    0 -0.68677812686E+01 -0.37302364515E+00  0.17504458501E+02  0.18807222910E+02  0.00000000000E+00 0.  1.
         12    1    4    4    0    0  0.21997969337E+03 -0.56874360017E+02  0.32991952138E+03  0.40059037546E+03  0.00000000000E+00 0. -1.
          5    1    3    3  501    0 -0.64052889949E+01 -0.18485509343E+02 -0.50018808544E+02  0.53913940600E+02  0.47000000000E+01 0.  1.
         -5    1    3    3    0  501 -0.14182849821E+03  0.12641029844E+03 -0.10890028393E+03  0.21903481070E+03  0.47000000000E+01 0.  1.
          1    1    1    2  502    0 -0.15826980635E+02 -0.93856612751E+01 -0.24561674301E+03  0.24630503121E+03  0.00000000000E+00 0. -1.
          1    1    1    2  503    0  0.47643512146E+02  0.17908488713E+02  0.37008437189E+04  0.37011937060E+04  0.00000000000E+00 0. -1.
<mgrwt>
<rscale>  0 0.30600070E+02</rscale>
<asrwt>0</asrwt>
<pdfrwt beam="1">  1        2 0.62438950E+00 0.50887562E+02</pdfrwt>
<pdfrwt beam="2">  1        2 0.80347807E-01 0.18400651E+02</pdfrwt>
<totfact> 0.55750504E+00</totfact>
</mgrwt>
</event>
<event>
13    1  0.3019759E-008  0.1227484E+03  0.7546771E-02  0.1240905E+00
          2   -1    0    0  502    0  0.00000000000E+00  0.00000000000E+00  0.23442221994E+04  0.23442221994E+04  0.00000000000E+00 0. -1.
          2   -1    0    0  503    0 -0.00000000000E+00 -0.00000000000E+00 -0.44676298702E+04  0.44676298702E+04  0.00000000000E+00 0. -1.
         25    2    1    2    0    0 -0.25872066863E+03  0.32739092149E+03 -0.50185651600E+03  0.66453015562E+03  0.12497665874E+03 0.  0.
         24    2    1    2    0    0  0.50823246299E+02 -0.96227581381E+03 -0.16063804116E+04  0.18749856305E+04  0.80965077241E+02 0.  0.
         24    2    1    2    0    0  0.22734223018E+03  0.54218441325E+03 -0.77887263514E+02  0.60201064653E+03  0.10345030269E+03 0.  0.
        -11    1    5    5    0    0  0.17577443324E+03  0.43030724288E+03 -0.10345063960E+03  0.47619639802E+03  0.00000000000E+00 0.  1.
         12    1    5    5    0    0  0.51567796935E+02  0.11187717038E+03  0.25563376088E+02  0.12581424851E+03  0.00000000000E+00 0. -1.
        -13    1    4    4    0    0  0.25511841420E+02 -0.11993781186E+03 -0.24291270102E+03  0.27210753956E+03  0.00000000000E+00 0.  1.
         14    1    4    4    0    0  0.25311404880E+02 -0.84233800195E+03 -0.13634677106E+04  0.16028780910E+04  0.00000000000E+00 0. -1.
          5    1    3    3  501    0 -0.67640788403E+02  0.57464917697E+02 -0.19083266716E+03  0.21051529607E+03  0.47000000000E+01 0. -1.
         -5    1    3    3    0  501 -0.19107988022E+03  0.26992600380E+03 -0.31102384883E+03  0.45401485955E+03  0.47000000000E+01 0. -1.
          1    1    1    2  502    0 -0.11836477795E+03  0.19407232851E+02  0.18624889868E+04  0.18663472580E+04  0.00000000000E+00 0. -1.
          1    1    1    2  503    0  0.98919970098E+02  0.73293246213E+02 -0.17997724665E+04  0.18039783789E+04  0.00000000000E+00 0. -1.
<mgrwt>
<rscale>  0 0.12133873E+03</rscale>
<asrwt>0</asrwt>
<pdfrwt beam="1">  1        2 0.34473856E+00 0.11994524E+03</pdfrwt>
<pdfrwt beam="2">  1        2 0.65700438E+00 0.12274840E+03</pdfrwt>
<totfact> 0.30762427E-01</totfact>
</mgrwt>
</event>
<event>
13    1  0.3019759E-008  0.1833837E+03  0.7546771E-02  0.1240334E+00
          2   -1    0    0  503    0  0.00000000000E+00  0.00000000000E+00  0.13472775264E+04  0.13472775264E+04  0.00000000000E+00 0. -1.
          2   -1    0    0  502    0 -0.00000000000E+00 -0.00000000000E+00 -0.12979983423E+04  0.12979983423E+04  0.00000000000E+00 0. -1.
         25    2    1    2    0    0 -0.15911051968E+03  0.10360922963E+03 -0.25084150724E+02  0.22870430884E+03  0.12500166529E+03 0.  0.
         24    2    1    2    0    0 -0.26961825059E+02 -0.11761145963E+02 -0.31097506363E+02  0.91862042124E+02  0.81279242838E+02 0.  0.
         24    2    1    2    0    0  0.90282758715E+01 -0.61373114585E+02  0.40771074305E+03  0.42049047126E+03  0.82073244514E+02 0.  0.
        -11    1    4    4    0    0  0.13918401957E+02  0.21588793205E+02 -0.29450202999E+02  0.39078285042E+02  0.00000000000E+00 0.  1.
         12    1    4    4    0    0 -0.40880227016E+02 -0.33349939169E+02 -0.16473033642E+01  0.52783757083E+02  0.00000000000E+00 0. -1.
        -13    1    5    5    0    0  0.38932229270E+02 -0.94367125983E+01  0.21413557782E+03  0.21785044345E+03  0.00000000000E+00 0.  1.
         14    1    5    5    0    0 -0.29903953399E+02 -0.51936401987E+02  0.19357516522E+03  0.20264002781E+03  0.00000000000E+00 0. -1.
          5    1    3    3  501    0 -0.34703837560E+02  0.85593788963E+02  0.20824440597E+02  0.94796626399E+02  0.47000000000E+01 0.  1.
         -5    1    3    3    0  501 -0.12440668212E+03  0.18015440662E+02 -0.45908591321E+02  0.13390768244E+03  0.47000000000E+01 0.  1.
          1    1    1    2  502    0  0.14893871874E+03 -0.10617829256E+03 -0.10935840912E+04  0.11087753318E+04  0.00000000000E+00 0. -1.
          1    1    1    2  503    0  0.28105350125E+02  0.75703323481E+02  0.79133418943E+03  0.79544371470E+03  0.00000000000E+00 0. -1.
<mgrwt>
<rscale>  0 0.12169068E+03</rscale>
<asrwt>0</asrwt>
<pdfrwt beam="1">  1        2 0.19812905E+00 0.80752114E+02</pdfrwt>
<pdfrwt beam="2">  1        2 0.19088211E+00 0.18338371E+03</pdfrwt>
<totfact> 0.58826807E+01</totfact>
</mgrwt>
</event>
<event>
13    1  0.3019759E-008  0.3966342E+02  0.7546771E-02  0.1651434E+00
          2   -1    0    0  502    0  0.00000000000E+00  0.00000000000E+00  0.97143295030E+03  0.97143295030E+03  0.00000000000E+00 0. -1.
          2   -1    0    0  503    0 -0.00000000000E+00 -0.00000000000E+00 -0.75426168937E+03  0.75426168937E+03  0.00000000000E+00 0. -1.
         25    2    1    2    0    0  0.36837785517E+01  0.42985811418E+02  0.11592785782E+03  0.17585732260E+03  0.12500071794E+03 0.  0.
         24    2    1    2    0    0  0.23433036233E+02  0.42943077257E+01  0.87293159012E+02  0.12194181919E+03  0.81744500683E+02 0.  0.
         24    2    1    2    0    0 -0.36957801837E+02 -0.19511238140E+02  0.18145682592E+03  0.20378692733E+03  0.82800752101E+02 0.  0.
        -11    1    4    4    0    0  0.99165423384E+01  0.42220116030E+02  0.33772608649E+02  0.54967855193E+02  0.00000000000E+00 0.  1.
         12    1    4    4    0    0  0.13516493895E+02 -0.37925808304E+02  0.53520550363E+02  0.66973964000E+02  0.00000000000E+00 0. -1.
        -13    1    5    5    0    0 -0.22015834450E+02  0.30341681765E+02  0.10326199383E+03  0.10985606032E+03  0.00000000000E+00 0.  1.
         14    1    5    5    0    0 -0.14941967388E+02 -0.49852919905E+02  0.78194832083E+02  0.93930867008E+02  0.00000000000E+00 0. -1.
          5    1    3    3  501    0  0.13840079999E+01  0.32771248070E+01  0.13241395064E+03  0.13254508422E+03  0.47000000000E+01 0.  1.
         -5    1    3    3    0  501  0.22997705518E+01  0.39708686611E+02 -0.16486092826E+02  0.43312238382E+02  0.47000000000E+01 0.  1.
          1    1    1    2  502    0 -0.16517642214E+02  0.18902172172E+01  0.52760426063E+03  0.52786613953E+03  0.00000000000E+00 0. -1.
          1    1    1    2  503    0  0.26358629267E+02 -0.29659098220E+02 -0.69511084246E+03  0.69624243101E+03  0.00000000000E+00 0. -1.
<mgrwt>
<rscale>  0 0.25679212E+02</rscale>
<asrwt>0</asrwt>
<pdfrwt beam="1">  1        2 0.14285779E+00 0.16625445E+02</pdfrwt>
<pdfrwt beam="2">  1        2 0.11092084E+00 0.39663416E+02</pdfrwt>
<totfact> 0.22273733E+02</totfact>
</mgrwt>
</event>
<event>
13    1  0.3019759E-008  0.5590637E+02  0.7546771E-02  0.1522251E+00
          2   -1    0    0  503    0  0.00000000000E+00  0.00000000000E+00  0.61390552205E+03  0.61390552205E+03  0.00000000000E+00 0. -1.
         -1   -1    0    0    0  501 -0.00000000000E+00 -0.00000000000E+00 -0.90114176526E+03  0.90114176526E+03  0.00000000000E+00 0.  1.
         25    2    1    2    0    0  0.82009848186E+02 -0.54553542701E+02 -0.51116266641E+02  0.16715176187E+03  0.12500053824E+03 0.  0.
         24    2    1    2    0    0 -0.19934616113E+03  0.59608495660E+02 -0.56558385817E+02  0.22979729795E+03  0.79472526244E+02 0.  0.
         24    2    1    2    0    0  0.10295726349E+03 -0.35495511687E+02  0.16198067017E+03  0.21108645051E+03  0.80371777525E+02 0.  0.
        -11    1    4    4    0    0 -0.77392372960E+02  0.25467441880E+02 -0.62999853404E+02  0.10299102639E+03  0.00000000000E+00 0.  1.
         12    1    4    4    0    0 -0.12195378817E+03  0.34141053780E+02  0.64414675878E+01  0.12680627156E+03  0.00000000000E+00 0. -1.
        -11    1    5    5    0    0  0.10236549623E+03 -0.37900579498E+01  0.11095830488E+03  0.15101259808E+03  0.00000000000E+00 0.  1.
         12    1    5    5    0    0  0.59176726258E+00 -0.31705453737E+02  0.51022365294E+02  0.60073852427E+02  0.00000000000E+00 0. -1.
          5    1    3    3  502    0  0.38334201169E+02 -0.84175505540E+01  0.39829332466E+02  0.56114453230E+02  0.47000000000E+01 0.  1.
         -5    1    3    3    0  502  0.43675647016E+02 -0.46135992147E+02 -0.90945599107E+02  0.11103730864E+03  0.47000000000E+01 0.  1.
          1    1    1    2  503    0  0.70302778551E+01 -0.25071988098E+02  0.28087562909E+03  0.28208003901E+03  0.00000000000E+00 0. -1.
         -2    1    1    2    0  501  0.73487715976E+01  0.55512546826E+02 -0.62241789001E+03  0.62493173796E+03  0.00000000000E+00 0.  1.
<mgrwt>
<rscale>  0 0.38154239E+02</rscale>
<asrwt>0</asrwt>
<pdfrwt beam="1">  1        2 0.90280225E-01 0.26038998E+02</pdfrwt>
<pdfrwt beam="2">  1       -1 0.13252085E+00 0.55906374E+02</pdfrwt>
<totfact> 0.35693011E+01</totfact>
</mgrwt>
</event>
<event>
13    1  0.3019759E-008  0.1360186E+03  0.7546771E-02  0.1419135E+00
          2   -1    0    0  502    0  0.00000000000E+00  0.00000000000E+00  0.30009148622E+04  0.30009148622E+04  0.00000000000E+00 0. -1.
          2   -1    0    0  503    0 -0.00000000000E+00 -0.00000000000E+00 -0.71647962682E+03  0.71647962682E+03  0.00000000000E+00 0. -1.
         25    2    1    2    0    0  0.14500049174E+03 -0.82809019063E+02  0.14324244535E+03  0.25303521386E+03  0.12500378018E+03 0.  0.
         24    2    1    2    0    0 -0.31040668268E+01  0.24854216413E+03  0.48520798891E+03  0.55077684328E+03  0.78393214049E+02 0.  0.
         24    2    1    2    0    0 -0.13775603886E+03 -0.28193585972E+03  0.14876662385E+04  0.15225833741E+04  0.81515265404E+02 0.  0.
        -11    1    5    5    0    0 -0.25085240205E+02 -0.14354440292E+03  0.67882689381E+03  0.69429116129E+03  0.00000000000E+00 0.  1.
         12    1    5    5    0    0 -0.11267079865E+03 -0.13839145680E+03  0.80883934473E+03  0.82829221279E+03  0.00000000000E+00 0. -1.
        -13    1    4    4    0    0 -0.18972656333E+02  0.12847893972E+02  0.28287224971E+02  0.36403257607E+02  0.00000000000E+00 0.  1.
         14    1    4    4    0    0  0.15868589506E+02  0.23569427016E+03  0.45692076394E+03  0.51437358567E+03  0.00000000000E+00 0. -1.
          5    1    3    3  501    0  0.79841736329E+02  0.21475116565E+01  0.11860758177E+03  0.14307048305E+03  0.47000000000E+01 0.  1.
         -5    1    3    3    0  501  0.65158755409E+02 -0.84956530719E+02  0.24634863579E+02  0.10996473081E+03  0.47000000000E+01 0.  1.
          1    1    1    2  502    0 -0.13665614566E+02  0.13648238465E+03  0.77341704622E+03  0.78548591186E+03  0.00000000000E+00 0. -1.
          1    1    1    2  503    0  0.95252285133E+01 -0.20279670000E+02 -0.60509848365E+03  0.60551314594E+03  0.00000000000E+00 0. -1.
<mgrwt>
<rscale>  0 0.55204445E+02</rscale>
<asrwt>0</asrwt>
<pdfrwt beam="1">  1        2 0.44131100E+00 0.13601863E+03</pdfrwt>
<pdfrwt beam="2">  1        2 0.10536465E+00 0.22405245E+02</pdfrwt>
<totfact> 0.19880062E+01</totfact>
</mgrwt>
</event>
<event>
13    1  0.3019759E-008  0.1072211E+03  0.7546771E-02  0.1386049E+00
          2   -1    0    0  502    0  0.00000000000E+00  0.00000000000E+00  0.15344427374E+04  0.15344427374E+04  0.00000000000E+00 0. -1.
          2   -1    0    0  503    0 -0.00000000000E+00 -0.00000000000E+00 -0.72900621386E+03  0.72900621386E+03  0.00000000000E+00 0. -1.
         25    2    1    2    0    0  0.53755179498E+02 -0.68240810574E+02 -0.16163790700E+03  0.22203291169E+03  0.12500149337E+03 0.  0.
         24    2    1    2    0    0 -0.41176088204E+02 -0.24052316813E+02  0.16456453518E+03  0.19003913770E+03  0.82215591206E+02 0.  0.
         24    2    1    2    0    0  0.61664929528E+02  0.10760021770E+02  0.14336842456E+03  0.17794506638E+03  0.84803301147E+02 0.  0.
        -11    1    4    4    0    0 -0.17225533193E+02  0.28548315990E+02  0.88030465956E+02  0.94133353686E+02  0.00000000000E+00 0.  1.
         12    1    4    4    0    0 -0.23950555011E+02 -0.52600632803E+02  0.76534069221E+02  0.95905784018E+02  0.00000000000E+00 0. -1.
        -13    1    5    5    0    0  0.16782251486E+02  0.88451833866E+01  0.12956828517E+03  0.13094969170E+03  0.00000000000E+00 0.  1.
         14    1    5    5    0    0  0.44882678042E+02  0.19148383834E+01  0.13800139393E+02  0.46995374682E+02  0.00000000000E+00 0. -1.
          5    1    3    3  501    0  0.24644145679E+02 -0.95552693843E+02 -0.67432098363E+02  0.11961115795E+03  0.47000000000E+01 0. -1.
         -5    1    3    3    0  501  0.29111033820E+02  0.27311883270E+02 -0.94205808639E+02  0.10242175374E+03  0.47000000000E+01 0. -1.
          1    1    1    2  502    0 -0.49314670290E+02  0.10873822732E+03  0.11625537683E+04  0.11686689877E+04  0.00000000000E+00 0. -1.
          1    1    1    2  503    0 -0.24929350533E+02 -0.27205121701E+02 -0.50341229750E+03  0.50476284772E+03  0.00000000000E+00 0. -1.
<mgrwt>
<rscale>  0 0.62900173E+02</rscale>
<asrwt>0</asrwt>
<pdfrwt beam="1">  1        2 0.22565334E+00 0.10722111E+03</pdfrwt>
<pdfrwt beam="2">  1        2 0.10720680E+00 0.36899745E+02</pdfrwt>
<totfact> 0.10677885E+02</totfact>
</mgrwt>
</event>
<event>
13    1  0.3019759E-008  0.6143322E+02  0.7546771E-02  0.1426876E+00
         -1   -1    0    0    0  501 -0.00000000000E+00  0.00000000000E+00  0.73210369326E+03  0.73210369326E+03  0.00000000000E+00 0.  1.
          2   -1    0    0  503    0  0.00000000000E+00 -0.00000000000E+00 -0.42184944627E+04  0.42184944627E+04  0.00000000000E+00 0. -1.
         25    2    1    2    0    0  0.25742877084E+02 -0.91317424755E+02  0.51835933216E+02  0.16526502246E+03  0.12499598351E+03 0.  0.
         24    2    1    2    0    0  0.91204386840E+02  0.17949526755E+03 -0.13542728067E+04  0.13735234705E+04  0.10943078997E+03 0.  0.
         24    2    1    2    0    0 -0.13838947908E+03 -0.83973527080E+02 -0.15719223725E+04  0.15822512559E+04  0.79849171417E+02 0.  0.
        -11    1    4    4    0    0  0.12261278207E+02  0.14007582424E+03 -0.79717841147E+03  0.80948440084E+03  0.00000000000E+00 0.  1.
         12    1    4    4    0    0  0.78943108634E+02  0.39419443307E+02 -0.55709439521E+03  0.56403906964E+03  0.00000000000E+00 0. -1.
        -13    1    5    5    0    0 -0.34433115120E+02 -0.32782055974E+02 -0.20565934741E+03  0.21108308740E+03  0.00000000000E+00 0.  1.
         14    1    5    5    0    0 -0.10395636396E+03 -0.51191471105E+02 -0.13662630251E+04  0.13711681685E+04  0.00000000000E+00 0. -1.
          5    1    3    3  502    0 -0.40203474456E+02 -0.76514841652E+02  0.14064306556E+02  0.87696836147E+02  0.47000000000E+01 0.  1.
         -5    1    3    3    0  502  0.65946351540E+02 -0.14802583103E+02  0.37771626660E+02  0.77568186317E+02  0.47000000000E+01 0.  1.
          1    1    1    2  503    0  0.54612620456E+02  0.28742115443E+02 -0.12191156700E+04  0.12206767239E+04  0.00000000000E+00 0. -1.
         -2    1    1    2    0  501 -0.33170405304E+02 -0.32946431159E+02  0.60708414659E+03  0.60888168321E+03  0.00000000000E+00 0.  1.
<mgrwt>
<rscale>  0 0.53592181E+02</rscale>
<asrwt>0</asrwt>
<pdfrwt beam="2">  1        2 0.62036682E+00 0.61433223E+02</pdfrwt>
<pdfrwt beam="1">  1       -1 0.10766231E+00 0.46751932E+02</pdfrwt>
<totfact> 0.62095221E-01</totfact>
</mgrwt>
</event>
<event>
13    1  0.3019759E-008  0.8469881E+02  0.7546771E-02  0.1371932E+00
         -1   -1    0    0    0  501 -0.00000000000E+00  0.00000000000E+00  0.19719022274E+03  0.19719022274E+03  0.00000000000E+00 0.  1.
          2   -1    0    0  503    0  0.00000000000E+00 -0.00000000000E+00 -0.14763064936E+04  0.14763064936E+04  0.00000000000E+00 0. -1.
         25    2    1    2    0    0 -0.35584172314E+02  0.51632755478E+02  0.11097080124E+02  0.14026631034E+03  0.12497726942E+03 0.  0.
         24    2    1    2    0    0  0.91214341459E+01 -0.19878123058E+02 -0.22989754805E+03  0.24335468139E+03  0.76748146669E+02 0.  0.
         24    2    1    2    0    0  0.10504312962E+03  0.69760473383E+02 -0.65022014662E+03  0.66723987902E+03  0.80760351405E+02 0.  0.
        -11    1    5    5    0    0  0.41037504167E+02  0.28722242694E+02 -0.10054680412E+03  0.11233300402E+03  0.00000000000E+00 0.  1.
         12    1    5    5    0    0  0.64005625455E+02  0.41038230689E+02 -0.54967334250E+03  0.55490687500E+03  0.00000000000E+00 0. -1.
        -11    1    4    4    0    0  0.31997455532E+02  0.16796259372E+02 -0.92066447378E+02  0.98904915056E+02  0.00000000000E+00 0.  1.
         12    1    4    4    0    0 -0.22876021386E+02 -0.36674382430E+02 -0.13783110067E+03  0.14444976633E+03  0.00000000000E+00 0. -1.
          5    1    3    3  502    0  0.43031992388E+02  0.21416508909E+02 -0.17238343121E+02  0.51280305150E+02  0.47000000000E+01 0. -1.
         -5    1    3    3    0  502 -0.78616164701E+02  0.30216246569E+02  0.28335423244E+02  0.88986005189E+02  0.47000000000E+01 0. -1.
          1    1    1    2  503    0 -0.66361972434E+02 -0.50538331894E+02 -0.50627388203E+03  0.51309967648E+03  0.00000000000E+00 0. -1.
         -2    1    1    2    0  501 -0.12218419020E+02 -0.50976773908E+02  0.96178225716E+02  0.10953616911E+03  0.00000000000E+00 0.  1.
<mgrwt>
<rscale>  0 0.66633055E+02</rscale>
<asrwt>0</asrwt>
<pdfrwt beam="2">  1        2 0.21710390E+00 0.84698812E+02</pdfrwt>
<pdfrwt beam="1">  1       -1 0.28998561E-01 0.52420618E+02</pdfrwt>
<totfact> 0.20060466E+02</totfact>
</mgrwt>
</event>
<event>
13    1  0.3019759E-008  0.9976305E+02  0.7546771E-02  0.1349872E+00
          2   -1    0    0  503    0  0.00000000000E+00  0.00000000000E+00  0.61402268734E+03  0.61402268734E+03  0.00000000000E+00 0. -1.
          2   -1    0    0  502    0 -0.00000000000E+00 -0.00000000000E+00 -0.38948647974E+04  0.38948647974E+04  0.00000000000E+00 0. -1.
         25    2    1    2    0    0  0.39095742572E+03 -0.11010694860E+03 -0.23310906718E+04  0.23695079547E+04  0.12495190454E+03 0.  0.
         24    2    1    2    0    0 -0.22442584829E+03  0.13794985425E+03  0.48053249374E+02  0.27869967405E+03  0.77248105942E+02 0.  0.
         24    2    1    2    0    0 -0.52060120485E+02  0.47660458073E+01  0.18993414582E+03  0.21282742913E+03  0.80545412674E+02 0.  0.
        -13    1    4    4    0    0  0.56062069803E+01  0.42340778906E+00  0.44450284630E+01  0.71670851047E+01  0.00000000000E+00 0.  1.
         14    1    4    4    0    0 -0.23003205527E+03  0.13752644646E+03  0.43608220911E+02  0.27153258895E+03  0.00000000000E+00 0. -1.
        -13    1    5    5    0    0 -0.11003752492E+02  0.40261755261E+02  0.84248984402E+02  0.94021183136E+02  0.00000000000E+00 0.  1.
         14    1    5    5    0    0 -0.41056367993E+02 -0.35495709454E+02  0.10568516142E+03  0.11880624599E+03  0.00000000000E+00 0. -1.
          5    1    3    3  501    0  0.86471551418E+02  0.25022050007E+02 -0.41595290612E+03  0.42560820282E+03  0.47000000000E+01 0. -1.
         -5    1    3    3    0  501  0.30448587430E+03 -0.13512899861E+03 -0.19151377657E+04  0.19438997519E+04  0.47000000000E+01 0. -1.
          1    1    1    2  502    0 -0.73636445346E+02 -0.67261558841E+02 -0.14128969315E+04  0.14164124337E+04  0.00000000000E+00 0. -1.
          1    1    1    2  503    0 -0.40835011597E+02  0.34652607384E+02  0.22515809796E+03  0.23143999319E+03  0.00000000000E+00 0. -1.
<mgrwt>
<rscale>  0 0.73095568E+02</rscale>
<asrwt>0</asrwt>
<pdfrwt beam="1">  1        2 0.90297455E-01 0.53556525E+02</pdfrwt>
<pdfrwt beam="2">  1        2 0.57277423E+00 0.99763047E+02</pdfrwt>
<totfact> 0.72338449E+00</totfact>
</mgrwt>
</event>
<event>
13    1  0.3019759E-008  0.1085947E+03  0.7546771E-02  0.1281149E+00
          2   -1    0    0  502    0  0.00000000000E+00  0.00000000000E+00  0.59057275701E+03  0.59057275701E+03  0.00000000000E+00 0. -1.
          2   -1    0    0  503    0 -0.00000000000E+00 -0.00000000000E+00 -0.70071164580E+03  0.70071164580E+03  0.00000000000E+00 0. -1.
         25    2    1    2    0    0 -0.86298971950E+02  0.39473695850E+02 -0.13440463111E+03  0.20662744039E+03  0.12499843612E+03 0.  0.
         24    2    1    2    0    0  0.18261157566E+02 -0.53470741116E+00  0.57936550919E+02  0.10293474541E+03  0.83097304965E+02 0.  0.
         24    2    1    2    0    0  0.64653552968E+01 -0.38954568068E+02  0.93139613709E+02  0.12996688247E+03  0.81591321255E+02 0.  0.
        -11    1    5    5    0    0  0.38902406776E+02 -0.15176309835E+02  0.75011249002E+02  0.85851063534E+02  0.00000000000E+00 0.  1.
         12    1    5    5    0    0 -0.32437051479E+02 -0.23778258232E+02  0.18128364707E+02  0.44115818933E+02  0.00000000000E+00 0. -1.
        -13    1    4    4    0    0  0.31600090988E+02 -0.25002553268E+02  0.18865984707E+01  0.40339220049E+02  0.00000000000E+00 0.  1.
         14    1    4    4    0    0 -0.13338933423E+02  0.24467845857E+02  0.56049952448E+02  0.62595525361E+02  0.00000000000E+00 0. -1.
          5    1    3    3  501    0 -0.73231923603E+02  0.73175816480E+02 -0.50782475603E+02  0.11540608554E+03  0.47000000000E+01 0.  1.
         -5    1    3    3    0  501 -0.13067048347E+02 -0.33702120630E+02 -0.83622155508E+02  0.91221354842E+02  0.47000000000E+01 0.  1.
          1    1    1    2  502    0 -0.98480610224E+02  0.49355721271E+02  0.33915916304E+03  0.35659971352E+03  0.00000000000E+00 0. -1.
          1    1    1    2  503    0  0.16005306931E+03 -0.49340141643E+02 -0.46596958534E+03  0.49515562103E+03  0.00000000000E+00 0. -1.
<mgrwt>
<rscale>  0 0.99595658E+02</rscale>
<asrwt>0</asrwt>
<pdfrwt beam="1">  1        2 0.86848936E-01 0.91342374E+02</pdfrwt>
<pdfrwt beam="2">  1        2 0.10304583E+00 0.10859467E+03</pdfrwt>
<totfact> 0.39114271E+02</totfact>
</mgrwt>
</event>
<event>
13    1  0.3019759E-008  0.1288329E+03  0.7546771E-02  0.1313240E+00
          2   -1    0    0  502    0  0.00000000000E+00  0.00000000000E+00  0.31532507052E+04  0.31532507052E+04  0.00000000000E+00 0. -1.
          2   -1    0    0  503    0 -0.00000000000E+00 -0.00000000000E+00 -0.10578672956E+04  0.10578672956E+04  0.00000000000E+00 0. -1.
         25    2    1    2    0    0  0.20059843848E+03 -0.24452667546E+03 -0.77177334134E+03  0.84338400209E+03  0.12501782291E+03 0.  0.
         24    2    1    2    0    0 -0.75671253730E+02  0.17913310973E+03  0.83240309734E+03  0.85863410455E+03  0.80887572515E+02 0.  0.
         24    2    1    2    0    0 -0.27657158678E+02  0.23849546246E+02  0.15770354956E+03  0.18124347094E+03  0.81517279981E+02 0.  0.
        -11    1    5    5    0    0 -0.49622345918E+02 -0.47820645882E+01  0.11495971359E+03  0.12530355583E+03  0.00000000000E+00 0.  1.
         12    1    5    5    0    0  0.21965187241E+02  0.28631610834E+02  0.42743835967E+02  0.55939915112E+02  0.00000000000E+00 0. -1.
        -13    1    4    4    0    0  0.14161891264E+02  0.21751677552E+02  0.62170846683E+02  0.67371424341E+02  0.00000000000E+00 0.  1.
         14    1    4    4    0    0 -0.89833144995E+02  0.15738143218E+03  0.77023225066E+03  0.79126268021E+03  0.00000000000E+00 0. -1.
          5    1    3    3  501    0  0.10172839868E+03 -0.19115070694E+03 -0.60169839012E+03  0.63949222242E+03  0.47000000000E+01 0. -1.
         -5    1    3    3    0  501  0.98870039793E+02 -0.53375968525E+02 -0.17007495122E+03  0.20389177967E+03  0.47000000000E+01 0. -1.
          1    1    1    2  502    0 -0.15148603737E+03  0.59776898650E+02  0.20956136907E+04  0.21019319775E+04  0.00000000000E+00 0. -1.
          1    1    1    2  503    0  0.54216011298E+02 -0.18232879166E+02 -0.21856358667E+03  0.22592444574E+03  0.00000000000E+00 0. -1.
<mgrwt>
<rscale>  0 0.85844131E+02</rscale>
<asrwt>0</asrwt>
<pdfrwt beam="1">  1        2 0.46371334E+00 0.12883294E+03</pdfrwt>
<pdfrwt beam="2">  1        2 0.15556872E+00 0.57199771E+02</pdfrwt>
<totfact> 0.10028010E+01</totfact>
</mgrwt>
</event>
<event>
13    1  0.3019759E-008  0.1285761E+03  0.7546771E-02  0.1260683E+00
          2   -1    0    0  502    0  0.00000000000E+00  0.00000000000E+00  0.23177887866E+04  0.23177887866E+04  0.00000000000E+00 0. -1.
          2   -1    0    0  503    0 -0.00000000000E+00 -0.00000000000E+00 -0.23258189976E+04  0.23258189976E+04  0.00000000000E+00 0. -1.
         25    2    1    2    0    0 -0.15716139012E+03 -0.70080368872E+02 -0.92349975105E+03  0.94767607688E+03  0.12500878309E+03 0.  0.
         24    2    1    2    0    0  0.59747525614E+01  0.23120894435E+03 -0.44206482330E+01  0.24307561011E+03  0.74652103009E+02 0.  0.
         24    2    1    2    0    0 -0.61475257387E+02 -0.48801074211E+02  0.20779973169E+03  0.23622790422E+03  0.80387450039E+02 0.  0.
        -11    1    4    4    0    0  0.12091235510E+02  0.21933851921E+03 -0.22254975890E+02  0.22079598714E+03  0.00000000000E+00 0.  1.
         12    1    4    4    0    0 -0.61164829488E+01  0.11870425138E+02  0.17834327657E+02  0.22279622968E+02  0.00000000000E+00 0. -1.
        -11    1    5    5    0    0  0.43154413449E+01 -0.43974445189E+02  0.10696108679E+03  0.11572834117E+03  0.00000000000E+00 0.  1.
         12    1    5    5    0    0 -0.65790698732E+02 -0.48266290220E+01  0.10083864490E+03  0.12049956304E+03  0.00000000000E+00 0. -1.
          5    1    3    3  501    0 -0.73680422003E+02 -0.99563051428E+02 -0.52525152331E+03  0.53967847700E+03  0.47000000000E+01 0.  1.
         -5    1    3    3    0  501 -0.83480968121E+02  0.29482682556E+02 -0.39824822774E+03  0.40799759988E+03  0.47000000000E+01 0.  1.
          1    1    1    2  502    0  0.12242061524E+03 -0.86001277642E+02  0.19597399808E+04  0.19654423978E+04  0.00000000000E+00 0. -1.
          1    1    1    2  503    0  0.90241279705E+02 -0.26326223620E+02 -0.12476495242E+04  0.12511857951E+04  0.00000000000E+00 0. -1.
<mgrwt>
<rscale>  0 0.10993880E+03</rscale>
<asrwt>0</asrwt>
<pdfrwt beam="1">  1        2 0.34085129E+00 0.12857614E+03</pdfrwt>
<pdfrwt beam="2">  1        2 0.34203220E+00 0.94002971E+02</pdfrwt>
<totfact> 0.62361486E+00</totfact>
</mgrwt>
</event>
<event>
13    1  0.3019759E-008  0.1768037E+03  0.7546771E-02  0.1241556E+00
          2   -1    0    0  502    0  0.00000000000E+00  0.00000000000E+00  0.49973829464E+03  0.49973829464E+03  0.00000000000E+00 0. -1.
          2   -1    0    0  503    0 -0.00000000000E+00 -0.00000000000E+00 -0.27908676621E+04  0.27908676621E+04  0.00000000000E+00 0. -1.
         25    2    1    2    0    0  0.26525384405E+02 -0.14775688603E+03 -0.18827025850E+04  0.18928097918E+04  0.12499676340E+03 0.  0.
         24    2    1    2    0    0 -0.16552201841E+03 -0.69624676537E+02 -0.21252439627E+03  0.28943722890E+03  0.79763126204E+02 0.  0.
         24    2    1    2    0    0 -0.86173033631E+02 -0.42535417281E+02 -0.81222345195E+02  0.14845356505E+03  0.78780315874E+02 0.  0.
        -13    1    5    5    0    0  0.64431018666E+01 -0.30112245441E+02 -0.18881555514E+02  0.36121655911E+02  0.00000000000E+00 0.  1.
         14    1    5    5    0    0 -0.92616135498E+02 -0.12423171841E+02 -0.62340789681E+02  0.11233190914E+03  0.00000000000E+00 0. -1.
        -13    1    4    4    0    0 -0.13995015863E+03 -0.87701945530E+02 -0.17749166901E+03  0.24244787217E+03  0.00000000000E+00 0.  1.
         14    1    4    4    0    0 -0.25571859777E+02  0.18077268993E+02 -0.35032727262E+02  0.46989356733E+02  0.00000000000E+00 0. -1.
          5    1    3    3  501    0  0.31154542876E+02 -0.16806950816E+03 -0.17574661696E+04  0.17657653843E+04  0.47000000000E+01 0. -1.
         -5    1    3    3    0  501 -0.46291584709E+01  0.20312622130E+02 -0.12523641542E+03  0.12704440748E+03  0.47000000000E+01 0. -1.
          1    1    1    2  502    0  0.29586607399E+03  0.21695739190E+03  0.33852878001E+03  0.49920835183E+03  0.00000000000E+00 0. -1.
          1    1    1    2  503    0 -0.70696406359E+02  0.42959587949E+02 -0.45320882099E+03  0.46069701920E+03  0.00000000000E+00 0. -1.
<mgrwt>
<rscale>  0 0.12093871E+03</rscale>
<asrwt>0</asrwt>
<pdfrwt beam="1">  1        2 0.73490926E-01 0.17680366E+03</pdfrwt>
<pdfrwt beam="2">  1        2 0.41042171E+00 0.82725498E+02</pdfrwt>
<totfact> 0.39227697E+01</totfact>
</mgrwt>
</event>
<event>
13    1  0.3019759E-008  0.1786336E+03  0.7546771E-02  0.1419055E+00
          2   -1    0    0  503    0  0.00000000000E+00  0.00000000000E+00  0.18079891143E+04  0.18079891143E+04  0.00000000000E+00 0. -1.
          2   -1    0    0  502    0 -0.00000000000E+00 -0.00000000000E+00 -0.61025579790E+03  0.61025579790E+03  0.00000000000E+00 0. -1.
         25    2    1    2    0    0  0.32752366482E+02 -0.12625089149E+02 -0.30338272626E+03  0.32999807615E+03  0.12500216512E+03 0.  0.
         24    2    1    2    0    0  0.49473893660E+02  0.25835269825E+03  0.33659580813E+01  0.27478408819E+03  0.79379988684E+02 0.  0.
         24    2    1    2    0    0  0.56238626966E+02 -0.15593217346E+03  0.59353525959E+03  0.62138342565E+03  0.79722214096E+02 0.  0.
        -11    1    5    5    0    0  0.29662477811E+02 -0.69211043187E+02  0.14098945189E+03  0.15983759456E+03  0.00000000000E+00 0.  1.
         12    1    5    5    0    0  0.26576149154E+02 -0.86721130268E+02  0.45254580769E+03  0.46154583109E+03  0.00000000000E+00 0. -1.
        -13    1    4    4    0    0  0.24575040591E+02  0.12734011685E+02 -0.28791049484E+01  0.27827628698E+02  0.00000000000E+00 0.  1.
         14    1    4    4    0    0  0.24898853068E+02  0.24561868656E+03  0.62450630297E+01  0.24695645949E+03  0.00000000000E+00 0. -1.
          5    1    3    3  501    0  0.49290672283E+02  0.91429453618E+01 -0.37775613380E+02  0.62946412052E+02  0.47000000000E+01 0. -1.
         -5    1    3    3    0  501 -0.16538305801E+02 -0.21768034511E+02 -0.26560711288E+03  0.26705166410E+03  0.47000000000E+01 0. -1.
          1    1    1    2  502    0  0.84168972151E+01  0.14851428099E+02 -0.13563548780E+03  0.13670550328E+03  0.00000000000E+00 0. -1.
          1    1    1    2  503    0 -0.14688178432E+03 -0.10464686374E+03  0.10398503128E+04  0.10553738190E+04  0.00000000000E+00 0. -1.
<mgrwt>
<rscale>  0 0.55221397E+02</rscale>
<asrwt>0</asrwt>
<pdfrwt beam="1">  1        2 0.26588075E+00 0.17863364E+03</pdfrwt>
<pdfrwt beam="2">  1        2 0.89743500E-01 0.17070708E+02</pdfrwt>
<totfact> 0.92170064E+01</totfact>
</mgrwt>
</event>
<event>
13    1  0.3019759E-008  0.5683069E+02  0.7546771E-02  0.1454917E+00
          2   -1    0    0  502    0  0.00000000000E+00  0.00000000000E+00  0.20185016253E+04  0.20185016253E+04  0.00000000000E+00 0. -1.
          2   -1    0    0  503    0 -0.00000000000E+00 -0.00000000000E+00 -0.14332180064E+04  0.14332180064E+04  0.00000000000E+00 0. -1.
         25    2    1    2    0    0  0.12192911178E+03 -0.14276145648E+02 -0.62331459405E+03  0.64747063367E+03  0.12500648651E+03 0.  0.
         24    2    1    2    0    0 -0.22929876334E+02  0.70490197877E+02 -0.65263743239E+02  0.13048817202E+03  0.85282821418E+02 0.  0.
         24    2    1    2    0    0 -0.36103348185E+02  0.15955013823E+02  0.95120982185E+03  0.95531754605E+03  0.79205267409E+02 0.  0.
        -13    1    5    5    0    0  0.19334426815E+02 -0.11130239442E+02  0.14018052135E+03  0.14194464011E+03  0.00000000000E+00 0.  1.
         14    1    5    5    0    0 -0.55437775000E+02  0.27085253265E+02  0.81102930050E+03  0.81337290594E+03  0.00000000000E+00 0. -1.
        -13    1    4    4    0    0 -0.42481096119E+02  0.77416083558E+02 -0.65163963099E+02  0.10974623277E+03  0.00000000000E+00 0.  1.
         14    1    4    4    0    0  0.19551219784E+02 -0.69258856810E+01 -0.99780140385E-01  0.20741939244E+02  0.00000000000E+00 0. -1.
          5    1    3    3  501    0  0.38794956552E+02  0.42275226216E+02 -0.10768061829E+03  0.12210425447E+03  0.47000000000E+01 0.  1.
         -5    1    3    3    0  501  0.83134155225E+02 -0.56551371864E+02 -0.51563397576E+03  0.52536637919E+03  0.47000000000E+01 0.  1.
          1    1    1    2  502    0 -0.29334871656E+02 -0.48627331727E+02  0.10191544953E+04  0.10207355374E+04  0.00000000000E+00 0. -1.
          1    1    1    2  503    0 -0.33561015603E+02 -0.23541734326E+02 -0.69650236106E+03  0.69770774253E+03  0.00000000000E+00 0. -1.
<mgrwt>
<rscale>  0 0.48267483E+02</rscale>
<asrwt>0</asrwt>
<pdfrwt beam="1">  1        2 0.29683848E+00 0.56830690E+02</pdfrwt>
<pdfrwt beam="2">  1        2 0.21076735E+00 0.40994573E+02</pdfrwt>
<totfact> 0.27517684E+01</totfact>
</mgrwt>
</event>
<event>
13    1  0.3019759E-008  0.4646385E+02  0.7546771E-02  0.1508192E+00
          2   -1    0    0  502    0  0.00000000000E+00  0.00000000000E+00  0.26652346925E+04  0.26652346925E+04  0.00000000000E+00 0. -1.
          2   -1    0    0  503    0 -0.00000000000E+00 -0.00000000000E+00 -0.24600786279E+04  0.24600786279E+04  0.00000000000E+00 0. -1.
         25    2    1    2    0    0 -0.13816015550E+03 -0.13480024190E+02 -0.70962727446E+03  0.73380173908E+03  0.12499673595E+03 0.  0.
         24    2    1    2    0    0  0.33655062696E+03 -0.34462642803E+03  0.24942186387E+03  0.54836313268E+03  0.80356454008E+02 0.  0.
         24    2    1    2    0    0 -0.20893533138E+03  0.36791490727E+03  0.39641485892E+03  0.58643619111E+03  0.88018828568E+02 0.  0.
        -11    1    4    4    0    0  0.17362608769E+02 -0.25641949479E+02  0.40786511450E+02  0.51210441051E+02  0.00000000000E+00 0.  1.
         12    1    4    4    0    0  0.31918801819E+03 -0.31898447855E+03  0.20863535242E+03  0.49715269163E+03  0.00000000000E+00 0. -1.
        -13    1    5    5    0    0 -0.10154446912E+03  0.18035166178E+03  0.25379307796E+03  0.32748882047E+03  0.00000000000E+00 0.  1.
         14    1    5    5    0    0 -0.10739086226E+03  0.18756324549E+03  0.14262178096E+03  0.25894737064E+03  0.00000000000E+00 0. -1.
          5    1    3    3  501    0 -0.54710368334E+02  0.45684539365E+02 -0.16761873591E+03  0.18220436923E+03  0.47000000000E+01 0.  1.
         -5    1    3    3    0  501 -0.83449787168E+02 -0.59164563554E+02 -0.54200853855E+03  0.55159736984E+03  0.47000000000E+01 0.  1.
          1    1    1    2  502    0 -0.46038197811E+01  0.34130863904E+02  0.17622996518E+04  0.17626361433E+04  0.00000000000E+00 0. -1.
          1    1    1    2  503    0  0.15148679701E+02 -0.43939318958E+02 -0.14933530356E+04  0.14940761142E+04  0.00000000000E+00 0. -1.
<mgrwt>
<rscale>  0 0.40002666E+02</rscale>
<asrwt>0</asrwt>
<pdfrwt beam="1">  1        2 0.39194628E+00 0.34439963E+02</pdfrwt>
<pdfrwt beam="2">  1        2 0.36177627E+00 0.46463850E+02</pdfrwt>
<totfact> 0.47721563E+00</totfact>
</mgrwt>
</event>
<event>
13    1  0.3019759E-008  0.1422047E+03  0.7546771E-02  0.1225938E+00
          2   -1    0    0  502    0  0.00000000000E+00  0.00000000000E+00  0.19735883933E+04  0.19735883933E+04  0.00000000000E+00 0. -1.
          2   -1    0    0  503    0 -0.00000000000E+00 -0.00000000000E+00 -0.16551498002E+04  0.16551498002E+04  0.00000000000E+00 0. -1.
         25    2    1    2    0    0 -0.29942198856E+03 -0.32064166522E+02 -0.15880528800E+03  0.36266682193E+03  0.12500586474E+03 0.  0.
         24    2    1    2    0    0  0.57309932457E+02 -0.18212314043E+01 -0.27777936426E+02  0.99620394469E+02  0.76582400067E+02 0.  0.
         24    2    1    2    0    0  0.52339942457E+02  0.26768808489E+02  0.24199977356E+03  0.26091312499E+03  0.77818569147E+02 0.  0.
        -11    1    4    4    0    0  0.39119897086E+02 -0.38339390833E+02 -0.18132039674E+02  0.57697886445E+02  0.00000000000E+00 0.  1.
         12    1    4    4    0    0  0.18190035372E+02  0.36518159429E+02 -0.96458967518E+01  0.41922508024E+02  0.00000000000E+00 0. -1.
        -13    1    5    5    0    0  0.72536222759E+02  0.25461819838E+02  0.18118725738E+03  0.19682131520E+03  0.00000000000E+00 0.  1.
         14    1    5    5    0    0 -0.20196280303E+02  0.13069886513E+01  0.60812516182E+02  0.64091809787E+02  0.00000000000E+00 0. -1.
          5    1    3    3  501    0 -0.21965273403E+03  0.11367017737E+02 -0.15947196617E+03  0.27171663669E+03  0.47000000000E+01 0.  1.
         -5    1    3    3    0  501 -0.79769254535E+02 -0.43431184259E+02  0.66667817352E+00  0.90950185239E+02  0.47000000000E+01 0.  1.
          1    1    1    2  502    0  0.61778275664E+02  0.75913926598E+02  0.15787645487E+04  0.15817954924E+04  0.00000000000E+00 0. -1.
          1    1    1    2  503    0  0.12799383799E+03 -0.68797337160E+02 -0.13157425047E+04  0.13237423597E+04  0.00000000000E+00 0. -1.
<mgrwt>
<rscale>  0 0.13102829E+03</rscale>
<asrwt>0</asrwt>
<pdfrwt beam="1">  1        2 0.29023359E+00 0.12073031E+03</pdfrwt>
<pdfrwt beam="2">  1        2 0.24340438E+00 0.14220466E+03</pdfrwt>
<totfact> 0.18812362E+01</totfact>
</mgrwt>
</event>
<event>
13    1  0.3019759E-008  0.5176243E+02  0.7546771E-02  0.1489470E+00
          2   -1    0    0  502    0  0.00000000000E+00  0.00000000000E+00  0.25252908844E+04  0.25252908844E+04  0.00000000000E+00 0. -1.
          2   -1    0    0  503    0 -0.00000000000E+00 -0.00000000000E+00 -0.23199775339E+04  0.23199775339E+04  0.00000000000E+00 0. -1.
         25    2    1    2    0    0 -0.25316929490E+01 -0.55370610951E+02 -0.43098481194E+03  0.45215461633E+03  0.12499429955E+03 0.  0.
         24    2    1    2    0    0 -0.98598634751E+01 -0.34738049993E+02  0.33362565351E+03  0.34546130947E+03  0.82057849310E+02 0.  0.
         24    2    1    2    0    0  0.26036857515E+02  0.22446077582E+02  0.60280406728E+03  0.60914136636E+03  0.80614616168E+02 0.  0.
        -11    1    5    5    0    0 -0.25515521459E+02  0.50019713391E+01  0.97234753213E+02  0.10065117379E+03  0.00000000000E+00 0.  1.
         12    1    5    5    0    0  0.51552378974E+02  0.17444106243E+02  0.50556931406E+03  0.50849019257E+03  0.00000000000E+00 0. -1.
        -11    1    4    4    0    0 -0.34512364802E+02 -0.26310533145E+02  0.29897806736E+03  0.30211129116E+03  0.00000000000E+00 0.  1.
         12    1    4    4    0    0  0.24652501327E+02 -0.84275168479E+01  0.34647586147E+02  0.43350018313E+02  0.00000000000E+00 0. -1.
          5    1    3    3  501    0 -0.43860580680E+02  0.13785306723E+02 -0.24643842649E+03  0.25073446765E+03  0.47000000000E+01 0.  1.
         -5    1    3    3    0  501  0.41328887731E+02 -0.69155917675E+02 -0.18454638545E+03  0.20142014868E+03  0.47000000000E+01 0.  1.
          1    1    1    2  502    0  0.16246343088E+02  0.49138592156E+02  0.15685975736E+04  0.15694511438E+04  0.00000000000E+00 0. -1.
          1    1    1    2  503    0 -0.29891644178E+02  0.18523991206E+02 -0.18687291320E+04  0.18690599823E+04  0.00000000000E+00 0. -1.
<mgrwt>
<rscale>  0 0.42664722E+02</rscale>
<asrwt>0</asrwt>
<pdfrwt beam="1">  1        2 0.37136631E+00 0.51762433E+02</pdfrwt>
<pdfrwt beam="2">  1        2 0.34117316E+00 0.35166015E+02</pdfrwt>
<totfact> 0.63427340E+00</totfact>
</mgrwt>
</event>
<event>
13    1  0.3019759E-008  0.4941154E+02  0.7546771E-02  0.1469499E+00
          2   -1    0    0  503    0  0.00000000000E+00  0.00000000000E+00  0.27064179989E+04  0.27064179989E+04  0.00000000000E+00 0. -1.
          2   -1    0    0  502    0 -0.00000000000E+00 -0.00000000000E+00 -0.67085283061E+03  0.67085283061E+03  0.00000000000E+00 0. -1.
         25    2    1    2    0    0  0.19896237339E+03  0.35793830066E+03  0.19370644190E+02  0.42860997721E+03  0.12500175039E+03 0.  0.
         24    2    1    2    0    0 -0.48570918411E+03 -0.66262902058E+02  0.38440718252E+03  0.63260604971E+03  0.11007882832E+03 0.  0.
         24    2    1    2    0    0  0.26207309292E+03 -0.37042633060E+03  0.70217383501E+03  0.83978975909E+03  0.79377405270E+02 0.  0.
        -13    1    5    5    0    0  0.21123192381E+03 -0.24124281917E+03  0.46181519259E+03  0.56221908144E+03  0.00000000000E+00 0.  1.
         14    1    5    5    0    0  0.50841169119E+02 -0.12918351143E+03  0.24035864242E+03  0.27757067765E+03  0.00000000000E+00 0. -1.
        -13    1    4    4    0    0 -0.17560950105E+03  0.12666859835E+02  0.18592001663E+03  0.25605741305E+03  0.00000000000E+00 0.  1.
         14    1    4    4    0    0 -0.31009968306E+03 -0.78929761893E+02  0.19848716589E+03  0.37654863666E+03  0.00000000000E+00 0. -1.
          5    1    3    3  501    0  0.52722845865E+02  0.11850488449E+03  0.63618668652E+02  0.14454248899E+03  0.47000000000E+01 0. -1.
         -5    1    3    3    0  501  0.14623952753E+03  0.23943341617E+03 -0.44248024462E+02  0.28406748821E+03  0.47000000000E+01 0. -1.
          1    1    1    2  502    0 -0.79394483016E+01  0.41675344976E+02 -0.27116902257E+03  0.27446768119E+03  0.00000000000E+00 0. -1.
          1    1    1    2  503    0  0.32613166092E+02  0.37075587027E+02  0.12007825291E+04  0.12017973623E+04  0.00000000000E+00 0. -1.
<mgrwt>
<rscale>  0 0.45785127E+02</rscale>
<asrwt>0</asrwt>
<pdfrwt beam="1">  1        2 0.39800264E+00 0.49411537E+02</pdfrwt>
<pdfrwt beam="2">  1        2 0.98654829E-01 0.42424866E+02</pdfrwt>
<totfact> 0.34734791E+01</totfact>
</mgrwt>
</event>
<event>
13    1  0.3019759E-008  0.3639442E+02  0.7546771E-02  0.1588869E+00
          2   -1    0    0  502    0  0.00000000000E+00  0.00000000000E+00  0.92092963450E+03  0.92092963450E+03  0.00000000000E+00 0. -1.
          2   -1    0    0  503    0 -0.00000000000E+00 -0.00000000000E+00 -0.33006848855E+04  0.33006848855E+04  0.00000000000E+00 0. -1.
         25    2    1    2    0    0  0.63791301563E+02 -0.88514482861E+02 -0.47536250021E+03  0.50348611053E+03  0.12499845221E+03 0.  0.
         24    2    1    2    0    0 -0.11209614737E+02 -0.45712972829E+02 -0.12474720372E+02  0.85570190884E+02  0.70365528294E+02 0.  0.
         24    2    1    2    0    0  0.43232825363E+01  0.11393799307E+03  0.23269166281E+03  0.27238195825E+03  0.83940241838E+02 0.  0.
        -13    1    5    5    0    0 -0.38016504967E+02  0.49080695446E+02  0.80943289507E+02  0.10200973204E+03  0.00000000000E+00 0.  1.
         14    1    5    5    0    0  0.42339787504E+02  0.64857297620E+02  0.15174837331E+03  0.17037222620E+03  0.00000000000E+00 0. -1.
        -13    1    4    4    0    0 -0.35551634759E+02 -0.36547339873E+01 -0.89813632249E+01  0.36850246945E+02  0.00000000000E+00 0.  1.
         14    1    4    4    0    0  0.24342020022E+02 -0.42058238842E+02 -0.34933571470E+01  0.48719943939E+02  0.00000000000E+00 0. -1.
          5    1    3    3  501    0  0.70166800015E+02 -0.10326719440E+03 -0.27071416459E+03  0.29815389009E+03  0.47000000000E+01 0. -1.
         -5    1    3    3    0  501 -0.63754984526E+01  0.14752711543E+02 -0.20464833562E+03  0.20533222044E+03  0.47000000000E+01 0. -1.
          1    1    1    2  502    0 -0.30768462155E+02  0.19397967071E+02  0.61718549750E+03  0.61825635275E+03  0.00000000000E+00 0. -1.
          1    1    1    2  503    0 -0.26136507208E+02  0.89149555318E+00 -0.27417951907E+04  0.27419199076E+04  0.00000000000E+00 0. -1.
<mgrwt>
<rscale>  0 0.30850873E+02</rscale>
<asrwt>0</asrwt>
<pdfrwt beam="1">  1        2 0.13543083E+00 0.36394425E+02</pdfrwt>
<pdfrwt beam="2">  1        2 0.48539484E+00 0.26151707E+02</pdfrwt>
<totfact> 0.13537968E+01</totfact>
</mgrwt>
</event>
<event>
13    1  0.3019759E-008  0.1153584E+03  0.7546771E-02  0.1300284E+00
          2   -1    0    0  503    0  0.00000000000E+00  0.00000000000E+00  0.90953215214E+03  0.90953215214E+03  0.00000000000E+00 0. -1.
          2   -1    0    0  502    0 -0.00000000000E+00 -0.00000000000E+00 -0.32098140415E+04  0.32098140415E+04  0.00000000000E+00 0. -1.
         25    2    1    2    0    0  0.97953287219E+02 -0.76804754099E+02 -0.12314988819E+04  0.12440691819E+04  0.12499926640E+03 0.  0.
         24    2    1    2    0    0  0.33867400108E+02 -0.17493692751E+02 -0.27727754435E+02  0.93520901360E+02  0.80773142498E+02 0.  0.
         24    2    1    2    0    0  0.63669452759E+00 -0.29291888447E+01 -0.13389390884E+02  0.81344861918E+02  0.80179331782E+02 0.  0.
        -13    1    5    5    0    0  0.25434081044E+02 -0.19695704885E+02 -0.32582193347E+02  0.45786598397E+02  0.00000000000E+00 0.  1.
         14    1    5    5    0    0 -0.24797386517E+02  0.16766516040E+02  0.19192802464E+02  0.35558263521E+02  0.00000000000E+00 0. -1.
        -13    1    4    4    0    0 -0.90324370090E+01 -0.12232136093E+02 -0.44601780366E+02  0.47122488087E+02  0.00000000000E+00 0.  1.
         14    1    4    4    0    0  0.42899837117E+02 -0.52615566577E+01  0.16874025931E+02  0.46398413273E+02  0.00000000000E+00 0. -1.
          5    1    3    3  501    0  0.71533669327E+02  0.20473895215E+02 -0.46087537271E+03  0.46686662485E+03  0.47000000000E+01 0.  1.
         -5    1    3    3    0  501  0.26419617892E+02 -0.97278649313E+02 -0.77062350918E+03  0.77720255708E+03  0.47000000000E+01 0.  1.
          1    1    1    2  502    0 -0.49708829395E+02 -0.51939721141E+02 -0.18546370968E+04  0.18560300275E+04  0.00000000000E+00 0. -1.
          1    1    1    2  503    0 -0.82748552459E+02  0.14916735684E+03  0.82697123464E+03  0.84438122090E+03  0.00000000000E+00 0. -1.
<mgrwt>
<rscale>  0 0.91068890E+02</rscale>
<asrwt>0</asrwt>
<pdfrwt beam="1">  1        2 0.13375473E+00 0.11535843E+03</pdfrwt>
<pdfrwt beam="2">  1        2 0.47203147E+00 0.71893688E+02</pdfrwt>
<totfact> 0.12097008E+01</totfact>
</mgrwt>
</event>
<event>
13    1  0.3019759E-008  0.1161825E+03  0.7546771E-02  0.1302850E+00
          2   -1    0    0  503    0  0.00000000000E+00  0.00000000000E+00  0.22489434949E+04  0.22489434949E+04  0.00000000000E+00 0. -1.
          2   -1    0    0  502    0 -0.00000000000E+00 -0.00000000000E+00 -0.24604747559E+04  0.24604747559E+04  0.00000000000E+00 0. -1.
         25    2    1    2    0    0  0.68018900715E+02 -0.21554548939E+03 -0.52673105118E+03  0.58664960304E+03  0.12500291045E+03 0.  0.
         24    2    1    2    0    0  0.26273192844E+03 -0.52768607834E+03  0.40841457970E+02  0.59638388838E+03  0.80777807197E+02 0.  0.
         24    2    1    2    0    0 -0.51184297306E+03  0.70606617568E+03  0.77654939754E+03  0.11706060240E+04  0.82321462585E+02 0.  0.
        -11    1    4    4    0    0  0.20749835666E+02 -0.11109410339E+03  0.17538481397E+01  0.11302889662E+03  0.00000000000E+00 0.  1.
         12    1    4    4    0    0  0.24198209277E+03 -0.41659197494E+03  0.39087609831E+02  0.48335499175E+03  0.00000000000E+00 0. -1.
        -13    1    5    5    0    0 -0.21490550855E+03  0.28154975969E+03  0.36870199590E+03  0.51126882026E+03  0.00000000000E+00 0.  1.
         14    1    5    5    0    0 -0.29693746451E+03  0.42451641599E+03  0.40784740164E+03  0.65933720378E+03  0.00000000000E+00 0. -1.
          5    1    3    3  501    0  0.52382403871E+02 -0.10820941139E+03 -0.40975484643E+03  0.42705306125E+03  0.47000000000E+01 0.  1.
         -5    1    3    3    0  501  0.15636496844E+02 -0.10733607801E+03 -0.11697620475E+03  0.15959654179E+03  0.47000000000E+01 0.  1.
          1    1    1    2  502    0  0.66138593259E+02  0.22054455288E+02 -0.14245028986E+04  0.14262079865E+04  0.00000000000E+00 0. -1.
          1    1    1    2  503    0  0.11495355065E+03  0.15110936760E+02  0.92231183327E+03  0.92957074879E+03  0.00000000000E+00 0. -1.
<mgrwt>
<rscale>  0 0.90000585E+02</rscale>
<asrwt>0</asrwt>
<pdfrwt beam="1">  1        2 0.33072699E+00 0.11618250E+03</pdfrwt>
<pdfrwt beam="2">  1        2 0.36183452E+00 0.69718810E+02</pdfrwt>
<totfact> 0.60925512E+00</totfact>
</mgrwt>
</event>
<event>
13    1  0.3019759E-008  0.9445473E+02  0.7546771E-02  0.1322183E+00
          2   -1    0    0  503    0  0.00000000000E+00  0.00000000000E+00  0.20344299497E+04  0.20344299497E+04  0.00000000000E+00 0. -1.
         -3   -1    0    0    0  501 -0.00000000000E+00 -0.00000000000E+00 -0.18782684479E+04  0.18782684479E+04  0.00000000000E+00 0.  1.
         25    2    1    2    0    0 -0.69459006823E+02  0.11777212474E+03 -0.25491376171E+03  0.31512035307E+03  0.12499993606E+03 0.  0.
         24    2    1    2    0    0  0.93253180972E+01  0.65606823876E+01  0.12963459502E+03  0.15328322147E+03  0.80997615077E+02 0.  0.
         24    2    1    2    0    0 -0.47481140197E+02 -0.30989042481E+02  0.30505461640E+03  0.32004603091E+03  0.78462497335E+02 0.  0.
        -13    1    5    5    0    0 -0.42211703063E+02  0.11377911791E+02  0.81838883829E+02  0.92784091625E+02  0.00000000000E+00 0.  1.
         14    1    5    5    0    0 -0.52694371334E+01 -0.42366954272E+02  0.22321573257E+03  0.22726193928E+03  0.00000000000E+00 0. -1.
        -13    1    4    4    0    0  0.65185467078E+01 -0.34721659156E+02  0.33780159294E+02  0.48879282192E+02  0.00000000000E+00 0.  1.
         14    1    4    4    0    0  0.28067713894E+01  0.41282341543E+02  0.95854435728E+02  0.10440393928E+03  0.00000000000E+00 0. -1.
          5    1    3    3  502    0  0.18494326390E+02 -0.10145005511E+01 -0.96647534830E+02  0.98518553119E+02  0.47000000000E+01 0. -1.
         -5    1    3    3    0  502 -0.87953333214E+02  0.11878662529E+03 -0.15826622688E+03  0.21660179995E+03  0.47000000000E+01 0. -1.
          1    1    1    2  503    0  0.10129953553E+03 -0.21614233511E+02  0.15477619261E+04  0.15512239525E+04  0.00000000000E+00 0. -1.
         -4    1    1    2    0  501  0.63152933953E+01 -0.71729531137E+02 -0.15713758740E+04  0.15730248396E+04  0.00000000000E+00 0.  1.
<mgrwt>
<rscale>  0 0.82470613E+02</rscale>
<asrwt>0</asrwt>
<pdfrwt beam="1">  1        2 0.29918088E+00 0.94454729E+02</pdfrwt>
<pdfrwt beam="2">  1       -3 0.27621595E+00 0.72007004E+02</pdfrwt>
<totfact> 0.35151015E-01</totfact>
</mgrwt>
</event>
<event>
13    1  0.3019759E-008  0.1532370E+03  0.7546771E-02  0.1236666E+00
          2   -1    0    0  502    0  0.00000000000E+00  0.00000000000E+00  0.18812583296E+04  0.18812583296E+04  0.00000000000E+00 0. -1.
          2   -1    0    0  503    0 -0.00000000000E+00 -0.00000000000E+00 -0.11131964910E+04  0.11131964910E+04  0.00000000000E+00 0. -1.
         25    2    1    2    0    0  0.13456486406E+03 -0.15862199678E+03  0.84908464292E+02  0.25710433037E+03  0.12499819552E+03 0.  0.
         24    2    1    2    0    0 -0.11844947681E+03 -0.23332817846E+02  0.29111119980E+03  0.32615848295E+03  0.84017417258E+02 0.  0.
         24    2    1    2    0    0 -0.10633815267E+03 -0.56052368052E+02  0.56405161605E+03  0.58228319681E+03  0.80310802816E+02 0.  0.
        -11    1    4    4    0    0 -0.30451916499E+02 -0.46485846207E+02  0.12391425679E+03  0.13580499310E+03  0.00000000000E+00 0.  1.
         12    1    4    4    0    0 -0.87997560310E+02  0.23153028361E+02  0.16719694301E+03  0.19035348985E+03  0.00000000000E+00 0. -1.
        -11    1    5    5    0    0 -0.11952717399E+03 -0.46890801886E+02  0.50821775019E+03  0.52418582033E+03  0.00000000000E+00 0.  1.
         12    1    5    5    0    0  0.13189021323E+02 -0.91615661664E+01  0.55833865854E+02  0.58097376484E+02  0.00000000000E+00 0. -1.
          5    1    3    3  501    0  0.13691231364E+03 -0.17412760722E+03  0.64130787384E+02  0.23065180058E+03  0.47000000000E+01 0.  1.
         -5    1    3    3    0  501 -0.23474495804E+01  0.15505610435E+02  0.20777676908E+02  0.26452529788E+02  0.47000000000E+01 0.  1.
          1    1    1    2  502    0  0.14843204145E+02  0.17181842596E+03  0.81690950839E+03  0.83491498796E+03  0.00000000000E+00 0. -1.
          1    1    1    2  503    0  0.75379561275E+02  0.66188756717E+02 -0.98891894989E+03  0.99399382252E+03  0.00000000000E+00 0. -1.
<mgrwt>
<rscale>  0 0.12398352E+03</rscale>
<asrwt>0</asrwt>
<pdfrwt beam="1">  1        2 0.27665564E+00 0.15323696E+03</pdfrwt>
<pdfrwt beam="2">  1        2 0.16370536E+00 0.10031465E+03</pdfrwt>
<totfact> 0.39644823E+01</totfact>
</mgrwt>
</event>
<event>
13    1  0.3019759E-008  0.9927377E+02  0.7546771E-02  0.1390910E+00
          2   -1    0    0  502    0  0.00000000000E+00  0.00000000000E+00  0.83726589025E+03  0.83726589025E+03  0.00000000000E+00 0. -1.
          2   -1    0    0  503    0 -0.00000000000E+00 -0.00000000000E+00 -0.33340399152E+04  0.33340399152E+04  0.00000000000E+00 0. -1.
         25    2    1    2    0    0  0.42366772291E+02 -0.10010241834E+03 -0.18567379469E+04  0.18641127182E+04  0.12499994006E+03 0.  0.
         24    2    1    2    0    0 -0.19368017633E+02  0.17656305051E+02 -0.19411736375E+03  0.20909042278E+03  0.73146351741E+02 0.  0.
         24    2    1    2    0    0  0.15354174702E+02 -0.21064670958E+02  0.11658882273E+03  0.14421640835E+03  0.80783338681E+02 0.  0.
        -13    1    5    5    0    0  0.42590954128E+02  0.86294040477E+01  0.48694689524E+02  0.65265831609E+02  0.00000000000E+00 0.  1.
         14    1    5    5    0    0 -0.27236779426E+02 -0.29694075006E+02  0.67894133202E+02  0.78950576738E+02  0.00000000000E+00 0. -1.
        -13    1    4    4    0    0 -0.36479327468E+02  0.26282112545E+02 -0.67963167411E+02  0.81489158155E+02  0.00000000000E+00 0.  1.
         14    1    4    4    0    0  0.17111309835E+02 -0.86258074936E+01 -0.12615419634E+03  0.12760126463E+03  0.00000000000E+00 0. -1.
          5    1    3    3  501    0 -0.31163680724E+02 -0.76959691587E+02 -0.11934080779E+04  0.11963021773E+04  0.47000000000E+01 0.  1.
         -5    1    3    3    0  501  0.73530453015E+02 -0.23142726752E+02 -0.66332986902E+03  0.66781054083E+03  0.47000000000E+01 0.  1.
          1    1    1    2  502    0 -0.19563448741E+02  0.13691213241E+03  0.68851939462E+03  0.70227246656E+03  0.00000000000E+00 0. -1.
          1    1    1    2  503    0 -0.18789480619E+02 -0.33401348160E+02 -0.12510269317E+04  0.12516137896E+04  0.00000000000E+00 0. -1.
<mgrwt>
<rscale>  0 0.61680819E+02</rscale>
<asrwt>0</asrwt>
<pdfrwt beam="1">  1        2 0.12312734E+00 0.99273770E+02</pdfrwt>
<pdfrwt beam="2">  1        2 0.49029999E+00 0.38323552E+02</pdfrwt>
<totfact> 0.12965397E+01</totfact>
</mgrwt>
</event>
<event>
13    1  0.3019759E-008  0.3017012E+02  0.7546771E-02  0.1783563E+00
          2   -1    0    0  502    0  0.00000000000E+00  0.00000000000E+00  0.22998599166E+04  0.22998599166E+04  0.00000000000E+00 0. -1.
          2   -1    0    0  503    0 -0.00000000000E+00 -0.00000000000E+00 -0.26061731921E+03  0.26061731921E+03  0.00000000000E+00 0. -1.
         25    2    1    2    0    0 -0.30005982831E+02 -0.14486192165E+02  0.72906298520E+01  0.12956857758E+03  0.12499861697E+03 0.  0.
         24    2    1    2    0    0  0.46392618765E+02 -0.74432238984E+02  0.23610060035E+03  0.26472489466E+03  0.81506705790E+02 0.  0.
         24    2    1    2    0    0 -0.31891098593E+02  0.60966023491E+02  0.15516780042E+04  0.15552480930E+04  0.79737719403E+02 0.  0.
        -11    1    4    4    0    0  0.38674200395E+02 -0.27552455880E+01  0.13565025779E+03  0.14108252051E+03  0.00000000000E+00 0.  1.
         12    1    4    4    0    0  0.77184183701E+01 -0.71676993396E+02  0.10045034256E+03  0.12364237415E+03  0.00000000000E+00 0. -1.
        -13    1    5    5    0    0 -0.29509959581E+02 -0.11372417799E+02  0.59236286475E+03  0.59320648440E+03  0.00000000000E+00 0.  1.
         14    1    5    5    0    0 -0.23811390118E+01  0.72338441291E+02  0.95931513941E+03  0.96204160857E+03  0.00000000000E+00 0. -1.
          5    1    3    3  501    0 -0.14052928995E+02 -0.69918129952E+02  0.51366395201E+01  0.71655458794E+02  0.47000000000E+01 0. -1.
         -5    1    3    3    0  501 -0.15953053836E+02  0.55431937787E+02  0.21539903318E+01  0.57913118789E+02  0.47000000000E+01 0. -1.
          1    1    1    2  502    0  0.22810299564E+02  0.19748009614E+02  0.42685703376E+03  0.42792197995E+03  0.00000000000E+00 0. -1.
          1    1    1    2  503    0 -0.73058369051E+01  0.82043980439E+01 -0.18268367075E+03  0.18301369064E+03  0.00000000000E+00 0. -1.
<mgrwt>
<rscale>  0 0.18205557E+02</rscale>
<asrwt>0</asrwt>
<pdfrwt beam="1">  1        2 0.33821468E+00 0.30170117E+02</pdfrwt>
<pdfrwt beam="2">  1        2 0.38326078E-01 0.10985782E+02</pdfrwt>
<totfact> 0.14833486E+02</totfact>
</mgrwt>
</event>
<event>
13    1  0.3019759E-008  0.8046688E+02  0.7546771E-02  0.1398896E+00
          2   -1    0    0  503    0  0.00000000000E+00  0.00000000000E+00  0.48636788266E+04  0.48636788266E+04  0.00000000000E+00 0. -1.
          2   -1    0    0  502    0 -0.00000000000E+00 -0.00000000000E+00 -0.10914689194E+04  0.10914689194E+04  0.00000000000E+00 0. -1.
         25    2    1    2    0    0 -0.35495096110E+03 -0.17736590238E+03 -0.42509109778E+03  0.59479121869E+03  0.12500121721E+03 0.  0.
         24    2    1    2    0    0 -0.37901148051E+03 -0.18867001223E+03 -0.30822619223E+01  0.43180102998E+03  0.84832501287E+02 0.  0.
         24    2    1    2    0    0  0.74837549540E+03  0.31667060238E+03  0.35744430367E+04  0.36666261302E+04  0.84604986056E+02 0.  0.
        -11    1    5    5    0    0  0.36114302351E+03  0.13511497305E+03  0.15206564562E+04  0.15687818195E+04  0.00000000000E+00 0.  1.
         12    1    5    5    0    0  0.38723247189E+03  0.18155562932E+03  0.20537865804E+04  0.20978443107E+04  0.00000000000E+00 0. -1.
        -11    1    4    4    0    0 -0.19061545014E+03 -0.71464992929E+02 -0.38304456732E+02  0.20714421655E+03  0.00000000000E+00 0.  1.
         12    1    4    4    0    0 -0.18839603038E+03 -0.11720501931E+03  0.35222194810E+02  0.22465681343E+03  0.00000000000E+00 0. -1.
          5    1    3    3  501    0 -0.16543718512E+03 -0.69213324026E+02 -0.28059550572E+03  0.33304034932E+03  0.47000000000E+01 0. -1.
         -5    1    3    3    0  501 -0.18951377598E+03 -0.10815257836E+03 -0.14449559206E+03  0.26175086937E+03  0.47000000000E+01 0. -1.
          1    1    1    2  502    0  0.43932188166E+02 -0.61652558511E+01 -0.31471778938E+03  0.31782909636E+03  0.00000000000E+00 0. -1.
          1    1    1    2  503    0 -0.58345241952E+02  0.55530568093E+02  0.94065801967E+03  0.94410027075E+03  0.00000000000E+00 0. -1.
<mgrwt>
<rscale>  0 0.59747189E+02</rscale>
<asrwt>0</asrwt>
<pdfrwt beam="1">  1        2 0.71524688E+00 0.80466879E+02</pdfrwt>
<pdfrwt beam="2">  1        2 0.16051014E+00 0.44362682E+02</pdfrwt>
<totfact> 0.70467532E-01</totfact>
</mgrwt>
</event>
<event>
13    1  0.3019759E-008  0.6413054E+02  0.7546771E-02  0.1400110E+00
          2   -1    0    0  503    0  0.00000000000E+00  0.00000000000E+00  0.86922365682E+03  0.86922365682E+03  0.00000000000E+00 0. -1.
          2   -1    0    0  502    0 -0.00000000000E+00 -0.00000000000E+00 -0.23079608019E+04  0.23079608019E+04  0.00000000000E+00 0. -1.
         25    2    1    2    0    0 -0.79750546459E+02 -0.15611000507E+03 -0.11736951096E+04  0.11932794620E+04  0.12500072290E+03 0.  0.
         24    2    1    2    0    0 -0.19122909239E+02  0.14877879765E+03  0.29240290022E+03  0.33851691601E+03  0.81199938924E+02 0.  0.
         24    2    1    2    0    0  0.42947633440E+02 -0.96301778864E+02  0.15605273458E+03  0.19845866619E+03  0.62568797217E+02 0.  0.
        -11    1    4    4    0    0 -0.21460117234E+02  0.18309268732E+01  0.22196686955E+02  0.30928657208E+02  0.00000000000E+00 0.  1.
         12    1    4    4    0    0  0.23372079949E+01  0.14694787078E+03  0.27020621327E+03  0.30758825881E+03  0.00000000000E+00 0. -1.
        -13    1    5    5    0    0  0.26573576759E+02 -0.38548586050E+02  0.11908700095E+03  0.12796039333E+03  0.00000000000E+00 0.  1.
         14    1    5    5    0    0  0.16374056680E+02 -0.57753192814E+02  0.36965733638E+02  0.70498272857E+02  0.00000000000E+00 0. -1.
          5    1    3    3  501    0  0.15980454080E+02 -0.82194992870E+02 -0.30997611164E+03  0.32112096093E+03  0.47000000000E+01 0.  1.
         -5    1    3    3    0  501 -0.95731000539E+02 -0.73915012196E+02 -0.86371899796E+03  0.87215850103E+03  0.47000000000E+01 0.  1.
          1    1    1    2  502    0  0.38096282014E+02  0.51465360388E+02 -0.10771854310E+04  0.10790868653E+04  0.00000000000E+00 0. -1.
          1    1    1    2  503    0  0.17829540244E+02  0.52167625891E+02  0.36368776076E+03  0.36784254923E+03  0.00000000000E+00 0. -1.
<mgrwt>
<rscale>  0 0.59460390E+02</rscale>
<asrwt>0</asrwt>
<pdfrwt beam="1">  1        2 0.12782701E+00 0.55130334E+02</pdfrwt>
<pdfrwt beam="2">  1        2 0.33940600E+00 0.64130539E+02</pdfrwt>
<totfact> 0.38483596E+01</totfact>
</mgrwt>
</event>
<event>
13    1  0.3019759E-008  0.8811011E+02  0.7546771E-02  0.1409333E+00
          2   -1    0    0  503    0  0.00000000000E+00  0.00000000000E+00  0.13591069174E+04  0.13591069174E+04  0.00000000000E+00 0. -1.
          2   -1    0    0  502    0 -0.00000000000E+00 -0.00000000000E+00 -0.19657800804E+04  0.19657800804E+04  0.00000000000E+00 0. -1.
         25    2    1    2    0    0 -0.27137372836E+02 -0.73662420302E+02 -0.91409249819E+03  0.92594164484E+03  0.12506096610E+03 0.  0.
         24    2    1    2    0    0 -0.59020128584E+02  0.21588521018E+02 -0.26810205726E+03  0.28667375725E+03  0.79710038066E+02 0.  0.
         24    2    1    2    0    0  0.53869992238E+02  0.52961780688E+01 -0.12082793249E+03  0.15535939042E+03  0.81284225749E+02 0.  0.
        -11    1    5    5    0    0  0.50497901191E+02 -0.27925122426E+02 -0.10155553827E+03  0.11680487079E+03  0.00000000000E+00 0.  1.
         12    1    5    5    0    0  0.33720910470E+01  0.33221300495E+02 -0.19272394214E+02  0.38554519623E+02  0.00000000000E+00 0. -1.
        -11    1    4    4    0    0  0.33896974666E+01  0.27716061287E+02 -0.15366159437E+03  0.15617796159E+03  0.00000000000E+00 0.  1.
         12    1    4    4    0    0 -0.62409826050E+02 -0.61275402693E+01 -0.11444046290E+03  0.13049579566E+03  0.00000000000E+00 0. -1.
          5    1    3    3  501    0 -0.42581744341E+02 -0.78114372396E+02 -0.89898223301E+03  0.90338596701E+03  0.47000000000E+01 0. -1.
         -5    1    3    3    0  501  0.15444371505E+02  0.44519520941E+01 -0.15110265176E+02  0.22555677829E+02  0.47000000000E+01 0. -1.
          1    1    1    2  502    0  0.36327065103E+02  0.83877816353E+02 -0.62670288861E+03  0.63333376218E+03  0.00000000000E+00 0. -1.
          1    1    1    2  503    0 -0.40395559212E+01 -0.37100095138E+02  0.13230522135E+04  0.13235784430E+04  0.00000000000E+00 0. -1.
<mgrwt>
<rscale>  0 0.57342945E+02</rscale>
<asrwt>0</asrwt>
<pdfrwt beam="1">  1        2 0.19986867E+00 0.37319366E+02</pdfrwt>
<pdfrwt beam="2">  1        2 0.28908530E+00 0.88110108E+02</pdfrwt>
<totfact> 0.30390656E+01</totfact>
</mgrwt>
</event>
<event>
13    1  0.3019759E-008  0.1112087E+03  0.7546771E-02  0.1261416E+00
          2   -1    0    0  502    0  0.00000000000E+00  0.00000000000E+00  0.36018130971E+04  0.36018130971E+04  0.00000000000E+00 0. -1.
          2   -1    0    0  503    0 -0.00000000000E+00 -0.00000000000E+00 -0.54725889912E+03  0.54725889912E+03  0.00000000000E+00 0. -1.
         25    2    1    2    0    0 -0.11471491698E+03  0.88799271059E+02  0.14349008401E+03  0.23928764341E+03  0.12499739742E+03 0.  0.
         24    2    1    2    0    0  0.14607171672E+03 -0.89841700858E+02  0.63716474653E+03  0.66473790653E+03  0.80554903710E+02 0.  0.
         24    2    1    2    0    0 -0.63630849523E+02  0.29179856087E+02  0.33170119436E+03  0.34832656882E+03  0.80033537933E+02 0.  0.
        -11    1    5    5    0    0 -0.34664060434E+02 -0.25907170509E+02  0.11533358432E+03  0.12318528419E+03  0.00000000000E+00 0.  1.
         12    1    5    5    0    0 -0.28966789088E+02  0.55087026596E+02  0.21636761004E+03  0.22514128463E+03  0.00000000000E+00 0. -1.
        -11    1    4    4    0    0 -0.60987543267E+01 -0.60935010903E+00  0.36766915937E+01  0.71473192854E+01  0.00000000000E+00 0.  1.
         12    1    4    4    0    0  0.15217047105E+03 -0.89232350749E+02  0.63348805494E+03  0.65759058724E+03  0.00000000000E+00 0. -1.
          5    1    3    3  501    0 -0.10360973385E+03  0.12755743295E+02  0.11927485483E+03  0.15857574508E+03  0.47000000000E+01 0. -1.
         -5    1    3    3    0  501 -0.11105183136E+02  0.76043527764E+02  0.24215229181E+02  0.80711898327E+02  0.47000000000E+01 0. -1.
          1    1    1    2  502    0  0.99029371900E+02 -0.11797756088E+03  0.24104046177E+04  0.24153210847E+04  0.00000000000E+00 0. -1.
          1    1    1    2  503    0 -0.66755322119E+02  0.89840134597E+02 -0.46820644464E+03  0.48139879270E+03  0.00000000000E+00 0. -1.
<mgrwt>
<rscale>  0 0.10954430E+03</rscale>
<asrwt>0</asrwt>
<pdfrwt beam="1">  1        2 0.52967839E+00 0.10790477E+03</pdfrwt>
<pdfrwt beam="2">  1        2 0.80479252E-01 0.11120873E+03</pdfrwt>
<totfact> 0.12168802E+01</totfact>
</mgrwt>
</event>
<event>
13    1  0.3019759E-008  0.4132384E+02  0.7546771E-02  0.1576865E+00
          2   -1    0    0  503    0  0.00000000000E+00  0.00000000000E+00  0.22587710207E+04  0.22587710207E+04  0.00000000000E+00 0. -1.
          2   -1    0    0  502    0 -0.00000000000E+00 -0.00000000000E+00 -0.13358134524E+04  0.13358134524E+04  0.00000000000E+00 0. -1.
         25    2    1    2    0    0 -0.50638641701E+02 -0.29028559333E+02 -0.41126801710E+02  0.14394080545E+03  0.12498244822E+03 0.  0.
         24    2    1    2    0    0  0.79795500918E+03 -0.31571044636E+03 -0.12438622182E+03  0.87205257654E+03  0.92727997099E+02 0.  0.
         24    2    1    2    0    0 -0.74696093681E+03  0.36141249952E+03  0.20906931877E+03  0.85953360113E+03  0.80736580833E+02 0.  0.
        -13    1    5    5    0    0 -0.60954243422E+03  0.32341346367E+03  0.18985105624E+03  0.71566868811E+03  0.00000000000E+00 0.  1.
         14    1    5    5    0    0 -0.13741850260E+03  0.37999035845E+02  0.19218262532E+02  0.14386491301E+03  0.00000000000E+00 0. -1.
        -13    1    4    4    0    0  0.27690017043E+03 -0.83208032701E+02 -0.52871205024E+01  0.28918028068E+03  0.00000000000E+00 0.  1.
         14    1    4    4    0    0  0.52105483876E+03 -0.23250241366E+03 -0.11909910132E+03  0.58287229586E+03  0.00000000000E+00 0. -1.
          5    1    3    3  501    0  0.39496308670E+01 -0.60377031162E+02 -0.51960442628E+02  0.79893448254E+02  0.47000000000E+01 0. -1.
         -5    1    3    3    0  501 -0.54588272568E+02  0.31348471829E+02  0.10833640917E+02  0.64047357193E+02  0.47000000000E+01 0. -1.
          1    1    1    2  502    0  0.30258330900E+01 -0.41239222687E+02 -0.41869123458E+03  0.42072815340E+03  0.00000000000E+00 0. -1.
          1    1    1    2  503    0 -0.33812637611E+01  0.24565728861E+02  0.12980925076E+04  0.12983293366E+04  0.00000000000E+00 0. -1.
<mgrwt>
<rscale>  0 0.32011268E+02</rscale>
<asrwt>0</asrwt>
<pdfrwt beam="1">  1        2 0.33217221E+00 0.24797338E+02</pdfrwt>
<pdfrwt beam="2">  1        2 0.19644315E+00 0.41323842E+02</pdfrwt>
<totfact> 0.26368130E+01</totfact>
</mgrwt>
</event>
<event>
13    1  0.3019759E-008  0.1447521E+02  0.7546771E-02  0.1893650E+00
          2   -1    0    0  502    0  0.00000000000E+00  0.00000000000E+00  0.21259548791E+04  0.21259548791E+04  0.00000000000E+00 0. -1.
          2   -1    0    0  503    0 -0.00000000000E+00 -0.00000000000E+00 -0.19262146695E+04  0.19262146695E+04  0.00000000000E+00 0. -1.
         25    2    1    2    0    0  0.39204770722E+03  0.22156843941E+02 -0.43902887823E+03  0.60213265502E+03  0.12500019139E+03 0.  0.
         24    2    1    2    0    0  0.10107184524E+03 -0.74974867805E+03 -0.10092723665E+04  0.12652902216E+04  0.99950172889E+02 0.  0.
         24    2    1    2    0    0 -0.48232699262E+03  0.72119993484E+03  0.16774549298E+04  0.18902337103E+04  0.79748130613E+02 0.  0.
        -11    1    5    5    0    0 -0.41464342161E+03  0.58089645995E+03  0.13280286611E+04  0.15076571192E+04  0.00000000000E+00 0.  1.
         12    1    5    5    0    0 -0.67683571009E+02  0.14030347490E+03  0.34942626865E+03  0.38257659113E+03  0.00000000000E+00 0. -1.
        -13    1    4    4    0    0  0.18861830972E+02 -0.22122707509E+03 -0.37282619384E+03  0.43393151330E+03  0.00000000000E+00 0.  1.
         14    1    4    4    0    0  0.82210014267E+02 -0.52852160296E+03 -0.63644617265E+03  0.83135870833E+03  0.00000000000E+00 0. -1.
          5    1    3    3  501    0  0.35936749248E+03  0.57010356169E+02 -0.38185978631E+03  0.52747906287E+03  0.47000000000E+01 0. -1.
         -5    1    3    3    0  501  0.32680214744E+02 -0.34853512227E+02 -0.57169091924E+02  0.74653592155E+02  0.47000000000E+01 0. -1.
          1    1    1    2  502    0  0.16293977707E+01  0.13826053354E+02  0.13185907577E+03  0.13259197016E+03  0.00000000000E+00 0. -1.
          1    1    1    2  503    0 -0.12421957610E+02 -0.74341540885E+01 -0.16127255121E+03  0.16192099139E+03  0.00000000000E+00 0. -1.
<mgrwt>
<rscale>  0 0.14195774E+02</rscale>
<asrwt>0</asrwt>
<pdfrwt beam="1">  1        2 0.31264042E+00 0.13921734E+02</pdfrwt>
<pdfrwt beam="2">  1        2 0.28326686E+00 0.14475209E+02</pdfrwt>
<totfact> 0.19659874E+01</totfact>
</mgrwt>
</event>
<event>
13    1  0.3019759E-008  0.1343494E+03  0.7546771E-02  0.1262939E+00
          2   -1    0    0  502    0  0.00000000000E+00  0.00000000000E+00  0.30848106486E+04  0.30848106486E+04  0.00000000000E+00 0. -1.
          2   -1    0    0  503    0 -0.00000000000E+00 -0.00000000000E+00 -0.37616659801E+04  0.37616659801E+04  0.00000000000E+00 0. -1.
         25    2    1    2    0    0  0.87728160318E+02  0.20499358663E+03 -0.64785069216E+03  0.69645885710E+03  0.12500327843E+03 0.  0.
         24    2    1    2    0    0 -0.78850196410E+02  0.62207861060E+02 -0.10579733382E+03  0.16420008840E+03  0.75375206362E+02 0.  0.
         24    2    1    2    0    0  0.24449163883E+02  0.22362841869E+01  0.46964807520E+02  0.95954389716E+02  0.79992432010E+02 0.  0.
        -11    1    5    5    0    0  0.36658442546E+02  0.33250519314E+02  0.21268813253E+02  0.53868366058E+02  0.00000000000E+00 0.  1.
         12    1    5    5    0    0 -0.12209278663E+02 -0.31014235127E+02  0.25695994267E+02  0.42086023658E+02  0.00000000000E+00 0. -1.
        -13    1    4    4    0    0 -0.38953738727E+02 -0.14687241411E+01 -0.62551761147E+01  0.39480098019E+02  0.00000000000E+00 0.  1.
         14    1    4    4    0    0 -0.39896457683E+02  0.63676585201E+02 -0.99542157710E+02  0.12471999038E+03  0.00000000000E+00 0. -1.
          5    1    3    3  501    0  0.18321503041E+02  0.63159389027E+02 -0.65021763148E+02  0.92599706148E+02  0.47000000000E+01 0. -1.
         -5    1    3    3    0  501  0.69406657277E+02  0.14183419760E+03 -0.58282892902E+03  0.60385915095E+03  0.47000000000E+01 0. -1.
          1    1    1    2  502    0 -0.94178593374E+02 -0.20587744143E+03  0.29548537928E+04  0.29635141412E+04  0.00000000000E+00 0. -1.
          1    1    1    2  503    0  0.60851465583E+02 -0.63560290445E+02 -0.29250259058E+04  0.29263491523E+04  0.00000000000E+00 0. -1.
<mgrwt>
<rscale>  0 0.10873035E+03</rscale>
<asrwt>0</asrwt>
<pdfrwt beam="1">  1        2 0.45364862E+00 0.13434938E+03</pdfrwt>
<pdfrwt beam="2">  1        2 0.55318618E+00 0.87996604E+02</pdfrwt>
<totfact> 0.41884698E-01</totfact>
</mgrwt>
</event>
<event>
13    1  0.3019759E-008  0.8921334E+02  0.7546771E-02  0.1391183E+00
          2   -1    0    0  502    0  0.00000000000E+00  0.00000000000E+00  0.66739560108E+03  0.66739560108E+03  0.00000000000E+00 0. -1.
          2   -1    0    0  503    0 -0.00000000000E+00 -0.00000000000E+00 -0.89026081940E+03  0.89026081940E+03  0.00000000000E+00 0. -1.
         25    2    1    2    0    0 -0.92216049217E+02 -0.13077752557E+03 -0.25561340186E+02  0.20465633124E+03  0.12499708347E+03 0.  0.
         24    2    1    2    0    0  0.11618991574E+03 -0.82956970741E+01  0.50560254093E+02  0.15131740363E+03  0.82290353245E+02 0.  0.
         24    2    1    2    0    0 -0.84451034723E+02  0.75292204922E+02  0.13760301014E+03  0.19565160407E+03  0.80895416348E+02 0.  0.
        -11    1    5    5    0    0 -0.29588912752E+02  0.57709188672E+02  0.25642051707E+02  0.69737859379E+02  0.00000000000E+00 0.  1.
         12    1    5    5    0    0 -0.54862121971E+02  0.17583016250E+02  0.11196095844E+03  0.12591374469E+03  0.00000000000E+00 0. -1.
        -11    1    4    4    0    0  0.12600747443E+03 -0.18578354797E+02  0.39655756508E+02  0.13340021702E+03  0.00000000000E+00 0.  1.
         12    1    4    4    0    0 -0.98175586814E+01  0.10282657723E+02  0.10904497585E+02  0.17917186606E+02  0.00000000000E+00 0. -1.
          5    1    3    3  501    0  0.21746028825E+02 -0.54825813959E+02  0.16299247625E+02  0.61371940812E+02  0.47000000000E+01 0.  1.
         -5    1    3    3    0  501 -0.11396207804E+03 -0.75951711613E+02 -0.41860587811E+02  0.14328439043E+03  0.47000000000E+01 0.  1.
          1    1    1    2  502    0 -0.24088946258E+02  0.35077105954E+02  0.30593762382E+03  0.30888268058E+03  0.00000000000E+00 0. -1.
          1    1    1    2  503    0  0.84566114454E+02  0.28703911771E+02 -0.69140476618E+03  0.69714840096E+03  0.00000000000E+00 0. -1.
<mgrwt>
<rscale>  0 0.61613426E+02</rscale>
<asrwt>0</asrwt>
<pdfrwt beam="1">  1        2 0.98146413E-01 0.42552094E+02</pdfrwt>
<pdfrwt beam="2">  1        2 0.13092071E+00 0.89213337E+02</pdfrwt>
<totfact> 0.26245456E+02</totfact>
</mgrwt>
</event>
<event>
13    1  0.3019759E-008  0.1767238E+03  0.7546771E-02  0.1247949E+00
          2   -1    0    0  503    0  0.00000000000E+00  0.00000000000E+00  0.21753816925E+04  0.21753816925E+04  0.00000000000E+00 0. -1.
          2   -1    0    0  502    0 -0.00000000000E+00 -0.00000000000E+00 -0.33038459213E+04  0.33038459213E+04  0.00000000000E+00 0. -1.
         25    2    1    2    0    0 -0.43070095390E+03 -0.15822255474E+03 -0.23001407578E+03  0.52826897520E+03  0.12499578628E+03 0.  0.
         24    2    1    2    0    0  0.16246703843E+03  0.23040475337E+03  0.66136557646E+03  0.72348132670E+03  0.80863560454E+02 0.  0.
         24    2    1    2    0    0 -0.30783770621E+01  0.86309223238E+02  0.11818132206E+03  0.16716302910E+03  0.80733481236E+02 0.  0.
        -11    1    5    5    0    0 -0.20694884755E+02  0.95505838776E+02  0.91320006500E+02  0.13374971806E+03  0.00000000000E+00 0.  1.
         12    1    5    5    0    0  0.17616507693E+02 -0.91966155380E+01  0.26861315563E+02  0.33413311037E+02  0.00000000000E+00 0. -1.
        -13    1    4    4    0    0  0.12278244420E+03  0.21920319571E+03  0.54806322306E+03  0.60290867143E+03  0.00000000000E+00 0.  1.
         14    1    4    4    0    0  0.39684594235E+02  0.11201557653E+02  0.11330235340E+03  0.12057265528E+03  0.00000000000E+00 0. -1.
          5    1    3    3  501    0 -0.14262784366E+03 -0.10938846809E+03 -0.11926551087E+03  0.21576582403E+03  0.47000000000E+01 0.  1.
         -5    1    3    3    0  501 -0.28807311024E+03 -0.48834086651E+02 -0.11074856491E+03  0.31250315117E+03  0.47000000000E+01 0.  1.
          1    1    1    2  502    0  0.75534506325E+00 -0.77596376808E+02 -0.28518835988E+04  0.28529391563E+04  0.00000000000E+00 0. -1.
          1    1    1    2  503    0  0.27055694746E+03 -0.80895045055E+02  0.11738865473E+04  0.12073751265E+04  0.00000000000E+00 0. -1.
<mgrwt>
<rscale>  0 0.11710583E+03</rscale>
<asrwt>0</asrwt>
<pdfrwt beam="1">  1        2 0.31990907E+00 0.17672379E+03</pdfrwt>
<pdfrwt beam="2">  1        2 0.48585969E+00 0.77600053E+02</pdfrwt>
<totfact> 0.22732966E+00</totfact>
</mgrwt>
</event>
<event>
13    1  0.3019759E-008  0.5019333E+02  0.7546771E-02  0.1461618E+00
          2   -1    0    0  502    0  0.00000000000E+00  0.00000000000E+00  0.19171636561E+04  0.19171636561E+04  0.00000000000E+00 0. -1.
          2   -1    0    0  503    0 -0.00000000000E+00 -0.00000000000E+00 -0.84646309369E+03  0.84646309369E+03  0.00000000000E+00 0. -1.
         25    2    1    2    0    0 -0.42449928968E+02  0.31908054421E+02  0.99081849846E+02  0.16811874168E+03  0.12500631155E+03 0.  0.
         24    2    1    2    0    0 -0.67975193242E+02 -0.10460913055E+02  0.11248597355E+03  0.15566121973E+03  0.82748193237E+02 0.  0.
         24    2    1    2    0    0  0.46206764116E+02 -0.68750262197E+02  0.23042534362E+03  0.25588558996E+03  0.74296248652E+02 0.  0.
        -11    1    5    5    0    0  0.25588270434E+02  0.41246512512E+01  0.21561557678E+02  0.33714582916E+02  0.00000000000E+00 0.  1.
         12    1    5    5    0    0  0.20618493682E+02 -0.72874913448E+02  0.20886378595E+03  0.22217100705E+03  0.00000000000E+00 0. -1.
        -11    1    4    4    0    0  0.15164672400E+02  0.13079848801E+02  0.30902319966E+02  0.36823947547E+02  0.00000000000E+00 0.  1.
         12    1    4    4    0    0 -0.83139865641E+02 -0.23540761856E+02  0.81583653583E+02  0.11883727218E+03  0.00000000000E+00 0. -1.
          5    1    3    3  501    0 -0.12432759932E+02  0.77485231715E+02  0.73652311003E+02  0.10772784027E+03  0.47000000000E+01 0.  1.
         -5    1    3    3    0  501 -0.30017169036E+02 -0.45577177293E+02  0.25429538843E+02  0.60390901407E+02  0.47000000000E+01 0.  1.
          1    1    1    2  502    0  0.49764470828E+02  0.55278289765E+01  0.14052598422E+04  0.14061515863E+04  0.00000000000E+00 0. -1.
          1    1    1    2  503    0  0.14453887266E+02  0.41775291854E+02 -0.77655244689E+03  0.77780961208E+03  0.00000000000E+00 0. -1.
<mgrwt>
<rscale>  0 0.47104148E+02</rscale>
<asrwt>0</asrwt>
<pdfrwt beam="1">  1        2 0.28193583E+00 0.50193334E+02</pdfrwt>
<pdfrwt beam="2">  1        2 0.12447987E+00 0.44205089E+02</pdfrwt>
<totfact> 0.62975422E+01</totfact>
</mgrwt>
</event>
<event>
13    1  0.3019759E-008  0.2037683E+03  0.7546771E-02  0.1267031E+00
          2   -1    0    0  503    0  0.00000000000E+00  0.00000000000E+00  0.53396897869E+04  0.53396897869E+04  0.00000000000E+00 0. -1.
         -1   -1    0    0    0  501 -0.00000000000E+00 -0.00000000000E+00 -0.85755372816E+03  0.85755372816E+03  0.00000000000E+00 0.  1.
         25    2    1    2    0    0 -0.89082399687E+02  0.14198989941E+03 -0.17797424094E+03  0.27458398311E+03  0.12499891149E+03 0.  0.
         24    2    1    2    0    0  0.23511620668E+03  0.15531190835E+03  0.23899695745E+01  0.29351375091E+03  0.82116931883E+02 0.  0.
         24    2    1    2    0    0  0.15237905367E+01 -0.12644021728E+03  0.48091834536E+03  0.50372749836E+03  0.80433122644E+02 0.  0.
        -11    1    5    5    0    0 -0.13638275491E+02  0.53325664656E+01  0.25712537444E+02  0.29590089647E+02  0.00000000000E+00 0.  1.
         12    1    5    5    0    0  0.15162066028E+02 -0.13177278375E+03  0.45520580791E+03  0.47413740871E+03  0.00000000000E+00 0. -1.
        -11    1    4    4    0    0  0.94946452766E+02  0.66200513882E+02 -0.39348298868E+02  0.12225230286E+03  0.00000000000E+00 0.  1.
         12    1    4    4    0    0  0.14016975391E+03  0.89111394470E+02  0.41738268443E+02  0.17126144805E+03  0.00000000000E+00 0. -1.
          5    1    3    3  502    0 -0.10121131446E+03  0.50942837776E+02 -0.72303985269E+02  0.13449482957E+03  0.47000000000E+01 0.  1.
         -5    1    3    3    0  502  0.12128914773E+02  0.91047061638E+02 -0.10567025567E+03  0.14008915354E+03  0.47000000000E+01 0.  1.
          1    1    1    2  503    0 -0.14525498520E+03 -0.11515937530E+03  0.46476179701E+04  0.46513130930E+04  0.00000000000E+00 0. -1.
         -2    1    1    2    0  501 -0.23026123249E+01 -0.55702215183E+02 -0.47081598539E+03  0.47410518970E+03  0.00000000000E+00 0.  1.
<mgrwt>
<rscale>  0 0.10658349E+03</rscale>
<asrwt>0</asrwt>
<pdfrwt beam="1">  1        2 0.78524848E+00 0.20376833E+03</pdfrwt>
<pdfrwt beam="2">  1       -1 0.12611084E+00 0.55749787E+02</pdfrwt>
<totfact> 0.30181000E-02</totfact>
</mgrwt>
</event>
<event>
13    1  0.3019759E-008  0.9376422E+02  0.7546771E-02  0.1335741E+00
          2   -1    0    0  502    0  0.00000000000E+00  0.00000000000E+00  0.19804908418E+04  0.19804908418E+04  0.00000000000E+00 0. -1.
          2   -1    0    0  503    0 -0.00000000000E+00 -0.00000000000E+00 -0.21495513428E+04  0.21495513428E+04  0.00000000000E+00 0. -1.
         25    2    1    2    0    0  0.94574483128E+02  0.67482329326E+02 -0.86047777060E+03  0.87723500868E+03  0.12498427554E+03 0.  0.
         24    2    1    2    0    0  0.30238291423E+02  0.12130427919E+02  0.46540031655E+02  0.97923237866E+02  0.79758914348E+02 0.  0.
         24    2    1    2    0    0 -0.80817907813E+02 -0.12233329254E+03  0.12114307482E+04  0.12228464698E+04  0.79322521666E+02 0.  0.
        -13    1    5    5    0    0 -0.59062743866E+01 -0.15417975925E+02  0.30156177268E+02  0.34380126326E+02  0.00000000000E+00 0.  1.
         14    1    5    5    0    0 -0.74911633426E+02 -0.10691531661E+03  0.11812745709E+04  0.11884663435E+04  0.00000000000E+00 0. -1.
        -13    1    4    4    0    0  0.53419060546E+02 -0.76027335495E+01  0.20027882543E+02  0.57554440890E+02  0.00000000000E+00 0.  1.
         14    1    4    4    0    0 -0.23180769123E+02  0.19733161468E+02  0.26512149113E+02  0.40368796976E+02  0.00000000000E+00 0. -1.
          5    1    3    3  501    0  0.10578287981E+03  0.90802853843E+02 -0.78525534613E+03  0.79754825844E+03  0.47000000000E+01 0.  1.
         -5    1    3    3    0  501 -0.11208396683E+02 -0.23320524518E+02 -0.75222424470E+02  0.79686750236E+02  0.47000000000E+01 0.  1.
          1    1    1    2  502    0 -0.12952076578E+02  0.99109915855E+02  0.67824769054E+03  0.68557308978E+03  0.00000000000E+00 0. -1.
          1    1    1    2  503    0 -0.31042790160E+02 -0.56389380560E+02 -0.12448012009E+04  0.12464643784E+04  0.00000000000E+00 0. -1.
<mgrwt>
<rscale>  0 0.77688767E+02</rscale>
<asrwt>0</asrwt>
<pdfrwt beam="1">  1        2 0.29124865E+00 0.93764217E+02</pdfrwt>
<pdfrwt beam="2">  1        2 0.31611049E+00 0.64369380E+02</pdfrwt>
<totfact> 0.11979544E+01</totfact>
</mgrwt>
</event>
<event>
13    1  0.3019759E-008  0.1137467E+03  0.7546771E-02  0.1265554E+00
          2   -1    0    0  502    0  0.00000000000E+00  0.00000000000E+00  0.15084900519E+04  0.15084900519E+04  0.00000000000E+00 0. -1.
          2   -1    0    0  503    0 -0.00000000000E+00 -0.00000000000E+00 -0.10465003858E+04  0.10465003858E+04  0.00000000000E+00 0. -1.
         25    2    1    2    0    0 -0.13531547096E+03  0.20989564778E+03  0.16441333986E+03  0.32407596828E+03  0.12500810875E+03 0.  0.
         24    2    1    2    0    0  0.20824759893E+02 -0.13574008762E+03  0.14056207989E+03  0.21314405793E+03  0.82544830932E+02 0.  0.
         24    2    1    2    0    0  0.19121525874E+02 -0.44008089377E+02  0.17289792553E+03  0.19647348299E+03  0.80036192974E+02 0.  0.
        -11    1    4    4    0    0 -0.28447398151E+02 -0.46453082510E+02  0.71897836245E+02  0.90202229423E+02  0.00000000000E+00 0.  1.
         12    1    4    4    0    0  0.49272158044E+02 -0.89287005110E+02  0.68664243649E+02  0.12294182850E+03  0.00000000000E+00 0. -1.
        -11    1    5    5    0    0 -0.12231086830E+02  0.99453133141E+01  0.96737389472E+02  0.98013423896E+02  0.00000000000E+00 0.  1.
         12    1    5    5    0    0  0.31352612704E+02 -0.53953402691E+02  0.76160536055E+02  0.98460059098E+02  0.00000000000E+00 0. -1.
          5    1    3    3  501    0  0.31811588026E+01  0.97413701893E+02  0.35208851189E+02  0.10373669693E+03  0.47000000000E+01 0.  1.
         -5    1    3    3    0  501 -0.13849662976E+03  0.11248194589E+03  0.12920448867E+03  0.22033927135E+03  0.47000000000E+01 0.  1.
          1    1    1    2  502    0  0.83242489994E+02  0.83183410373E+02  0.89530567960E+03  0.90300667319E+03  0.00000000000E+00 0. -1.
          1    1    1    2  503    0  0.12126695196E+02 -0.11333088116E+03 -0.91118935880E+03  0.91829025529E+03  0.00000000000E+00 0. -1.
<mgrwt>
<rscale>  0 0.10735186E+03</rscale>
<asrwt>0</asrwt>
<pdfrwt beam="1">  1        2 0.22183677E+00 0.10131657E+03</pdfrwt>
<pdfrwt beam="2">  1        2 0.15389712E+00 0.11374665E+03</pdfrwt>
<totfact> 0.67742054E+01</totfact>
</mgrwt>
</event>
<event>
13    1  0.3019759E-008  0.6691723E+02  0.7546771E-02  0.1481420E+00
          2   -1    0    0  503    0  0.00000000000E+00  0.00000000000E+00  0.12152708824E+04  0.12152708824E+04  0.00000000000E+00 0. -1.
          2   -1    0    0  502    0 -0.00000000000E+00 -0.00000000000E+00 -0.25834645783E+04  0.25834645783E+04  0.00000000000E+00 0. -1.
         25    2    1    2    0    0  0.70661345774E+02 -0.90559147923E+01 -0.41553064487E+03  0.43973245275E+03  0.12499551110E+03 0.  0.
         24    2    1    2    0    0  0.88805484859E+02  0.21145028568E+02 -0.75488711196E+02  0.14369892425E+03  0.81346843441E+02 0.  0.
         24    2    1    2    0    0 -0.75698778331E+02 -0.35254768884E+01  0.69550775090E+03  0.70436534456E+03  0.81589049599E+02 0.  0.
        -11    1    4    4    0    0  0.11647887242E+02  0.40422241558E+02 -0.19055206795E+02  0.46181509241E+02  0.00000000000E+00 0.  1.
         12    1    4    4    0    0  0.77157597617E+02 -0.19277212990E+02 -0.56433504401E+02  0.97517415008E+02  0.00000000000E+00 0. -1.
        -11    1    5    5    0    0  0.14111356187E+02 -0.69845299748E+01  0.21137980567E+03  0.21196541293E+03  0.00000000000E+00 0.  1.
         12    1    5    5    0    0 -0.89810134518E+02  0.34590530864E+01  0.48412794523E+03  0.49239993163E+03  0.00000000000E+00 0. -1.
          5    1    3    3  501    0 -0.16797473127E+02 -0.43877869431E+02 -0.17876873095E+03  0.18489935558E+03  0.47000000000E+01 0. -1.
         -5    1    3    3    0  501  0.87458818901E+02  0.34821954639E+02 -0.23676191392E+03  0.25483309717E+03  0.47000000000E+01 0. -1.
          1    1    1    2  502    0 -0.18315320387E+02 -0.22201507823E+02 -0.20393262514E+04  0.20395293372E+04  0.00000000000E+00 0. -1.
          1    1    1    2  503    0 -0.65452731914E+02  0.13637870936E+02  0.46664416058E+03  0.47140940194E+03  0.00000000000E+00 0. -1.
<mgrwt>
<rscale>  0 0.43885746E+02</rscale>
<asrwt>0</asrwt>
<pdfrwt beam="1">  1        2 0.17871631E+00 0.66917230E+02</pdfrwt>
<pdfrwt beam="2">  1        2 0.37992126E+00 0.28781208E+02</pdfrwt>
<totfact> 0.20316142E+01</totfact>
</mgrwt>
</event>
<event>
13    1  0.3019759E-008  0.4735885E+02  0.7546771E-02  0.1571452E+00
          2   -1    0    0  503    0  0.00000000000E+00  0.00000000000E+00  0.16980269291E+04  0.16980269291E+04  0.00000000000E+00 0. -1.
          2   -1    0    0  502    0 -0.00000000000E+00 -0.00000000000E+00 -0.21302525864E+04  0.21302525864E+04  0.00000000000E+00 0. -1.
         25    2    1    2    0    0 -0.66391169833E+02  0.30324274285E+01 -0.20551460629E+03  0.24955573107E+03  0.12499930586E+03 0.  0.
         24    2    1    2    0    0 -0.58819021783E+03  0.85635252019E+03 -0.95903899296E+03  0.14161218113E+04  0.79610447460E+02 0.  0.
         24    2    1    2    0    0  0.67827610142E+03 -0.87247473062E+03  0.39407139532E+03  0.11744188485E+04  0.51930161779E+02 0.  0.
        -11    1    5    5    0    0  0.28661821814E+03 -0.33368127545E+03  0.14233864231E+03  0.46233481985E+03  0.00000000000E+00 0.  1.
         12    1    5    5    0    0  0.39165788328E+03 -0.53879345517E+03  0.25173275301E+03  0.71208402862E+03  0.00000000000E+00 0. -1.
        -13    1    4    4    0    0 -0.18702088448E+03  0.24553939782E+03 -0.33069256881E+03  0.45235382410E+03  0.00000000000E+00 0.  1.
         14    1    4    4    0    0 -0.40116933336E+03  0.61081312237E+03 -0.62834642414E+03  0.96376798723E+03  0.00000000000E+00 0. -1.
          5    1    3    3  501    0 -0.26584791279E+02  0.26236745943E+02 -0.19930159740E+03  0.20282587284E+03  0.47000000000E+01 0.  1.
         -5    1    3    3    0  501 -0.39806378554E+02 -0.23204318515E+02 -0.62130088854E+01  0.46729858236E+02  0.47000000000E+01 0.  1.
          1    1    1    2  502    0 -0.34125861517E+02  0.32888374876E+02 -0.32304495864E+03  0.32650308563E+03  0.00000000000E+00 0. -1.
          1    1    1    2  503    0  0.10431147757E+02 -0.19798591872E+02  0.66130150528E+03  0.66168003897E+03  0.00000000000E+00 0. -1.
<mgrwt>
<rscale>  0 0.32554811E+02</rscale>
<asrwt>0</asrwt>
<pdfrwt beam="1">  1        2 0.24970984E+00 0.22378407E+02</pdfrwt>
<pdfrwt beam="2">  1        2 0.31327244E+00 0.47358854E+02</pdfrwt>
<totfact> 0.19910501E+01</totfact>
</mgrwt>
</event>
<event>
13    1  0.3019759E-008  0.7675363E+02  0.7546771E-02  0.1466307E+00
          2   -1    0    0  503    0  0.00000000000E+00  0.00000000000E+00  0.22625146746E+04  0.22625146746E+04  0.00000000000E+00 0. -1.
          2   -1    0    0  502    0 -0.00000000000E+00 -0.00000000000E+00 -0.18255874891E+04  0.18255874891E+04  0.00000000000E+00 0. -1.
         25    2    1    2    0    0  0.25225013994E+02  0.26800312978E+02 -0.27274051579E+03  0.30226917184E+03  0.12499882072E+03 0.  0.
         24    2    1    2    0    0 -0.58967063923E+02 -0.79003656685E+02  0.97677100363E+01  0.12797129684E+03  0.81009581280E+02 0.  0.
         24    2    1    2    0    0  0.51317541630E+02  0.13400417003E+03  0.12710657906E+03  0.20879545523E+03  0.82757791276E+02 0.  0.
        -11    1    4    4    0    0 -0.60560622844E+02 -0.13472374582E+02  0.41159986230E+01  0.62177450581E+02  0.00000000000E+00 0.  1.
         12    1    4    4    0    0  0.15935589210E+01 -0.65531282103E+02  0.56517114133E+01  0.65793846263E+02  0.00000000000E+00 0. -1.
        -13    1    5    5    0    0  0.53757161779E+02  0.11227082494E+03  0.59938041989E+02  0.13815621395E+03  0.00000000000E+00 0.  1.
         14    1    5    5    0    0 -0.24396201498E+01  0.21733345092E+02  0.67168537075E+02  0.70639241277E+02  0.00000000000E+00 0. -1.
          5    1    3    3  501    0 -0.28188510241E+01 -0.46649715956E+02 -0.14275021745E+03  0.15027926172E+03  0.47000000000E+01 0.  1.
         -5    1    3    3    0  501  0.28043865018E+02  0.73450028935E+02 -0.12999029834E+03  0.15198991012E+03  0.47000000000E+01 0.  1.
          1    1    1    2  502    0  0.97860137374E+01 -0.76118365733E+02 -0.14370153532E+04  0.14390632012E+04  0.00000000000E+00 0. -1.
          1    1    1    2  503    0 -0.27361505439E+02 -0.56824605937E+01  0.20098087653E+04  0.20100030387E+04  0.00000000000E+00 0. -1.
<mgrwt>
<rscale>  0 0.46313139E+02</rscale>
<asrwt>0</asrwt>
<pdfrwt beam="1">  1        2 0.33272275E+00 0.27945346E+02</pdfrwt>
<pdfrwt beam="2">  1        2 0.26846875E+00 0.76753634E+02</pdfrwt>
<totfact> 0.14288591E+01</totfact>
</mgrwt>
</event>
<event>
13    1  0.3019759E-008  0.9515884E+02  0.7546771E-02  0.1510291E+00
         -1   -1    0    0    0  501 -0.00000000000E+00  0.00000000000E+00  0.12928704579E+04  0.12928704579E+04  0.00000000000E+00 0.  1.
          2   -1    0    0  503    0  0.00000000000E+00 -0.00000000000E+00 -0.23494703654E+04  0.23494703654E+04  0.00000000000E+00 0. -1.
         25    2    1    2    0    0  0.24070364379E+03  0.50208058123E+02  0.38236493016E+03  0.47147259357E+03  0.12499749373E+03 0.  0.
         24    2    1    2    0    0  0.68331198065E+02 -0.14541199203E+02 -0.39506606062E+02  0.11329434455E+03  0.79963976152E+02 0.  0.
         24    2    1    2    0    0 -0.21987273360E+03  0.18310558545E+02 -0.11758685498E+04  0.11990161212E+04  0.79331689591E+02 0.  0.
        -11    1    4    4    0    0  0.69296072963E+02  0.19561476211E+02 -0.28613777481E+02  0.77481258001E+02  0.00000000000E+00 0.  1.
         12    1    4    4    0    0 -0.96487489823E+00 -0.34102675414E+02 -0.10892828581E+02  0.35813086553E+02  0.00000000000E+00 0. -1.
        -11    1    5    5    0    0 -0.35684409115E+02  0.30457227921E+02 -0.32392281005E+03  0.32730262244E+03  0.00000000000E+00 0.  1.
         12    1    5    5    0    0 -0.18418832448E+03 -0.12146669376E+02 -0.85194573970E+03  0.87171349872E+03  0.00000000000E+00 0. -1.
          5    1    3    3  502    0  0.24328621776E+03  0.60239695671E+02  0.31216699829E+03  0.40035900079E+03  0.47000000000E+01 0. -1.
         -5    1    3    3    0  502 -0.25825739731E+01 -0.10031637548E+02  0.70197931866E+02  0.71113592783E+02  0.47000000000E+01 0. -1.
          1    1    1    2  503    0 -0.73747388722E+02 -0.60079213576E+02 -0.10388164685E+04  0.10431624248E+04  0.00000000000E+00 0. -1.
         -2    1    1    2    0  501 -0.15414719537E+02  0.61017961115E+01  0.81522678666E+03  0.81539533920E+03  0.00000000000E+00 0.  1.
<mgrwt>
<rscale>  0 0.39718855E+02</rscale>
<asrwt>0</asrwt>
<pdfrwt beam="2">  1        2 0.34551034E+00 0.95158836E+02</pdfrwt>
<pdfrwt beam="1">  1       -1 0.19012801E+00 0.16578465E+02</pdfrwt>
<totfact> 0.17796637E+00</totfact>
</mgrwt>
</event>
<event>
13    1  0.3019759E-008  0.1256388E+03  0.7546771E-02  0.1341646E+00
          2   -1    0    0  502    0  0.00000000000E+00  0.00000000000E+00  0.28893436041E+04  0.28893436041E+04  0.00000000000E+00 0. -1.
          2   -1    0    0  503    0 -0.00000000000E+00 -0.00000000000E+00 -0.44992308708E+03  0.44992308708E+03  0.00000000000E+00 0. -1.
         25    2    1    2    0    0  0.33383149232E+02 -0.93585222544E+02 -0.19361193427E+03  0.25096545272E+03  0.12500179533E+03 0.  0.
         24    2    1    2    0    0  0.51270194517E+02  0.47313606781E+02 -0.36638071193E+01  0.10729438429E+03  0.81433722648E+02 0.  0.
         24    2    1    2    0    0 -0.64588433353E+02 -0.64464208837E+02  0.50470113048E+03  0.51779997604E+03  0.71177834588E+02 0.  0.
        -11    1    4    4    0    0 -0.48209867772E+00 -0.20089124688E+02  0.77798138568E+01  0.21548337605E+02  0.00000000000E+00 0.  1.
         12    1    4    4    0    0  0.51752293194E+02  0.67402731469E+02 -0.11443620976E+02  0.85746046681E+02  0.00000000000E+00 0. -1.
        -11    1    5    5    0    0  0.79839837689E+01 -0.34734653070E+02  0.11974729835E+03  0.12493860725E+03  0.00000000000E+00 0.  1.
         12    1    5    5    0    0 -0.72572417122E+02 -0.29729555767E+02  0.38495383213E+03  0.39286136879E+03  0.00000000000E+00 0. -1.
          5    1    3    3  501    0  0.80569485800E+02 -0.49956647334E+02 -0.12313301194E+03  0.15547005269E+03  0.47000000000E+01 0.  1.
         -5    1    3    3    0  501 -0.47186336568E+02 -0.43628575210E+02 -0.70478922328E+02  0.95495400026E+02  0.47000000000E+01 0.  1.
          1    1    1    2  502    0 -0.54481240663E+02  0.14070951541E+03  0.22919280676E+04  0.22968895577E+04  0.00000000000E+00 0. -1.
          1    1    1    2  503    0  0.34416330267E+02 -0.29973690811E+02 -0.15993293959E+03  0.16631732050E+03  0.00000000000E+00 0. -1.
<mgrwt>
<rscale>  0 0.75723270E+02</rscale>
<asrwt>0</asrwt>
<pdfrwt beam="1">  1        2 0.42490346E+00 0.12563883E+03</pdfrwt>
<pdfrwt beam="2">  1        2 0.66165161E-01 0.45638864E+02</pdfrwt>
<totfact> 0.37143689E+01</totfact>
</mgrwt>
</event>
<event>
13    1  0.3019759E-008  0.9667910E+02  0.7546771E-02  0.1354436E+00
          2   -1    0    0  502    0  0.00000000000E+00  0.00000000000E+00  0.34893992897E+04  0.34893992897E+04  0.00000000000E+00 0. -1.
          2   -1    0    0  503    0 -0.00000000000E+00 -0.00000000000E+00 -0.67892184710E+03  0.67892184710E+03  0.00000000000E+00 0. -1.
         25    2    1    2    0    0  0.11570616670E+03  0.77147631448E+01 -0.35094611828E+03  0.39017364068E+03  0.12499942946E+03 0.  0.
         24    2    1    2    0    0 -0.77231290431E+02 -0.10154991614E+03 -0.96956383458E+02  0.17941305914E+03  0.80693542537E+02 0.  0.
         24    2    1    2    0    0 -0.46924905827E+02 -0.61325734226E+02  0.70580780202E+03  0.71441451956E+03  0.79124331876E+02 0.  0.
        -11    1    4    4    0    0 -0.55932732589E+02 -0.10360091939E+02 -0.30141215510E+02  0.64376198647E+02  0.00000000000E+00 0.  1.
         12    1    4    4    0    0 -0.21298557843E+02 -0.91189824206E+02 -0.66815167948E+02  0.11503686050E+03  0.00000000000E+00 0. -1.
        -13    1    5    5    0    0  0.20800880852E+02 -0.20922943499E+02  0.13510970545E+03  0.13829345145E+03  0.00000000000E+00 0.  1.
         14    1    5    5    0    0 -0.67725786678E+02 -0.40402790727E+02  0.57069809658E+03  0.57612106811E+03  0.00000000000E+00 0. -1.
          5    1    3    3  501    0  0.76975766313E+01  0.12610237087E+01  0.98843679848E+01  0.13439999898E+02  0.47000000000E+01 0. -1.
         -5    1    3    3    0  501  0.10800859006E+03  0.64537394361E+01 -0.36083048626E+03  0.37673364078E+03  0.47000000000E+01 0. -1.
          1    1    1    2  502    0 -0.21561902048E+02  0.11128148759E+03  0.27129725144E+04  0.27153394538E+04  0.00000000000E+00 0. -1.
          1    1    1    2  503    0  0.30011931611E+02  0.43879399635E+02 -0.16040037208E+03  0.16898046370E+03  0.00000000000E+00 0. -1.
<mgrwt>
<rscale>  0 0.71690870E+02</rscale>
<asrwt>0</asrwt>
<pdfrwt beam="1">  1        2 0.51314694E+00 0.96679095E+02</pdfrwt>
<pdfrwt beam="2">  1        2 0.99841450E-01 0.53161243E+02</pdfrwt>
<totfact> 0.11592793E+01</totfact>
</mgrwt>
</event>
<event>
13    1  0.3019759E-008  0.6364951E+02  0.7546771E-02  0.1449693E+00
         -1   -1    0    0    0  501 -0.00000000000E+00  0.00000000000E+00  0.27561990578E+03  0.27561990578E+03  0.00000000000E+00 0.  1.
          2   -1    0    0  503    0  0.00000000000E+00 -0.00000000000E+00 -0.15761818460E+04  0.15761818460E+04  0.00000000000E+00 0. -1.
         25    2    1    2    0    0  0.82274088363E+02 -0.34840378983E+02  0.70452305332E+02  0.16903053107E+03  0.12499966194E+03 0.  0.
         24    2    1    2    0    0 -0.68112741844E+01  0.56845174115E+01 -0.28019109187E+02  0.73891471926E+02  0.67795073195E+02 0.  0.
         24    2    1    2    0    0 -0.46960901282E+02  0.77499048585E+01 -0.20082132906E+03  0.22232392366E+03  0.82663979780E+02 0.  0.
        -11    1    5    5    0    0 -0.10378026723E+02  0.42583006914E+02 -0.10981194444E+03  0.11823569282E+03  0.00000000000E+00 0.  1.
         12    1    5    5    0    0 -0.36582874558E+02 -0.34833102056E+02 -0.91009384623E+02  0.10408823084E+03  0.00000000000E+00 0. -1.
        -13    1    4    4    0    0 -0.24081271463E+02 -0.15141760317E+02 -0.35813298218E+02  0.45735903512E+02  0.00000000000E+00 0.  1.
         14    1    4    4    0    0  0.17269997279E+02  0.20826277729E+02  0.77941890316E+01  0.28155568414E+02  0.00000000000E+00 0. -1.
          5    1    3    3  502    0  0.37547641816E+02 -0.46499840286E+02 -0.23362039762E+02  0.64342330191E+02  0.47000000000E+01 0. -1.
         -5    1    3    3    0  502  0.44726446547E+02  0.11659461303E+02  0.93814345094E+02  0.10468820088E+03  0.47000000000E+01 0. -1.
          1    1    1    2  503    0 -0.23936327126E+02  0.59165156750E+02 -0.12605780775E+04  0.12621927559E+04  0.00000000000E+00 0. -1.
         -2    1    1    2    0  501 -0.45655857711E+01 -0.37759200037E+02  0.11840427026E+03  0.12436306918E+03  0.00000000000E+00 0.  1.
<mgrwt>
<rscale>  0 0.49202227E+02</rscale>
<asrwt>0</asrwt>
<pdfrwt beam="2">  1        2 0.23179144E+00 0.63649505E+02</pdfrwt>
<pdfrwt beam="1">  1       -1 0.40532340E-01 0.38034218E+02</pdfrwt>
<totfact> 0.10466416E+02</totfact>
</mgrwt>
</event>
<event>
13    1  0.3019759E-008  0.4633912E+02  0.7546771E-02  0.1526629E+00
          2   -1    0    0  502    0  0.00000000000E+00  0.00000000000E+00  0.32358644258E+03  0.32358644258E+03  0.00000000000E+00 0. -1.
          2   -1    0    0  503    0 -0.00000000000E+00 -0.00000000000E+00 -0.21179349552E+03  0.21179349552E+03  0.00000000000E+00 0. -1.
         25    2    1    2    0    0 -0.55305094717E+02 -0.41107959691E+02 -0.22483462078E+02  0.14449524376E+03  0.12499940620E+03 0.  0.
         24    2    1    2    0    0 -0.19453796686E+02  0.31930065314E+02  0.35348079806E+02  0.95442240287E+02  0.80385043438E+02 0.  0.
         24    2    1    2    0    0  0.53745426098E+02  0.26259270288E+02  0.20852198970E+02  0.10385003022E+03  0.82291521260E+02 0.  0.
        -11    1    5    5    0    0  0.63088897757E+02  0.97195937899E+01 -0.12895900378E+02  0.65122836012E+02  0.00000000000E+00 0.  1.
         12    1    5    5    0    0 -0.93434716591E+01  0.16539676498E+02  0.33748099348E+02  0.38727194204E+02  0.00000000000E+00 0. -1.
        -11    1    4    4    0    0 -0.42556807518E+01  0.55924714031E+02  0.36667180236E+02  0.67008705140E+02  0.00000000000E+00 0.  1.
         12    1    4    4    0    0 -0.15198115935E+02 -0.23994648717E+02 -0.13191004295E+01  0.28433535147E+02  0.00000000000E+00 0. -1.
          5    1    3    3  501    0 -0.11787989621E+02  0.32368010158E+02 -0.44220399593E+02  0.56251031289E+02  0.47000000000E+01 0.  1.
         -5    1    3    3    0  501 -0.43517105096E+02 -0.73475969850E+02  0.21736937515E+02  0.88244212466E+02  0.47000000000E+01 0.  1.
          1    1    1    2  502    0 -0.26616746269E+02 -0.14921782649E+02  0.12261003352E+03  0.12635003403E+03  0.00000000000E+00 0. -1.
          1    1    1    2  503    0  0.47630211575E+02 -0.21595932610E+01 -0.44533903164E+02  0.65242389815E+02  0.00000000000E+00 0. -1.
<mgrwt>
<rscale>  0 0.37603152E+02</rscale>
<asrwt>0</asrwt>
<pdfrwt beam="1">  1        2 0.47586241E-01 0.30514108E+02</pdfrwt>
<pdfrwt beam="2">  1        2 0.31146102E-01 0.46339124E+02</pdfrwt>
<totfact> 0.26018897E+03</totfact>
</mgrwt>
</event>
<event>
13    1  0.3019759E-008  0.1079263E+03  0.7546771E-02  0.1372635E+00
          2   -1    0    0  503    0  0.00000000000E+00  0.00000000000E+00  0.33075556903E+03  0.33075556903E+03  0.00000000000E+00 0. -1.
          2   -1    0    0  502    0 -0.00000000000E+00 -0.00000000000E+00 -0.11874938931E+04  0.11874938931E+04  0.00000000000E+00 0. -1.
         25    2    1    2    0    0  0.89971242280E+02 -0.66606342867E+02 -0.15377110032E+03  0.22757845284E+03  0.12496068005E+03 0.  0.
         24    2    1    2    0    0  0.34741329707E+02 -0.63931733406E+02 -0.17659370219E+02  0.10797309469E+03  0.77795303804E+02 0.  0.
         24    2    1    2    0    0 -0.46323897837E+02  0.15925973585E+02  0.70935201488E+02  0.11807037825E+03  0.80680054941E+02 0.  0.
        -11    1    5    5    0    0 -0.28464204165E+02  0.48530995487E+02  0.50741289135E+02  0.75763756934E+02  0.00000000000E+00 0.  1.
         12    1    5    5    0    0 -0.17859693672E+02 -0.32605021902E+02  0.20193912354E+02  0.42306621319E+02  0.00000000000E+00 0. -1.
        -11    1    4    4    0    0 -0.18309483828E+02 -0.45681047566E+02 -0.19116829810E+00  0.49214142785E+02  0.00000000000E+00 0.  1.
         12    1    4    4    0    0  0.53050813535E+02 -0.18250685840E+02 -0.17468201921E+02  0.58758951903E+02  0.00000000000E+00 0. -1.
          5    1    3    3  501    0  0.10517959578E+03 -0.78163667975E+02 -0.85523427803E+02  0.15655239718E+03  0.47000000000E+01 0.  1.
         -5    1    3    3    0  501 -0.15208353496E+02  0.11557325108E+02 -0.68247672516E+02  0.71026055667E+02  0.47000000000E+01 0.  1.
          1    1    1    2  502    0 -0.19979899641E+02  0.35688846174E+02 -0.89428976064E+03  0.89522458976E+03  0.00000000000E+00 0. -1.
          1    1    1    2  503    0 -0.58408774511E+02  0.78923256514E+02  0.13804670565E+03  0.16940294655E+03  0.00000000000E+00 0. -1.
<mgrwt>
<rscale>  0 0.66440119E+02</rscale>
<asrwt>0</asrwt>
<pdfrwt beam="1">  1        2 0.48640525E-01 0.10792625E+03</pdfrwt>
<pdfrwt beam="2">  1        2 0.17463145E+00 0.40900980E+02</pdfrwt>
<totfact> 0.39047949E+02</totfact>
</mgrwt>
</event>
<event>
13    1  0.3019759E-008  0.1558301E+03  0.7546771E-02  0.1216962E+00
          2   -1    0    0  503    0  0.00000000000E+00  0.00000000000E+00  0.60593884462E+03  0.60593884462E+03  0.00000000000E+00 0. -1.
          2   -1    0    0  502    0 -0.00000000000E+00 -0.00000000000E+00 -0.14779318876E+04  0.14779318876E+04  0.00000000000E+00 0. -1.
         25    2    1    2    0    0 -0.14476435839E+03 -0.88527715155E+02 -0.19391010806E+03  0.28639406379E+03  0.12500621565E+03 0.  0.
         24    2    1    2    0    0  0.99075484120E+02  0.65384803009E+02 -0.11132305853E+03  0.18105791531E+03  0.79360073837E+02 0.  0.
         24    2    1    2    0    0  0.82094596523E+00  0.60539455806E+02  0.21702540140E+03  0.23914039517E+03  0.80139903207E+02 0.  0.
        -13    1    4    4    0    0  0.75782075232E+02  0.79899988392E+02 -0.66931899978E+02  0.12886741367E+03  0.00000000000E+00 0.  1.
         14    1    4    4    0    0  0.23293408888E+02 -0.14515185384E+02 -0.44391158548E+02  0.52190501641E+02  0.00000000000E+00 0. -1.
        -13    1    5    5    0    0 -0.30138927885E+02 -0.23338819715E+01  0.71045592173E+02  0.77209313857E+02  0.00000000000E+00 0.  1.
         14    1    5    5    0    0  0.30959873850E+02  0.62873337777E+02  0.14597980923E+03  0.16193108131E+03  0.00000000000E+00 0. -1.
          5    1    3    3  501    0 -0.85512541102E+02 -0.95987184465E+02 -0.18573802715E+03  0.22593503269E+03  0.47000000000E+01 0. -1.
         -5    1    3    3    0  501 -0.59251817290E+02  0.74594693095E+01 -0.81720809104E+01  0.60459031095E+02  0.47000000000E+01 0. -1.
          1    1    1    2  502    0  0.11921059461E+03 -0.11644025860E+03 -0.10639044611E+04  0.10768761313E+04  0.00000000000E+00 0. -1.
          1    1    1    2  503    0 -0.74342666299E+02  0.79043714944E+02  0.28011918335E+03  0.30040222667E+03  0.00000000000E+00 0. -1.
<mgrwt>
<rscale>  0 0.13733407E+03</rscale>
<asrwt>0</asrwt>
<pdfrwt beam="1">  1        2 0.89108655E-01 0.12103341E+03</pdfrwt>
<pdfrwt beam="2">  1        2 0.21734292E+00 0.15583009E+03</pdfrwt>
<totfact> 0.13228842E+02</totfact>
</mgrwt>
</event>
<event>
13    1  0.3019759E-008  0.9823047E+02  0.7546771E-02  0.1334662E+00
          2   -1    0    0  503    0  0.00000000000E+00  0.00000000000E+00  0.17319890310E+04  0.17319890310E+04  0.00000000000E+00 0. -1.
         -3   -1    0    0    0  501 -0.00000000000E+00 -0.00000000000E+00 -0.47084191551E+03  0.47084191551E+03  0.00000000000E+00 0.  1.
         25    2    1    2    0    0 -0.33315093995E+02  0.21076234386E+02 -0.46196558656E+02  0.13895396083E+03  0.12497991061E+03 0.  0.
         24    2    1    2    0    0  0.67499898315E+02  0.10905329733E+02  0.64697783337E+02  0.12627425802E+03  0.84167823898E+02 0.  0.
         24    2    1    2    0    0 -0.40589767425E+02 -0.88179135470E+02  0.69799073051E+03  0.70923769703E+03  0.80024757810E+02 0.  0.
        -11    1    5    5    0    0  0.18192043278E+02 -0.54929218225E+02  0.29379866823E+03  0.29944252688E+03  0.00000000000E+00 0.  1.
         12    1    5    5    0    0 -0.58781810704E+02 -0.33249917246E+02  0.40419206228E+03  0.40979517015E+03  0.00000000000E+00 0. -1.
        -11    1    4    4    0    0  0.20696894961E+02 -0.26120005994E+02  0.57101864363E+02  0.66115346841E+02  0.00000000000E+00 0.  1.
         12    1    4    4    0    0  0.46803003355E+02  0.37025335728E+02  0.75959189737E+01  0.60158911175E+02  0.00000000000E+00 0. -1.
          5    1    3    3  502    0  0.35715901504E+02  0.29074414122E+02  0.12408470303E+02  0.47927104148E+02  0.47000000000E+01 0. -1.
         -5    1    3    3    0  502 -0.69030995499E+02 -0.79981797362E+01 -0.58605028959E+02  0.91026856684E+02  0.47000000000E+01 0. -1.
          1    1    1    2  503    0 -0.47180379475E+02  0.87432213272E+02  0.88088117570E+03  0.88646603197E+03  0.00000000000E+00 0. -1.
         -4    1    1    2    0  501  0.53585342580E+02 -0.31234641921E+02 -0.33622601545E+03  0.34189899862E+03  0.00000000000E+00 0.  1.
<mgrwt>
<rscale>  0 0.78055485E+02</rscale>
<asrwt>0</asrwt>
<pdfrwt beam="1">  1        2 0.25470427E+00 0.98230471E+02</pdfrwt>
<pdfrwt beam="2">  1       -3 0.69241459E-01 0.62024123E+02</pdfrwt>
<totfact> 0.14933946E+01</totfact>
</mgrwt>
</event>
<event>
13    1  0.3019759E-008  0.1522898E+03  0.7546771E-02  0.1323383E+00
          2   -1    0    0  503    0  0.00000000000E+00  0.00000000000E+00  0.28853832706E+04  0.28853832706E+04  0.00000000000E+00 0. -1.
         -1   -1    0    0    0  501 -0.00000000000E+00 -0.00000000000E+00 -0.14018555310E+04  0.14018555310E+04  0.00000000000E+00 0.  1.
         25    2    1    2    0    0 -0.16875916100E+03 -0.18830314521E+03 -0.67026076722E+03  0.72719546268E+03  0.12500406377E+03 0.  0.
         24    2    1    2    0    0  0.19563246683E+03  0.94787194223E+02  0.17334901428E+03  0.28979694616E+03  0.81705048723E+02 0.  0.
         24    2    1    2    0    0  0.12762644007E+03  0.33140010816E+02  0.69458679970E+03  0.71560383569E+03  0.11068540475E+03 0.  0.
        -13    1    5    5    0    0  0.50633944246E+02  0.66866262701E+02  0.26813336151E+03  0.28094553378E+03  0.00000000000E+00 0.  1.
         14    1    5    5    0    0  0.76992495821E+02 -0.33726251885E+02  0.42645343819E+03  0.43465830191E+03  0.00000000000E+00 0. -1.
        -13    1    4    4    0    0 -0.47535818969E+00 -0.90806928410E+01  0.17166454693E+01  0.92537462440E+01  0.00000000000E+00 0.  1.
         14    1    4    4    0    0  0.19610782502E+03  0.10386788706E+03  0.17163236881E+03  0.28054319992E+03  0.00000000000E+00 0. -1.
          5    1    3    3  502    0 -0.15475759272E+03 -0.20249705584E+03 -0.56330375306E+03  0.61829457246E+03  0.47000000000E+01 0. -1.
         -5    1    3    3    0  502 -0.14001568283E+02  0.14193910626E+02 -0.10695701416E+03  0.10890089022E+03  0.47000000000E+01 0. -1.
          1    1    1    2  503    0 -0.19522458926E+03  0.77521299287E+02  0.19137245069E+04  0.19252178267E+04  0.00000000000E+00 0. -1.
         -2    1    1    2    0  501  0.40724843355E+02 -0.17145359117E+02 -0.62787181409E+03  0.62942473031E+03  0.00000000000E+00 0.  1.
<mgrwt>
<rscale>  0 0.82031725E+02</rscale>
<asrwt>0</asrwt>
<pdfrwt beam="1">  1        2 0.42432107E+00 0.15228980E+03</pdfrwt>
<pdfrwt beam="2">  1       -1 0.20615523E+00 0.44186833E+02</pdfrwt>
<totfact> 0.64584818E-01</totfact>
</mgrwt>
</event>
<event>
13    1  0.3019759E-008  0.1180471E+03  0.7546771E-02  0.1269210E+00
          2   -1    0    0  503    0  0.00000000000E+00  0.00000000000E+00  0.37851153702E+04  0.37851153702E+04  0.00000000000E+00 0. -1.
          2   -1    0    0  502    0 -0.00000000000E+00 -0.00000000000E+00 -0.58255822616E+03  0.58255822616E+03  0.00000000000E+00 0. -1.
         25    2    1    2    0    0 -0.16548648630E+02 -0.14237090992E+03  0.90393650655E+01  0.19039534187E+03  0.12500136928E+03 0.  0.
         24    2    1    2    0    0  0.15892220447E+02 -0.12708598958E+02  0.20533959680E+01  0.85324230582E+02  0.82836807828E+02 0.  0.
         24    2    1    2    0    0 -0.27015435483E+02  0.61938251793E+01  0.26278975354E+03  0.27648216443E+03  0.81337171458E+02 0.  0.
        -11    1    4    4    0    0  0.42003124700E+02 -0.39987015216E+01 -0.23043163669E+02  0.48075352212E+02  0.00000000000E+00 0.  1.
         12    1    4    4    0    0 -0.26110904253E+02 -0.87098974360E+01  0.25096559637E+02  0.37248878370E+02  0.00000000000E+00 0. -1.
        -11    1    5    5    0    0 -0.34983621549E+02  0.36835164854E+02  0.12157483406E+03  0.13176161590E+03  0.00000000000E+00 0.  1.
         12    1    5    5    0    0  0.79681860656E+01 -0.30641339675E+02  0.14121491948E+03  0.14472054854E+03  0.00000000000E+00 0. -1.
          5    1    3    3  501    0  0.35753966684E+01 -0.10217567130E+03  0.62864494923E+02  0.12011114015E+03  0.47000000000E+01 0.  1.
         -5    1    3    3    0  501 -0.20124045298E+02 -0.40195238621E+02 -0.53825129857E+02  0.70284201718E+02  0.47000000000E+01 0.  1.
          1    1    1    2  502    0 -0.10028706240E+03  0.16879029361E+03 -0.42035153709E+03  0.46394296291E+03  0.00000000000E+00 0. -1.
          1    1    1    2  503    0  0.12795892607E+03 -0.19904609918E+02  0.33490261666E+04  0.33515288966E+04  0.00000000000E+00 0. -1.
<mgrwt>
<rscale>  0 0.10546318E+03</rscale>
<asrwt>0</asrwt>
<pdfrwt beam="1">  1        2 0.55663460E+00 0.94220714E+02</pdfrwt>
<pdfrwt beam="2">  1        2 0.85670329E-01 0.11804710E+03</pdfrwt>
<totfact> 0.89715002E+00</totfact>
</mgrwt>
</event>
<event>
13    1  0.3019759E-008  0.1564168E+03  0.7546771E-02  0.1344201E+00
          2   -1    0    0  503    0  0.00000000000E+00  0.00000000000E+00  0.22560804040E+04  0.22560804040E+04  0.00000000000E+00 0. -1.
          2   -1    0    0  502    0 -0.00000000000E+00 -0.00000000000E+00 -0.16961557266E+04  0.16961557266E+04  0.00000000000E+00 0. -1.
         25    2    1    2    0    0  0.21953268205E+02  0.20260104678E+03 -0.43364497626E+03  0.49518024049E+03  0.12500549986E+03 0.  0.
         24    2    1    2    0    0 -0.12160344452E+03  0.11689919745E+02  0.14534530833E+03  0.20224904268E+03  0.69680446792E+02 0.  0.
         24    2    1    2    0    0  0.34537926933E+02 -0.11821266450E+02  0.57980797067E+02  0.10397533479E+03  0.78207970686E+02 0.  0.
        -11    1    4    4    0    0  0.40253217679E+01  0.72546674832E+01  0.31763630470E+02  0.32829280167E+02  0.00000000000E+00 0.  1.
         12    1    4    4    0    0 -0.12562876629E+03  0.44352522613E+01  0.11358167786E+03  0.16941976251E+03  0.00000000000E+00 0. -1.
        -13    1    5    5    0    0  0.51151021358E+02 -0.23371731512E+02  0.61611350776E+02  0.83418363471E+02  0.00000000000E+00 0.  1.
         14    1    5    5    0    0 -0.16613094425E+02  0.11550465063E+02 -0.36305537086E+01  0.20556971318E+02  0.00000000000E+00 0. -1.
          5    1    3    3  501    0 -0.41040922309E+02  0.11588150973E+03 -0.16430658242E+03  0.20525989532E+03  0.47000000000E+01 0. -1.
         -5    1    3    3    0  501  0.62994190514E+02  0.86719537045E+02 -0.26933839384E+03  0.28992034516E+03  0.47000000000E+01 0. -1.
          1    1    1    2  502    0 -0.29615823191E+02 -0.20218948646E+02 -0.11746671877E+04  0.11752144080E+04  0.00000000000E+00 0. -1.
          1    1    1    2  503    0  0.94728072575E+02 -0.18225075143E+03  0.19649107360E+04  0.19756171047E+04  0.00000000000E+00 0. -1.
<mgrwt>
<rscale>  0 0.74893439E+02</rscale>
<asrwt>0</asrwt>
<pdfrwt beam="1">  1        2 0.33177653E+00 0.15641682E+03</pdfrwt>
<pdfrwt beam="2">  1        2 0.24943467E+00 0.35859488E+02</pdfrwt>
<totfact> 0.14399429E+01</totfact>
</mgrwt>
</event>
<event>
13    1  0.3019759E-008  0.7230130E+02  0.7546771E-02  0.1379082E+00
         -1   -1    0    0    0  501 -0.00000000000E+00  0.00000000000E+00  0.83395742732E+03  0.83395742732E+03  0.00000000000E+00 0.  1.
          2   -1    0    0  503    0  0.00000000000E+00 -0.00000000000E+00 -0.14776771306E+04  0.14776771306E+04  0.00000000000E+00 0. -1.
         25    2    1    2    0    0 -0.47235672440E+02 -0.22813844807E+02 -0.17630968502E+01  0.13557135037E+03  0.12499920906E+03 0.  0.
         24    2    1    2    0    0  0.10647148576E+03  0.26495727983E+03 -0.26726253928E+03  0.39783381736E+03  0.72828180785E+02 0.  0.
         24    2    1    2    0    0  0.54500191564E+02 -0.21354046655E+03 -0.73668646910E+03  0.77298731710E+03  0.78947051361E+02 0.  0.
        -11    1    5    5    0    0  0.64941085591E+02 -0.12592647200E+03 -0.52173219932E+03  0.54062862369E+03  0.00000000000E+00 0.  1.
         12    1    5    5    0    0 -0.10440894027E+02 -0.87613994546E+02 -0.21495426978E+03  0.23235869341E+03  0.00000000000E+00 0. -1.
        -13    1    4    4    0    0  0.41449235661E+02  0.14219430728E+03 -0.92658904325E+02  0.17470813578E+03  0.00000000000E+00 0.  1.
         14    1    4    4    0    0  0.65022250097E+02  0.12276297255E+03 -0.17460363496E+03  0.22312568157E+03  0.00000000000E+00 0. -1.
          5    1    3    3  502    0 -0.52923259024E+02 -0.61209580394E+02  0.28723652154E+02  0.85991989574E+02  0.47000000000E+01 0.  1.
         -5    1    3    3    0  502  0.56875865838E+01  0.38395735587E+02 -0.30486749004E+02  0.49579360799E+02  0.47000000000E+01 0.  1.
          1    1    1    2  503    0 -0.70621854677E+02  0.10056118079E+02 -0.31642075258E+03  0.32436193447E+03  0.00000000000E+00 0. -1.
         -2    1    1    2    0  501 -0.43114150204E+02 -0.38659086550E+02  0.67841315453E+03  0.68088013861E+03  0.00000000000E+00 0.  1.
<mgrwt>
<rscale>  0 0.64705759E+02</rscale>
<asrwt>0</asrwt>
<pdfrwt beam="2">  1        2 0.21730546E+00 0.72301300E+02</pdfrwt>
<pdfrwt beam="1">  1       -1 0.12264080E+00 0.57908159E+02</pdfrwt>
<totfact> 0.13259158E+01</totfact>
</mgrwt>
</event>
<event>
13    1  0.3019759E-008  0.8132114E+02  0.7546771E-02  0.1500742E+00
          2   -1    0    0  503    0  0.00000000000E+00  0.00000000000E+00  0.17008738047E+04  0.17008738047E+04  0.00000000000E+00 0. -1.
          2   -1    0    0  502    0 -0.00000000000E+00 -0.00000000000E+00 -0.39798984538E+04  0.39798984538E+04  0.00000000000E+00 0. -1.
         25    2    1    2    0    0  0.13962131179E+03 -0.32563271652E+03 -0.41782234972E+03  0.56190297086E+03  0.12501462298E+03 0.  0.
         24    2    1    2    0    0  0.36183086715E+03 -0.34569539035E+03 -0.14240028249E+03  0.52572640699E+03  0.75389224833E+02 0.  0.
         24    2    1    2    0    0 -0.59592127009E+03  0.67182448570E+03 -0.90017455493E+01  0.90152558339E+03  0.78721320876E+02 0.  0.
        -11    1    5    5    0    0 -0.28046117047E+03  0.25814283186E+03 -0.91654553993E+01  0.38128754943E+03  0.00000000000E+00 0.  1.
         12    1    5    5    0    0 -0.31546009962E+03  0.41368165384E+03  0.16370984998E+00  0.52023803396E+03  0.00000000000E+00 0. -1.
        -11    1    4    4    0    0  0.29388672819E+03 -0.24224472971E+03 -0.12438828583E+03  0.40065491852E+03  0.00000000000E+00 0.  1.
         12    1    4    4    0    0  0.67944138958E+02 -0.10345066063E+03 -0.18011996662E+02  0.12507148847E+03  0.00000000000E+00 0. -1.
          5    1    3    3  501    0  0.78522586035E+02 -0.10567105434E+03 -0.79915510432E+02  0.15408032662E+03  0.47000000000E+01 0. -1.
         -5    1    3    3    0  501  0.61098725759E+02 -0.21996166218E+03 -0.33790683929E+03  0.40782264424E+03  0.47000000000E+01 0. -1.
          1    1    1    2  502    0  0.79880059938E+02 -0.15188157946E+02 -0.26999885219E+04  0.27012126023E+04  0.00000000000E+00 0. -1.
          1    1    1    2  503    0  0.14589031203E+02  0.14691779109E+02  0.99018825062E+03  0.99040469500E+03  0.00000000000E+00 0. -1.
<mgrwt>
<rscale>  0 0.41033363E+02</rscale>
<asrwt>0</asrwt>
<pdfrwt beam="1">  1        2 0.25012850E+00 0.20704787E+02</pdfrwt>
<pdfrwt beam="2">  1        2 0.58527918E+00 0.81321139E+02</pdfrwt>
<totfact> 0.18413962E+00</totfact>
</mgrwt>
</event>
<event>
13    1  0.3019759E-008  0.9290021E+02  0.7546771E-02  0.1361614E+00
          2   -1    0    0  502    0  0.00000000000E+00  0.00000000000E+00  0.30225351552E+04  0.30225351552E+04  0.00000000000E+00 0. -1.
          2   -1    0    0  503    0 -0.00000000000E+00 -0.00000000000E+00 -0.95022966855E+03  0.95022966855E+03  0.00000000000E+00 0. -1.
         25    2    1    2    0    0 -0.68309534846E+02  0.14088227925E+03  0.92423928309E+02  0.22063685183E+03  0.12499771480E+03 0.  0.
         24    2    1    2    0    0  0.76880877978E+02 -0.12652867872E+03  0.60277276749E+03  0.62594576646E+03  0.80950091881E+02 0.  0.
         24    2    1    2    0    0  0.35692104690E+02 -0.38236126934E+01  0.33339398337E+03  0.34545063213E+03  0.83042427368E+02 0.  0.
        -13    1    4    4    0    0  0.92222230657E+02 -0.89025469660E+02  0.45220440321E+03  0.47002052759E+03  0.00000000000E+00 0.  1.
         14    1    4    4    0    0 -0.15341352679E+02 -0.37503209064E+02  0.15056836428E+03  0.15592523886E+03  0.00000000000E+00 0. -1.
        -13    1    5    5    0    0 -0.56985323414E+01  0.33927756436E+02  0.13215838832E+03  0.13656282631E+03  0.00000000000E+00 0.  1.
         14    1    5    5    0    0  0.41390637032E+02 -0.37751369129E+02  0.20123559505E+03  0.20888780582E+03  0.00000000000E+00 0. -1.
          5    1    3    3  501    0 -0.44828221419E+02  0.36051951509E+02  0.97149980549E+02  0.11300230690E+03  0.47000000000E+01 0. -1.
         -5    1    3    3    0  501 -0.23481313427E+02  0.10483032774E+03 -0.47260522403E+01  0.10763454494E+03  0.47000000000E+01 0. -1.
          1    1    1    2  502    0  0.34407869046E+02  0.39089197163E+02  0.19093769080E+04  0.19100869204E+04  0.00000000000E+00 0. -1.
          1    1    1    2  503    0 -0.78671316868E+02 -0.49619184995E+02 -0.86566210044E+03  0.87064465297E+03  0.00000000000E+00 0. -1.
<mgrwt>
<rscale>  0 0.69554532E+02</rscale>
<asrwt>0</asrwt>
<pdfrwt beam="1">  1        2 0.44449046E+00 0.52075587E+02</pdfrwt>
<pdfrwt beam="2">  1        2 0.13973966E+00 0.92900208E+02</pdfrwt>
<totfact> 0.15349283E+01</totfact>
</mgrwt>
</event>
<event>
13    1  0.3019759E-008  0.1172486E+03  0.7546771E-02  0.1248556E+00
          2   -1    0    0  503    0  0.00000000000E+00  0.00000000000E+00  0.28408173970E+04  0.28408173970E+04  0.00000000000E+00 0. -1.
          2   -1    0    0  502    0 -0.00000000000E+00 -0.00000000000E+00 -0.78355916618E+03  0.78355916618E+03  0.00000000000E+00 0. -1.
         25    2    1    2    0    0  0.93114606530E+02 -0.69569622645E+02  0.94911354202E+02  0.19530109936E+03  0.12499636760E+03 0.  0.
         24    2    1    2    0    0 -0.64622993068E+02 -0.30817946447E+02  0.21900352609E+03  0.24405825230E+03  0.80473654191E+02 0.  0.
         24    2    1    2    0    0  0.14460813507E+02 -0.28336616401E+02  0.32346890580E+03  0.34025174999E+03  0.10063320227E+03 0.  0.
        -11    1    4    4    0    0 -0.57310309216E+02 -0.13914507991E+01  0.20050508262E+03  0.20853943472E+03  0.00000000000E+00 0.  1.
         12    1    4    4    0    0 -0.73126838522E+01 -0.29426495647E+02  0.18498443470E+02  0.35518817576E+02  0.00000000000E+00 0. -1.
        -13    1    5    5    0    0 -0.12589626065E+02 -0.43281279830E+02  0.60355576074E+02  0.75329698204E+02  0.00000000000E+00 0.  1.
         14    1    5    5    0    0  0.27050439573E+02  0.14944663428E+02  0.26311332972E+03  0.26492205179E+03  0.00000000000E+00 0. -1.
          5    1    3    3  501    0  0.10886321262E+03 -0.11770897080E+02  0.51041764627E+02  0.12090121925E+03  0.47000000000E+01 0.  1.
         -5    1    3    3    0  501 -0.15748606095E+02 -0.57798725565E+02  0.43869589575E+02  0.74399880110E+02  0.47000000000E+01 0.  1.
          1    1    1    2  502    0 -0.11219647287E+03  0.49179314022E+01 -0.70564091345E+03  0.71452175146E+03  0.00000000000E+00 0. -1.
          1    1    1    2  503    0  0.69244045902E+02  0.12380625409E+03  0.21255153582E+04  0.21302437101E+04  0.00000000000E+00 0. -1.
<mgrwt>
<rscale>  0 0.11675026E+03</rscale>
<asrwt>0</asrwt>
<pdfrwt beam="1">  1        2 0.41776726E+00 0.11625408E+03</pdfrwt>
<pdfrwt beam="2">  1        2 0.11522929E+00 0.11724856E+03</pdfrwt>
<totfact> 0.21222994E+01</totfact>
</mgrwt>
</event>
<event>
13    1  0.3019759E-008  0.6824099E+02  0.7546771E-02  0.1387170E+00
          2   -1    0    0  503    0  0.00000000000E+00  0.00000000000E+00  0.15525777833E+04  0.15525777833E+04  0.00000000000E+00 0. -1.
          2   -1    0    0  502    0 -0.00000000000E+00 -0.00000000000E+00 -0.21270350989E+04  0.21270350989E+04  0.00000000000E+00 0. -1.
         25    2    1    2    0    0 -0.29350146884E+03 -0.17520558595E+03 -0.83813368618E+03  0.91374645254E+03  0.12499757620E+03 0.  0.
         24    2    1    2    0    0  0.34405710347E+03  0.14388775287E+03 -0.59256753967E+03  0.70207495537E+03  0.51903545189E+02 0.  0.
         24    2    1    2    0    0 -0.39349837707E+02  0.10437706470E+03 -0.86460320358E+02  0.16136363845E+03  0.78229505013E+02 0.  0.
        -11    1    5    5    0    0 -0.53360517997E+02  0.31694056468E+02 -0.43347649845E+02  0.75702555065E+02  0.00000000000E+00 0.  1.
         12    1    5    5    0    0  0.14010680290E+02  0.72683008234E+02 -0.43112670513E+02  0.85661083386E+02  0.00000000000E+00 0. -1.
        -13    1    4    4    0    0  0.17716275786E+02 -0.36831249928E+01 -0.23114907806E+02  0.29355251665E+02  0.00000000000E+00 0.  1.
         14    1    4    4    0    0  0.32634082769E+03  0.14757087786E+03 -0.56945263187E+03  0.67271970370E+03  0.00000000000E+00 0. -1.
          5    1    3    3  501    0 -0.23143283891E+03 -0.12397302842E+03 -0.74833408454E+03  0.79306775422E+03  0.47000000000E+01 0.  1.
         -5    1    3    3    0  501 -0.62068629936E+02 -0.51232557529E+02 -0.89799601643E+02  0.12067869832E+03  0.47000000000E+01 0.  1.
          1    1    1    2  502    0  0.42835940066E+02 -0.53552123989E+02 -0.47682765664E+03  0.48173370432E+03  0.00000000000E+00 0. -1.
          1    1    1    2  503    0 -0.54041736990E+02 -0.19507107632E+02  0.14195318872E+04  0.14206941315E+04  0.00000000000E+00 0. -1.
<mgrwt>
<rscale>  0 0.62615989E+02</rscale>
<asrwt>0</asrwt>
<pdfrwt beam="1">  1        2 0.22832026E+00 0.57454648E+02</pdfrwt>
<pdfrwt beam="2">  1        2 0.31279928E+00 0.68240991E+02</pdfrwt>
<totfact> 0.20433110E+01</totfact>
</mgrwt>
</event>
<event>
13    1  0.3019759E-008  0.6843584E+02  0.7546771E-02  0.1404831E+00
          2   -1    0    0  502    0  0.00000000000E+00  0.00000000000E+00  0.28417204801E+04  0.28417204801E+04  0.00000000000E+00 0. -1.
          2   -1    0    0  503    0 -0.00000000000E+00 -0.00000000000E+00 -0.17940466155E+04  0.17940466155E+04  0.00000000000E+00 0. -1.
         25    2    1    2    0    0  0.80209677459E+02 -0.88131370228E+02 -0.16143718769E+03  0.23640492235E+03  0.12499836385E+03 0.  0.
         24    2    1    2    0    0 -0.21077672384E+03  0.36295783211E+03 -0.29508474807E+03  0.52323296132E+03  0.10262800818E+03 0.  0.
         24    2    1    2    0    0  0.19156422010E+03 -0.17569890396E+03  0.24041113352E+03  0.36298889130E+03  0.79977914537E+02 0.  0.
        -11    1    4    4    0    0 -0.59934325024E+02  0.20337402517E+03 -0.13273293310E+03  0.25014225744E+03  0.00000000000E+00 0.  1.
         12    1    4    4    0    0 -0.15084239882E+03  0.15958380694E+03 -0.16235181497E+03  0.27309070388E+03  0.00000000000E+00 0. -1.
        -13    1    5    5    0    0  0.46694090987E+02 -0.95562080132E+02  0.90832126291E+02  0.13986752468E+03  0.00000000000E+00 0.  1.
         14    1    5    5    0    0  0.14487012911E+03 -0.80136823830E+02  0.14957900723E+03  0.22312136663E+03  0.00000000000E+00 0. -1.
          5    1    3    3  501    0  0.48831310487E+02 -0.14415096066E+02  0.52539818120E+01  0.51400254895E+02  0.47000000000E+01 0. -1.
         -5    1    3    3    0  501  0.31378366973E+02 -0.73716274162E+02 -0.16669116950E+03  0.18500466745E+03  0.47000000000E+01 0. -1.
          1    1    1    2  502    0 -0.17144814560E+02 -0.46727210509E+02  0.23871650209E+04  0.23876838597E+04  0.00000000000E+00 0. -1.
          1    1    1    2  503    0 -0.43852359153E+02 -0.52400347408E+02 -0.11233803540E+04  0.11254564610E+04  0.00000000000E+00 0. -1.
<mgrwt>
<rscale>  0 0.58363297E+02</rscale>
<asrwt>0</asrwt>
<pdfrwt beam="1">  1        2 0.41790007E+00 0.49773255E+02</pdfrwt>
<pdfrwt beam="2">  1        2 0.26383038E+00 0.68435840E+02</pdfrwt>
<totfact> 0.72519550E+00</totfact>
</mgrwt>
</event>
<event>
13    1  0.3019759E-008  0.1132742E+03  0.7546771E-02  0.1307550E+00
          2   -1    0    0  503    0  0.00000000000E+00  0.00000000000E+00  0.13237717634E+04  0.13237717634E+04  0.00000000000E+00 0. -1.
          2   -1    0    0  502    0 -0.00000000000E+00 -0.00000000000E+00 -0.12254966166E+04  0.12254966166E+04  0.00000000000E+00 0. -1.
         25    2    1    2    0    0  0.81651540348E+02 -0.85123407508E+02 -0.61146598080E+03  0.63515933196E+03  0.12499505093E+03 0.  0.
         24    2    1    2    0    0 -0.49923235453E+02  0.11434861244E+02 -0.20582481192E+03  0.22733326327E+03  0.81813653490E+02 0.  0.
         24    2    1    2    0    0 -0.24386606044E+02  0.11850258622E+03  0.72466749864E+02  0.16607854557E+03  0.87710227271E+02 0.  0.
        -13    1    4    4    0    0 -0.16513720065E+01 -0.24367062096E+02 -0.12060504113E+03  0.12305306453E+03  0.00000000000E+00 0.  1.
         14    1    4    4    0    0 -0.48271863447E+02  0.35801923340E+02 -0.85219770794E+02  0.10428019874E+03  0.00000000000E+00 0. -1.
        -13    1    5    5    0    0  0.18115693637E+02 -0.46659889604E+01  0.50585476770E+01  0.19378821262E+02  0.00000000000E+00 0.  1.
         14    1    5    5    0    0 -0.42502299681E+02  0.12316857518E+03  0.67408202187E+02  0.14669972431E+03  0.00000000000E+00 0. -1.
          5    1    3    3  501    0  0.10562786662E+02  0.98831491393E+01 -0.32094562215E+03  0.32130582235E+03  0.47000000000E+01 0. -1.
         -5    1    3    3    0  501  0.71088753686E+02 -0.95006556647E+02 -0.29052035865E+03  0.31385350961E+03  0.47000000000E+01 0. -1.
          1    1    1    2  502    0  0.21982480906E+02  0.64878339375E+02 -0.33257318234E+03  0.33955463477E+03  0.00000000000E+00 0. -1.
          1    1    1    2  503    0 -0.29324179756E+02 -0.10969237933E+03  0.11756723720E+04  0.11811426044E+04  0.00000000000E+00 0. -1.
<mgrwt>
<rscale>  0 0.88087622E+02</rscale>
<asrwt>0</asrwt>
<pdfrwt beam="1">  1        2 0.19467232E+00 0.11327418E+03</pdfrwt>
<pdfrwt beam="2">  1        2 0.18022009E+00 0.68501302E+02</pdfrwt>
<totfact> 0.68614565E+01</totfact>
</mgrwt>
</event>
<event>
13    1  0.3019759E-008  0.4375174E+02  0.7546771E-02  0.1513759E+00
          2   -1    0    0  503    0  0.00000000000E+00  0.00000000000E+00  0.15741287009E+04  0.15741287009E+04  0.00000000000E+00 0. -1.
          2   -1    0    0  502    0 -0.00000000000E+00 -0.00000000000E+00 -0.11971496334E+04  0.11971496334E+04  0.00000000000E+00 0. -1.
         25    2    1    2    0    0  0.27014779639E+02  0.11760456402E+02 -0.61362782782E+03  0.62692317115E+03  0.12500177918E+03 0.  0.
         24    2    1    2    0    0 -0.44919945682E+02 -0.36056685683E+02 -0.12255390966E+03  0.15735004972E+03  0.80135455765E+02 0.  0.
         24    2    1    2    0    0  0.10298919096E+02  0.39828287609E+02  0.30544730221E+03  0.31560551958E+03  0.67944310526E+02 0.  0.
        -13    1    4    4    0    0 -0.11633531109E+02 -0.51460626584E+02 -0.10314073437E+03  0.11585139714E+03  0.00000000000E+00 0.  1.
         14    1    4    4    0    0 -0.33286414573E+02  0.15403940901E+02 -0.19413175290E+02  0.41498652571E+02  0.00000000000E+00 0. -1.
        -13    1    5    5    0    0 -0.52038386963E+01 -0.15231812611E+02  0.27769046695E+02  0.32096853537E+02  0.00000000000E+00 0.  1.
         14    1    5    5    0    0  0.15502757792E+02  0.55060100220E+02  0.27767825551E+03  0.28350866604E+03  0.00000000000E+00 0. -1.
          5    1    3    3  501    0 -0.36990698386E+02  0.42780108253E+02 -0.29665128161E+03  0.30203066452E+03  0.47000000000E+01 0.  1.
         -5    1    3    3    0  501  0.64005478025E+02 -0.31019651851E+02 -0.31697654621E+03  0.32489250663E+03  0.47000000000E+01 0.  1.
          1    1    1    2  502    0 -0.17531147672E+02 -0.40204121352E+02 -0.43047829970E+03  0.43270692047E+03  0.00000000000E+00 0. -1.
          1    1    1    2  503    0  0.25137394619E+02  0.24672063024E+02  0.12381918025E+04  0.12386926734E+04  0.00000000000E+00 0. -1.
<mgrwt>
<rscale>  0 0.39255957E+02</rscale>
<asrwt>0</asrwt>
<pdfrwt beam="1">  1        2 0.23148952E+00 0.35222142E+02</pdfrwt>
<pdfrwt beam="2">  1        2 0.17605142E+00 0.43751744E+02</pdfrwt>
<totfact> 0.60350836E+01</totfact>
</mgrwt>
</event>
<event>
13    1  0.3019759E-008  0.1931728E+03  0.7546771E-02  0.1205323E+00
          2   -1    0    0  503    0  0.00000000000E+00  0.00000000000E+00  0.89002359461E+03  0.89002359461E+03  0.00000000000E+00 0. -1.
          2   -1    0    0  502    0 -0.00000000000E+00 -0.00000000000E+00 -0.28248459556E+04  0.28248459556E+04  0.00000000000E+00 0. -1.
         25    2    1    2    0    0  0.43516118957E+03  0.13007039382E+02 -0.52817259526E+03  0.69579055719E+03  0.12499506039E+03 0.  0.
         24    2    1    2    0    0 -0.35848772610E+02  0.69986849451E+02 -0.11685311086E+03  0.16390037506E+03  0.83817598591E+02 0.  0.
         24    2    1    2    0    0  0.61271054917E+02 -0.13401634547E+02 -0.70543483183E+02  0.12207700449E+03  0.77412311855E+02 0.  0.
        -11    1    4    4    0    0 -0.50564600543E+02  0.80553386901E+02 -0.86548214193E+02  0.12859323602E+03  0.00000000000E+00 0.  1.
         12    1    4    4    0    0  0.14715827934E+02 -0.10566537449E+02 -0.30304896669E+02  0.35307139045E+02  0.00000000000E+00 0. -1.
        -13    1    5    5    0    0 -0.72728977036E+01 -0.28520238858E+02 -0.21500186452E+02  0.36449376991E+02  0.00000000000E+00 0.  1.
         14    1    5    5    0    0  0.68543952620E+02  0.15118604311E+02 -0.49043296731E+02  0.85627627501E+02  0.00000000000E+00 0. -1.
          5    1    3    3  501    0  0.29411175265E+03  0.60956727596E+02 -0.39229738839E+03  0.49410199011E+03  0.47000000000E+01 0. -1.
         -5    1    3    3    0  501  0.14104943691E+03 -0.47949688214E+02 -0.13587520687E+03  0.20168856709E+03  0.47000000000E+01 0. -1.
          1    1    1    2  502    0 -0.36933294014E+03 -0.13211793404E+03 -0.19525235579E+04  0.19915346378E+04  0.00000000000E+00 0. -1.
          1    1    1    2  503    0 -0.91250531737E+02  0.62525679749E+02  0.73327038622E+03  0.74156697572E+03  0.00000000000E+00 0. -1.
<mgrwt>
<rscale>  0 0.14612024E+03</rscale>
<asrwt>0</asrwt>
<pdfrwt beam="1">  1        2 0.13088583E+00 0.11052864E+03</pdfrwt>
<pdfrwt beam="2">  1        2 0.41541851E+00 0.19317277E+03</pdfrwt>
<totfact> 0.17268532E+01</totfact>
</mgrwt>
</event>
<event>
13    1  0.3019759E-008  0.5826933E+02  0.7546771E-02  0.1427846E+00
          2   -1    0    0  503    0  0.00000000000E+00  0.00000000000E+00  0.70942614577E+03  0.70942614577E+03  0.00000000000E+00 0. -1.
         -1   -1    0    0    0  501 -0.00000000000E+00 -0.00000000000E+00 -0.13001037798E+04  0.13001037798E+04  0.00000000000E+00 0.  1.
         25    2    1    2    0    0  0.55744635498E+02  0.13304310079E+03 -0.46243908385E+03  0.50028261543E+03  0.12499943192E+03 0.  0.
         24    2    1    2    0    0  0.62844979368E+02 -0.65874842443E+02  0.30883692548E+02  0.12558358734E+03  0.80798815872E+02 0.  0.
         24    2    1    2    0    0 -0.76828199374E+02  0.29083125356E+01  0.17363698721E+03  0.20577931763E+03  0.79273537434E+02 0.  0.
        -11    1    4    4    0    0  0.79215219221E+02 -0.51077289709E+02  0.92939431009E+01  0.94711761987E+02  0.00000000000E+00 0.  1.
         12    1    4    4    0    0 -0.16370239853E+02 -0.14797552734E+02  0.21589749447E+02  0.30871825358E+02  0.00000000000E+00 0. -1.
        -11    1    5    5    0    0 -0.55722472193E+02  0.39321874905E+02  0.11243613876E+03  0.13150319027E+03  0.00000000000E+00 0.  1.
         12    1    5    5    0    0 -0.21105727181E+02 -0.36413562370E+02  0.61200848449E+02  0.74276127357E+02  0.00000000000E+00 0. -1.
          5    1    3    3  502    0  0.85962542027E+02  0.13009402284E+03 -0.41881871214E+03  0.44692864872E+03  0.47000000000E+01 0. -1.
         -5    1    3    3    0  502 -0.30217906529E+02  0.29490779504E+01 -0.43620371709E+02  0.53353966711E+02  0.47000000000E+01 0. -1.
          1    1    1    2  503    0 -0.53669734455E+02 -0.22619627702E+02  0.41975746969E+03  0.42377874099E+03  0.00000000000E+00 0. -1.
         -2    1    1    2    0  501  0.11908318963E+02 -0.47456943180E+02 -0.75251669968E+03  0.75410566422E+03  0.00000000000E+00 0.  1.
<mgrwt>
<rscale>  0 0.53394885E+02</rscale>
<asrwt>0</asrwt>
<pdfrwt beam="1">  1        2 0.10432737E+00 0.58269328E+02</pdfrwt>
<pdfrwt beam="2">  1       -1 0.19119173E+00 0.48928208E+02</pdfrwt>
<totfact> 0.11613883E+01</totfact>
</mgrwt>
</event>
<event>
13    1  0.3019759E-008  0.8011731E+02  0.7546771E-02  0.1434338E+00
          2   -1    0    0  503    0  0.00000000000E+00  0.00000000000E+00  0.14758865822E+04  0.14758865822E+04  0.00000000000E+00 0. -1.
          2   -1    0    0  502    0 -0.00000000000E+00 -0.00000000000E+00 -0.74679112399E+03  0.74679112399E+03  0.00000000000E+00 0. -1.
         25    2    1    2    0    0  0.11349207891E+03 -0.33873415163E+03 -0.39402422224E+02  0.38051588974E+03  0.12497405336E+03 0.  0.
         24    2    1    2    0    0 -0.12216839534E+02  0.31223390493E+03  0.44536291836E+03  0.54977297330E+03  0.79138679344E+02 0.  0.
         24    2    1    2    0    0 -0.45598152272E+02 -0.54175040807E+02  0.27810331519E+03  0.29822129223E+03  0.81119410032E+02 0.  0.
        -13    1    4    4    0    0 -0.44458966936E+02  0.13560545300E+03  0.19100442244E+03  0.23842845471E+03  0.00000000000E+00 0.  1.
         14    1    4    4    0    0  0.32242127402E+02  0.17662845192E+03  0.25435849591E+03  0.31134451858E+03  0.00000000000E+00 0. -1.
        -13    1    5    5    0    0 -0.26099831657E+02 -0.69670532458E+02  0.14679689197E+03  0.16457372754E+03  0.00000000000E+00 0.  1.
         14    1    5    5    0    0 -0.19498320615E+02  0.15495491652E+02  0.13130642322E+03  0.13364756469E+03  0.00000000000E+00 0. -1.
          5    1    3    3  501    0 -0.10264718033E+02 -0.58480614040E+02 -0.44054025247E+02  0.74082344693E+02  0.47000000000E+01 0.  1.
         -5    1    3    3    0  501  0.12375679694E+03 -0.28025353759E+03  0.46516030235E+01  0.30643354505E+03  0.47000000000E+01 0.  1.
          1    1    1    2  502    0 -0.21998909553E+02  0.76990892158E+02 -0.47063055227E+03  0.47739361771E+03  0.00000000000E+00 0. -1.
          1    1    1    2  503    0 -0.33678177551E+02  0.36843953499E+01  0.51566219921E+03  0.51677393327E+03  0.00000000000E+00 0. -1.
<mgrwt>
<rscale>  0 0.52098980E+02</rscale>
<asrwt>0</asrwt>
<pdfrwt beam="1">  1        2 0.21704215E+00 0.33879115E+02</pdfrwt>
<pdfrwt beam="2">  1        2 0.10982222E+00 0.80117314E+02</pdfrwt>
<totfact> 0.11894745E+02</totfact>
</mgrwt>
</event>
<event>
13    1  0.3019759E-008  0.7143871E+02  0.7546771E-02  0.1474800E+00
          2   -1    0    0  503    0  0.00000000000E+00  0.00000000000E+00  0.30505972393E+04  0.30505972393E+04  0.00000000000E+00 0. -1.
          2   -1    0    0  502    0 -0.00000000000E+00 -0.00000000000E+00 -0.75501133455E+03  0.75501133455E+03  0.00000000000E+00 0. -1.
         25    2    1    2    0    0 -0.39841235752E+02 -0.86099669254E+01 -0.52959062867E+03  0.54566714334E+03  0.12499976699E+03 0.  0.
         24    2    1    2    0    0 -0.27289444077E+02  0.20106017719E+03  0.28353878874E+03  0.35808909272E+03  0.81631152111E+02 0.  0.
         24    2    1    2    0    0  0.66209666328E+02 -0.11621879905E+03  0.72798332009E+03  0.74420855048E+03  0.77434637695E+02 0.  0.
        -11    1    4    4    0    0 -0.25060238834E+02  0.15682227590E+02  0.65673339543E+02  0.72020381556E+02  0.00000000000E+00 0.  1.
         12    1    4    4    0    0 -0.22292052427E+01  0.18537794960E+03  0.21786544920E+03  0.28606871117E+03  0.00000000000E+00 0. -1.
        -13    1    5    5    0    0  0.36850379783E+02 -0.28918929308E+02  0.11236017173E+03  0.12173357447E+03  0.00000000000E+00 0.  1.
         14    1    5    5    0    0  0.29359286545E+02 -0.87299869737E+02  0.61562314836E+03  0.62247497601E+03  0.00000000000E+00 0. -1.
          5    1    3    3  501    0  0.36429642599E+02  0.27850303046E+02 -0.16039562160E+03  0.16688799738E+03  0.47000000000E+01 0. -1.
         -5    1    3    3    0  501 -0.76270878351E+02 -0.36460269971E+02 -0.36919500707E+03  0.37877914596E+03  0.47000000000E+01 0. -1.
          1    1    1    2  502    0  0.26586616285E+02 -0.95615990279E+01 -0.17018707611E+03  0.17251641434E+03  0.00000000000E+00 0. -1.
          1    1    1    2  503    0 -0.25665602783E+02 -0.66669812188E+02  0.19838415007E+04  0.19851273730E+04  0.00000000000E+00 0. -1.
<mgrwt>
<rscale>  0 0.44926705E+02</rscale>
<asrwt>0</asrwt>
<pdfrwt beam="1">  1        2 0.44861724E+00 0.71438709E+02</pdfrwt>
<pdfrwt beam="2">  1        2 0.11103108E+00 0.28253714E+02</pdfrwt>
<totfact> 0.19396255E+01</totfact>
</mgrwt>
</event>
<event>
13    1  0.3019759E-008  0.3596028E+02  0.7546771E-02  0.1693172E+00
          2   -1    0    0  503    0  0.00000000000E+00  0.00000000000E+00  0.27694742346E+04  0.27694742346E+04  0.00000000000E+00 0. -1.
          2   -1    0    0  502    0 -0.00000000000E+00 -0.00000000000E+00 -0.57716928397E+03  0.57716928397E+03  0.00000000000E+00 0. -1.
         25    2    1    2    0    0 -0.26255262421E+03 -0.91863292672E+02 -0.12192361619E+03  0.32842223409E+03  0.12499220233E+03 0.  0.
         24    2    1    2    0    0  0.28082002946E+03  0.54601199810E+03  0.23725647946E+03  0.66629775145E+03  0.10331052958E+03 0.  0.
         24    2    1    2    0    0 -0.22150048686E+00 -0.47180078593E+03  0.13087223221E+04  0.13934397055E+04  0.79523995777E+02 0.  0.
        -11    1    4    4    0    0  0.19101187455E+03  0.37419851121E+03  0.10965957403E+03  0.43420649948E+03  0.00000000000E+00 0.  1.
         12    1    4    4    0    0  0.89808154911E+02  0.17181348689E+03  0.12759690543E+03  0.23209125197E+03  0.00000000000E+00 0. -1.
        -13    1    5    5    0    0  0.53499474412E+01 -0.12044906405E+03  0.24275900879E+03  0.27105079840E+03  0.00000000000E+00 0.  1.
         14    1    5    5    0    0 -0.55714479280E+01 -0.35135172188E+03  0.10659633133E+04  0.11223889071E+04  0.00000000000E+00 0. -1.
          5    1    3    3  501    0 -0.15536287817E+03  0.45997599373E+01 -0.33079266491E+02  0.15898147558E+03  0.47000000000E+01 0. -1.
         -5    1    3    3    0  501 -0.10718974604E+03 -0.96463052609E+02 -0.88844349694E+02  0.16944075852E+03  0.47000000000E+01 0. -1.
          1    1    1    2  502    0 -0.32467784074E+02  0.15509216562E+02 -0.91650124486E+02  0.98460337799E+02  0.00000000000E+00 0. -1.
          1    1    1    2  503    0  0.14421879308E+02  0.21428639375E+01  0.85989988973E+03  0.86002348969E+03  0.00000000000E+00 0. -1.
<mgrwt>
<rscale>  0 0.22897782E+02</rscale>
<asrwt>0</asrwt>
<pdfrwt beam="1">  1        2 0.40727562E+00 0.14580208E+02</pdfrwt>
<pdfrwt beam="2">  1        2 0.84877837E-01 0.35960284E+02</pdfrwt>
<totfact> 0.47046214E+01</totfact>
</mgrwt>
</event>
<event>
13    1  0.3019759E-008  0.1338418E+03  0.7546771E-02  0.1356496E+00
          2   -1    0    0  503    0  0.00000000000E+00  0.00000000000E+00  0.56300865730E+03  0.56300865730E+03  0.00000000000E+00 0. -1.
          2   -1    0    0  502    0 -0.00000000000E+00 -0.00000000000E+00 -0.23919522703E+04  0.23919522703E+04  0.00000000000E+00 0. -1.
         25    2    1    2    0    0  0.19328204337E+02  0.10437437041E+02 -0.60472336219E+02  0.14057882904E+03  0.12499193635E+03 0.  0.
         24    2    1    2    0    0 -0.12951389336E+02  0.24365091979E+02 -0.54007223686E+00  0.84432458857E+02  0.79794437386E+02 0.  0.
         24    2    1    2    0    0  0.80087585333E+02  0.15943391631E+02  0.10820285388E+03  0.15726731488E+03  0.79730406261E+02 0.  0.
        -13    1    5    5    0    0  0.44888033589E+02 -0.15384629638E+02  0.10215524427E+02  0.48538431453E+02  0.00000000000E+00 0.  1.
         14    1    5    5    0    0  0.35199551745E+02  0.31328021269E+02  0.97987329448E+02  0.10872888343E+03  0.00000000000E+00 0. -1.
        -13    1    4    4    0    0  0.23378075869E+02  0.38762858753E+02 -0.21825508257E+01  0.45319501080E+02  0.00000000000E+00 0.  1.
         14    1    4    4    0    0 -0.36329465205E+02 -0.14397766774E+02  0.16424785888E+01  0.39112957777E+02  0.00000000000E+00 0. -1.
          5    1    3    3  501    0  0.86604606598E+01  0.37512672695E+02  0.27666150222E+02  0.47641474155E+02  0.47000000000E+01 0. -1.
         -5    1    3    3    0  501  0.10667743677E+02 -0.27075235654E+02 -0.88138486441E+02  0.92937354885E+02  0.47000000000E+01 0. -1.
          1    1    1    2  502    0 -0.10518393812E+03 -0.83512378331E+02 -0.22213517601E+04  0.22254081918E+04  0.00000000000E+00 0. -1.
          1    1    1    2  503    0  0.18719537788E+02  0.32766457679E+02  0.34521770172E+03  0.34727413296E+03  0.00000000000E+00 0. -1.
<mgrwt>
<rscale>  0 0.71068661E+02</rscale>
<asrwt>0</asrwt>
<pdfrwt beam="1">  1        2 0.82795393E-01 0.37736744E+02</pdfrwt>
<pdfrwt beam="2">  1        2 0.35175768E+00 0.13384182E+03</pdfrwt>
<totfact> 0.52529892E+01</totfact>
</mgrwt>
</event>
<event>
13    1  0.3019759E-008  0.9501734E+02  0.7546771E-02  0.1370308E+00
          2   -1    0    0  503    0  0.00000000000E+00  0.00000000000E+00  0.30690507780E+04  0.30690507780E+04  0.00000000000E+00 0. -1.
         -1   -1    0    0    0  501 -0.00000000000E+00 -0.00000000000E+00 -0.15990255961E+03  0.15990255961E+03  0.00000000000E+00 0.  1.
         25    2    1    2    0    0  0.17655495215E+02  0.20084964665E+03  0.39524080480E+03  0.46097273224E+03  0.12501307539E+03 0.  0.
         24    2    1    2    0    0  0.11718823215E+02 -0.56790183203E+02  0.55283605056E+03  0.56191156800E+03  0.82185495876E+02 0.  0.
         24    2    1    2    0    0  0.26093834549E+02 -0.20597073356E+02  0.22792412356E+03  0.24327490381E+03  0.78282469889E+02 0.  0.
        -11    1    5    5    0    0 -0.87240371636E+01  0.14950124815E+02  0.10533731368E+02  0.20262639338E+02  0.00000000000E+00 0.  1.
         12    1    5    5    0    0  0.34817871712E+02 -0.35547198171E+02  0.21739039219E+03  0.22301226448E+03  0.00000000000E+00 0. -1.
        -13    1    4    4    0    0  0.31860529320E+02 -0.54767111364E+02  0.51603639361E+03  0.51991161686E+03  0.00000000000E+00 0.  1.
         14    1    4    4    0    0 -0.20141706105E+02 -0.20230718395E+01  0.36799656949E+02  0.41999951143E+02  0.00000000000E+00 0. -1.
          5    1    3    3  502    0 -0.36041718203E+02  0.96703220847E+02  0.10211027947E+03  0.14525535291E+03  0.47000000000E+01 0.  1.
         -5    1    3    3    0  502  0.53697213418E+02  0.10414642580E+03  0.29313052532E+03  0.31571737933E+03  0.47000000000E+01 0.  1.
          1    1    1    2  503    0  0.13109861298E+00 -0.47359101520E+02  0.18282717178E+04  0.18288850089E+04  0.00000000000E+00 0. -1.
         -2    1    1    2    0  501 -0.55599251591E+02 -0.76103288567E+02 -0.95124478283E+02  0.13390912470E+03  0.00000000000E+00 0.  1.
<mgrwt>
<rscale>  0 0.67081691E+02</rscale>
<asrwt>0</asrwt>
<pdfrwt beam="1">  1        2 0.45133096E+00 0.47359283E+02</pdfrwt>
<pdfrwt beam="2">  1       -1 0.23515084E-01 0.95017344E+02</pdfrwt>
<totfact> 0.51738644E+01</totfact>
</mgrwt>
</event>
<event>
13    1  0.3019759E-008  0.9379089E+02  0.7546771E-02  0.1581824E+00
          2   -1    0    0  503    0  0.00000000000E+00  0.00000000000E+00  0.15734103305E+04  0.15734103305E+04  0.00000000000E+00 0. -1.
          2   -1    0    0  502    0 -0.00000000000E+00 -0.00000000000E+00 -0.96990775990E+03  0.96990775990E+03  0.00000000000E+00 0. -1.
         25    2    1    2    0    0 -0.69958178235E+02 -0.10975177921E+03 -0.45977538162E+03  0.49392184928E+03  0.12500316760E+03 0.  0.
         24    2    1    2    0    0 -0.69958557262E+01  0.76022094630E+02  0.42421049296E+02  0.12132081063E+03  0.84207439099E+02 0.  0.
         24    2    1    2    0    0  0.11745168925E+03 -0.58430490921E+02  0.37563318081E+03  0.40605777042E+03  0.81077770157E+02 0.  0.
        -11    1    5    5    0    0  0.79280696499E+02 -0.55138313302E+02  0.15873802393E+03  0.18580479723E+03  0.00000000000E+00 0.  1.
         12    1    5    5    0    0  0.38170992747E+02 -0.32921776196E+01  0.21689515688E+03  0.22025297319E+03  0.00000000000E+00 0. -1.
        -11    1    4    4    0    0  0.30178236184E+02  0.62316230804E+02  0.43349362061E+02  0.81689691833E+02  0.00000000000E+00 0.  1.
         12    1    4    4    0    0 -0.37174091910E+02  0.13705863826E+02 -0.92831276526E+00  0.39631118798E+02  0.00000000000E+00 0. -1.
          5    1    3    3  501    0 -0.29284252461E+02 -0.10212324471E+03 -0.42940123199E+03  0.44237340855E+03  0.47000000000E+01 0.  1.
         -5    1    3    3    0  501 -0.40673925774E+02 -0.76285344983E+01 -0.30374149632E+02  0.51548440736E+02  0.47000000000E+01 0.  1.
          1    1    1    2  502    0 -0.10004182439E+02  0.34911026766E+01 -0.43630412904E+03  0.43643277200E+03  0.00000000000E+00 0. -1.
          1    1    1    2  503    0 -0.30493472846E+02  0.88669072825E+02  0.10815278512E+04  0.10855848881E+04  0.00000000000E+00 0. -1.
<mgrwt>
<rscale>  0 0.31524462E+02</rscale>
<asrwt>0</asrwt>
<pdfrwt beam="1">  1        2 0.23138387E+00 0.93790893E+02</pdfrwt>
<pdfrwt beam="2">  1        2 0.14263349E+00 0.10595823E+02</pdfrwt>
<totfact> 0.78635095E+01</totfact>
</mgrwt>
</event>
<event>
13    1  0.3019759E-008  0.8264705E+02  0.7546771E-02  0.1503947E+00
          2   -1    0    0  502    0  0.00000000000E+00  0.00000000000E+00  0.39773954716E+03  0.39773954716E+03  0.00000000000E+00 0. -1.
          2   -1    0    0  503    0 -0.00000000000E+00 -0.00000000000E+00 -0.80366439235E+03  0.80366439235E+03  0.00000000000E+00 0. -1.
         25    2    1    2    0    0 -0.15596303685E+02 -0.97854840790E+02 -0.50377822127E+03  0.52843070996E+03  0.12501081734E+03 0.  0.
         24    2    1    2    0    0 -0.67175924192E+02  0.11729089626E+03 -0.50146459958E+02  0.16387000295E+03  0.77903474139E+02 0.  0.
         24    2    1    2    0    0  0.91189681226E+01 -0.88159263221E+02 -0.46058382332E+02  0.12780338463E+03  0.79731545001E+02 0.  0.
        -11    1    4    4    0    0 -0.72130799516E+02  0.10327670111E+03 -0.16451003441E+02  0.12704158667E+03  0.00000000000E+00 0.  1.
         12    1    4    4    0    0  0.49548753248E+01  0.14014195154E+02 -0.33695456517E+02  0.36828416273E+02  0.00000000000E+00 0. -1.
        -13    1    5    5    0    0  0.41349680672E+02 -0.63552178100E+02 -0.42935883304E+02  0.87133033392E+02  0.00000000000E+00 0.  1.
         14    1    5    5    0    0 -0.32230712549E+02 -0.24607085121E+02 -0.31224990275E+01  0.40670351237E+02  0.00000000000E+00 0. -1.
          5    1    3    3  501    0 -0.26073447589E+02 -0.71783309969E+02 -0.49148100005E+03  0.49740157988E+03  0.47000000000E+01 0.  1.
         -5    1    3    3    0  501  0.10477143904E+02 -0.26071530821E+02 -0.12297221218E+02  0.31029130078E+02  0.47000000000E+01 0.  1.
          1    1    1    2  502    0  0.65043745378E+02  0.50748393130E+02  0.28060845681E+03  0.29248451968E+03  0.00000000000E+00 0. -1.
          1    1    1    2  503    0  0.86095143759E+01  0.17974814619E+02 -0.86550238442E+02  0.88815322285E+02  0.00000000000E+00 0. -1.
<mgrwt>
<rscale>  0 0.40585493E+02</rscale>
<asrwt>0</asrwt>
<pdfrwt beam="1">  1        2 0.58491111E-01 0.82647050E+02</pdfrwt>
<pdfrwt beam="2">  1        2 0.11818594E+00 0.19930321E+02</pdfrwt>
<totfact> 0.53926789E+02</totfact>
</mgrwt>
</event>
<event>
13    1  0.3019759E-008  0.8108582E+02  0.7546771E-02  0.1338544E+00
          2   -1    0    0  502    0  0.00000000000E+00  0.00000000000E+00  0.16110577470E+04  0.16110577470E+04  0.00000000000E+00 0. -1.
          2   -1    0    0  503    0 -0.00000000000E+00 -0.00000000000E+00 -0.92098329977E+03  0.92098329977E+03  0.00000000000E+00 0. -1.
         25    2    1    2    0    0 -0.81667049246E+02 -0.38088962133E+02 -0.68232024017E+02  0.16852885012E+03  0.12500435293E+03 0.  0.
         24    2    1    2    0    0 -0.82900136349E+02  0.45782562048E+02  0.67073663087E+02  0.14165949970E+03  0.81240765514E+02 0.  0.
         24    2    1    2    0    0  0.79450858742E+02 -0.43664650783E+02  0.23452393344E+03  0.26510805352E+03  0.84034302546E+02 0.  0.
        -11    1    5    5    0    0  0.30341267221E+02 -0.34861760206E+01  0.10537366467E+02  0.32307615386E+02  0.00000000000E+00 0.  1.
         12    1    5    5    0    0  0.49109591521E+02 -0.40178474762E+02  0.22398656697E+03  0.23280043813E+03  0.00000000000E+00 0. -1.
        -13    1    4    4    0    0 -0.55147849627E+02 -0.14777038008E+02  0.21792015938E+02  0.61110867523E+02  0.00000000000E+00 0.  1.
         14    1    4    4    0    0 -0.27752286722E+02  0.60559600056E+02  0.45281647149E+02  0.80548632178E+02  0.00000000000E+00 0. -1.
          5    1    3    3  501    0 -0.32257775974E+02 -0.68276065950E+02  0.40848991765E+01  0.75769134175E+02  0.47000000000E+01 0.  1.
         -5    1    3    3    0  501 -0.49409273272E+02  0.30187103817E+02 -0.72316923194E+02  0.92759715946E+02  0.47000000000E+01 0.  1.
          1    1    1    2  502    0  0.59834924850E+02 -0.41188771395E+02  0.12034308134E+04  0.12056211908E+04  0.00000000000E+00 0. -1.
          1    1    1    2  503    0  0.25281402003E+02  0.77159822263E+02 -0.74672193864E+03  0.75112345264E+03  0.00000000000E+00 0. -1.
<mgrwt>
<rscale>  0 0.76747413E+02</rscale>
<asrwt>0</asrwt>
<pdfrwt beam="1">  1        2 0.23692026E+00 0.72641126E+02</pdfrwt>
<pdfrwt beam="2">  1        2 0.13543872E+00 0.81085823E+02</pdfrwt>
<totfact> 0.74531355E+01</totfact>
</mgrwt>
</event>
<event>
13    1  0.3019759E-008  0.9946351E+02  0.7546771E-02  0.1394190E+00
          2   -1    0    0  503    0  0.00000000000E+00  0.00000000000E+00  0.19528611130E+04  0.19528611130E+04  0.00000000000E+00 0. -1.
          2   -1    0    0  502    0 -0.00000000000E+00 -0.00000000000E+00 -0.19353533934E+04  0.19353533934E+04  0.00000000000E+00 0. -1.
         25    2    1    2    0    0  0.60634757930E+02 -0.26689534914E+03 -0.10232852912E+04  0.10666057571E+04  0.12500141022E+03 0.  0.
         24    2    1    2    0    0 -0.13086028782E+03 -0.57841044280E+01 -0.36682224896E+02  0.15802838861E+03  0.80433296529E+02 0.  0.
         24    2    1    2    0    0  0.42861809171E+02  0.14036930584E+03  0.38383416862E+03  0.41869709086E+03  0.80236576341E+02 0.  0.
        -11    1    4    4    0    0 -0.24240088161E+01 -0.15977299226E+02 -0.23493742265E+02  0.28515010695E+02  0.00000000000E+00 0.  1.
         12    1    4    4    0    0 -0.12843627900E+03  0.10193194798E+02 -0.13188482631E+02  0.12951337791E+03  0.00000000000E+00 0. -1.
        -13    1    5    5    0    0  0.57979956782E+02  0.53080156749E+02  0.18658298423E+03  0.20246577102E+03  0.00000000000E+00 0.  1.
         14    1    5    5    0    0 -0.15118147611E+02  0.87289149088E+02  0.19725118439E+03  0.21623131984E+03  0.00000000000E+00 0. -1.
          5    1    3    3  501    0 -0.31366934935E+02 -0.12853649091E+03 -0.51962474155E+03  0.53622521027E+03  0.47000000000E+01 0.  1.
         -5    1    3    3    0  501  0.92001692865E+02 -0.13835885823E+03 -0.50366054964E+03  0.53038054678E+03  0.47000000000E+01 0.  1.
          1    1    1    2  502    0 -0.16424034705E+01  0.37223251446E+02 -0.77349054096E+03  0.77438742557E+03  0.00000000000E+00 0. -1.
          1    1    1    2  503    0  0.29006124189E+02  0.95086896285E+02  0.14671316080E+04  0.14704958443E+04  0.00000000000E+00 0. -1.
<mgrwt>
<rscale>  0 0.60876577E+02</rscale>
<asrwt>0</asrwt>
<pdfrwt beam="1">  1        2 0.28718546E+00 0.99463514E+02</pdfrwt>
<pdfrwt beam="2">  1        2 0.28461079E+00 0.37259468E+02</pdfrwt>
<totfact> 0.16450097E+01</totfact>
</mgrwt>
</event>
<event>
13    1  0.3019759E-008  0.1283682E+03  0.7546771E-02  0.1410065E+00
         -1   -1    0    0    0  501  0.00000000000E+00  0.00000000000E+00  0.15786529456E+04  0.15786529456E+04  0.00000000000E+00 0.  1.
         -1   -1    0    0    0  502 -0.00000000000E+00 -0.00000000000E+00 -0.10726379396E+04  0.10726379396E+04  0.00000000000E+00 0.  1.
         25    2    1    2    0    0  0.80535173944E+02  0.62110581729E+02 -0.86623958536E+02  0.18296388196E+03  0.12501373246E+03 0.  0.
         24    2    1    2    0    0 -0.14526473274E+02 -0.85214044123E+02  0.74636512787E+02  0.13970615300E+03  0.80465821344E+02 0.  0.
         24    2    1    2    0    0  0.62011628334E+02  0.36500772203E+01  0.90767156545E+02  0.13632611740E+03  0.80544201933E+02 0.  0.
        -13    1    4    4    0    0 -0.11790852840E+02  0.13127102623E+02  0.27420869369E+01  0.17856765518E+02  0.00000000000E+00 0.  1.
         14    1    4    4    0    0 -0.27356204337E+01 -0.98341146746E+02  0.71894425851E+02  0.12184938749E+03  0.00000000000E+00 0. -1.
        -13    1    5    5    0    0  0.47483425619E+02 -0.34776755445E+02  0.65669106483E+02  0.88184635703E+02  0.00000000000E+00 0.  1.
         14    1    5    5    0    0  0.14528202715E+02  0.38426832665E+02  0.25098050062E+02  0.48141481694E+02  0.00000000000E+00 0. -1.
          5    1    3    3  503    0  0.72225749217E+02 -0.16774684770E+02 -0.69378051386E+02  0.10165310085E+03  0.47000000000E+01 0.  1.
         -5    1    3    3    0  503  0.83094247269E+01  0.78885266500E+02 -0.17245907150E+02  0.81310781102E+02  0.47000000000E+01 0.  1.
         -2    1    1    2    0  501 -0.12235365745E+03  0.44284447805E+02  0.13063483362E+04  0.13128128218E+04  0.00000000000E+00 0.  1.
         -2    1    1    2    0  502 -0.56666715525E+01 -0.24831062632E+02 -0.87911304098E+03  0.87948191093E+03  0.00000000000E+00 0.  1.
<mgrwt>
<rscale>  0 0.57179249E+02</rscale>
<asrwt>0</asrwt>
<pdfrwt beam="1">  1       -1 0.23215485E+00 0.12836817E+03</pdfrwt>
<pdfrwt beam="2">  1       -1 0.15774087E+00 0.25469449E+02</pdfrwt>
<totfact> 0.37019059E-01</totfact>
</mgrwt>
</event>
<event>
13    1  0.3019759E-008  0.4881010E+02  0.7546771E-02  0.1503181E+00
          2   -1    0    0  503    0  0.00000000000E+00  0.00000000000E+00  0.28513409778E+04  0.28513409778E+04  0.00000000000E+00 0. -1.
          2   -1    0    0  502    0 -0.00000000000E+00 -0.00000000000E+00 -0.18966550271E+04  0.18966550271E+04  0.00000000000E+00 0. -1.
         25    2    1    2    0    0 -0.38662064270E+03  0.18087799476E+02 -0.77821409769E+03  0.87809168108E+03  0.12500051478E+03 0.  0.
         24    2    1    2    0    0  0.45808444668E+02 -0.82234492054E+03 -0.37194775230E+03  0.90721754367E+03  0.79680356172E+02 0.  0.
         24    2    1    2    0    0  0.30840958041E+03  0.74281004145E+03  0.22948714471E+04  0.24331000264E+04  0.81593827704E+02 0.  0.
        -11    1    5    5    0    0  0.16736670823E+03  0.32114274493E+03  0.95331733079E+03  0.10197834137E+04  0.00000000000E+00 0.  1.
         12    1    5    5    0    0  0.14104287218E+03  0.42166729652E+03  0.13415541163E+04  0.14133166127E+04  0.00000000000E+00 0. -1.
        -13    1    4    4    0    0  0.24527770318E+02 -0.52481511185E+03 -0.27846616161E+03  0.59462249899E+03  0.00000000000E+00 0.  1.
         14    1    4    4    0    0  0.21280674350E+02 -0.29752980869E+03 -0.93481590685E+02  0.31259504468E+03  0.00000000000E+00 0. -1.
          5    1    3    3  501    0 -0.20514424212E+03 -0.38261475081E+02 -0.49269086075E+03  0.53508361479E+03  0.47000000000E+01 0. -1.
         -5    1    3    3    0  501 -0.18147640058E+03  0.56349274557E+02 -0.28552323694E+03  0.34300806629E+03  0.47000000000E+01 0. -1.
          1    1    1    2  502    0  0.92719551374E+00  0.48793079643E+02 -0.35643116264E+03  0.35975658162E+03  0.00000000000E+00 0. -1.
          1    1    1    2  503    0  0.31475422102E+02  0.12653999965E+02  0.16640751630E+03  0.16983017221E+03  0.00000000000E+00 0. -1.
<mgrwt>
<rscale>  0 0.40691834E+02</rscale>
<asrwt>0</asrwt>
<pdfrwt beam="1">  1        2 0.41931485E+00 0.33923825E+02</pdfrwt>
<pdfrwt beam="2">  1        2 0.27891985E+00 0.48810103E+02</pdfrwt>
<totfact> 0.70817645E+00</totfact>
</mgrwt>
</event>
<event>
13    1  0.3019759E-008  0.2087842E+03  0.7546771E-02  0.1263174E+00
          2   -1    0    0  502    0  0.00000000000E+00  0.00000000000E+00  0.84710512774E+03  0.84710512774E+03  0.00000000000E+00 0. -1.
          2   -1    0    0  503    0 -0.00000000000E+00 -0.00000000000E+00 -0.18785014814E+04  0.18785014814E+04  0.00000000000E+00 0. -1.
         25    2    1    2    0    0  0.12687191558E+03 -0.10095833256E+02 -0.10048743348E+03  0.20474790211E+03  0.12500228124E+03 0.  0.
         24    2    1    2    0    0 -0.42720522939E+01 -0.21366414688E+02  0.25029871088E+02  0.87965365732E+02  0.81465557227E+02 0.  0.
         24    2    1    2    0    0  0.42165439974E+02 -0.10851559892E+03  0.30487560344E+03  0.33619532340E+03  0.80775010763E+02 0.  0.
        -11    1    5    5    0    0  0.37085751411E+01 -0.61866720910E+02  0.69237200262E+02  0.92924886795E+02  0.00000000000E+00 0.  1.
         12    1    5    5    0    0  0.38456864832E+02 -0.46648878015E+02  0.23563840318E+03  0.24327043660E+03  0.00000000000E+00 0. -1.
        -13    1    4    4    0    0 -0.32138385240E+02 -0.35279421509E+02  0.30080078532E+02  0.56412095444E+02  0.00000000000E+00 0.  1.
         14    1    4    4    0    0  0.27866332946E+02  0.13913006821E+02 -0.50502074442E+01  0.31553270289E+02  0.00000000000E+00 0. -1.
          5    1    3    3  501    0  0.36337660653E+02  0.38344924183E+02 -0.85868701919E+02  0.10092711609E+03  0.47000000000E+01 0. -1.
         -5    1    3    3    0  501  0.90534254931E+02 -0.48440757439E+02 -0.14618731560E+02  0.10382078602E+03  0.47000000000E+01 0. -1.
          1    1    1    2  502    0 -0.45353523796E+02 -0.33685426106E+02  0.40937953942E+03  0.41325931005E+03  0.00000000000E+00 0. -1.
          1    1    1    2  503    0 -0.11941177947E+03  0.17366327297E+03 -0.16701939341E+04  0.16834387078E+04  0.00000000000E+00 0. -1.
<mgrwt>
<rscale>  0 0.10860569E+03</rscale>
<asrwt>0</asrwt>
<pdfrwt beam="1">  1        2 0.12457428E+00 0.56494690E+02</pdfrwt>
<pdfrwt beam="2">  1        2 0.27625022E+00 0.20878416E+03</pdfrwt>
<totfact> 0.56532455E+01</totfact>
</mgrwt>
</event>
<event>
13    1  0.3019759E-008  0.3796570E+02  0.7546771E-02  0.1707442E+00
          2   -1    0    0  502    0  0.00000000000E+00  0.00000000000E+00  0.18692953893E+04  0.18692953893E+04  0.00000000000E+00 0. -1.
          2   -1    0    0  503    0 -0.00000000000E+00 -0.00000000000E+00 -0.98129543601E+03  0.98129543601E+03  0.00000000000E+00 0. -1.
         25    2    1    2    0    0 -0.27531051589E+02 -0.17146820675E+03 -0.32799811509E+03  0.39162198151E+03  0.12500283266E+03 0.  0.
         24    2    1    2    0    0 -0.66622829758E+02  0.15944161167E+03  0.41537815833E+03  0.45787489078E+03  0.85147943071E+02 0.  0.
         24    2    1    2    0    0  0.71900738881E+02 -0.23353418929E+00  0.66251870854E+02  0.12470129489E+03  0.77403693489E+02 0.  0.
        -11    1    5    5    0    0  0.80592408337E+02 -0.12859552293E+02  0.71496933114E+02  0.10850030328E+03  0.00000000000E+00 0.  1.
         12    1    5    5    0    0 -0.86916694561E+01  0.12626018104E+02 -0.52450622601E+01  0.16200991612E+02  0.00000000000E+00 0. -1.
        -13    1    4    4    0    0 -0.29415208367E+02  0.10965211943E+03  0.34871472330E+03  0.36672987338E+03  0.00000000000E+00 0.  1.
         14    1    4    4    0    0 -0.37207621391E+02  0.49789492242E+02  0.66663435026E+02  0.91145017399E+02  0.00000000000E+00 0. -1.
          5    1    3    3  501    0  0.19681294263E+02  0.63622711237E+01 -0.83957973780E+01  0.22812524002E+02  0.47000000000E+01 0. -1.
         -5    1    3    3    0  501 -0.47212345852E+02 -0.17783047787E+03 -0.31960231772E+03  0.36880945751E+03  0.47000000000E+01 0. -1.
          1    1    1    2  502    0 -0.94878649990E+01 -0.85959836683E+01  0.13047173671E+04  0.13047801802E+04  0.00000000000E+00 0. -1.
          1    1    1    2  503    0  0.31741007466E+02  0.20856112936E+02 -0.57034932796E+03  0.57161247791E+03  0.00000000000E+00 0. -1.
<mgrwt>
<rscale>  0 0.22046893E+02</rscale>
<asrwt>0</asrwt>
<pdfrwt beam="1">  1        2 0.27489638E+00 0.12802754E+02</pdfrwt>
<pdfrwt beam="2">  1        2 0.14430815E+00 0.37965698E+02</pdfrwt>
<totfact> 0.65262134E+01</totfact>
</mgrwt>
</event>
<event>
13    1  0.3019759E-008  0.8961872E+02  0.7546771E-02  0.1414414E+00
          4   -1    0    0  503    0 -0.00000000000E+00  0.00000000000E+00  0.59328194573E+03  0.59328194573E+03  0.00000000000E+00 0. -1.
          2   -1    0    0  502    0  0.00000000000E+00 -0.00000000000E+00 -0.21540860600E+04  0.21540860600E+04  0.00000000000E+00 0. -1.
         25    2    1    2    0    0 -0.83457669973E+02  0.66857272883E+01 -0.55553651317E+02  0.16037915734E+03  0.12500153722E+03 0.  0.
         24    2    1    2    0    0  0.12341186071E+02 -0.36473753013E+02 -0.92850507722E+02  0.12963489197E+03  0.81861767012E+02 0.  0.
         24    2    1    2    0    0  0.66423983268E+01  0.40781607462E+02 -0.20349777757E+03  0.22272811341E+03  0.80555608533E+02 0.  0.
        -11    1    5    5    0    0 -0.32022070225E+01 -0.21447771136E+02 -0.93340227079E+02  0.95826191658E+02  0.00000000000E+00 0.  1.
         12    1    5    5    0    0  0.98446053494E+01  0.62229378598E+02 -0.11015755049E+03  0.12690192176E+03  0.00000000000E+00 0. -1.
        -11    1    4    4    0    0  0.10155313608E+02 -0.61929344222E+02 -0.52231020361E+02  0.81648353065E+02  0.00000000000E+00 0.  1.
         12    1    4    4    0    0  0.21858724622E+01  0.25455591209E+02 -0.40619487361E+02  0.47986538901E+02  0.00000000000E+00 0. -1.
          5    1    3    3  501    0  0.29037459491E+02  0.13312175759E+02  0.45002778118E+01  0.32599548732E+02  0.47000000000E+01 0. -1.
         -5    1    3    3    0  501 -0.11249512946E+03 -0.66264484706E+01 -0.60053929129E+02  0.12777960861E+03  0.47000000000E+01 0. -1.
          1    1    1    2  502    0  0.78397957830E+02 -0.43397329849E+02 -0.17199899828E+04  0.17223225914E+04  0.00000000000E+00 0. -1.
          3    1    1    2  503    0 -0.13923872254E+02  0.32403748112E+02  0.51108780509E+03  0.51230325162E+03  0.00000000000E+00 0. -1.
<mgrwt>
<rscale>  0 0.56220373E+02</rscale>
<asrwt>0</asrwt>
<pdfrwt beam="2">  1        2 0.31677736E+00 0.89618715E+02</pdfrwt>
<pdfrwt beam="1">  1        4 0.87247346E-01 0.35268642E+02</pdfrwt>
<totfact> 0.43395252E+00</totfact>
</mgrwt>
</event>
<event>
13    1  0.3019759E-008  0.1730412E+03  0.7546771E-02  0.1430264E+00
          2   -1    0    0  502    0  0.00000000000E+00  0.00000000000E+00  0.15844739074E+04  0.15844739074E+04  0.00000000000E+00 0. -1.
          2   -1    0    0  503    0 -0.00000000000E+00 -0.00000000000E+00 -0.26074604464E+04  0.26074604464E+04  0.00000000000E+00 0. -1.
         25    2    1    2    0    0  0.16442885022E+03  0.15069748907E+02 -0.13697734333E+04  0.13853419794E+04  0.12501678675E+03 0.  0.
         24    2    1    2    0    0 -0.22436215174E+03  0.12091387189E+03 -0.20332201716E+03  0.33572803253E+03  0.80093255758E+02 0.  0.
         24    2    1    2    0    0  0.83027395672E+02  0.28114770250E+02 -0.20113503843E+03  0.23362528961E+03  0.80258853242E+02 0.  0.
        -11    1    4    4    0    0 -0.81133946263E+02  0.82385635209E+02 -0.63625176793E+02  0.13197830597E+03  0.00000000000E+00 0.  1.
         12    1    4    4    0    0 -0.14322820548E+03  0.38528236681E+02 -0.13969684036E+03  0.20374972656E+03  0.00000000000E+00 0. -1.
        -13    1    5    5    0    0  0.15867872607E+02 -0.27243375986E+02 -0.46515694670E+02  0.56193422807E+02  0.00000000000E+00 0.  1.
         14    1    5    5    0    0  0.67159523066E+02  0.55358146236E+02 -0.15461934376E+03  0.17743186681E+03  0.00000000000E+00 0. -1.
          5    1    3    3  501    0  0.54414063685E+02 -0.29320499198E+02 -0.84658846638E+03  0.84885493661E+03  0.47000000000E+01 0. -1.
         -5    1    3    3    0  501  0.11001478653E+03  0.44390248105E+02 -0.52318496695E+03  0.53648704274E+03  0.47000000000E+01 0. -1.
          1    1    1    2  502    0 -0.95237063183E+01 -0.17290256522E+03  0.14891356335E+04  0.14991700814E+04  0.00000000000E+00 0. -1.
          1    1    1    2  503    0 -0.13570387828E+02  0.88041741679E+01 -0.73789168361E+03  0.73806897079E+03  0.00000000000E+00 0. -1.
<mgrwt>
<rscale>  0 0.52906962E+02</rscale>
<asrwt>0</asrwt>
<pdfrwt beam="1">  1        2 0.23301087E+00 0.17304123E+03</pdfrwt>
<pdfrwt beam="2">  1        2 0.38345006E+00 0.16176183E+02</pdfrwt>
<totfact> 0.13245677E+01</totfact>
</mgrwt>
</event>
<event>
13    1  0.3019759E-008  0.6910526E+02  0.7546771E-02  0.1507918E+00
          2   -1    0    0  502    0  0.00000000000E+00  0.00000000000E+00  0.19667679854E+04  0.19667679854E+04  0.00000000000E+00 0. -1.
          2   -1    0    0  503    0 -0.00000000000E+00 -0.00000000000E+00 -0.10055883028E+04  0.10055883028E+04  0.00000000000E+00 0. -1.
         25    2    1    2    0    0 -0.18900557034E+03  0.15600243869E+03 -0.47980289225E+03  0.55307773517E+03  0.12499719690E+03 0.  0.
         24    2    1    2    0    0  0.11055855778E+03 -0.38078044565E+03 -0.75701046654E+01  0.40494587422E+03  0.81895739068E+02 0.  0.
         24    2    1    2    0    0  0.39756146452E+01  0.24706272958E+03  0.38089703262E+03  0.45749618540E+03  0.56253109576E+02 0.  0.
        -11    1    4    4    0    0  0.58719165103E+02 -0.28793335560E+03 -0.32713763122E+02  0.29567507152E+03  0.00000000000E+00 0.  1.
         12    1    4    4    0    0  0.51839392674E+02 -0.92847090043E+02  0.25143658456E+02  0.10927080270E+03  0.00000000000E+00 0. -1.
        -11    1    5    5    0    0 -0.49120727907E+01  0.14522216676E+03  0.17377628163E+03  0.22652108563E+03  0.00000000000E+00 0.  1.
         12    1    5    5    0    0  0.88876874360E+01  0.10184056283E+03  0.20712075099E+03  0.23097509977E+03  0.00000000000E+00 0. -1.
          5    1    3    3  501    0 -0.13730809426E+03  0.15934309042E+03 -0.30374073346E+03  0.36949188946E+03  0.47000000000E+01 0.  1.
         -5    1    3    3    0  501 -0.51697476080E+02 -0.33406517315E+01 -0.17606215879E+03  0.18358584570E+03  0.47000000000E+01 0.  1.
          1    1    1    2  502    0  0.69098369839E+02  0.28381717888E+00  0.13107838849E+04  0.13126039228E+04  0.00000000000E+00 0. -1.
          1    1    1    2  503    0  0.53730280812E+01 -0.22568539808E+02 -0.24312823802E+03  0.24423257061E+03  0.00000000000E+00 0. -1.
<mgrwt>
<rscale>  0 0.40039919E+02</rscale>
<asrwt>0</asrwt>
<pdfrwt beam="1">  1        2 0.28923059E+00 0.69105265E+02</pdfrwt>
<pdfrwt beam="2">  1        2 0.14788063E+00 0.23199319E+02</pdfrwt>
<totfact> 0.48275910E+01</totfact>
</mgrwt>
</event>
<event>
13    1  0.3019759E-008  0.8004150E+02  0.7546771E-02  0.1369818E+00
          2   -1    0    0  502    0  0.00000000000E+00  0.00000000000E+00  0.28111958225E+04  0.28111958225E+04  0.00000000000E+00 0. -1.
          2   -1    0    0  503    0 -0.00000000000E+00 -0.00000000000E+00 -0.22657415842E+04  0.22657415842E+04  0.00000000000E+00 0. -1.
         25    2    1    2    0    0  0.18297910976E+02  0.34126835546E+02 -0.42052882004E+03  0.44041962105E+03  0.12500199866E+03 0.  0.
         24    2    1    2    0    0  0.60699657787E+02  0.33206950700E+02 -0.13112910974E+03  0.16894370497E+03  0.80993715787E+02 0.  0.
         24    2    1    2    0    0 -0.37219097207E+02  0.42675775869E+02  0.11350450943E+03  0.15015105896E+03  0.80346647725E+02 0.  0.
        -11    1    5    5    0    0 -0.52450732034E+02  0.56813206108E+02  0.93165127787E+02  0.12107254319E+03  0.00000000000E+00 0.  1.
         12    1    5    5    0    0  0.15231634827E+02 -0.14137430239E+02  0.20339381646E+02  0.29078515764E+02  0.00000000000E+00 0. -1.
        -13    1    4    4    0    0 -0.14588362782E+02  0.27099051454E+02 -0.42895460632E+02  0.52793933943E+02  0.00000000000E+00 0.  1.
         14    1    4    4    0    0  0.75288020569E+02  0.61078992461E+01 -0.88233649105E+02  0.11614977102E+03  0.00000000000E+00 0. -1.
          5    1    3    3  501    0  0.23179361433E+02  0.79292861094E+02 -0.22807928791E+03  0.24262500323E+03  0.47000000000E+01 0. -1.
         -5    1    3    3    0  501 -0.48814504574E+01 -0.45166025548E+02 -0.19244953213E+03  0.19779461782E+03  0.47000000000E+01 0. -1.
          1    1    1    2  502    0  0.15462018868E+02 -0.54289628344E+02  0.26492574707E+04  0.26498587857E+04  0.00000000000E+00 0. -1.
          1    1    1    2  503    0 -0.57240490423E+02 -0.55719933770E+02 -0.16656498121E+04  0.16675642361E+04  0.00000000000E+00 0. -1.
<mgrwt>
<rscale>  0 0.67217751E+02</rscale>
<asrwt>0</asrwt>
<pdfrwt beam="1">  1        2 0.41341115E+00 0.56448541E+02</pdfrwt>
<pdfrwt beam="2">  1        2 0.33319729E+00 0.80041502E+02</pdfrwt>
<totfact> 0.43184621E+00</totfact>
</mgrwt>
</event>
<event>
13    1  0.3019759E-008  0.1002656E+03  0.7546771E-02  0.1577932E+00
          2   -1    0    0  503    0  0.00000000000E+00  0.00000000000E+00  0.24317005659E+04  0.24317005659E+04  0.00000000000E+00 0. -1.
         -1   -1    0    0    0  501 -0.00000000000E+00 -0.00000000000E+00 -0.14979668737E+03  0.14979668737E+03  0.00000000000E+00 0.  1.
         25    2    1    2    0    0 -0.59506182923E+02  0.12831282145E+02 -0.62859524687E+02  0.15259361864E+03  0.12501145947E+03 0.  0.
         24    2    1    2    0    0  0.56326685344E+02 -0.88239149571E+02  0.22147389318E+03  0.25955212752E+03  0.85777494387E+02 0.  0.
         24    2    1    2    0    0 -0.81900884015E+02 -0.27634227285E+02  0.62277984238E+03  0.63648489256E+03  0.98928666517E+02 0.  0.
        -11    1    4    4    0    0  0.66749109696E+01 -0.52875623298E+02  0.35992164443E+02  0.64310355907E+02  0.00000000000E+00 0.  1.
         12    1    4    4    0    0  0.49651774374E+02 -0.35363526273E+02  0.18548172874E+03  0.19524177162E+03  0.00000000000E+00 0. -1.
        -13    1    5    5    0    0 -0.37002695942E+02 -0.21675119425E+00  0.51722361339E+03  0.51854557440E+03  0.00000000000E+00 0.  1.
         14    1    5    5    0    0 -0.44898188073E+02 -0.27417476091E+02  0.10555622899E+03  0.11793931815E+03  0.00000000000E+00 0. -1.
          5    1    3    3  502    0 -0.19445988497E+02  0.61391477019E+02 -0.15398031569E+01  0.64587312322E+02  0.47000000000E+01 0. -1.
         -5    1    3    3    0  502 -0.40060194426E+02 -0.48560194874E+02 -0.61319721530E+02  0.88006306320E+02  0.47000000000E+01 0. -1.
          1    1    1    2  503    0  0.92146952502E+02  0.95752276009E+02  0.15118306997E+04  0.15176599170E+04  0.00000000000E+00 0. -1.
         -2    1    1    2    0  501 -0.70665709074E+01  0.72898187012E+01 -0.11321032071E+02  0.15206697480E+02  0.00000000000E+00 0.  1.
<mgrwt>
<rscale>  0 0.31905636E+02</rscale>
<asrwt>0</asrwt>
<pdfrwt beam="1">  1        2 0.35760300E+00 0.10026563E+03</pdfrwt>
<pdfrwt beam="2">  1       -1 0.22028926E-01 0.10152728E+02</pdfrwt>
<totfact> 0.95758970E+01</totfact>
</mgrwt>
</event>
<event>
13    1  0.3019759E-008  0.3418229E+02  0.7546771E-02  0.1578678E+00
          2   -1    0    0  503    0  0.00000000000E+00  0.00000000000E+00  0.59828999032E+03  0.59828999032E+03  0.00000000000E+00 0. -1.
          2   -1    0    0  502    0 -0.00000000000E+00 -0.00000000000E+00 -0.11775397400E+04  0.11775397400E+04  0.00000000000E+00 0. -1.
         25    2    1    2    0    0 -0.43493027084E+02 -0.47286719333E+02 -0.84434231642E+03  0.85595984469E+03  0.12500252478E+03 0.  0.
         24    2    1    2    0    0  0.42014865682E+02  0.20727631307E+00  0.17896475962E+03  0.20102660662E+03  0.81351210706E+02 0.  0.
         24    2    1    2    0    0 -0.60128264369E+02  0.33233946563E+02  0.19321155759E+03  0.22226636758E+03  0.85742222922E+02 0.  0.
        -11    1    4    4    0    0 -0.11051137811E+02 -0.36284223997E+01 -0.25220531321E+01  0.11901842212E+02  0.00000000000E+00 0.  1.
         12    1    4    4    0    0  0.53066003493E+02  0.38356987128E+01  0.18148681275E+03  0.18912476441E+03  0.00000000000E+00 0. -1.
        -13    1    5    5    0    0 -0.15707202698E+02 -0.20448586995E+02  0.12637563342E+02  0.28715308355E+02  0.00000000000E+00 0.  1.
         14    1    5    5    0    0 -0.44421061671E+02  0.53682533558E+02  0.18057399425E+03  0.19355105923E+03  0.00000000000E+00 0. -1.
          5    1    3    3  501    0 -0.20494125202E+02  0.46082314969E+00 -0.17367712624E+02  0.27275427908E+02  0.47000000000E+01 0. -1.
         -5    1    3    3    0  501 -0.22998901883E+02 -0.47747542483E+02 -0.82697460380E+03  0.82868441679E+03  0.47000000000E+01 0. -1.
          1    1    1    2  502    0  0.32039632053E+02  0.11714714271E+02 -0.29972908477E+03  0.30166421202E+03  0.00000000000E+00 0. -1.
          1    1    1    2  503    0  0.29566793719E+02  0.21307821863E+01  0.19264533435E+03  0.19491269936E+03  0.00000000000E+00 0. -1.
<mgrwt>
<rscale>  0 0.31832087E+02</rscale>
<asrwt>0</asrwt>
<pdfrwt beam="1">  1        2 0.87983822E-01 0.29643474E+02</pdfrwt>
<pdfrwt beam="2">  1        2 0.17316761E+00 0.34182288E+02</pdfrwt>
<totfact> 0.21690535E+02</totfact>
</mgrwt>
</event>
<event>
13    1  0.3019759E-008  0.7308781E+02  0.7546771E-02  0.1595311E+00
          2   -1    0    0  503    0  0.00000000000E+00  0.00000000000E+00  0.25582649966E+04  0.25582649966E+04  0.00000000000E+00 0. -1.
          2   -1    0    0  502    0 -0.00000000000E+00 -0.00000000000E+00 -0.31670526749E+04  0.31670526749E+04  0.00000000000E+00 0. -1.
         25    2    1    2    0    0 -0.76446301702E+02  0.67539508582E+03 -0.70012391684E+03  0.98376748428E+03  0.12498962037E+03 0.  0.
         24    2    1    2    0    0  0.12890728813E+03 -0.59261215715E+03  0.83166987686E+03  0.10325405764E+04  0.81602696380E+02 0.  0.
         24    2    1    2    0    0 -0.67431895052E+02 -0.15269434398E+03  0.34241607595E+03  0.38946309329E+03  0.81056207751E+02 0.  0.
        -11    1    4    4    0    0  0.44986706485E+02 -0.39055262251E+03  0.53196434178E+03  0.66146898313E+03  0.00000000000E+00 0.  1.
         12    1    4    4    0    0  0.83920581643E+02 -0.20205953463E+03  0.29970553508E+03  0.37107159325E+03  0.00000000000E+00 0. -1.
        -13    1    5    5    0    0 -0.77332713877E+02 -0.15352886202E+03  0.29872496965E+03  0.34465644866E+03  0.00000000000E+00 0.  1.
         14    1    5    5    0    0  0.99008188246E+01  0.83451804384E+00  0.43691106293E+02  0.44806644629E+02  0.00000000000E+00 0. -1.
          5    1    3    3  501    0 -0.53300784770E+02  0.66132356922E+03 -0.66845291029E+03  0.94182865752E+03  0.47000000000E+01 0. -1.
         -5    1    3    3    0  501 -0.23145516932E+02  0.14071516600E+02 -0.31671006551E+02  0.41938826753E+02  0.47000000000E+01 0. -1.
          1    1    1    2  502    0  0.27312906393E+02  0.67793779250E+02 -0.22005063072E+04  0.22017197822E+04  0.00000000000E+00 0. -1.
          1    1    1    2  503    0 -0.12341997767E+02  0.21176360546E+01  0.11177565930E+04  0.11178267354E+04  0.00000000000E+00 0. -1.
<mgrwt>
<rscale>  0 0.30252790E+02</rscale>
<asrwt>0</asrwt>
<pdfrwt beam="1">  1        2 0.37621544E+00 0.12522352E+02</pdfrwt>
<pdfrwt beam="2">  1        2 0.46574304E+00 0.73087813E+02</pdfrwt>
<totfact> 0.25925468E+00</totfact>
</mgrwt>
</event>
<event>
13    1  0.3019759E-008  0.2067749E+03  0.7546771E-02  0.1264650E+00
          2   -1    0    0  503    0  0.00000000000E+00  0.00000000000E+00  0.24335280441E+04  0.24335280441E+04  0.00000000000E+00 0. -1.
          2   -1    0    0  502    0 -0.00000000000E+00 -0.00000000000E+00 -0.25150867679E+04  0.25150867679E+04  0.00000000000E+00 0. -1.
         25    2    1    2    0    0 -0.44461675438E+02 -0.39862398890E+02 -0.10585618488E+04  0.10675873254E+04  0.12499463342E+03 0.  0.
         24    2    1    2    0    0 -0.30190009510E+02 -0.14856723505E+03 -0.34269848698E+03  0.38383007173E+03  0.83063896994E+02 0.  0.
         24    2    1    2    0    0 -0.16721781172E+03 -0.48660084373E+02  0.37796720402E+03  0.42403120808E+03  0.81324398192E+02 0.  0.
        -11    1    4    4    0    0 -0.27084864911E+01 -0.13011593878E+03 -0.20993569328E+03  0.24700301362E+03  0.00000000000E+00 0.  1.
         12    1    4    4    0    0 -0.27481523019E+02 -0.18451296271E+02 -0.13276279370E+03  0.13682705811E+03  0.00000000000E+00 0. -1.
        -13    1    5    5    0    0 -0.50065150061E+02 -0.55325522622E+02  0.13651040055E+03  0.15557159819E+03  0.00000000000E+00 0.  1.
         14    1    5    5    0    0 -0.11715266166E+03  0.66654382489E+01  0.24145680347E+03  0.26845960989E+03  0.00000000000E+00 0. -1.
          5    1    3    3  501    0 -0.75500186718E+02  0.13279519569E+02 -0.58947696895E+03  0.59445925913E+03  0.47000000000E+01 0.  1.
         -5    1    3    3    0  501  0.31038511280E+02 -0.53141918459E+02 -0.46908487981E+03  0.47312806632E+03  0.47000000000E+01 0.  1.
          1    1    1    2  502    0  0.43449715046E+02 -0.35687861173E+02 -0.10507894882E+04  0.10522927585E+04  0.00000000000E+00 0. -1.
          1    1    1    2  503    0  0.19841978162E+03  0.27277757949E+03  0.19925238960E+04  0.20208734483E+04  0.00000000000E+00 0. -1.
<mgrwt>
<rscale>  0 0.10782570E+03</rscale>
<asrwt>0</asrwt>
<pdfrwt beam="1">  1        2 0.35787177E+00 0.20677493E+03</pdfrwt>
<pdfrwt beam="2">  1        2 0.36986570E+00 0.56227228E+02</pdfrwt>
<totfact> 0.44671968E+00</totfact>
</mgrwt>
</event>
<event>
13    1  0.3019759E-008  0.1566939E+03  0.7546771E-02  0.1300720E+00
          2   -1    0    0  502    0  0.00000000000E+00  0.00000000000E+00  0.12878376070E+04  0.12878376070E+04  0.00000000000E+00 0. -1.
          2   -1    0    0  503    0 -0.00000000000E+00 -0.00000000000E+00 -0.12661752280E+04  0.12661752280E+04  0.00000000000E+00 0. -1.
         25    2    1    2    0    0 -0.33757611334E+02  0.53264561523E+02 -0.54775199796E+03  0.56536234487E+03  0.12500255956E+03 0.  0.
         24    2    1    2    0    0  0.21883015525E+02  0.53300532696E+02 -0.22338244891E+03  0.24476716270E+03  0.81801175434E+02 0.  0.
         24    2    1    2    0    0 -0.23999294797E+02  0.57083474530E+02 -0.92408901993E+02  0.13776103133E+03  0.81266274493E+02 0.  0.
        -11    1    4    4    0    0  0.29432919415E+02 -0.14626910015E+01 -0.24434582196E+02  0.38281653796E+02  0.00000000000E+00 0.  1.
         12    1    4    4    0    0 -0.75499038902E+01  0.54763223698E+02 -0.19894786671E+03  0.20648550890E+03  0.00000000000E+00 0. -1.
        -13    1    5    5    0    0  0.13094673444E+02  0.49065642365E+02 -0.85118637220E+02  0.99116548243E+02  0.00000000000E+00 0.  1.
         14    1    5    5    0    0 -0.37093968241E+02  0.80178321658E+01 -0.72902647724E+01  0.38644483086E+02  0.00000000000E+00 0. -1.
          5    1    3    3  501    0 -0.68735234614E+02  0.68404730873E+02 -0.32028435794E+03  0.33467581273E+03  0.47000000000E+01 0. -1.
         -5    1    3    3    0  501  0.34977623280E+02 -0.15140169349E+02 -0.22746764001E+03  0.23068653214E+03  0.47000000000E+01 0. -1.
          1    1    1    2  502    0 -0.16395307368E+02 -0.15680128720E+03  0.12387133130E+04  0.12487057786E+04  0.00000000000E+00 0. -1.
          1    1    1    2  503    0  0.52269197973E+02 -0.68472815492E+01 -0.35350758511E+03  0.35741651760E+03  0.00000000000E+00 0. -1.
<mgrwt>
<rscale>  0 0.90885878E+02</rscale>
<asrwt>0</asrwt>
<pdfrwt beam="1">  1        2 0.18938788E+00 0.15669391E+03</pdfrwt>
<pdfrwt beam="2">  1        2 0.18620224E+00 0.52715788E+02</pdfrwt>
<totfact> 0.68040680E+01</totfact>
</mgrwt>
</event>
<event>
13    1  0.3019759E-008  0.1023315E+03  0.7546771E-02  0.1308181E+00
          2   -1    0    0  503    0  0.00000000000E+00  0.00000000000E+00  0.31551822654E+04  0.31551822654E+04  0.00000000000E+00 0. -1.
          2   -1    0    0  502    0 -0.00000000000E+00 -0.00000000000E+00 -0.20873626154E+04  0.20873626154E+04  0.00000000000E+00 0. -1.
         25    2    1    2    0    0  0.37176667556E+03 -0.35361630484E+02 -0.43862970535E+03  0.58947526169E+03  0.12499663902E+03 0.  0.
         24    2    1    2    0    0 -0.40925635104E+03 -0.25725407510E+03  0.50384882764E+03  0.70501640379E+03  0.97540086481E+02 0.  0.
         24    2    1    2    0    0  0.39919880254E+02  0.32822209320E+03  0.23537259168E+03  0.41581366990E+03  0.90429043223E+02 0.  0.
        -11    1    4    4    0    0 -0.31549214126E+03 -0.24276089322E+03  0.39927035120E+03  0.56381287305E+03  0.00000000000E+00 0.  1.
         12    1    4    4    0    0 -0.93764209773E+02 -0.14493181879E+02  0.10457847645E+03  0.14120353073E+03  0.00000000000E+00 0. -1.
        -11    1    5    5    0    0  0.68239826044E+02  0.20780299509E+03  0.14113753415E+03  0.26030474865E+03  0.00000000000E+00 0.  1.
         12    1    5    5    0    0 -0.28319945789E+02  0.12041909811E+03  0.94235057532E+02  0.15550892125E+03  0.00000000000E+00 0. -1.
          5    1    3    3  501    0  0.13291604452E+03 -0.26108397689E+02 -0.25216190730E+03  0.28627965491E+03  0.47000000000E+01 0.  1.
         -5    1    3    3    0  501  0.23885063104E+03 -0.92532327950E+01 -0.18646779805E+03  0.30319560679E+03  0.47000000000E+01 0.  1.
          1    1    1    2  502    0 -0.53277619521E+02  0.53343264832E+02 -0.13802556752E+04  0.13823131836E+04  0.00000000000E+00 0. -1.
          1    1    1    2  503    0  0.50847414741E+02 -0.88949652447E+02  0.21474836113E+04  0.21499263618E+04  0.00000000000E+00 0. -1.
<mgrwt>
<rscale>  0 0.87835138E+02</rscale>
<asrwt>0</asrwt>
<pdfrwt beam="1">  1        2 0.46399739E+00 0.10233147E+03</pdfrwt>
<pdfrwt beam="2">  1        2 0.30696509E+00 0.75392365E+02</pdfrwt>
<totfact> 0.31751631E+00</totfact>
</mgrwt>
</event>
<event>
13    1  0.3019759E-008  0.1015413E+03  0.7546771E-02  0.1306470E+00
          2   -1    0    0  502    0  0.00000000000E+00  0.00000000000E+00  0.93955397689E+03  0.93955397689E+03  0.00000000000E+00 0. -1.
          2   -1    0    0  503    0 -0.00000000000E+00 -0.00000000000E+00 -0.10054947497E+04  0.10054947497E+04  0.00000000000E+00 0. -1.
         25    2    1    2    0    0 -0.77126339512E+02  0.12192190426E+03  0.43843623548E+02  0.19586072526E+03  0.12500294953E+03 0.  0.
         24    2    1    2    0    0  0.33332014512E+02 -0.18295769681E+02  0.28833787052E+02  0.92237525573E+02  0.78934247754E+02 0.  0.
         24    2    1    2    0    0  0.60269925693E+01  0.58284811566E+02  0.12129627159E+03  0.15750695173E+03  0.81622364841E+02 0.  0.
        -11    1    5    5    0    0  0.33493041772E+02  0.64061586573E+02  0.83833660110E+02  0.11069667244E+03  0.00000000000E+00 0.  1.
         12    1    5    5    0    0 -0.27466049203E+02 -0.57767750074E+01  0.37462611479E+02  0.46810279289E+02  0.00000000000E+00 0. -1.
        -11    1    4    4    0    0 -0.35969576713E+01 -0.42550039983E+02  0.20121469738E+02  0.47205058537E+02  0.00000000000E+00 0.  1.
         12    1    4    4    0    0  0.36928972183E+02  0.24254270302E+02  0.87123173140E+01  0.45032467036E+02  0.00000000000E+00 0. -1.
          5    1    3    3  501    0 -0.11135356672E+03  0.10017274145E+03  0.38216134587E+02  0.15465043774E+03  0.47000000000E+01 0. -1.
         -5    1    3    3    0  501  0.34227227211E+02  0.21749162809E+02  0.56274889606E+01  0.41210287520E+02  0.47000000000E+01 0. -1.
          1    1    1    2  502    0  0.50111483472E+02 -0.85732134886E+02  0.61407555143E+03  0.62205300625E+03  0.00000000000E+00 0. -1.
          1    1    1    2  503    0 -0.12344151041E+02 -0.76178811258E+02 -0.87399000642E+03  0.87739051777E+03  0.00000000000E+00 0. -1.
<mgrwt>
<rscale>  0 0.88522253E+02</rscale>
<asrwt>0</asrwt>
<pdfrwt beam="1">  1        2 0.13816970E+00 0.10154126E+03</pdfrwt>
<pdfrwt beam="2">  1        2 0.14786687E+00 0.77172465E+02</pdfrwt>
<totfact> 0.14637700E+02</totfact>
</mgrwt>
</event>
<event>
13    1  0.3019759E-008  0.3952078E+02  0.7546771E-02  0.1643869E+00
          2   -1    0    0  502    0  0.00000000000E+00  0.00000000000E+00  0.99647011362E+03  0.99647011362E+03  0.00000000000E+00 0. -1.
          2   -1    0    0  503    0 -0.00000000000E+00 -0.00000000000E+00 -0.78745577210E+03  0.78745577210E+03  0.00000000000E+00 0. -1.
         25    2    1    2    0    0  0.65705125883E+02 -0.40134233178E+01 -0.29574363772E+03  0.32775407612E+03  0.12500065610E+03 0.  0.
         24    2    1    2    0    0 -0.92189932721E+01 -0.79828704329E+02 -0.19977914107E+02  0.11588783603E+03  0.81075653662E+02 0.  0.
         24    2    1    2    0    0 -0.69895752427E+02  0.12083479268E+03  0.77531743796E+03  0.79150887022E+03  0.76698753011E+02 0.  0.
        -11    1    5    5    0    0  0.10402142948E+01  0.23356293589E+02  0.39656183230E+02  0.46034892901E+02  0.00000000000E+00 0.  1.
         12    1    5    5    0    0 -0.70935966721E+02  0.97478499091E+02  0.73566125473E+03  0.74547397732E+03  0.00000000000E+00 0. -1.
        -13    1    4    4    0    0 -0.40202533331E+02 -0.56897344131E+02  0.51771570671E+01  0.69859533427E+02  0.00000000000E+00 0.  1.
         14    1    4    4    0    0  0.30983540058E+02 -0.22931360197E+02 -0.25155071174E+02  0.46028302606E+02  0.00000000000E+00 0. -1.
          5    1    3    3  501    0  0.51826067991E+02  0.26030040671E+02 -0.28749621768E+03  0.29332519415E+03  0.47000000000E+01 0. -1.
         -5    1    3    3    0  501  0.13879057892E+02 -0.30043463989E+02 -0.82474200429E+01  0.34428881971E+02  0.47000000000E+01 0. -1.
          1    1    1    2  502    0  0.28173121353E+02 -0.27754276008E+02  0.14627994171E+03  0.15153166649E+03  0.00000000000E+00 0. -1.
          1    1    1    2  503    0 -0.14763501537E+02 -0.92383890249E+01 -0.39686148631E+03  0.39724343685E+03  0.00000000000E+00 0. -1.
<mgrwt>
<rscale>  0 0.26235179E+02</rscale>
<asrwt>0</asrwt>
<pdfrwt beam="1">  1        2 0.14653972E+00 0.39520784E+02</pdfrwt>
<pdfrwt beam="2">  1        2 0.11580232E+00 0.17415763E+02</pdfrwt>
<totfact> 0.20240145E+02</totfact>
</mgrwt>
</event>
<event>
13    1  0.3019759E-008  0.9552339E+02  0.7546771E-02  0.1441025E+00
          2   -1    0    0  503    0  0.00000000000E+00  0.00000000000E+00  0.23892961637E+04  0.23892961637E+04  0.00000000000E+00 0. -1.
         -1   -1    0    0    0  501 -0.00000000000E+00 -0.00000000000E+00 -0.53344534872E+03  0.53344534872E+03  0.00000000000E+00 0.  1.
         25    2    1    2    0    0  0.18290227995E+03  0.55745923084E+02 -0.86152362094E+02  0.24414730566E+03  0.12499930165E+03 0.  0.
         24    2    1    2    0    0 -0.95509971334E+02 -0.68627387191E+02  0.10651058602E+04  0.10748712693E+04  0.84058784224E+02 0.  0.
         24    2    1    2    0    0  0.30832602145E+02  0.44161677926E+02  0.75642276832E+03  0.76283394268E+03  0.82700160309E+02 0.  0.
        -11    1    5    5    0    0  0.24465035000E+02  0.68429785609E+02  0.60463338504E+03  0.60898497831E+03  0.00000000000E+00 0.  1.
         12    1    5    5    0    0  0.63675671447E+01 -0.24268107684E+02  0.15178938328E+03  0.15384896437E+03  0.00000000000E+00 0. -1.
        -11    1    4    4    0    0 -0.95520144507E+02 -0.65201700943E+02  0.10651846341E+04  0.10714446623E+04  0.00000000000E+00 0.  1.
         12    1    4    4    0    0  0.10173173267E-01 -0.34256862477E+01 -0.78773873741E-01  0.34266069346E+01  0.00000000000E+00 0. -1.
          5    1    3    3  502    0  0.15440668480E+02 -0.51750719986E+01 -0.61979353375E+02  0.64255162113E+02  0.47000000000E+01 0. -1.
         -5    1    3    3    0  502  0.16746161147E+03  0.60920995083E+02 -0.24173008719E+02  0.17989214354E+03  0.47000000000E+01 0. -1.
          1    1    1    2  503    0 -0.24930323315E+02 -0.10433545119E+02  0.47394753034E+03  0.47471743322E+03  0.00000000000E+00 0. -1.
         -2    1    1    2    0  501 -0.93294587447E+02 -0.20846668700E+02 -0.35347298180E+03  0.36617156157E+03  0.00000000000E+00 0.  1.
<mgrwt>
<rscale>  0 0.50809166E+02</rscale>
<asrwt>0</asrwt>
<pdfrwt beam="1">  1        2 0.35136708E+00 0.27025541E+02</pdfrwt>
<pdfrwt beam="2">  1       -1 0.78447846E-01 0.95523393E+02</pdfrwt>
<totfact> 0.14297000E+01</totfact>
</mgrwt>
</event>
<event>
13    1  0.3019759E-008  0.1592521E+03  0.7546771E-02  0.1221670E+00
          2   -1    0    0  502    0  0.00000000000E+00  0.00000000000E+00  0.11292751709E+04  0.11292751709E+04  0.00000000000E+00 0. -1.
          2   -1    0    0  503    0 -0.00000000000E+00 -0.00000000000E+00 -0.31348930285E+04  0.31348930285E+04  0.00000000000E+00 0. -1.
         25    2    1    2    0    0  0.10863927272E+03  0.18703035301E+03 -0.44149589863E+03  0.50727414221E+03  0.12500232927E+03 0.  0.
         24    2    1    2    0    0 -0.86662217302E+02 -0.17226965326E+03 -0.21022239286E+03  0.29738698572E+03  0.84014233773E+02 0.  0.
         24    2    1    2    0    0 -0.17276260915E+02 -0.13814437681E+03 -0.46455884238E+02  0.16732590894E+03  0.80358400862E+02 0.  0.
        -13    1    5    5    0    0 -0.27278287685E+02 -0.14517970638E+03 -0.47192008325E+02  0.15507526487E+03  0.00000000000E+00 0.  1.
         14    1    5    5    0    0  0.10002026770E+02  0.70353295712E+01  0.73612408730E+00  0.12250644079E+02  0.00000000000E+00 0. -1.
        -13    1    4    4    0    0 -0.10497089936E+02 -0.44863541538E+02 -0.10725646121E+03  0.11673420548E+03  0.00000000000E+00 0.  1.
         14    1    4    4    0    0 -0.76165127366E+02 -0.12740611172E+03 -0.10296593164E+03  0.18065278024E+03  0.00000000000E+00 0. -1.
          5    1    3    3  501    0  0.10882483362E+03  0.20350424364E+03 -0.39215300518E+03  0.45504163663E+03  0.47000000000E+01 0. -1.
         -5    1    3    3    0  501 -0.18556089868E+00 -0.16473890632E+02 -0.49342893447E+02  0.52232505580E+02  0.47000000000E+01 0. -1.
          1    1    1    2  502    0  0.10787941416E+03  0.11789216287E+03  0.98454161203E+03  0.99742604533E+03  0.00000000000E+00 0. -1.
          1    1    1    2  503    0 -0.11258020866E+03  0.54915141859E+01 -0.22919852939E+04  0.22947551171E+04  0.00000000000E+00 0. -1.
<mgrwt>
<rscale>  0 0.13397743E+03</rscale>
<asrwt>0</asrwt>
<pdfrwt beam="1">  1        2 0.16606988E+00 0.15925211E+03</pdfrwt>
<pdfrwt beam="2">  1        2 0.46101368E+00 0.11271406E+03</pdfrwt>
<totfact> 0.90628132E+00</totfact>
</mgrwt>
</event>
<event>
13    1  0.3019759E-008  0.9378515E+02  0.7546771E-02  0.1342157E+00
          2   -1    0    0  503    0  0.00000000000E+00  0.00000000000E+00  0.34588655671E+04  0.34588655671E+04  0.00000000000E+00 0. -1.
          2   -1    0    0  502    0 -0.00000000000E+00 -0.00000000000E+00 -0.14958507822E+04  0.14958507822E+04  0.00000000000E+00 0. -1.
         25    2    1    2    0    0  0.20115067898E+02  0.15926255017E+03 -0.91834699547E+03  0.94061720711E+03  0.12502139962E+03 0.  0.
         24    2    1    2    0    0  0.20710385569E+03 -0.19438060483E+03 -0.14479795401E+03  0.33581905257E+03  0.10550906127E+03 0.  0.
         24    2    1    2    0    0 -0.12566877600E+03  0.61406803985E+02  0.21658782019E+03  0.27017725823E+03  0.80759087258E+02 0.  0.
        -11    1    5    5    0    0 -0.12869201279E+03  0.74073439673E+02  0.19903113823E+03  0.24831814796E+03  0.00000000000E+00 0.  1.
         12    1    5    5    0    0  0.30232367959E+01 -0.12666635688E+02  0.17556681964E+02  0.21859110274E+02  0.00000000000E+00 0. -1.
        -11    1    4    4    0    0 -0.50350635767E+01 -0.35139452503E+02 -0.46088174505E+01  0.35796287317E+02  0.00000000000E+00 0.  1.
         12    1    4    4    0    0  0.21213891926E+03 -0.15924115233E+03 -0.14018913656E+03  0.30002276525E+03  0.00000000000E+00 0. -1.
          5    1    3    3  501    0 -0.30579803417E+02  0.58256776982E+01 -0.29396533229E+03  0.29564635883E+03  0.47000000000E+01 0.  1.
         -5    1    3    3    0  501  0.50694871315E+02  0.15343687248E+03 -0.62438166318E+03  0.64497084828E+03  0.47000000000E+01 0.  1.
          1    1    1    2  502    0 -0.40802976936E+02  0.45169769358E+02 -0.29545479146E+03  0.30165994893E+03  0.00000000000E+00 0. -1.
          1    1    1    2  503    0 -0.60747170653E+02 -0.71458518687E+02  0.31050267057E+04  0.31064428824E+04  0.00000000000E+00 0. -1.
<mgrwt>
<rscale>  0 0.75556126E+02</rscale>
<asrwt>0</asrwt>
<pdfrwt beam="1">  1        2 0.50865670E+00 0.93785147E+02</pdfrwt>
<pdfrwt beam="2">  1        2 0.21997806E+00 0.60870280E+02</pdfrwt>
<totfact> 0.42358444E+00</totfact>
</mgrwt>
</event>
<event>
13    1  0.3019759E-008  0.7749784E+02  0.7546771E-02  0.1435920E+00
          2   -1    0    0  502    0  0.00000000000E+00  0.00000000000E+00  0.38055008122E+03  0.38055008122E+03  0.00000000000E+00 0. -1.
          2   -1    0    0  503    0 -0.00000000000E+00 -0.00000000000E+00 -0.22158952121E+04  0.22158952121E+04  0.00000000000E+00 0. -1.
         25    2    1    2    0    0 -0.85448104204E+02  0.15416869977E+03 -0.12959287367E+04  0.13138216376E+04  0.12500655303E+03 0.  0.
         24    2    1    2    0    0  0.11020430195E+03 -0.42101544728E+02 -0.97655136889E+02  0.17270631497E+03  0.79833684830E+02 0.  0.
         24    2    1    2    0    0 -0.27480406915E+02 -0.50897296241E+02  0.73363387519E+02  0.12458493340E+03  0.82422760645E+02 0.  0.
        -11    1    4    4    0    0  0.15775369642E+02  0.55828792856E+01 -0.56952784485E+02  0.59360344414E+02  0.00000000000E+00 0.  1.
         12    1    4    4    0    0  0.94428932308E+02 -0.47684424014E+02 -0.40702352405E+02  0.11334597056E+03  0.00000000000E+00 0. -1.
        -13    1    5    5    0    0  0.15760401653E+02 -0.51869755001E+02  0.24986505678E+02  0.59692438467E+02  0.00000000000E+00 0.  1.
         14    1    5    5    0    0 -0.43240808567E+02  0.97245876020E+00  0.48376881841E+02  0.64892494930E+02  0.00000000000E+00 0. -1.
          5    1    3    3  501    0 -0.79863111734E+02  0.28495731031E+02 -0.38639485171E+03  0.39561748537E+03  0.47000000000E+01 0.  1.
         -5    1    3    3    0  501 -0.55849924705E+01  0.12567296874E+03 -0.90953388500E+03  0.91820415223E+03  0.47000000000E+01 0.  1.
          1    1    1    2  502    0 -0.30332705707E+02 -0.71420841298E+02  0.22828779858E+03  0.24111476228E+03  0.00000000000E+00 0. -1.
          1    1    1    2  503    0  0.33056914876E+02  0.10250982492E+02 -0.74341244334E+03  0.74421764503E+03  0.00000000000E+00 0. -1.
<mgrwt>
<rscale>  0 0.51789858E+02</rscale>
<asrwt>0</asrwt>
<pdfrwt beam="1">  1        2 0.55963249E-01 0.77497844E+02</pdfrwt>
<pdfrwt beam="2">  1        2 0.32586693E+00 0.34609858E+02</pdfrwt>
<totfact> 0.11316205E+02</totfact>
</mgrwt>
</event>
<event>
13    1  0.3019759E-008  0.1149154E+03  0.7546771E-02  0.1544711E+00
          2   -1    0    0  502    0  0.00000000000E+00  0.00000000000E+00  0.11969153531E+04  0.11969153531E+04  0.00000000000E+00 0. -1.
          2   -1    0    0  503    0 -0.00000000000E+00 -0.00000000000E+00 -0.17375230135E+04  0.17375230135E+04  0.00000000000E+00 0. -1.
         25    2    1    2    0    0 -0.71609316783E+02 -0.12475532508E+03 -0.19673772992E+03  0.27389819341E+03  0.12499080204E+03 0.  0.
         24    2    1    2    0    0 -0.26276015926E+02  0.36565677529E+02  0.10236671954E+02  0.92212551684E+02  0.79817839167E+02 0.  0.
         24    2    1    2    0    0  0.80080772175E+02 -0.34042065659E+02  0.19056175230E+03  0.22435290806E+03  0.80303509296E+02 0.  0.
        -11    1    4    4    0    0 -0.44771573258E+02  0.22834924415E+02 -0.20093612290E+02  0.54126525843E+02  0.00000000000E+00 0.  1.
         12    1    4    4    0    0  0.18495557331E+02  0.13730753114E+02  0.30330284244E+02  0.38086025841E+02  0.00000000000E+00 0. -1.
        -13    1    5    5    0    0  0.49955785744E+02  0.19736192991E+02  0.11432137941E+03  0.12631102736E+03  0.00000000000E+00 0.  1.
         14    1    5    5    0    0  0.30124986431E+02 -0.53778258650E+02  0.76240372895E+02  0.98041880694E+02  0.00000000000E+00 0. -1.
          5    1    3    3  501    0 -0.24075199578E+01 -0.24723405592E+02 -0.13511990565E+03  0.13746462032E+03  0.47000000000E+01 0. -1.
         -5    1    3    3    0  501 -0.69201796825E+02 -0.10003191949E+03 -0.61617824273E+02  0.13643357310E+03  0.47000000000E+01 0. -1.
          1    1    1    2  502    0 -0.30708935717E+01  0.10490650637E+02  0.89738317797E+03  0.89744974914E+03  0.00000000000E+00 0. -1.
          1    1    1    2  503    0  0.20875454106E+02  0.11174106257E+03 -0.14420515326E+04  0.14465249643E+04  0.00000000000E+00 0. -1.
<mgrwt>
<rscale>  0 0.35441869E+02</rscale>
<asrwt>0</asrwt>
<pdfrwt beam="1">  1        2 0.17601697E+00 0.10930880E+02</pdfrwt>
<pdfrwt beam="2">  1        2 0.25551809E+00 0.11491536E+03</pdfrwt>
<totfact> 0.49868695E+01</totfact>
</mgrwt>
</event>
<event>
13    1  0.3019759E-008  0.3167105E+03  0.7546771E-02  0.1080235E+00
          2   -1    0    0  503    0  0.00000000000E+00  0.00000000000E+00  0.38291104169E+04  0.38291104169E+04  0.00000000000E+00 0. -1.
          2   -1    0    0  502    0 -0.00000000000E+00 -0.00000000000E+00 -0.34321310123E+04  0.34321310123E+04  0.00000000000E+00 0. -1.
         25    2    1    2    0    0 -0.25461937421E+03  0.11510401540E+03 -0.30078592126E+03  0.42915778959E+03  0.12499711138E+03 0.  0.
         24    2    1    2    0    0  0.24835338744E+03  0.67001113015E+01 -0.17472171906E+03  0.31451717200E+03  0.81664409794E+02 0.  0.
         24    2    1    2    0    0 -0.12200516084E+02  0.32818687110E+03  0.17838865666E+03  0.38351477109E+03  0.86055748588E+02 0.  0.
        -11    1    5    5    0    0 -0.29981660625E+02  0.17472262149E+03  0.13564917822E+03  0.22322095329E+03  0.00000000000E+00 0.  1.
         12    1    5    5    0    0  0.17781144541E+02  0.15346424961E+03  0.42739478445E+02  0.16029381781E+03  0.00000000000E+00 0. -1.
        -13    1    4    4    0    0  0.18554813547E+03  0.39893042074E+02 -0.11670905167E+03  0.22280163403E+03  0.00000000000E+00 0.  1.
         14    1    4    4    0    0  0.62805251968E+02 -0.33192930773E+02 -0.58012667390E+02  0.91715537973E+02  0.00000000000E+00 0. -1.
          5    1    3    3  501    0 -0.10353709081E+03  0.92399451577E+02 -0.20882986592E+03  0.25077797098E+03  0.47000000000E+01 0.  1.
         -5    1    3    3    0  501 -0.15108228340E+03  0.22704563822E+02 -0.91956055335E+02  0.17837981861E+03  0.47000000000E+01 0.  1.
          1    1    1    2  502    0  0.27351964195E+03 -0.22061242249E+03 -0.26999457224E+04  0.27227173448E+04  0.00000000000E+00 0. -1.
          1    1    1    2  503    0 -0.25505313909E+03 -0.22937857531E+03  0.33940441106E+04  0.34113343517E+04  0.00000000000E+00 0. -1.
<mgrwt>
<rscale>  0 0.31023089E+03</rscale>
<asrwt>0</asrwt>
<pdfrwt beam="1">  1        2 0.56310447E+00 0.30388385E+03</pdfrwt>
<pdfrwt beam="2">  1        2 0.50472515E+00 0.31671049E+03</pdfrwt>
<totfact> 0.16720536E-01</totfact>
</mgrwt>
</event>
<event>
13    1  0.3019759E-008  0.2437241E+03  0.7546771E-02  0.1322725E+00
          2   -1    0    0  503    0  0.00000000000E+00  0.00000000000E+00  0.18270474124E+04  0.18270474124E+04  0.00000000000E+00 0. -1.
          2   -1    0    0  502    0 -0.00000000000E+00 -0.00000000000E+00 -0.78203587707E+03  0.78203587707E+03  0.00000000000E+00 0. -1.
         25    2    1    2    0    0  0.18799128108E+03 -0.22397907987E+02 -0.17909120898E+03  0.28903515975E+03  0.12500109758E+03 0.  0.
         24    2    1    2    0    0  0.20463768301E+03 -0.16037091842E+03 -0.63895572901E+02  0.27956011016E+03  0.80472344177E+02 0.  0.
         24    2    1    2    0    0 -0.17554315635E+03  0.18823420051E+03  0.23474223762E+03  0.35913571660E+03  0.87332873704E+02 0.  0.
        -11    1    4    4    0    0  0.12524211691E+03 -0.57464944776E+02 -0.78573592496E+01  0.13802009209E+03  0.00000000000E+00 0.  1.
         12    1    4    4    0    0  0.79395566100E+02 -0.10290597364E+03 -0.56038213652E+02  0.14154001807E+03  0.00000000000E+00 0. -1.
        -11    1    5    5    0    0 -0.76463317542E+02  0.72820466746E+02  0.15456555792E+03  0.18718966585E+03  0.00000000000E+00 0.  1.
         12    1    5    5    0    0 -0.99079838804E+02  0.11541373377E+03  0.80176679707E+02  0.17194605075E+03  0.00000000000E+00 0. -1.
          5    1    3    3  501    0  0.10885928376E+03 -0.73075909938E+02 -0.87283013585E+02  0.15757806552E+03  0.47000000000E+01 0. -1.
         -5    1    3    3    0  501  0.79131997317E+02  0.50678001952E+02 -0.91808195395E+02  0.13145709423E+03  0.47000000000E+01 0. -1.
          1    1    1    2  502    0  0.26958150498E+02  0.66735043291E+01 -0.30249041020E+03  0.30376261422E+03  0.00000000000E+00 0. -1.
          1    1    1    2  503    0 -0.24404395824E+03 -0.12138878439E+02  0.13557464898E+04  0.13775896887E+04  0.00000000000E+00 0. -1.
<mgrwt>
<rscale>  0 0.82271974E+02</rscale>
<asrwt>0</asrwt>
<pdfrwt beam="1">  1        2 0.26868344E+00 0.24372411E+03</pdfrwt>
<pdfrwt beam="2">  1        2 0.11500528E+00 0.27771884E+02</pdfrwt>
<totfact> 0.66590857E+01</totfact>
</mgrwt>
</event>
<event>
13    1  0.3019759E-008  0.3209562E+02  0.7546771E-02  0.1767977E+00
          2   -1    0    0  503    0  0.00000000000E+00  0.00000000000E+00  0.12248728047E+04  0.12248728047E+04  0.00000000000E+00 0. -1.
          2   -1    0    0  502    0 -0.00000000000E+00 -0.00000000000E+00 -0.37394511825E+04  0.37394511825E+04  0.00000000000E+00 0. -1.
         25    2    1    2    0    0  0.11841661033E+03  0.19062618287E+01 -0.12412919670E+04  0.12531791223E+04  0.12500415072E+03 0.  0.
         24    2    1    2    0    0 -0.27901287809E+02  0.62075195552E+02 -0.22914407508E+03  0.25020496987E+03  0.73916899540E+02 0.  0.
         24    2    1    2    0    0 -0.95075847321E+02 -0.25400550841E+02  0.14721263806E+03  0.19383327459E+03  0.78836367267E+02 0.  0.
        -13    1    5    5    0    0 -0.72759888469E+02  0.16412476224E+02  0.64994802444E+02  0.98932780667E+02  0.00000000000E+00 0.  1.
         14    1    5    5    0    0 -0.22315958851E+02 -0.41813027065E+02  0.82217835621E+02  0.94900493919E+02  0.00000000000E+00 0. -1.
        -13    1    4    4    0    0 -0.23038228115E+01 -0.15909652722E+02 -0.61212595967E+02  0.63288281335E+02  0.00000000000E+00 0.  1.
         14    1    4    4    0    0 -0.25597464997E+02  0.77984848274E+02 -0.16793147911E+03  0.18691668853E+03  0.00000000000E+00 0. -1.
          5    1    3    3  501    0  0.14067843614E+03  0.21211921820E+02 -0.10318176228E+04  0.10415901616E+04  0.47000000000E+01 0.  1.
         -5    1    3    3    0  501 -0.22261825805E+02 -0.19305659991E+02 -0.20947434423E+03  0.21158896069E+03  0.47000000000E+01 0.  1.
          1    1    1    2  502    0 -0.42796404407E+01 -0.31805567478E+02 -0.22290854100E+04  0.22293164142E+04  0.00000000000E+00 0. -1.
          1    1    1    2  503    0  0.88401652379E+01 -0.67753390616E+01  0.10377304363E+04  0.10377902062E+04  0.00000000000E+00 0. -1.
<mgrwt>
<rscale>  0 0.18907119E+02</rscale>
<asrwt>0</asrwt>
<pdfrwt beam="1">  1        2 0.18012835E+00 0.11137941E+02</pdfrwt>
<pdfrwt beam="2">  1        2 0.54991929E+00 0.32095620E+02</pdfrwt>
<totfact> 0.55121428E+00</totfact>
</mgrwt>
</event>
<event>
13    1  0.3019759E-008  0.1946833E+02  0.7546771E-02  0.1793974E+00
          2   -1    0    0  502    0  0.00000000000E+00  0.00000000000E+00  0.14847404454E+04  0.14847404454E+04  0.00000000000E+00 0. -1.
          2   -1    0    0  503    0 -0.00000000000E+00 -0.00000000000E+00 -0.36475862157E+03  0.36475862157E+03  0.00000000000E+00 0. -1.
         25    2    1    2    0    0  0.18404586549E+02  0.16427607467E+01 -0.15232517118E+03  0.19791458954E+03  0.12500319798E+03 0.  0.
         24    2    1    2    0    0 -0.22352808907E+02 -0.26362522558E+02  0.18461496454E+03  0.20353057761E+03  0.78405230873E+02 0.  0.
         24    2    1    2    0    0 -0.94026723257E+01 -0.80697130721E+01  0.17967710099E+03  0.19610150616E+03  0.77578409256E+02 0.  0.
        -11    1    5    5    0    0  0.19769679681E+02 -0.30287972055E+02  0.52571016947E+02  0.63811545262E+02  0.00000000000E+00 0.  1.
         12    1    5    5    0    0 -0.29172352007E+02  0.22218258983E+02  0.12710608405E+03  0.13228996090E+03  0.00000000000E+00 0. -1.
        -13    1    4    4    0    0 -0.56829756191E+01  0.10470603791E+02  0.14951891373E+03  0.14999278422E+03  0.00000000000E+00 0.  1.
         14    1    4    4    0    0 -0.16669833288E+02 -0.36833126348E+02  0.35096050812E+02  0.53537793390E+02  0.00000000000E+00 0. -1.
          5    1    3    3  501    0  0.62328731626E+02  0.11507751129E+02 -0.13542903492E+03  0.14960084432E+03  0.47000000000E+01 0. -1.
         -5    1    3    3    0  501 -0.43924145077E+02 -0.98649903821E+01 -0.16896136261E+02  0.48313745213E+02  0.47000000000E+01 0. -1.
          1    1    1    2  502    0  0.53281672037E+01  0.18717589083E+02  0.10795143251E+04  0.10796897312E+04  0.00000000000E+00 0. -1.
          1    1    1    2  503    0  0.80227274797E+01  0.14071885800E+02 -0.17149939571E+03  0.17226266239E+03  0.00000000000E+00 0. -1.
<mgrwt>
<rscale>  0 0.17758159E+02</rscale>
<asrwt>0</asrwt>
<pdfrwt beam="1">  1        2 0.21834418E+00 0.19468332E+02</pdfrwt>
<pdfrwt beam="2">  1        2 0.53640974E-01 0.16198214E+02</pdfrwt>
<totfact> 0.26541776E+02</totfact>
</mgrwt>
</event>
<event>
13    1  0.3019759E-008  0.1886363E+03  0.7546771E-02  0.1337687E+00
          2   -1    0    0  503    0  0.00000000000E+00  0.00000000000E+00  0.79148272926E+03  0.79148272926E+03  0.00000000000E+00 0. -1.
          2   -1    0    0  502    0 -0.00000000000E+00 -0.00000000000E+00 -0.34667789578E+04  0.34667789578E+04  0.00000000000E+00 0. -1.
         25    2    1    2    0    0  0.10251247418E+03 -0.10808235839E+03 -0.22890110256E+04  0.22972566581E+04  0.12500429659E+03 0.  0.
         24    2    1    2    0    0  0.63258885990E+02 -0.11167775219E+03  0.74111111621E+02  0.16904487330E+03  0.81302554275E+02 0.  0.
         24    2    1    2    0    0 -0.11543284662E+03 -0.51620776733E+02  0.46494625217E+02  0.15685351630E+03  0.80323276393E+02 0.  0.
        -11    1    5    5    0    0 -0.52112421177E+02 -0.61203807352E+02  0.49902769706E+01  0.80538893334E+02  0.00000000000E+00 0.  1.
         12    1    5    5    0    0 -0.63320425444E+02  0.95830306187E+01  0.41504348247E+02  0.76314622961E+02  0.00000000000E+00 0. -1.
        -13    1    4    4    0    0  0.75785714196E+02 -0.11156467660E+03  0.78157119488E+02  0.15588036075E+03  0.00000000000E+00 0.  1.
         14    1    4    4    0    0 -0.12526828206E+02 -0.11307559353E+00 -0.40460078671E+01  0.13164512549E+02  0.00000000000E+00 0. -1.
          5    1    3    3  501    0  0.23038831498E+02 -0.77301796705E+01 -0.64896735941E+02  0.69456603504E+02  0.47000000000E+01 0. -1.
         -5    1    3    3    0  501  0.79473642682E+02 -0.10035217872E+03 -0.22241142896E+04  0.22278000546E+04  0.47000000000E+01 0. -1.
          1    1    1    2  502    0 -0.21541695040E+02  0.22925463074E+02 -0.10430250748E+04  0.10434993666E+04  0.00000000000E+00 0. -1.
          1    1    1    2  503    0 -0.28796818508E+02  0.24845542424E+03  0.53613413496E+03  0.59160727283E+03  0.00000000000E+00 0. -1.
<mgrwt>
<rscale>  0 0.77033560E+02</rscale>
<asrwt>0</asrwt>
<pdfrwt beam="1">  1        2 0.11639452E+00 0.18863635E+03</pdfrwt>
<pdfrwt beam="2">  1        2 0.50982042E+00 0.31458250E+02</pdfrwt>
<totfact> 0.11950696E+01</totfact>
</mgrwt>
</event>
<event>
13    1  0.3019759E-008  0.1136864E+03  0.7546771E-02  0.1278522E+00
          2   -1    0    0  503    0  0.00000000000E+00  0.00000000000E+00  0.37963081700E+04  0.37963081700E+04  0.00000000000E+00 0. -1.
          2   -1    0    0  502    0 -0.00000000000E+00 -0.00000000000E+00 -0.80244368669E+03  0.80244368669E+03  0.00000000000E+00 0. -1.
         25    2    1    2    0    0 -0.13600545272E+03  0.39558390507E+02  0.34276315322E+02  0.19204348280E+03  0.12507391441E+03 0.  0.
         24    2    1    2    0    0  0.21333584845E+03  0.20006747224E+02  0.77132343704E+02  0.24104087784E+03  0.78986405016E+02 0.  0.
         24    2    1    2    0    0 -0.32641391330E+01 -0.81722018340E+02  0.56997805005E+03  0.58144855109E+03  0.80735971742E+02 0.  0.
        -11    1    4    4    0    0 -0.44552175781E+00  0.12578099521E+02 -0.24204804918E+01  0.12816622137E+02  0.00000000000E+00 0.  1.
         12    1    4    4    0    0  0.21378137021E+03  0.74286477031E+01  0.79552824196E+02  0.22822425570E+03  0.00000000000E+00 0. -1.
        -11    1    5    5    0    0 -0.21417599321E+02  0.41679009930E+01  0.20054023204E+03  0.20172374582E+03  0.00000000000E+00 0.  1.
         12    1    5    5    0    0  0.18153460188E+02 -0.85889919333E+02  0.36943781801E+03  0.37972480527E+03  0.00000000000E+00 0. -1.
          5    1    3    3  501    0 -0.13710794920E+03  0.39426622572E+02 -0.14091303264E+02  0.14343536220E+03  0.47000000000E+01 0. -1.
         -5    1    3    3    0  501  0.11024964780E+01  0.13176793419E+00  0.48367618586E+02  0.48608120607E+02  0.47000000000E+01 0. -1.
          1    1    1    2  502    0 -0.31504352076E+02 -0.83729614062E+02 -0.63161308043E+03  0.63791712302E+03  0.00000000000E+00 0. -1.
          1    1    1    2  503    0 -0.42561904518E+02  0.10588649467E+03  0.29440908547E+04  0.29463018220E+04  0.00000000000E+00 0. -1.
<mgrwt>
<rscale>  0 0.10084857E+03</rscale>
<asrwt>0</asrwt>
<pdfrwt beam="1">  1        2 0.55828061E+00 0.11368637E+03</pdfrwt>
<pdfrwt beam="2">  1        2 0.11800643E+00 0.89460452E+02</pdfrwt>
<totfact> 0.59281791E+00</totfact>
</mgrwt>
</event>
<event>
13    1  0.3019759E-008  0.1261082E+03  0.7546771E-02  0.1321328E+00
          2   -1    0    0  503    0  0.00000000000E+00  0.00000000000E+00  0.15344236002E+04  0.15344236002E+04  0.00000000000E+00 0. -1.
          2   -1    0    0  502    0 -0.00000000000E+00 -0.00000000000E+00 -0.10590590624E+04  0.10590590624E+04  0.00000000000E+00 0. -1.
         25    2    1    2    0    0 -0.12545355034E+03 -0.18599790344E+03 -0.21967333307E+03  0.33795868604E+03  0.12500354728E+03 0.  0.
         24    2    1    2    0    0  0.50391366823E+02 -0.11875422273E+02  0.20472677824E+03  0.22600899990E+03  0.80540044712E+02 0.  0.
         24    2    1    2    0    0 -0.53306785069E+02  0.91792565741E+02  0.32990934981E+03  0.35573138971E+03  0.80231876910E+02 0.  0.
        -11    1    4    4    0    0  0.45717327047E+02 -0.38479973105E+02  0.17898117308E+03  0.18869298513E+03  0.00000000000E+00 0.  1.
         12    1    4    4    0    0  0.46740397764E+01  0.26604550832E+02  0.25745605163E+02  0.37316014766E+02  0.00000000000E+00 0. -1.
        -11    1    5    5    0    0  0.19027377490E+02  0.27301050372E+02  0.12005345188E+03  0.12458017400E+03  0.00000000000E+00 0.  1.
         12    1    5    5    0    0 -0.72334162559E+02  0.64491515369E+02  0.20985589793E+03  0.23115121571E+03  0.00000000000E+00 0. -1.
          5    1    3    3  501    0  0.82082217553E+01 -0.94653374089E+01  0.11623846402E+02  0.17724878612E+02  0.47000000000E+01 0.  1.
         -5    1    3    3    0  501 -0.13366177210E+03 -0.17653256603E+03 -0.23129717947E+03  0.32023380743E+03  0.47000000000E+01 0.  1.
          1    1    1    2  502    0  0.30745603564E+01  0.54258612984E+02 -0.75069170745E+03  0.75265628918E+03  0.00000000000E+00 0. -1.
          1    1    1    2  503    0  0.12529440823E+03  0.51822146985E+02  0.91109345028E+03  0.92112729782E+03  0.00000000000E+00 0. -1.
<mgrwt>
<rscale>  0 0.82785462E+02</rscale>
<asrwt>0</asrwt>
<pdfrwt beam="1">  1        2 0.22565053E+00 0.12610820E+03</pdfrwt>
<pdfrwt beam="2">  1        2 0.15574398E+00 0.54345653E+02</pdfrwt>
<totfact> 0.66120259E+01</totfact>
</mgrwt>
</event>
<event>
13    1  0.3019759E-008  0.1190541E+03  0.7546771E-02  0.1370540E+00
          2   -1    0    0  503    0  0.00000000000E+00  0.00000000000E+00  0.16070209395E+04  0.16070209395E+04  0.00000000000E+00 0. -1.
         -1   -1    0    0    0  501 -0.00000000000E+00 -0.00000000000E+00 -0.85789754668E+03  0.85789754668E+03  0.00000000000E+00 0.  1.
         25    2    1    2    0    0  0.80706325902E+02  0.50316212311E+02  0.25740745236E+02  0.15913280649E+03  0.12496172164E+03 0.  0.
         24    2    1    2    0    0  0.29106760294E+03 -0.25931619577E+03  0.30902441565E+03  0.50066238239E+03  0.56581735606E+02 0.  0.
         24    2    1    2    0    0 -0.27542478733E+03  0.12759689155E+03  0.99341414865E+03  0.10417576523E+04  0.79041477467E+02 0.  0.
        -11    1    5    5    0    0 -0.17069020836E+03  0.55647834542E+02  0.46950972373E+03  0.50266411191E+03  0.00000000000E+00 0.  1.
         12    1    5    5    0    0 -0.10473457897E+03  0.71949057004E+02  0.52390442492E+03  0.53909354039E+03  0.00000000000E+00 0. -1.
        -11    1    4    4    0    0  0.20374638561E+03 -0.17324716063E+03  0.24326906879E+03  0.36153424201E+03  0.00000000000E+00 0.  1.
         12    1    4    4    0    0  0.87321217325E+02 -0.86069035134E+02  0.65755346864E+02  0.13912814038E+03  0.00000000000E+00 0. -1.
          5    1    3    3  502    0  0.47052694225E+01  0.36862258223E+02  0.63003315060E+02  0.73297157858E+02  0.47000000000E+01 0. -1.
         -5    1    3    3    0  502  0.76001056480E+02  0.13453954088E+02 -0.37262569824E+02  0.85835648635E+02  0.47000000000E+01 0. -1.
          1    1    1    2  503    0 -0.32533988342E+02 -0.19097652139E+02  0.82746673397E+02  0.90940599695E+02  0.00000000000E+00 0. -1.
         -2    1    1    2    0  501 -0.63815153169E+02  0.10050074405E+03 -0.66180259010E+03  0.67242504533E+03  0.00000000000E+00 0.  1.
<mgrwt>
<rscale>  0 0.67017350E+02</rscale>
<asrwt>0</asrwt>
<pdfrwt beam="1">  1        2 0.23632661E+00 0.37725067E+02</pdfrwt>
<pdfrwt beam="2">  1       -1 0.12616140E+00 0.11905413E+03</pdfrwt>
<totfact> 0.10938398E+01</totfact>
</mgrwt>
</event>
<event>
13    1  0.3019759E-008  0.1123788E+03  0.7546771E-02  0.1257847E+00
          2   -1    0    0  502    0  0.00000000000E+00  0.00000000000E+00  0.46050098067E+03  0.46050098067E+03  0.00000000000E+00 0. -1.
          2   -1    0    0  503    0 -0.00000000000E+00 -0.00000000000E+00 -0.41189787932E+04  0.41189787932E+04  0.00000000000E+00 0. -1.
         25    2    1    2    0    0 -0.97161320230E+02 -0.35083999174E+02 -0.50983623297E+03  0.53500273289E+03  0.12499492227E+03 0.  0.
         24    2    1    2    0    0  0.70420963121E+02 -0.94575254481E+02 -0.33935130821E+02  0.14664998625E+03  0.80318332626E+02 0.  0.
         24    2    1    2    0    0  0.21501948444E+02  0.12781143507E+03 -0.28615312598E+02  0.15259811414E+03  0.75294432747E+02 0.  0.
        -11    1    5    5    0    0 -0.25823576565E+02  0.61925271374E+02 -0.24310771719E+02  0.71362524920E+02  0.00000000000E+00 0.  1.
         12    1    5    5    0    0  0.47325525009E+02  0.65886163699E+02 -0.43045408790E+01  0.81235589224E+02  0.00000000000E+00 0. -1.
        -11    1    4    4    0    0  0.53216080689E+02 -0.68262576216E+02 -0.60408098219E+02  0.10555031448E+03  0.00000000000E+00 0.  1.
         12    1    4    4    0    0  0.17204882432E+02 -0.26312678265E+02  0.26472967398E+02  0.41099671772E+02  0.00000000000E+00 0. -1.
          5    1    3    3  501    0 -0.84250093883E+02 -0.78465449414E+02 -0.39551587317E+03  0.41195849427E+03  0.47000000000E+01 0.  1.
         -5    1    3    3    0  501 -0.12911226347E+02  0.43381450240E+02 -0.11432035980E+03  0.12304423861E+03  0.47000000000E+01 0.  1.
          1    1    1    2  502    0  0.95709725451E+02 -0.61763186999E+02  0.31880173985E+03  0.33854038481E+03  0.00000000000E+00 0. -1.
          1    1    1    2  503    0 -0.90471316786E+02  0.63611005580E+02 -0.34048928760E+04  0.34066885558E+04  0.00000000000E+00 0. -1.
<mgrwt>
<rscale>  0 0.11148371E+03</rscale>
<asrwt>0</asrwt>
<pdfrwt beam="1">  1        2 0.67720734E-01 0.11237881E+03</pdfrwt>
<pdfrwt beam="2">  1        2 0.60573216E+00 0.11059575E+03</pdfrwt>
<totfact> 0.67479908E+00</totfact>
</mgrwt>
</event>
<event>
13    1  0.3019759E-008  0.3808146E+02  0.7546771E-02  0.1537897E+00
         -1   -1    0    0    0  501 -0.00000000000E+00  0.00000000000E+00  0.14397146592E+03  0.14397146592E+03  0.00000000000E+00 0.  1.
          2   -1    0    0  503    0  0.00000000000E+00 -0.00000000000E+00 -0.15554018365E+04  0.15554018365E+04  0.00000000000E+00 0. -1.
         25    2    1    2    0    0 -0.66298682746E+02 -0.15785366694E+02 -0.15876213902E+03  0.21324880681E+03  0.12499977474E+03 0.  0.
         24    2    1    2    0    0  0.37146349300E+02 -0.62431897120E+01 -0.15180312374E+03  0.17683891163E+03  0.82516565651E+02 0.  0.
         24    2    1    2    0    0  0.36904684407E+02  0.20440623820E+02 -0.15362677959E+03  0.18049702121E+03  0.84842279700E+02 0.  0.
        -11    1    5    5    0    0  0.30405600182E+02  0.53160411995E+02 -0.94502570765E+02  0.11261112648E+03  0.00000000000E+00 0.  1.
         12    1    5    5    0    0  0.64990842250E+01 -0.32719788174E+02 -0.59124208828E+02  0.67885894731E+02  0.00000000000E+00 0. -1.
        -13    1    4    4    0    0 -0.20780343909E+02 -0.14439306691E+02 -0.18757521188E+02  0.31498585235E+02  0.00000000000E+00 0.  1.
         14    1    4    4    0    0  0.57926693208E+02  0.81961169792E+01 -0.13304560255E+03  0.14534032640E+03  0.00000000000E+00 0. -1.
          5    1    3    3  502    0  0.16882535693E+02 -0.43792057023E+02 -0.90151290375E+02  0.10174531648E+03  0.47000000000E+01 0.  1.
         -5    1    3    3    0  502 -0.83181218439E+02  0.28006690329E+02 -0.68610848646E+02  0.11150349033E+03  0.47000000000E+01 0.  1.
          1    1    1    2  503    0  0.72167839747E+01 -0.33714733927E+02 -0.10336637107E+04  0.10342385760E+04  0.00000000000E+00 0. -1.
         -2    1    1    2    0  501 -0.14969134936E+02  0.35302666513E+02  0.86425382471E+02  0.94549986774E+02  0.00000000000E+00 0.  1.
<mgrwt>
<rscale>  0 0.36235214E+02</rscale>
<asrwt>0</asrwt>
<pdfrwt beam="2">  1        2 0.22873558E+00 0.34478475E+02</pdfrwt>
<pdfrwt beam="1">  1       -1 0.21172273E-01 0.38081461E+02</pdfrwt>
<totfact> 0.32276288E+02</totfact>
</mgrwt>
</event>
<event>
13    1  0.3019759E-008  0.7438464E+02  0.7546771E-02  0.1391905E+00
          2   -1    0    0  502    0  0.00000000000E+00  0.00000000000E+00  0.19095813561E+04  0.19095813561E+04  0.00000000000E+00 0. -1.
          2   -1    0    0  503    0 -0.00000000000E+00 -0.00000000000E+00 -0.14212783239E+04  0.14212783239E+04  0.00000000000E+00 0. -1.
         25    2    1    2    0    0  0.20692956568E+03  0.22277656903E+03 -0.79330374748E+03  0.85872438405E+03  0.12500994816E+03 0.  0.
         24    2    1    2    0    0 -0.24782453323E+03 -0.32632000544E+01  0.52228573305E+03  0.58371796837E+03  0.80725658254E+02 0.  0.
         24    2    1    2    0    0  0.71488352983E+02 -0.16252360736E+03  0.23524917920E+03  0.30568720400E+03  0.81104764439E+02 0.  0.
        -11    1    4    4    0    0 -0.18403343319E+03  0.28872849863E+02  0.41420301938E+03  0.45416526425E+03  0.00000000000E+00 0.  1.
         12    1    4    4    0    0 -0.63791100046E+02 -0.32136049917E+02  0.10808271368E+03  0.12955270412E+03  0.00000000000E+00 0. -1.
        -11    1    5    5    0    0  0.67538668404E+02 -0.15572859988E+03  0.17094563546E+03  0.24090512413E+03  0.00000000000E+00 0.  1.
         12    1    5    5    0    0  0.39496845796E+01 -0.67950074822E+01  0.64303543738E+02  0.64782079870E+02  0.00000000000E+00 0. -1.
          5    1    3    3  501    0  0.12723055711E+03  0.17051332008E+03 -0.66892761179E+03  0.70196057354E+03  0.47000000000E+01 0.  1.
         -5    1    3    3    0  501  0.79699008568E+02  0.52263248953E+02 -0.12437613569E+03  0.15676381052E+03  0.47000000000E+01 0.  1.
          1    1    1    2  502    0 -0.70062189012E+02 -0.25102756442E+02  0.10508659660E+04  0.10534980480E+04  0.00000000000E+00 0. -1.
          1    1    1    2  503    0  0.39468803584E+02 -0.31887005173E+02 -0.52679409856E+03  0.52923207559E+03  0.00000000000E+00 0. -1.
<mgrwt>
<rscale>  0 0.61435261E+02</rscale>
<asrwt>0</asrwt>
<pdfrwt beam="1">  1        2 0.28082079E+00 0.74384641E+02</pdfrwt>
<pdfrwt beam="2">  1        2 0.20901152E+00 0.50740197E+02</pdfrwt>
<totfact> 0.29976961E+01</totfact>
</mgrwt>
</event>
